<event>
 8    1  0.1118868E+005  0.1043930E+01  0.7957747E-01            NaN
         13   -1    0    0    0    0  0.00000000000E+00  0.00000000000E+00  0.74505805969E-08  0.10566000000E+00  0.10566000000E+00 0.  1.
     999900   -1    0    0    0    0 -0.00000000000E+00 -0.00000000000E+00 -0.74505805969E-08  0.93827000000E+00  0.93827000000E+00 0.  1.
     999902    2    1    2    0    0  0.42558611421E-02 -0.78007789843E-02 -0.21143042583E-01  0.10209954680E+01  0.10207378473E+01 0.  0.
     999903    2    3    3    0    0  0.43719411849E-01 -0.84444843980E-01 -0.92169599738E-01  0.13393489719E+00  0.20025057326E-01 0.  0.
         14    1    1    2    0    0 -0.42558611421E-02  0.78007789843E-02  0.21143042583E-01  0.22934531966E-01  0.00000000000E+00 0.  1.
     999901    1    3    3    0    0 -0.39463550707E-01  0.76644064996E-01  0.71026557155E-01  0.88706057085E+00  0.88000000000E+00 0. -1.
        -11    1    4    4    0    0  0.17717355085E-01 -0.52102272491E-01 -0.60059628209E-01  0.81461472682E-01  0.51100000000E-03 0. -1.
         11    1    4    4    0    0  0.26002056765E-01 -0.32342571489E-01 -0.32109971529E-01  0.52473424504E-01  0.51100000000E-03 0.  1.
</event>
<event>
 8    1  0.1118868E+005  0.1043930E+01  0.7957747E-01            NaN
         13   -1    0    0    0    0  0.00000000000E+00  0.00000000000E+00  0.74505805969E-08  0.10566000000E+00  0.10566000000E+00 0.  1.
     999900   -1    0    0    0    0 -0.00000000000E+00 -0.00000000000E+00 -0.74505805969E-08  0.93827000000E+00  0.93827000000E+00 0. -1.
     999902    2    1    2    0    0  0.73022731505E-02  0.18378816686E-01  0.12996485589E-01  0.10202654118E+01  0.10199909303E+01 0.  0.
     999903    2    3    3    0    0  0.93194140556E-01  0.84723935110E-02 -0.87810106499E-01  0.13030051414E+00  0.22598227691E-01 0.  0.
         14    1    1    2    0    0 -0.73022731505E-02 -0.18378816686E-01 -0.12996485589E-01  0.23664588178E-01  0.00000000000E+00 0.  1.
     999901    1    3    3    0    0 -0.85891867405E-01  0.99064231753E-02  0.10080659209E+00  0.88996489769E+00  0.88000000000E+00 0.  1.
        -11    1    4    4    0    0  0.73635412482E-01  0.11366464795E-01 -0.79169246949E-01  0.10871706985E+00  0.51100000000E-03 0. -1.
         11    1    4    4    0    0  0.19558728073E-01 -0.28940712838E-02 -0.86408595507E-02  0.21583444285E-01  0.51100000000E-03 0.  1.
</event>
<event>
 8    1  0.1118868E+005  0.1043930E+01  0.7957747E-01            NaN
         13   -1    0    0    0    0  0.00000000000E+00  0.00000000000E+00  0.74505805969E-08  0.10566000000E+00  0.10566000000E+00 0.  1.
     999900   -1    0    0    0    0 -0.00000000000E+00 -0.00000000000E+00 -0.74505805969E-08  0.93827000000E+00  0.93827000000E+00 0.  1.
     999902    2    1    2    0    0 -0.69237358498E-02  0.22923827118E-01  0.99095723271E-03  0.10199628983E+01  0.10196812698E+01 0.  0.
     999903    2    3    3    0    0  0.75462470922E-02  0.12688580909E+00 -0.30667051789E-01  0.13315981777E+00  0.25181632359E-01 0.  0.
         14    1    1    2    0    0  0.69237358498E-02 -0.22923827118E-01 -0.99095723271E-03  0.23967101704E-01  0.00000000000E+00 0. -1.
     999901    1    3    3    0    0 -0.14469982942E-01 -0.10396198197E+00  0.31658009021E-01  0.88680308053E+00  0.88000000000E+00 0.  1.
        -11    1    4    4    0    0 -0.89611348947E-02  0.43733217791E-01 -0.74577361444E-02  0.45263398308E-01  0.51100000000E-03 0.  1.
         11    1    4    4    0    0  0.16507381987E-01  0.83152591299E-01 -0.23209315644E-01  0.87896419458E-01  0.51100000000E-03 0. -1.
</event>
<event>
 8    1  0.1118868E+005  0.1043930E+01  0.7957747E-01            NaN
         13   -1    0    0    0    0  0.00000000000E+00  0.00000000000E+00  0.74505805969E-08  0.10566000000E+00  0.10566000000E+00 0. -1.
     999900   -1    0    0    0    0 -0.00000000000E+00 -0.00000000000E+00 -0.74505805969E-08  0.93827000000E+00  0.93827000000E+00 0.  1.
     999902    2    1    2    0    0 -0.60418110506E-03 -0.14514448501E-01  0.19008055650E-01  0.10200063625E+01  0.10197257667E+01 0.  0.
     999903    2    3    3    0    0  0.71664615505E-01 -0.88526301307E-01 -0.59776901874E-01  0.13045164086E+00  0.21717031713E-01 0.  0.
         14    1    1    2    0    0  0.60418110506E-03  0.14514448501E-01 -0.19008055650E-01  0.23923637468E-01  0.00000000000E+00 0.  1.
     999901    1    3    3    0    0 -0.72268796610E-01  0.74011852806E-01  0.78784957524E-01  0.88955472167E+00  0.88000000000E+00 0. -1.
        -11    1    4    4    0    0  0.48517307715E-01 -0.43453764412E-01 -0.30381802444E-01  0.71871230894E-01  0.51100000000E-03 0. -1.
         11    1    4    4    0    0  0.23147307790E-01 -0.45072536895E-01 -0.29395099430E-01  0.58580409964E-01  0.51100000000E-03 0.  1.
</event>
<event>
 8    1  0.1118868E+005  0.1043930E+01  0.7957747E-01            NaN
         13   -1    0    0    0    0  0.00000000000E+00  0.00000000000E+00  0.74505805969E-08  0.10566000000E+00  0.10566000000E+00 0. -1.
     999900   -1    0    0    0    0 -0.00000000000E+00 -0.00000000000E+00 -0.74505805969E-08  0.93827000000E+00  0.93827000000E+00 0. -1.
     999902    2    1    2    0    0 -0.20267708589E-01 -0.68451476972E-02  0.87686410986E-02  0.10208102006E+01  0.10205483528E+01 0.  0.
     999903    2    3    3    0    0 -0.33531621373E-01 -0.12603410197E+00  0.14072318961E-01  0.13266040060E+00  0.19793616017E-01 0.  0.
         14    1    1    2    0    0  0.20267708589E-01  0.68451476972E-02 -0.87686410986E-02  0.23119799419E-01  0.00000000000E+00 0.  1.
     999901    1    3    3    0    0  0.13263912783E-01  0.11918895428E+00 -0.53036778628E-02  0.88814979998E+00  0.88000000000E+00 0.  1.
        -11    1    4    4    0    0 -0.24557325611E-01 -0.93585271762E-01  0.19082619928E-01  0.98618825973E-01  0.51100000000E-03 0. -1.
         11    1    4    4    0    0 -0.89742957618E-02 -0.32448830211E-01 -0.50103009671E-02  0.34041574629E-01  0.51100000000E-03 0.  1.
</event>
<event>
 8    1  0.1118868E+005  0.1043930E+01  0.7957747E-01            NaN
         13   -1    0    0    0    0  0.00000000000E+00  0.00000000000E+00  0.74505805969E-08  0.10566000000E+00  0.10566000000E+00 0. -1.
     999900   -1    0    0    0    0 -0.00000000000E+00 -0.00000000000E+00 -0.74505805969E-08  0.93827000000E+00  0.93827000000E+00 0. -1.
     999902    2    1    2    0    0  0.11708712500E-01 -0.12402341278E-01 -0.16842955710E-01  0.10199592433E+01  0.10196775279E+01 0.  0.
     999903    2    3    3    0    0 -0.85010708513E-01 -0.89236417813E-01  0.35169400621E-01  0.12981127422E+00  0.20594206703E-01 0.  0.
         14    1    1    2    0    0 -0.11708712500E-01  0.12402341278E-01  0.16842955710E-01  0.23970756655E-01  0.00000000000E+00 0. -1.
     999901    1    3    3    0    0  0.96719421013E-01  0.76834076535E-01 -0.52012356331E-01  0.89014796912E+00  0.88000000000E+00 0. -1.
        -11    1    4    4    0    0 -0.16239860671E-01 -0.12396260730E-01 -0.11795171490E-02  0.20470777621E-01  0.51100000000E-03 0.  1.
         11    1    4    4    0    0 -0.68770847842E-01 -0.76840157083E-01  0.36348917770E-01  0.10934049660E+00  0.51100000000E-03 0. -1.
</event>
<event>
 8    1  0.1118868E+005  0.1043930E+01  0.7957747E-01            NaN
         13   -1    0    0    0    0  0.00000000000E+00  0.00000000000E+00  0.74505805969E-08  0.10566000000E+00  0.10566000000E+00 0.  1.
     999900   -1    0    0    0    0 -0.00000000000E+00 -0.00000000000E+00 -0.74505805969E-08  0.93827000000E+00  0.93827000000E+00 0.  1.
     999902    2    1    2    0    0  0.15899245392E-01  0.80397091482E-02  0.17696820684E-01  0.10188182420E+01  0.10185087186E+01 0.  0.
     999903    2    3    3    0    0  0.99002614022E-01 -0.10274631769E-01  0.84784305030E-01  0.13217157308E+00  0.19335478012E-01 0.  0.
         14    1    1    2    0    0 -0.15899245392E-01 -0.80397091482E-02 -0.17696820684E-01  0.25111757994E-01  0.00000000000E+00 0. -1.
     999901    1    3    3    0    0 -0.83103368630E-01  0.18314340917E-01 -0.67087484346E-01  0.88664666893E+00  0.88000000000E+00 0.  1.
        -11    1    4    4    0    0  0.88259481114E-01 -0.89177199512E-02  0.66320822077E-01  0.11076088794E+00  0.51100000000E-03 0. -1.
         11    1    4    4    0    0  0.10743132908E-01 -0.13569118173E-02  0.18463482953E-01  0.21410685139E-01  0.51100000000E-03 0.  1.
</event>
<event>
 8    1  0.1118868E+005  0.1043930E+01  0.7957747E-01            NaN
         13   -1    0    0    0    0  0.00000000000E+00  0.00000000000E+00  0.74505805969E-08  0.10566000000E+00  0.10566000000E+00 0. -1.
     999900   -1    0    0    0    0 -0.00000000000E+00 -0.00000000000E+00 -0.74505805969E-08  0.93827000000E+00  0.93827000000E+00 0.  1.
     999902    2    1    2    0    0  0.16127147911E-01 -0.11420860481E-01  0.12981127461E-01  0.10202861715E+01  0.10200121770E+01 0.  0.
     999903    2    3    3    0    0  0.49663199903E-01  0.90419405456E-01 -0.75519878515E-01  0.12937173423E+00  0.19791191481E-01 0.  0.
         14    1    1    2    0    0 -0.16127147911E-01  0.11420860481E-01 -0.12981127461E-01  0.23643828455E-01  0.00000000000E+00 0.  1.
     999901    1    3    3    0    0 -0.33536051992E-01 -0.10184026594E+00  0.88501005976E-01  0.89091443731E+00  0.88000000000E+00 0. -1.
        -11    1    4    4    0    0  0.14564517063E-01  0.46991608789E-01 -0.34986544355E-01  0.60370985256E-01  0.51100000000E-03 0. -1.
         11    1    4    4    0    0  0.35098682840E-01  0.43427796668E-01 -0.40533334159E-01  0.69000748978E-01  0.51100000000E-03 0.  1.
</event>
<event>
 8    1  0.1118868E+005  0.1043930E+01  0.7957747E-01            NaN
         13   -1    0    0    0    0  0.00000000000E+00  0.00000000000E+00  0.74505805969E-08  0.10566000000E+00  0.10566000000E+00 0. -1.
     999900   -1    0    0    0    0 -0.00000000000E+00 -0.00000000000E+00 -0.74505805969E-08  0.93827000000E+00  0.93827000000E+00 0. -1.
     999902    2    1    2    0    0 -0.68766094863E-02  0.21991120117E-01  0.80971428854E-02  0.10195074521E+01  0.10192148861E+01 0.  0.
     999903    2    3    3    0    0  0.11147561742E+00 -0.27653691870E-01  0.55268356993E-01  0.12894752690E+00  0.19527761172E-01 0.  0.
         14    1    1    2    0    0  0.68766094863E-02 -0.21991120117E-01 -0.80971428854E-02  0.24422547880E-01  0.00000000000E+00 0. -1.
     999901    1    3    3    0    0 -0.11835222690E+00  0.49644811987E-01 -0.47171214108E-01  0.89055992522E+00  0.88000000000E+00 0. -1.
        -11    1    4    4    0    0  0.81291281415E-01 -0.22396302162E-01  0.30931007697E-01  0.89815673146E-01  0.51100000000E-03 0. -1.
         11    1    4    4    0    0  0.30184336001E-01 -0.52573897081E-02  0.24337349296E-01  0.39131853753E-01  0.51100000000E-03 0.  1.
</event>
<event>
 8    1  0.1118868E+005  0.1043930E+01  0.7957747E-01            NaN
         13   -1    0    0    0    0  0.00000000000E+00  0.00000000000E+00  0.74505805969E-08  0.10566000000E+00  0.10566000000E+00 0. -1.
     999900   -1    0    0    0    0 -0.00000000000E+00 -0.00000000000E+00 -0.74505805969E-08  0.93827000000E+00  0.93827000000E+00 0.  1.
     999902    2    1    2    0    0  0.18910723474E-02 -0.53394764540E-02 -0.22490313578E-01  0.10207373208E+01  0.10204738006E+01 0.  0.
     999903    2    3    3    0    0 -0.98114287395E-01  0.57339348454E-01  0.58116371448E-01  0.12920653348E+00  0.20064929419E-01 0.  0.
         14    1    1    2    0    0 -0.18910723474E-02  0.53394764540E-02  0.22490313578E-01  0.23192679196E-01  0.00000000000E+00 0. -1.
     999901    1    3    3    0    0  0.10000535974E+00 -0.62678824908E-01 -0.80606685026E-01  0.89153078732E+00  0.88000000000E+00 0.  1.
        -11    1    4    4    0    0 -0.68050888974E-02 -0.39084580990E-03  0.66767113688E-02  0.95551866047E-02  0.51100000000E-03 0. -1.
         11    1    4    4    0    0 -0.91309198497E-01  0.57730194264E-01  0.51439660079E-01  0.11965134688E+00  0.51100000000E-03 0.  1.
</event>
<event>
 8    1  0.1118868E+005  0.1043930E+01  0.7957747E-01            NaN
         13   -1    0    0    0    0  0.00000000000E+00  0.00000000000E+00  0.74505805969E-08  0.10566000000E+00  0.10566000000E+00 0. -1.
     999900   -1    0    0    0    0 -0.00000000000E+00 -0.00000000000E+00 -0.74505805969E-08  0.93827000000E+00  0.93827000000E+00 0. -1.
     999902    2    1    2    0    0 -0.14954330349E-01  0.17643412295E-01  0.55077221127E-02  0.10201548660E+01  0.10198777837E+01 0.  0.
     999903    2    3    3    0    0 -0.10720962748E+00 -0.54548135022E-01 -0.47327721072E-01  0.13082127089E+00  0.20121840754E-01 0.  0.
         14    1    1    2    0    0  0.14954330349E-01 -0.17643412295E-01 -0.55077221127E-02  0.23775133995E-01  0.00000000000E+00 0. -1.
     999901    1    3    3    0    0  0.92255297131E-01  0.72191547317E-01  0.52835443184E-01  0.88933359512E+00  0.88000000000E+00 0.  1.
        -11    1    4    4    0    0 -0.16058475833E-01 -0.22059845898E-02 -0.11054692493E-01  0.19626725687E-01  0.51100000000E-03 0.  1.
         11    1    4    4    0    0 -0.91151151647E-01 -0.52342150433E-01 -0.36273028579E-01  0.11119454520E+00  0.51100000000E-03 0. -1.
</event>
<event>
 8    1  0.1118868E+005  0.1043930E+01  0.7957747E-01            NaN
         13   -1    0    0    0    0  0.00000000000E+00  0.00000000000E+00  0.74505805969E-08  0.10566000000E+00  0.10566000000E+00 0.  1.
     999900   -1    0    0    0    0 -0.00000000000E+00 -0.00000000000E+00 -0.74505805969E-08  0.93827000000E+00  0.93827000000E+00 0. -1.
     999902    2    1    2    0    0 -0.78745314519E-02  0.70660089680E-02 -0.21884183715E-01  0.10196225068E+01  0.10193327240E+01 0.  0.
     999903    2    3    3    0    0  0.11334612142E+00 -0.12667501278E-01  0.54011760404E-01  0.12785793449E+00  0.20556563939E-01 0.  0.
         14    1    1    2    0    0  0.78745314519E-02 -0.70660089680E-02  0.21884183715E-01  0.24307493191E-01  0.00000000000E+00 0.  1.
     999901    1    3    3    0    0 -0.12122065287E+00  0.19733510246E-01 -0.75895944120E-01  0.89176457232E+00  0.88000000000E+00 0. -1.
        -11    1    4    4    0    0  0.57777470011E-01  0.38418851829E-02  0.27859434726E-01  0.64260449321E-01  0.51100000000E-03 0. -1.
         11    1    4    4    0    0  0.55568651407E-01 -0.16509386461E-01  0.26152325678E-01  0.63597485170E-01  0.51100000000E-03 0.  1.
</event>
<event>
 8    1  0.1118868E+005  0.1043930E+01  0.7957747E-01            NaN
         13   -1    0    0    0    0  0.00000000000E+00  0.00000000000E+00  0.74505805969E-08  0.10566000000E+00  0.10566000000E+00 0.  1.
     999900   -1    0    0    0    0 -0.00000000000E+00 -0.00000000000E+00 -0.74505805969E-08  0.93827000000E+00  0.93827000000E+00 0.  1.
     999902    2    1    2    0    0 -0.22160642009E-01  0.68454532338E-02 -0.52958704087E-02  0.10201392344E+01  0.10198617833E+01 0.  0.
     999903    2    3    3    0    0  0.10946853425E+00  0.54728974932E-02 -0.63674514467E-01  0.12843514109E+00  0.20684029528E-01 0.  0.
         14    1    1    2    0    0  0.22160642009E-01 -0.68454532338E-02  0.52958704087E-02  0.23790765595E-01  0.00000000000E+00 0. -1.
     999901    1    3    3    0    0 -0.13162917625E+00  0.13725557405E-02  0.58378644058E-01  0.89170409331E+00  0.88000000000E+00 0. -1.
        -11    1    4    4    0    0  0.73094361720E-01  0.98035820067E-02 -0.51012526945E-01  0.89674048429E-01  0.51100000000E-03 0. -1.
         11    1    4    4    0    0  0.36374172526E-01 -0.43306845135E-02 -0.12661987522E-01  0.38761092661E-01  0.51100000000E-03 0.  1.
</event>
<event>
 8    1  0.1118868E+005  0.1043930E+01  0.7957747E-01            NaN
         13   -1    0    0    0    0  0.00000000000E+00  0.00000000000E+00  0.74505805969E-08  0.10566000000E+00  0.10566000000E+00 0.  1.
     999900   -1    0    0    0    0 -0.00000000000E+00 -0.00000000000E+00 -0.74505805969E-08  0.93827000000E+00  0.93827000000E+00 0. -1.
     999902    2    1    2    0    0  0.30151956101E-02 -0.47327695142E-03 -0.17824058674E-01  0.10258465141E+01  0.10256871150E+01 0.  0.
     999903    2    3    3    0    0  0.91472783069E-01  0.98759693147E-01 -0.73404036098E-02  0.13580054102E+00  0.16344980328E-01 0.  0.
         14    1    1    2    0    0 -0.30151956101E-02  0.47327695142E-03  0.17824058674E-01  0.18083485926E-01  0.00000000000E+00 0.  1.
     999901    1    3    3    0    0 -0.88457587459E-01 -0.99232970099E-01 -0.10483655064E-01  0.89004597306E+00  0.88000000000E+00 0.  1.
        -11    1    4    4    0    0  0.47376020542E-01  0.51497944311E-01 -0.11972234190E-01  0.70993810316E-01  0.51100000000E-03 0.  1.
         11    1    4    4    0    0  0.44096762527E-01  0.47261748837E-01  0.46318305801E-02  0.64806730700E-01  0.51100000000E-03 0. -1.
</event>
<event>
 8    1  0.1118868E+005  0.1043930E+01  0.7957747E-01            NaN
         13   -1    0    0    0    0  0.00000000000E+00  0.00000000000E+00  0.74505805969E-08  0.10566000000E+00  0.10566000000E+00 0. -1.
     999900   -1    0    0    0    0 -0.00000000000E+00 -0.00000000000E+00 -0.74505805969E-08  0.93827000000E+00  0.93827000000E+00 0. -1.
     999902    2    1    2    0    0  0.34255220602E-02 -0.22245105783E-01 -0.87786540734E-02  0.10197712811E+01  0.10194850769E+01 0.  0.
     999903    2    3    3    0    0  0.82670829067E-02  0.81521051863E-01  0.95626527781E-01  0.12753179631E+00  0.20146952552E-01 0.  0.
         14    1    1    2    0    0 -0.34255220602E-02  0.22245105783E-01  0.87786540734E-02  0.24158718924E-01  0.00000000000E+00 0. -1.
     999901    1    3    3    0    0 -0.48415608465E-02 -0.10376615765E+00 -0.10440518185E+00  0.89223948477E+00  0.88000000000E+00 0. -1.
        -11    1    4    4    0    0  0.11462883568E-01  0.30867578589E-01  0.45759224099E-01  0.56377059331E-01  0.51100000000E-03 0.  1.
         11    1    4    4    0    0 -0.31958006617E-02  0.50653473274E-01  0.49867303682E-01  0.71154736976E-01  0.51100000000E-03 0. -1.
</event>
<event>
 8    1  0.1118868E+005  0.1043930E+01  0.7957747E-01            NaN
         13   -1    0    0    0    0  0.00000000000E+00  0.00000000000E+00  0.74505805969E-08  0.10566000000E+00  0.10566000000E+00 0.  1.
     999900   -1    0    0    0    0 -0.00000000000E+00 -0.00000000000E+00 -0.74505805969E-08  0.93827000000E+00  0.93827000000E+00 0. -1.
     999902    2    1    2    0    0 -0.22230800542E-02 -0.12498864708E-01  0.20786244506E-01  0.10195736525E+01  0.10192826895E+01 0.  0.
     999903    2    3    3    0    0  0.12145877448E+00  0.33167668096E-01  0.23598076885E-01  0.12974752353E+00  0.20620924452E-01 0.  0.
         14    1    1    2    0    0  0.22230800542E-02  0.12498864708E-01 -0.20786244506E-01  0.24356347521E-01  0.00000000000E+00 0. -1.
     999901    1    3    3    0    0 -0.12368185453E+00 -0.45666532804E-01 -0.28118323784E-02  0.88982612895E+00  0.88000000000E+00 0.  1.
        -11    1    4    4    0    0  0.76677030676E-01  0.29299687783E-01  0.20955394522E-01  0.84718524645E-01  0.51100000000E-03 0. -1.
         11    1    4    4    0    0  0.44781743800E-01  0.38679803132E-02  0.26426823628E-02  0.45028998885E-01  0.51100000000E-03 0.  1.
</event>
<event>
 8    1  0.1118868E+005  0.1043930E+01  0.7957747E-01            NaN
         13   -1    0    0    0    0  0.00000000000E+00  0.00000000000E+00  0.74505805969E-08  0.10566000000E+00  0.10566000000E+00 0. -1.
     999900   -1    0    0    0    0 -0.00000000000E+00 -0.00000000000E+00 -0.74505805969E-08  0.93827000000E+00  0.93827000000E+00 0.  1.
     999902    2    1    2    0    0 -0.23118547571E-01  0.23100537863E-02  0.37747131723E-02  0.10203916897E+01  0.10201201637E+01 0.  0.
     999903    2    3    3    0    0  0.19004092468E-01  0.11102238972E+00  0.63547736971E-01  0.13069201954E+00  0.18840449755E-01 0.  0.
         14    1    1    2    0    0  0.23118547571E-01 -0.23100537863E-02 -0.37747131723E-02  0.23538310259E-01  0.00000000000E+00 0.  1.
     999901    1    3    3    0    0 -0.42122640039E-01 -0.10871233593E+00 -0.59773023798E-01  0.88969967020E+00  0.88000000000E+00 0. -1.
        -11    1    4    4    0    0  0.79635466566E-02  0.85510373205E-01  0.42512751824E-01  0.95828164909E-01  0.51100000000E-03 0. -1.
         11    1    4    4    0    0  0.11040545811E-01  0.25512016514E-01  0.21034985147E-01  0.34863854628E-01  0.51100000000E-03 0.  1.
</event>
<event>
 8    1  0.1118868E+005  0.1043930E+01  0.7957747E-01            NaN
         13   -1    0    0    0    0  0.00000000000E+00  0.00000000000E+00  0.74505805969E-08  0.10566000000E+00  0.10566000000E+00 0. -1.
     999900   -1    0    0    0    0 -0.00000000000E+00 -0.00000000000E+00 -0.74505805969E-08  0.93827000000E+00  0.93827000000E+00 0.  1.
     999902    2    1    2    0    0 -0.11637290273E-01 -0.87817202952E-02  0.19055603295E-01  0.10199370603E+01  0.10196548170E+01 0.  0.
     999903    2    3    3    0    0  0.55527248243E-01 -0.52021184655E-01 -0.10123961209E+00  0.12816821958E+00  0.19701637097E-01 0.  0.
         14    1    1    2    0    0  0.11637290273E-01  0.87817202952E-02 -0.19055603295E-01  0.23992939653E-01  0.00000000000E+00 0.  1.
     999901    1    3    3    0    0 -0.67164538516E-01  0.43239464360E-01  0.12029521539E+00  0.89176884076E+00  0.88000000000E+00 0.  1.
        -11    1    4    4    0    0  0.29249700012E-01 -0.36699751560E-01 -0.49986590821E-01  0.68566297102E-01  0.51100000000E-03 0. -1.
         11    1    4    4    0    0  0.26277548230E-01 -0.15321433096E-01 -0.51253021271E-01  0.59601922482E-01  0.51100000000E-03 0.  1.
</event>
<event>
 8    1  0.1118868E+005  0.1043930E+01  0.7957747E-01            NaN
         13   -1    0    0    0    0  0.00000000000E+00  0.00000000000E+00  0.74505805969E-08  0.10566000000E+00  0.10566000000E+00 0. -1.
     999900   -1    0    0    0    0 -0.00000000000E+00 -0.00000000000E+00 -0.74505805969E-08  0.93827000000E+00  0.93827000000E+00 0.  1.
     999902    2    1    2    0    0  0.14866834603E-01 -0.18813560967E-01  0.26123952337E-02  0.10198095221E+01  0.10195242341E+01 0.  0.
     999903    2    3    3    0    0  0.37572670471E-01  0.12047605739E+00  0.14075338021E-01  0.12849108748E+00  0.19638188558E-01 0.  0.
         14    1    1    2    0    0 -0.14866834603E-01  0.18813560967E-01 -0.26123952337E-02  0.24120477944E-01  0.00000000000E+00 0.  1.
     999901    1    3    3    0    0 -0.22705835868E-01 -0.13928961836E+00 -0.11462942787E-01  0.89131843458E+00  0.88000000000E+00 0. -1.
        -11    1    4    4    0    0  0.38060196276E-02  0.14696060121E-01 -0.46457765245E-02  0.15884090437E-01  0.51100000000E-03 0. -1.
         11    1    4    4    0    0  0.33766650844E-01  0.10577999727E+00  0.18721114546E-01  0.11260699704E+00  0.51100000000E-03 0.  1.
</event>
<event>
 8    1  0.1118868E+005  0.1043930E+01  0.7957747E-01            NaN
         13   -1    0    0    0    0  0.00000000000E+00  0.00000000000E+00  0.74505805969E-08  0.10566000000E+00  0.10566000000E+00 0.  1.
     999900   -1    0    0    0    0 -0.00000000000E+00 -0.00000000000E+00 -0.74505805969E-08  0.93827000000E+00  0.93827000000E+00 0.  1.
     999902    2    1    2    0    0  0.10719518732E-01 -0.33129536352E-02 -0.23027646784E-01  0.10183144528E+01  0.10179922242E+01 0.  0.
     999903    2    3    3    0    0  0.97177205358E-01  0.52526040003E-01  0.61884236061E-01  0.12825661609E+00  0.20437876057E-01 0.  0.
         14    1    1    2    0    0 -0.10719518732E-01  0.33129536352E-02  0.23027646784E-01  0.25615547233E-01  0.00000000000E+00 0.  1.
     999901    1    3    3    0    0 -0.86457686626E-01 -0.55838993638E-01 -0.84911882845E-01  0.89005783668E+00  0.88000000000E+00 0.  1.
        -11    1    4    4    0    0  0.53294852457E-01  0.36033693645E-01  0.26770465742E-01  0.69682762095E-01  0.51100000000E-03 0. -1.
         11    1    4    4    0    0  0.43882352901E-01  0.16492346358E-01  0.35113770318E-01  0.58573853992E-01  0.51100000000E-03 0.  1.
</event>
<event>
 8    1  0.1118868E+005  0.1043930E+01  0.7957747E-01            NaN
         13   -1    0    0    0    0  0.00000000000E+00  0.00000000000E+00  0.74505805969E-08  0.10566000000E+00  0.10566000000E+00 0.  1.
     999900   -1    0    0    0    0 -0.00000000000E+00 -0.00000000000E+00 -0.74505805969E-08  0.93827000000E+00  0.93827000000E+00 0.  1.
     999902    2    1    2    0    0 -0.65940832228E-04 -0.12709661404E-01 -0.20382675531E-01  0.10199093151E+01  0.10196264109E+01 0.  0.
     999903    2    3    3    0    0  0.10084158704E+00 -0.49847998586E-01  0.61189758647E-01  0.12961967274E+00  0.20080447201E-01 0.  0.
         14    1    1    2    0    0  0.65940832228E-04  0.12709661404E-01  0.20382675531E-01  0.24020684899E-01  0.00000000000E+00 0.  1.
     999901    1    3    3    0    0 -0.10090752787E+00  0.37138337182E-01 -0.81572434178E-01  0.89028964236E+00  0.88000000000E+00 0.  1.
        -11    1    4    4    0    0  0.84426741778E-01 -0.38188333336E-01  0.41774187026E-01  0.10164431786E+00  0.51100000000E-03 0. -1.
         11    1    4    4    0    0  0.16414845261E-01 -0.11659665249E-01  0.19415571621E-01  0.27975354887E-01  0.51100000000E-03 0.  1.
</event>
<event>
 8    1  0.1118868E+005  0.1043930E+01  0.7957747E-01            NaN
         13   -1    0    0    0    0  0.00000000000E+00  0.00000000000E+00  0.74505805969E-08  0.10566000000E+00  0.10566000000E+00 0.  1.
     999900   -1    0    0    0    0 -0.00000000000E+00 -0.00000000000E+00 -0.74505805969E-08  0.93827000000E+00  0.93827000000E+00 0. -1.
     999902    2    1    2    0    0  0.16902110309E-01 -0.13808087656E-01  0.63444436781E-02  0.10212012389E+01  0.10209482718E+01 0.  0.
     999903    2    3    3    0    0  0.12340283863E+00  0.42338595807E-01 -0.14321835464E-01  0.13276331177E+00  0.20004117127E-01 0.  0.
         14    1    1    2    0    0 -0.16902110309E-01  0.13808087656E-01 -0.63444436781E-02  0.22728761145E-01  0.00000000000E+00 0. -1.
     999901    1    3    3    0    0 -0.10650072833E+00 -0.56146683463E-01  0.20666279142E-01  0.88843792709E+00  0.88000000000E+00 0. -1.
        -11    1    4    4    0    0  0.11549439627E-01  0.75907825894E-02  0.35543671214E-02  0.14279502185E-01  0.51100000000E-03 0.  1.
         11    1    4    4    0    0  0.11185339901E+00  0.34747813218E-01 -0.17876202585E-01  0.11848380958E+00  0.51100000000E-03 0. -1.
</event>
<event>
 8    1  0.1118868E+005  0.1043930E+01  0.7957747E-01            NaN
         13   -1    0    0    0    0  0.00000000000E+00  0.00000000000E+00  0.74505805969E-08  0.10566000000E+00  0.10566000000E+00 0.  1.
     999900   -1    0    0    0    0 -0.00000000000E+00 -0.00000000000E+00 -0.74505805969E-08  0.93827000000E+00  0.93827000000E+00 0. -1.
     999902    2    1    2    0    0 -0.25601272701E-02 -0.19887489369E-01  0.98918851846E-02  0.10215712013E+01  0.10213264921E+01 0.  0.
     999903    2    3    3    0    0  0.95408618135E-02  0.13401384728E-01 -0.12757761116E+00  0.13019448777E+00  0.20098075026E-01 0.  0.
         14    1    1    2    0    0  0.25601272701E-02  0.19887489369E-01 -0.98918851846E-02  0.22358798660E-01  0.00000000000E+00 0.  1.
     999901    1    3    3    0    0 -0.12100989084E-01 -0.33288874097E-01  0.13746949634E+00  0.89137671357E+00  0.88000000000E+00 0.  1.
        -11    1    4    4    0    0  0.83323142047E-02  0.28770301408E-02 -0.10360474431E+00  0.10398032952E+00  0.51100000000E-03 0.  1.
         11    1    4    4    0    0  0.12085476088E-02  0.10524354587E-01 -0.23972866849E-01  0.26214158250E-01  0.51100000000E-03 0. -1.
</event>
<event>
 8    1  0.1118868E+005  0.1043930E+01  0.7957747E-01            NaN
         13   -1    0    0    0    0  0.00000000000E+00  0.00000000000E+00  0.74505805969E-08  0.10566000000E+00  0.10566000000E+00 0. -1.
     999900   -1    0    0    0    0 -0.00000000000E+00 -0.00000000000E+00 -0.74505805969E-08  0.93827000000E+00  0.93827000000E+00 0. -1.
     999902    2    1    2    0    0  0.13347310642E-01  0.87133389883E-02  0.16715670406E-01  0.10208326708E+01  0.10205713376E+01 0.  0.
     999903    2    3    3    0    0  0.10532328850E+00  0.79754565435E-01  0.20145670852E-02  0.13307000052E+00  0.15804453462E-01 0.  0.
         14    1    1    2    0    0 -0.13347310642E-01 -0.87133389883E-02 -0.16715670406E-01  0.23097329170E-01  0.00000000000E+00 0.  1.
     999901    1    3    3    0    0 -0.91975977859E-01 -0.71041226447E-01  0.14701103321E-01  0.88776267031E+00  0.88000000000E+00 0.  1.
        -11    1    4    4    0    0  0.85953639658E-01  0.57773174546E-01  0.44859018993E-02  0.10366364987E+00  0.51100000000E-03 0.  1.
         11    1    4    4    0    0  0.19369648842E-01  0.21981390889E-01 -0.24713348141E-02  0.29406350648E-01  0.51100000000E-03 0. -1.
</event>
<event>
 8    1  0.1118868E+005  0.1043930E+01  0.7957747E-01            NaN
         13   -1    0    0    0    0  0.00000000000E+00  0.00000000000E+00  0.74505805969E-08  0.10566000000E+00  0.10566000000E+00 0. -1.
     999900   -1    0    0    0    0 -0.00000000000E+00 -0.00000000000E+00 -0.74505805969E-08  0.93827000000E+00  0.93827000000E+00 0. -1.
     999902    2    1    2    0    0  0.90380831215E-02  0.10082328420E-01  0.20076187953E-01  0.10197144344E+01  0.10194268655E+01 0.  0.
     999903    2    3    3    0    0  0.33619533214E-01 -0.12293460077E+00  0.58200939254E-02  0.12926455524E+00  0.20790927552E-01 0.  0.
         14    1    1    2    0    0 -0.90380831215E-02 -0.10082328420E-01 -0.20076187953E-01  0.24215565564E-01  0.00000000000E+00 0.  1.
     999901    1    3    3    0    0 -0.24581450093E-01  0.13301692919E+00  0.14256094028E-01  0.89044987919E+00  0.88000000000E+00 0.  1.
        -11    1    4    4    0    0  0.15594585333E-01 -0.26213526694E-01 -0.19679440286E-02  0.30569167443E-01  0.51100000000E-03 0.  1.
         11    1    4    4    0    0  0.18024947881E-01 -0.96721074076E-01  0.77880379541E-02  0.98695387799E-01  0.51100000000E-03 0. -1.
</event>
<event>
 8    1  0.1118868E+005  0.1043930E+01  0.7957747E-01            NaN
         13   -1    0    0    0    0  0.00000000000E+00  0.00000000000E+00  0.74505805969E-08  0.10566000000E+00  0.10566000000E+00 0.  1.
     999900   -1    0    0    0    0 -0.00000000000E+00 -0.00000000000E+00 -0.74505805969E-08  0.93827000000E+00  0.93827000000E+00 0.  1.
     999902    2    1    2    0    0  0.13594219544E-01 -0.14865616595E-01 -0.82167963522E-02  0.10221744236E+01  0.10219428786E+01 0.  0.
     999903    2    3    3    0    0 -0.16809493186E-01 -0.12876345942E-01 -0.13003489109E+00  0.13326048450E+00  0.20023098667E-01 0.  0.
         14    1    1    2    0    0 -0.13594219544E-01  0.14865616595E-01  0.82167963522E-02  0.21755576390E-01  0.00000000000E+00 0.  1.
     999901    1    3    3    0    0  0.30403712730E-01 -0.19892706532E-02  0.12181809474E+00  0.88891393911E+00  0.88000000000E+00 0. -1.
        -11    1    4    4    0    0 -0.46306519819E-02  0.34949338054E-02 -0.60836973292E-01  0.61115104028E-01  0.51100000000E-03 0.  1.
         11    1    4    4    0    0 -0.12178841204E-01 -0.16371279747E-01 -0.69197917802E-01  0.72145380467E-01  0.51100000000E-03 0. -1.
</event>
<event>
 8    1  0.1118868E+005  0.1043930E+01  0.7957747E-01            NaN
         13   -1    0    0    0    0  0.00000000000E+00  0.00000000000E+00  0.74505805969E-08  0.10566000000E+00  0.10566000000E+00 0. -1.
     999900   -1    0    0    0    0 -0.00000000000E+00 -0.00000000000E+00 -0.74505805969E-08  0.93827000000E+00  0.93827000000E+00 0.  1.
     999902    2    1    2    0    0 -0.20967862252E-01 -0.19149528652E-02 -0.11627829515E-01  0.10198774594E+01  0.10195937953E+01 0.  0.
     999903    2    3    3    0    0  0.56353475541E-01 -0.11414525650E+00  0.84513554813E-02  0.12916010576E+00  0.20150774754E-01 0.  0.
         14    1    1    2    0    0  0.20967862252E-01  0.19149528652E-02  0.11627829515E-01  0.24052540638E-01  0.00000000000E+00 0. -1.
     999901    1    3    3    0    0 -0.77321337793E-01  0.11223030364E+00 -0.20079184996E-01  0.89071735360E+00  0.88000000000E+00 0. -1.
        -11    1    4    4    0    0  0.27286178515E-01 -0.41313657949E-01  0.10912474305E-01  0.50702042242E-01  0.51100000000E-03 0. -1.
         11    1    4    4    0    0  0.29067297026E-01 -0.72831598556E-01 -0.24611188235E-02  0.78458063521E-01  0.51100000000E-03 0.  1.
</event>
<event>
 8    1  0.1118868E+005  0.1043930E+01  0.7957747E-01            NaN
         13   -1    0    0    0    0  0.00000000000E+00  0.00000000000E+00  0.74505805969E-08  0.10566000000E+00  0.10566000000E+00 0.  1.
     999900   -1    0    0    0    0 -0.00000000000E+00 -0.00000000000E+00 -0.74505805969E-08  0.93827000000E+00  0.93827000000E+00 0. -1.
     999902    2    1    2    0    0  0.13538766499E-01 -0.20925443385E-02 -0.18922141336E-01  0.10205692557E+01  0.10203018580E+01 0.  0.
     999903    2    3    3    0    0 -0.90743040068E-01  0.85840232505E-01  0.26045182019E-01  0.12892530852E+00  0.18453694305E-01 0.  0.
         14    1    1    2    0    0 -0.13538766499E-01  0.20925443385E-02  0.18922141336E-01  0.23360744270E-01  0.00000000000E+00 0.  1.
     999901    1    3    3    0    0  0.10428180657E+00 -0.87932776844E-01 -0.44967323355E-01  0.89164394721E+00  0.88000000000E+00 0.  1.
        -11    1    4    4    0    0 -0.39732522720E-01  0.43941845405E-01  0.20454022292E-01  0.62675252598E-01  0.51100000000E-03 0. -1.
         11    1    4    4    0    0 -0.51010517348E-01  0.41898387101E-01  0.55911597269E-02  0.66250055923E-01  0.51100000000E-03 0.  1.
</event>
<event>
 8    1  0.1118868E+005  0.1043930E+01  0.7957747E-01            NaN
         13   -1    0    0    0    0  0.00000000000E+00  0.00000000000E+00  0.74505805969E-08  0.10566000000E+00  0.10566000000E+00 0.  1.
     999900   -1    0    0    0    0 -0.00000000000E+00 -0.00000000000E+00 -0.74505805969E-08  0.93827000000E+00  0.93827000000E+00 0. -1.
     999902    2    1    2    0    0 -0.66403388941E-03 -0.12328934182E-01  0.20697304705E-01  0.10198297514E+01  0.10195449475E+01 0.  0.
     999903    2    3    3    0    0  0.64320421636E-01  0.81111209309E-01  0.77198186355E-01  0.13070299472E+00  0.20188311878E-01 0.  0.
         14    1    1    2    0    0  0.66403388941E-03  0.12328934182E-01 -0.20697304705E-01  0.24100248570E-01  0.00000000000E+00 0. -1.
     999901    1    3    3    0    0 -0.64984455525E-01 -0.93440143491E-01 -0.56500881650E-01  0.88912675671E+00  0.88000000000E+00 0. -1.
        -11    1    4    4    0    0  0.38566679807E-01  0.32428206053E-01  0.37079564819E-01  0.62563028918E-01  0.51100000000E-03 0.  1.
         11    1    4    4    0    0  0.25753741829E-01  0.48683003256E-01  0.40118621536E-01  0.68139965799E-01  0.51100000000E-03 0. -1.
</event>
<event>
 8    1  0.1118868E+005  0.1043930E+01  0.7957747E-01            NaN
         13   -1    0    0    0    0  0.00000000000E+00  0.00000000000E+00  0.74505805969E-08  0.10566000000E+00  0.10566000000E+00 0. -1.
     999900   -1    0    0    0    0 -0.00000000000E+00 -0.00000000000E+00 -0.74505805969E-08  0.93827000000E+00  0.93827000000E+00 0. -1.
     999902    2    1    2    0    0  0.98634233187E-02 -0.15069393148E-02 -0.21714267683E-01  0.10200329833E+01  0.10197530189E+01 0.  0.
     999903    2    3    3    0    0 -0.33308944930E-01  0.86309342890E-02  0.12120000243E+00  0.12740141404E+00  0.18912981529E-01 0.  0.
         14    1    1    2    0    0 -0.98634233187E-02  0.15069393148E-02  0.21714267683E-01  0.23897016690E-01  0.00000000000E+00 0. -1.
     999901    1    3    3    0    0  0.43172368249E-01 -0.10137873604E-01 -0.14291427011E+00  0.89263156927E+00  0.88000000000E+00 0. -1.
        -11    1    4    4    0    0 -0.25188654673E-01  0.65014438873E-02  0.57060278258E-01  0.62712626900E-01  0.51100000000E-03 0.  1.
         11    1    4    4    0    0 -0.81202902570E-02  0.21294904017E-02  0.64139724174E-01  0.64688787137E-01  0.51100000000E-03 0. -1.
</event>
<event>
 8    1  0.1118868E+005  0.1043930E+01  0.7957747E-01            NaN
         13   -1    0    0    0    0  0.00000000000E+00  0.00000000000E+00  0.74505805969E-08  0.10566000000E+00  0.10566000000E+00 0.  1.
     999900   -1    0    0    0    0 -0.00000000000E+00 -0.00000000000E+00 -0.74505805969E-08  0.93827000000E+00  0.93827000000E+00 0. -1.
     999902    2    1    2    0    0 -0.12269236356E-01 -0.16751011105E-01 -0.80711781615E-02  0.10216527818E+01  0.10214098747E+01 0.  0.
     999903    2    3    3    0    0  0.25595600426E-01  0.12509592671E+00 -0.79163927304E-02  0.12949005920E+00  0.20022000883E-01 0.  0.
         14    1    1    2    0    0  0.12269236356E-01  0.16751011105E-01  0.80711781615E-02  0.22277218199E-01  0.00000000000E+00 0.  1.
     999901    1    3    3    0    0 -0.37864836781E-01 -0.14184693781E+00 -0.15478543107E-03  0.89216272260E+00  0.88000000000E+00 0. -1.
        -11    1    4    4    0    0  0.22855448710E-01  0.11749343760E+00 -0.12221847917E-01  0.12031921751E+00  0.51100000000E-03 0. -1.
         11    1    4    4    0    0  0.27401517150E-02  0.76024891106E-02  0.43054551865E-02  0.91708416986E-02  0.51100000000E-03 0.  1.
</event>
<event>
 8    1  0.1118868E+005  0.1043930E+01  0.7957747E-01            NaN
         13   -1    0    0    0    0  0.00000000000E+00  0.00000000000E+00  0.74505805969E-08  0.10566000000E+00  0.10566000000E+00 0. -1.
     999900   -1    0    0    0    0 -0.00000000000E+00 -0.00000000000E+00 -0.74505805969E-08  0.93827000000E+00  0.93827000000E+00 0. -1.
     999902    2    1    2    0    0 -0.19542103347E-01  0.92915642321E-02 -0.11712791339E-01  0.10193247882E+01  0.10190277755E+01 0.  0.
     999903    2    3    3    0    0  0.18241213238E-01 -0.64453419952E-01  0.10669347159E+00  0.12753672768E+00  0.19877998459E-01 0.  0.
         14    1    1    2    0    0  0.19542103347E-01 -0.92915642321E-02  0.11712791339E-01  0.24605211847E-01  0.00000000000E+00 0. -1.
     999901    1    3    3    0    0 -0.37783316585E-01  0.73744984184E-01 -0.11840626293E+00  0.89178806047E+00  0.88000000000E+00 0. -1.
        -11    1    4    4    0    0  0.16314627851E-01 -0.61315459727E-01  0.88073717293E-01  0.10854949784E+00  0.51100000000E-03 0.  1.
         11    1    4    4    0    0  0.19265853873E-02 -0.31379602247E-02  0.18619754299E-01  0.18987229834E-01  0.51100000000E-03 0. -1.
</event>
<event>
 8    1  0.1118868E+005  0.1043930E+01  0.7957747E-01            NaN
         13   -1    0    0    0    0  0.00000000000E+00  0.00000000000E+00  0.74505805969E-08  0.10566000000E+00  0.10566000000E+00 0. -1.
     999900   -1    0    0    0    0 -0.00000000000E+00 -0.00000000000E+00 -0.74505805969E-08  0.93827000000E+00  0.93827000000E+00 0.  1.
     999902    2    1    2    0    0 -0.10485717109E-01 -0.19900142676E-01 -0.38479242373E-03  0.10214330223E+01  0.10211852452E+01 0.  0.
     999903    2    3    3    0    0 -0.41174853919E-01 -0.12713344583E+00  0.38947683760E-02  0.13438222380E+00  0.13606293012E-01 0.  0.
         14    1    1    2    0    0  0.10485717109E-01  0.19900142676E-01  0.38479242373E-03  0.22496977731E-01  0.00000000000E+00 0.  1.
     999901    1    3    3    0    0  0.30689136810E-01  0.10723330315E+00 -0.42795607998E-02  0.88705079847E+00  0.88000000000E+00 0. -1.
        -11    1    4    4    0    0 -0.36317375361E-01 -0.10699442262E+00  0.79337700978E-02  0.11326943124E+00  0.51100000000E-03 0. -1.
         11    1    4    4    0    0 -0.48574785575E-02 -0.20139023209E-01 -0.40390017218E-02  0.21112792560E-01  0.51100000000E-03 0.  1.
</event>
<event>
 8    1  0.1118868E+005  0.1043930E+01  0.7957747E-01            NaN
         13   -1    0    0    0    0  0.00000000000E+00  0.00000000000E+00  0.74505805969E-08  0.10566000000E+00  0.10566000000E+00 0. -1.
     999900   -1    0    0    0    0 -0.00000000000E+00 -0.00000000000E+00 -0.74505805969E-08  0.93827000000E+00  0.93827000000E+00 0. -1.
     999902    2    1    2    0    0 -0.74612013983E-02 -0.40346873083E-02 -0.19993078614E-01  0.10222120024E+01  0.10219812652E+01 0.  0.
     999903    2    3    3    0    0 -0.73852636290E-01  0.59328192528E-01  0.88069110823E-01  0.13086464363E+00  0.19883167659E-01 0.  0.
         14    1    1    2    0    0  0.74612013983E-02  0.40346873083E-02  0.19993078614E-01  0.21717997616E-01  0.00000000000E+00 0. -1.
     999901    1    3    3    0    0  0.66391434892E-01 -0.63362879837E-01 -0.10806218944E+00  0.89134735875E+00  0.88000000000E+00 0. -1.
        -11    1    4    4    0    0 -0.10050609170E-01  0.15636785957E-01  0.24514624630E-01  0.30769331509E-01  0.51100000000E-03 0. -1.
         11    1    4    4    0    0 -0.63802027120E-01  0.43691406572E-01  0.63554486193E-01  0.10009531212E+00  0.51100000000E-03 0.  1.
</event>
<event>
 8    1  0.1118868E+005  0.1043930E+01  0.7957747E-01            NaN
         13   -1    0    0    0    0  0.00000000000E+00  0.00000000000E+00  0.74505805969E-08  0.10566000000E+00  0.10566000000E+00 0.  1.
     999900   -1    0    0    0    0 -0.00000000000E+00 -0.00000000000E+00 -0.74505805969E-08  0.93827000000E+00  0.93827000000E+00 0. -1.
     999902    2    1    2    0    0 -0.17636247757E-01  0.14019950909E-01 -0.60295016014E-02  0.10206072397E+01  0.10203407208E+01 0.  0.
     999903    2    3    3    0    0 -0.28077295096E-01  0.12001520191E+00 -0.48352224033E-01  0.13317542737E+00  0.14344814255E-01 0.  0.
         14    1    1    2    0    0  0.17636247757E-01 -0.14019950909E-01  0.60295016014E-02  0.23322760300E-01  0.00000000000E+00 0.  1.
     999901    1    3    3    0    0  0.10441047339E-01 -0.10599525100E+00  0.42322722432E-01  0.88743181233E+00  0.88000000000E+00 0.  1.
        -11    1    4    4    0    0 -0.14608614394E-01  0.69875649457E-01 -0.35306932274E-01  0.79642065450E-01  0.51100000000E-03 0. -1.
         11    1    4    4    0    0 -0.13468680702E-01  0.50139552455E-01 -0.13045291759E-01  0.53533361919E-01  0.51100000000E-03 0.  1.
</event>
<event>
 8    1  0.1118868E+005  0.1043930E+01  0.7957747E-01            NaN
         13   -1    0    0    0    0  0.00000000000E+00  0.00000000000E+00  0.74505805969E-08  0.10566000000E+00  0.10566000000E+00 0. -1.
     999900   -1    0    0    0    0 -0.00000000000E+00 -0.00000000000E+00 -0.74505805969E-08  0.93827000000E+00  0.93827000000E+00 0. -1.
     999902    2    1    2    0    0  0.15974233800E-01 -0.79099527695E-03  0.88537008704E-02  0.10256491401E+01  0.10254862109E+01 0.  0.
     999903    2    3    3    0    0  0.12766335732E+00  0.10459266228E-01  0.46522715708E-01  0.13771897204E+00  0.19870156779E-01 0.  0.
         14    1    1    2    0    0 -0.15974233800E-01  0.79099527695E-03 -0.88537008704E-02  0.18280859885E-01  0.00000000000E+00 0.  1.
     999901    1    3    3    0    0 -0.11168912352E+00 -0.11250261505E-01 -0.37669014837E-01  0.88793016807E+00  0.88000000000E+00 0.  1.
        -11    1    4    4    0    0  0.46403872653E-01  0.84526070665E-02  0.82999017688E-02  0.47894837444E-01  0.51100000000E-03 0. -1.
         11    1    4    4    0    0  0.81259484670E-01  0.20066591612E-02  0.38222813939E-01  0.89824134597E-01  0.51100000000E-03 0.  1.
</event>
<event>
 8    1  0.1118868E+005  0.1043930E+01  0.7957747E-01            NaN
         13   -1    0    0    0    0  0.00000000000E+00  0.00000000000E+00  0.74505805969E-08  0.10566000000E+00  0.10566000000E+00 0.  1.
     999900   -1    0    0    0    0 -0.00000000000E+00 -0.00000000000E+00 -0.74505805969E-08  0.93827000000E+00  0.93827000000E+00 0.  1.
     999902    2    1    2    0    0 -0.25312285509E-01  0.15400753352E-02  0.70816199912E-02  0.10176006823E+01  0.10172600039E+01 0.  0.
     999903    2    3    3    0    0  0.87819685380E-01 -0.11531227632E-01 -0.86434623001E-01  0.12534792129E+00  0.19897009001E-01 0.  0.
         14    1    1    2    0    0  0.25312285509E-01 -0.15400753352E-02 -0.70816199912E-02  0.26329317716E-01  0.00000000000E+00 0.  1.
     999901    1    3    3    0    0 -0.11313197089E+00  0.13071302967E-01  0.93516242992E-01  0.89225276099E+00  0.88000000000E+00 0. -1.
        -11    1    4    4    0    0  0.76036555233E-01 -0.96462005368E-02 -0.82873630829E-01  0.11288448398E+00  0.51100000000E-03 0.  1.
         11    1    4    4    0    0  0.11783130147E-01 -0.18850270948E-02 -0.35609921721E-02  0.12463437305E-01  0.51100000000E-03 0. -1.
</event>
<event>
 8    1  0.1118868E+005  0.1043930E+01  0.7957747E-01            NaN
         13   -1    0    0    0    0  0.00000000000E+00  0.00000000000E+00  0.74505805969E-08  0.10566000000E+00  0.10566000000E+00 0.  1.
     999900   -1    0    0    0    0 -0.00000000000E+00 -0.00000000000E+00 -0.74505805969E-08  0.93827000000E+00  0.93827000000E+00 0.  1.
     999902    2    1    2    0    0  0.18767268800E-01  0.80582542611E-02  0.10831138219E-01  0.10208116221E+01  0.10205498070E+01 0.  0.
     999903    2    3    3    0    0  0.70111144431E-01  0.10925320455E+00  0.19603369830E-01  0.13348216608E+00  0.24111434524E-01 0.  0.
         14    1    1    2    0    0 -0.18767268800E-01 -0.80582542611E-02 -0.10831138219E-01  0.23118377864E-01  0.00000000000E+00 0. -1.
     999901    1    3    3    0    0 -0.51343875631E-01 -0.10119495029E+00 -0.87722316109E-02  0.88732945605E+00  0.88000000000E+00 0. -1.
        -11    1    4    4    0    0  0.58037771757E-01  0.70611840126E-01  0.10701294796E-01  0.92028222562E-01  0.51100000000E-03 0.  1.
         11    1    4    4    0    0  0.12073372674E-01  0.38641364429E-01  0.89020750344E-02  0.41453943523E-01  0.51100000000E-03 0. -1.
</event>
<event>
 8    1  0.1118868E+005  0.1043930E+01  0.7957747E-01            NaN
         13   -1    0    0    0    0  0.00000000000E+00  0.00000000000E+00  0.74505805969E-08  0.10566000000E+00  0.10566000000E+00 0. -1.
     999900   -1    0    0    0    0 -0.00000000000E+00 -0.00000000000E+00 -0.74505805969E-08  0.93827000000E+00  0.93827000000E+00 0. -1.
     999902    2    1    2    0    0 -0.71394481066E-02  0.24748628653E-01 -0.15798965732E-02  0.10181237524E+01  0.10177966461E+01 0.  0.
     999903    2    3    3    0    0  0.20528641752E-01  0.21391858633E-01  0.12383558816E+00  0.12879488476E+00  0.19334753612E-01 0.  0.
         14    1    1    2    0    0  0.71394481066E-02 -0.24748628653E-01  0.15798965732E-02  0.25806247551E-01  0.00000000000E+00 0.  1.
     999901    1    3    3    0    0 -0.27668089859E-01  0.33567700206E-02 -0.12541548473E+00  0.88932886769E+00  0.88000000000E+00 0. -1.
        -11    1    4    4    0    0 -0.31956261126E-02  0.63695620257E-02  0.30485336423E-01  0.31311343064E-01  0.51100000000E-03 0.  1.
         11    1    4    4    0    0  0.23724267865E-01  0.15022296607E-01  0.93350251734E-01  0.97483541692E-01  0.51100000000E-03 0. -1.
</event>
<event>
 8    1  0.1118868E+005  0.1043930E+01  0.7957747E-01            NaN
         13   -1    0    0    0    0  0.00000000000E+00  0.00000000000E+00  0.74505805969E-08  0.10566000000E+00  0.10566000000E+00 0.  1.
     999900   -1    0    0    0    0 -0.00000000000E+00 -0.00000000000E+00 -0.74505805969E-08  0.93827000000E+00  0.93827000000E+00 0. -1.
     999902    2    1    2    0    0 -0.16435924465E-01  0.13945453403E-01  0.10468291270E-01  0.10199675209E+01  0.10196860023E+01 0.  0.
     999903    2    3    3    0    0  0.21518117400E-01 -0.12421689910E+00 -0.11088886167E-01  0.12811884714E+00  0.19965174656E-01 0.  0.
         14    1    1    2    0    0  0.16435924465E-01 -0.13945453403E-01 -0.10468291270E-01  0.23962479123E-01  0.00000000000E+00 0. -1.
     999901    1    3    3    0    0 -0.37954041865E-01  0.13816235250E+00  0.21557177437E-01  0.89184867373E+00  0.88000000000E+00 0.  1.
        -11    1    4    4    0    0  0.23184755656E-04 -0.18697554025E-01 -0.81180003215E-02  0.20390245567E-01  0.51100000000E-03 0.  1.
         11    1    4    4    0    0  0.21494932644E-01 -0.10551934507E+00 -0.29708858450E-02  0.10772860158E+00  0.51100000000E-03 0. -1.
</event>
<event>
 8    1  0.1118868E+005  0.1043930E+01  0.7957747E-01            NaN
         13   -1    0    0    0    0  0.00000000000E+00  0.00000000000E+00  0.74505805969E-08  0.10566000000E+00  0.10566000000E+00 0. -1.
     999900   -1    0    0    0    0 -0.00000000000E+00 -0.00000000000E+00 -0.74505805969E-08  0.93827000000E+00  0.93827000000E+00 0.  1.
     999902    2    1    2    0    0 -0.27011616256E-01  0.47667135653E-02  0.29048916097E-02  0.10163476258E+01  0.10159732817E+01 0.  0.
     999903    2    3    3    0    0 -0.59372923310E-01 -0.11135693039E+00  0.95038353198E-02  0.12810469679E+00  0.19874116008E-01 0.  0.
         14    1    1    2    0    0  0.27011616256E-01 -0.47667135653E-02 -0.29048916097E-02  0.27582374195E-01  0.00000000000E+00 0.  1.
     999901    1    3    3    0    0  0.32361307054E-01  0.11612364395E+00 -0.65989437101E-02  0.88824292901E+00  0.88000000000E+00 0. -1.
        -11    1    4    4    0    0 -0.19152012184E-01 -0.26950555533E-01  0.10190911807E-01  0.34601269033E-01  0.51100000000E-03 0.  1.
         11    1    4    4    0    0 -0.40220911127E-01 -0.84406374855E-01 -0.68707648752E-03  0.93503427761E-01  0.51100000000E-03 0. -1.
</event>
<event>
 8    1  0.1118868E+005  0.1043930E+01  0.7957747E-01            NaN
         13   -1    0    0    0    0  0.00000000000E+00  0.00000000000E+00  0.74505805969E-08  0.10566000000E+00  0.10566000000E+00 0.  1.
     999900   -1    0    0    0    0 -0.00000000000E+00 -0.00000000000E+00 -0.74505805969E-08  0.93827000000E+00  0.93827000000E+00 0.  1.
     999902    2    1    2    0    0 -0.58696226069E-03 -0.21601425714E-02 -0.24338444386E-01  0.10194888336E+01  0.10191958159E+01 0.  0.
     999903    2    3    3    0    0  0.62339876817E-01 -0.11231266383E+00  0.41711701883E-02  0.12993492114E+00  0.19112571091E-01 0.  0.
         14    1    1    2    0    0  0.58696226069E-03  0.21601425714E-02  0.24338444386E-01  0.24441166416E-01  0.00000000000E+00 0.  1.
     999901    1    3    3    0    0 -0.62926839078E-01  0.11015252126E+00 -0.28509614574E-01  0.88955391244E+00  0.88000000000E+00 0. -1.
        -11    1    4    4    0    0  0.55140616256E-02 -0.24455600906E-01  0.33504552059E-02  0.25297588074E-01  0.51100000000E-03 0.  1.
         11    1    4    4    0    0  0.56825815192E-01 -0.87857062923E-01  0.82071498236E-03  0.10463733307E+00  0.51100000000E-03 0. -1.
</event>
<event>
 8    1  0.1479990E+005  0.1043930E+01  0.7957747E-01            NaN
         13   -1    0    0    0    0  0.00000000000E+00  0.00000000000E+00  0.74505805969E-08  0.10566000000E+00  0.10566000000E+00 0. -1.
     999900   -1    0    0    0    0 -0.00000000000E+00 -0.00000000000E+00 -0.74505805969E-08  0.93827000000E+00  0.93827000000E+00 0.  1.
     999902    2    1    2    0    0 -0.23936469395E-01  0.25244737446E-03  0.54308446970E-03  0.10199860396E+01  0.10197049612E+01 0.  0.
     999903    2    3    3    0    0  0.72956659201E-01  0.23192819587E-01 -0.10135908534E+00  0.12852735229E+00  0.19622311404E-01 0.  0.
         14    1    1    2    0    0  0.23936469395E-01 -0.25244737446E-03 -0.54308446970E-03  0.23943960356E-01  0.00000000000E+00 0. -1.
     999901    1    3    3    0    0 -0.96893128596E-01 -0.22940372212E-01  0.10190216980E+00  0.89145868735E+00  0.88000000000E+00 0. -1.
        -11    1    4    4    0    0  0.50013077659E-01  0.61215802985E-02 -0.62730806268E-01  0.80462394063E-01  0.51100000000E-03 0. -1.
         11    1    4    4    0    0  0.22943581542E-01  0.17071239288E-01 -0.38628279067E-01  0.48064958229E-01  0.51100000000E-03 0.  1.
</event>
<event>
 7    1  0.1118868E+005  0.1043930E+01  0.7957747E-01            NaN
         13   -1    0    0    0    0  0.00000000000E+00  0.00000000000E+00  0.74505805969E-08  0.10566000000E+00  0.10566000000E+00 0.  1.
     999900   -1    0    0    0    0 -0.00000000000E+00 -0.00000000000E+00 -0.74505805969E-08  0.93827000000E+00  0.93827000000E+00 0. -1.
     999903    2    1    2    0    0 -0.61429865129E-01  0.85770746124E-01  0.12342085702E-01  0.10819329404E+00  0.20572131015E-01 0.  0.
         14    1    1    2    0    0  0.35473199266E-01  0.29415893892E-01 -0.12884983170E-01  0.47850449015E-01  0.00000000000E+00 0. -1.
     999901    1    1    2    0    0  0.25956665863E-01 -0.11518664002E+00  0.54289746714E-03  0.88788625695E+00  0.88000000000E+00 0. -1.
        -11    1    3    3    0    0 -0.41435668859E-01  0.69654599554E-01  0.38510148688E-02  0.81140429684E-01  0.51100000000E-03 0.  1.
         11    1    3    3    0    0 -0.19994196270E-01  0.16116146570E-01  0.84910708336E-02  0.27052864352E-01  0.51100000000E-03 0. -1.
</event>
<event>
 8    1  0.1118868E+005  0.1043930E+01  0.7957747E-01            NaN
         13   -1    0    0    0    0  0.00000000000E+00  0.00000000000E+00  0.74505805969E-08  0.10566000000E+00  0.10566000000E+00 0. -1.
     999900   -1    0    0    0    0 -0.00000000000E+00 -0.00000000000E+00 -0.74505805969E-08  0.93827000000E+00  0.93827000000E+00 0. -1.
     999902    2    1    2    0    0 -0.95732681802E-02  0.21178889098E-01  0.46374618576E-02  0.10202298131E+01  0.10199544954E+01 0.  0.
     999903    2    3    3    0    0  0.11913807970E+00 -0.15261411192E-01 -0.43160722538E-01  0.12883810739E+00  0.17595943858E-01 0.  0.
         14    1    1    2    0    0  0.95732681802E-02 -0.21178889098E-01 -0.46374618576E-02  0.23700186910E-01  0.00000000000E+00 0.  1.
     999901    1    3    3    0    0 -0.12871134788E+00  0.36440300290E-01  0.47798184396E-01  0.89139170570E+00  0.88000000000E+00 0. -1.
        -11    1    4    4    0    0  0.71717819769E-01 -0.27125452011E-02 -0.31711244942E-01  0.78464436216E-01  0.51100000000E-03 0. -1.
         11    1    4    4    0    0  0.47420259930E-01 -0.12548865991E-01 -0.11449477596E-01  0.50373671175E-01  0.51100000000E-03 0.  1.
</event>
<event>
 8    1  0.1118868E+005  0.1043930E+01  0.7957747E-01            NaN
         13   -1    0    0    0    0  0.00000000000E+00  0.00000000000E+00  0.74505805969E-08  0.10566000000E+00  0.10566000000E+00 0.  1.
     999900   -1    0    0    0    0 -0.00000000000E+00 -0.00000000000E+00 -0.74505805969E-08  0.93827000000E+00  0.93827000000E+00 0. -1.
     999902    2    1    2    0    0  0.16698280255E-01  0.99405583759E-02 -0.10685866572E-01  0.10217526465E+01  0.10215119361E+01 0.  0.
     999903    2    3    3    0    0  0.37694826923E-01 -0.10665563000E+00  0.62645792557E-01  0.13079077394E+00  0.19631806702E-01 0.  0.
         14    1    1    2    0    0 -0.16698280255E-01 -0.99405583759E-02  0.10685866572E-01  0.22177353510E-01  0.00000000000E+00 0.  1.
     999901    1    3    3    0    0 -0.20996546668E-01  0.11659618837E+00 -0.73331659129E-01  0.89096187255E+00  0.88000000000E+00 0. -1.
        -11    1    4    4    0    0  0.34889366142E-01 -0.73192319954E-01  0.41295601924E-01  0.90994348337E-01  0.51100000000E-03 0.  1.
         11    1    4    4    0    0  0.28054607812E-02 -0.33463310044E-01  0.21350190633E-01  0.39796425598E-01  0.51100000000E-03 0. -1.
</event>
<event>
 8    1  0.1118868E+005  0.1043930E+01  0.7957747E-01            NaN
         13   -1    0    0    0    0  0.00000000000E+00  0.00000000000E+00  0.74505805969E-08  0.10566000000E+00  0.10566000000E+00 0. -1.
     999900   -1    0    0    0    0 -0.00000000000E+00 -0.00000000000E+00 -0.74505805969E-08  0.93827000000E+00  0.93827000000E+00 0. -1.
     999902    2    1    2    0    0 -0.17750112707E-01 -0.19285522035E-02  0.14721555079E-01  0.10207889110E+01  0.10205265753E+01 0.  0.
     999903    2    3    3    0    0  0.10860296538E+00 -0.66963298438E-01 -0.26959268790E-02  0.12921839378E+00  0.20283930624E-01 0.  0.
         14    1    1    2    0    0  0.17750112707E-01  0.19285522035E-02 -0.14721555079E-01  0.23141088969E-01  0.00000000000E+00 0. -1.
     999901    1    3    3    0    0 -0.12635307809E+00  0.65034746235E-01  0.17417481958E-01  0.89157051725E+00  0.88000000000E+00 0.  1.
        -11    1    4    4    0    0  0.12244031844E-01 -0.14277337020E-01  0.38311332985E-02  0.19201493993E-01  0.51100000000E-03 0.  1.
         11    1    4    4    0    0  0.96358933535E-01 -0.52685961418E-01 -0.65270601776E-02  0.11001689978E+00  0.51100000000E-03 0. -1.
</event>
<event>
 8    1  0.1118868E+005  0.1043930E+01  0.7957747E-01            NaN
         13   -1    0    0    0    0  0.00000000000E+00  0.00000000000E+00  0.74505805969E-08  0.10566000000E+00  0.10566000000E+00 0. -1.
     999900   -1    0    0    0    0 -0.00000000000E+00 -0.00000000000E+00 -0.74505805969E-08  0.93827000000E+00  0.93827000000E+00 0. -1.
     999902    2    1    2    0    0  0.92436230940E-02 -0.42920743045E-02 -0.22183607057E-01  0.10195173211E+01  0.10192249943E+01 0.  0.
     999903    2    3    3    0    0 -0.64627928899E-01  0.24334236132E-01  0.10445727253E+00  0.12692873488E+00  0.20752294149E-01 0.  0.
         14    1    1    2    0    0 -0.92436230940E-02  0.42920743045E-02  0.22183607057E-01  0.24412678915E-01  0.00000000000E+00 0. -1.
     999901    1    3    3    0    0  0.73871551993E-01 -0.28626310437E-01 -0.12664087958E+00  0.89258858621E+00  0.88000000000E+00 0. -1.
        -11    1    4    4    0    0 -0.33075287394E-01  0.22972398188E-01  0.63723555791E-01  0.75383409304E-01  0.51100000000E-03 0. -1.
         11    1    4    4    0    0 -0.31552641505E-01  0.13618379444E-02  0.40733716736E-01  0.51545325575E-01  0.51100000000E-03 0.  1.
</event>
<event>
 8    1  0.1118868E+005  0.1043930E+01  0.7957747E-01            NaN
         13   -1    0    0    0    0  0.00000000000E+00  0.00000000000E+00  0.74505805969E-08  0.10566000000E+00  0.10566000000E+00 0. -1.
     999900   -1    0    0    0    0 -0.00000000000E+00 -0.00000000000E+00 -0.74505805969E-08  0.93827000000E+00  0.93827000000E+00 0.  1.
     999902    2    1    2    0    0 -0.19209175907E-01  0.10711752394E-01  0.77675439335E-02  0.10206047172E+01  0.10203381400E+01 0.  0.
     999903    2    3    3    0    0  0.78546961784E-01  0.59035313119E-01  0.83649168318E-01  0.13063311660E+00  0.20323247566E-01 0.  0.
         14    1    1    2    0    0  0.19209175907E-01 -0.10711752394E-01 -0.77675439335E-02  0.23325282788E-01  0.00000000000E+00 0. -1.
     999901    1    3    3    0    0 -0.97756137691E-01 -0.48323560725E-01 -0.75881624384E-01  0.88997160061E+00  0.88000000000E+00 0. -1.
        -11    1    4    4    0    0  0.68661410043E-01  0.44956128078E-01  0.61363125306E-01  0.10247505525E+00  0.51100000000E-03 0. -1.
         11    1    4    4    0    0  0.98855517410E-02  0.14079185041E-01  0.22286043011E-01  0.28158061346E-01  0.51100000000E-03 0.  1.
</event>
<event>
 8    1  0.1118868E+005  0.1043930E+01  0.7957747E-01            NaN
         13   -1    0    0    0    0  0.00000000000E+00  0.00000000000E+00  0.74505805969E-08  0.10566000000E+00  0.10566000000E+00 0. -1.
     999900   -1    0    0    0    0 -0.00000000000E+00 -0.00000000000E+00 -0.74505805969E-08  0.93827000000E+00  0.93827000000E+00 0.  1.
     999902    2    1    2    0    0 -0.16347036785E-01 -0.16505323596E-01 -0.75288630769E-03  0.10206874064E+01  0.10204227376E+01 0.  0.
     999903    2    3    3    0    0  0.64770663847E-01 -0.45452337833E-01  0.10200822203E+00  0.13053132102E+00  0.19276786435E-01 0.  0.
         14    1    1    2    0    0  0.16347036785E-01  0.16505323596E-01  0.75288630769E-03  0.23242593582E-01  0.00000000000E+00 0.  1.
     999901    1    3    3    0    0 -0.81117700632E-01  0.28947014237E-01 -0.10276110834E+00  0.89015608540E+00  0.88000000000E+00 0.  1.
        -11    1    4    4    0    0  0.58079613054E-01 -0.39481046075E-01  0.78315871201E-01  0.10519330423E+00  0.51100000000E-03 0. -1.
         11    1    4    4    0    0  0.66910507928E-02 -0.59712917571E-02  0.23692350828E-01  0.25338016788E-01  0.51100000000E-03 0.  1.
</event>
<event>
 8    1  0.1118868E+005  0.1043930E+01  0.7957747E-01            NaN
         13   -1    0    0    0    0  0.00000000000E+00  0.00000000000E+00  0.74505805969E-08  0.10566000000E+00  0.10566000000E+00 0.  1.
     999900   -1    0    0    0    0 -0.00000000000E+00 -0.00000000000E+00 -0.74505805969E-08  0.93827000000E+00  0.93827000000E+00 0.  1.
     999902    2    1    2    0    0  0.62326567503E-02 -0.18561232796E-01  0.56737651036E-02  0.10235447852E+01  0.10233417661E+01 0.  0.
     999903    2    3    3    0    0 -0.39951646289E-01  0.30535604571E-01  0.12164814638E+00  0.13337988674E+00  0.21525925821E-01 0.  0.
         14    1    1    2    0    0 -0.62326567503E-02  0.18561232796E-01 -0.56737651036E-02  0.20385214827E-01  0.00000000000E+00 0.  1.
     999901    1    3    3    0    0  0.46184303040E-01 -0.49096837367E-01 -0.11597438127E+00  0.89016489843E+00  0.88000000000E+00 0.  1.
        -11    1    4    4    0    0 -0.12908208496E-01  0.17589108829E-01  0.31081296660E-01  0.37977713451E-01  0.51100000000E-03 0. -1.
         11    1    4    4    0    0 -0.27043437793E-01  0.12946495742E-01  0.90566849718E-01  0.95402173291E-01  0.51100000000E-03 0.  1.
</event>
<event>
 8    1  0.1118868E+005  0.1043930E+01  0.7957747E-01            NaN
         13   -1    0    0    0    0  0.00000000000E+00  0.00000000000E+00  0.74505805969E-08  0.10566000000E+00  0.10566000000E+00 0.  1.
     999900   -1    0    0    0    0 -0.00000000000E+00 -0.00000000000E+00 -0.74505805969E-08  0.93827000000E+00  0.93827000000E+00 0.  1.
     999902    2    1    2    0    0 -0.22176492356E-01  0.48246919395E-02  0.37925397125E-02  0.10209200495E+01  0.10206607123E+01 0.  0.
     999903    2    3    3    0    0  0.22698936916E-01  0.53618547946E-01  0.11598923245E+00  0.13132309445E+00  0.20051500481E-01 0.  0.
         14    1    1    2    0    0  0.22176492356E-01 -0.48246919395E-02 -0.37925397125E-02  0.23009950521E-01  0.00000000000E+00 0. -1.
     999901    1    3    3    0    0 -0.44875429272E-01 -0.48793856006E-01 -0.11219669273E+00  0.88959695503E+00  0.88000000000E+00 0.  1.
        -11    1    4    4    0    0  0.74978121655E-02  0.20286509670E-02  0.13825571539E-01  0.15866321609E-01  0.51100000000E-03 0. -1.
         11    1    4    4    0    0  0.15201124751E-01  0.51589896979E-01  0.10216366091E+00  0.11545677284E+00  0.51100000000E-03 0.  1.
</event>
<event>
 8    1  0.1118868E+005  0.1043930E+01  0.7957747E-01            NaN
         13   -1    0    0    0    0  0.00000000000E+00  0.00000000000E+00  0.74505805969E-08  0.10566000000E+00  0.10566000000E+00 0.  1.
     999900   -1    0    0    0    0 -0.00000000000E+00 -0.00000000000E+00 -0.74505805969E-08  0.93827000000E+00  0.93827000000E+00 0.  1.
     999902    2    1    2    0    0 -0.16779062975E-01  0.10803510738E-01 -0.14432013265E-01  0.10193020524E+01  0.10190044839E+01 0.  0.
     999903    2    3    3    0    0 -0.82263415348E-01  0.24172653459E-02 -0.10196794459E+00  0.13249820212E+00  0.19626491381E-01 0.  0.
         14    1    1    2    0    0  0.16779062975E-01 -0.10803510738E-01  0.14432013265E-01  0.24627947650E-01  0.00000000000E+00 0.  1.
     999901    1    3    3    0    0  0.65484352373E-01  0.83862453918E-02  0.87535931324E-01  0.88680385023E+00  0.88000000000E+00 0.  1.
        -11    1    4    4    0    0 -0.26366473833E-01  0.87843991682E-02 -0.26840158627E-01  0.38639511478E-01  0.51100000000E-03 0.  1.
         11    1    4    4    0    0 -0.55896941515E-01 -0.63671338223E-02 -0.75127785961E-01  0.93858690638E-01  0.51100000000E-03 0. -1.
</event>
<event>
 8    1  0.1118868E+005  0.1043930E+01  0.7957747E-01            NaN
         13   -1    0    0    0    0  0.00000000000E+00  0.00000000000E+00  0.74505805969E-08  0.10566000000E+00  0.10566000000E+00 0.  1.
     999900   -1    0    0    0    0 -0.00000000000E+00 -0.00000000000E+00 -0.74505805969E-08  0.93827000000E+00  0.93827000000E+00 0.  1.
     999902    2    1    2    0    0 -0.16156483777E-02 -0.19646078166E-01  0.12962325383E-01  0.10203376159E+01  0.10200648263E+01 0.  0.
     999903    2    3    3    0    0 -0.98500952851E-01 -0.40789497319E-01 -0.72779915827E-01  0.13062668628E+00  0.20004854854E-01 0.  0.
         14    1    1    2    0    0  0.16156483777E-02  0.19646078166E-01 -0.12962325383E-01  0.23592384074E-01  0.00000000000E+00 0. -1.
     999901    1    3    3    0    0  0.96885304473E-01  0.21143419153E-01  0.85742241210E-01  0.88971092964E+00  0.88000000000E+00 0. -1.
        -11    1    4    4    0    0 -0.87635546985E-01 -0.31127871935E-01 -0.68357336446E-01  0.11542062239E+00  0.51100000000E-03 0.  1.
         11    1    4    4    0    0 -0.10865405866E-01 -0.96616253836E-02 -0.44225793810E-02  0.15206063891E-01  0.51100000000E-03 0. -1.
</event>
<event>
 8    1  0.1118868E+005  0.1043930E+01  0.7957747E-01            NaN
         13   -1    0    0    0    0  0.00000000000E+00  0.00000000000E+00  0.74505805969E-08  0.10566000000E+00  0.10566000000E+00 0.  1.
     999900   -1    0    0    0    0 -0.00000000000E+00 -0.00000000000E+00 -0.74505805969E-08  0.93827000000E+00  0.93827000000E+00 0.  1.
     999902    2    1    2    0    0  0.64425769982E-02  0.17294032245E-01 -0.13856668241E-01  0.10208519237E+01  0.10205910310E+01 0.  0.
     999903    2    3    3    0    0  0.86133660404E-01  0.95315747128E-01  0.27483371398E-01  0.13285020321E+00  0.19741876408E-01 0.  0.
         14    1    1    2    0    0 -0.64425769982E-02 -0.17294032245E-01  0.13856668241E-01  0.23078076272E-01  0.00000000000E+00 0.  1.
     999901    1    3    3    0    0 -0.79691083406E-01 -0.78021714883E-01 -0.41340039639E-01  0.88800172052E+00  0.88000000000E+00 0. -1.
        -11    1    4    4    0    0  0.27456036841E-01  0.42920222546E-01  0.60247748242E-02  0.51308269266E-01  0.51100000000E-03 0. -1.
         11    1    4    4    0    0  0.58677623563E-01  0.52395524582E-01  0.21458596574E-01  0.81541933943E-01  0.51100000000E-03 0.  1.
</event>
<event>
 8    1  0.1118868E+005  0.1043930E+01  0.7957747E-01            NaN
         13   -1    0    0    0    0  0.00000000000E+00  0.00000000000E+00  0.74505805969E-08  0.10566000000E+00  0.10566000000E+00 0. -1.
     999900   -1    0    0    0    0 -0.00000000000E+00 -0.00000000000E+00 -0.74505805969E-08  0.93827000000E+00  0.93827000000E+00 0. -1.
     999902    2    1    2    0    0 -0.16444968521E-01  0.47857491285E-02 -0.16389077671E-01  0.10202246788E+01  0.10199492404E+01 0.  0.
     999903    2    3    3    0    0 -0.73915943545E-01  0.50177709963E-01  0.93052554127E-01  0.13042649169E+00  0.19259351458E-01 0.  0.
         14    1    1    2    0    0  0.16444968521E-01 -0.47857491285E-02  0.16389077671E-01  0.23705321160E-01  0.00000000000E+00 0. -1.
     999901    1    3    3    0    0  0.57470975024E-01 -0.45391960834E-01 -0.10944163180E+00  0.88979818715E+00  0.88000000000E+00 0. -1.
        -11    1    4    4    0    0 -0.41956345318E-01  0.39420799908E-01  0.55812513392E-01  0.80184987061E-01  0.51100000000E-03 0.  1.
         11    1    4    4    0    0 -0.31959598227E-01  0.10756910055E-01  0.37240040736E-01  0.50241504633E-01  0.51100000000E-03 0. -1.
</event>
<event>
 8    1  0.1118868E+005  0.1043930E+01  0.7957747E-01            NaN
         13   -1    0    0    0    0  0.00000000000E+00  0.00000000000E+00  0.74505805969E-08  0.10566000000E+00  0.10566000000E+00 0.  1.
     999900   -1    0    0    0    0 -0.00000000000E+00 -0.00000000000E+00 -0.74505805969E-08  0.93827000000E+00  0.93827000000E+00 0. -1.
     999902    2    1    2    0    0  0.65668073158E-02 -0.57545725951E-02 -0.29446495761E-01  0.10132162543E+01  0.10127506326E+01 0.  0.
     999903    2    3    3    0    0 -0.66481786184E-01 -0.93470094026E-01 -0.46630518830E-01  0.12567729718E+00  0.21538137521E-01 0.  0.
         14    1    1    2    0    0 -0.65668073158E-02  0.57545725951E-02  0.29446495761E-01  0.30713745729E-01  0.00000000000E+00 0.  1.
     999901    1    3    3    0    0  0.73048593499E-01  0.87715521431E-01  0.17184023068E-01  0.88753895709E+00  0.88000000000E+00 0.  1.
        -11    1    4    4    0    0 -0.24454726512E-01 -0.38591297418E-01 -0.29747974463E-01  0.54520867481E-01  0.51100000000E-03 0. -1.
         11    1    4    4    0    0 -0.42027059672E-01 -0.54878796607E-01 -0.16882544367E-01  0.71156429696E-01  0.51100000000E-03 0.  1.
</event>
<event>
 8    1  0.1118868E+005  0.1043930E+01  0.7957747E-01            NaN
         13   -1    0    0    0    0  0.00000000000E+00  0.00000000000E+00  0.74505805969E-08  0.10566000000E+00  0.10566000000E+00 0.  1.
     999900   -1    0    0    0    0 -0.00000000000E+00 -0.00000000000E+00 -0.74505805969E-08  0.93827000000E+00  0.93827000000E+00 0. -1.
     999902    2    1    2    0    0 -0.11560337165E-01 -0.34563980411E-02 -0.16836908127E-01  0.10232160057E+01  0.10230063171E+01 0.  0.
     999903    2    3    3    0    0  0.11601319659E+00 -0.53139099467E-01 -0.29948598508E-01  0.13253351812E+00  0.19631332035E-01 0.  0.
         14    1    1    2    0    0  0.11560337165E-01  0.34563980411E-02  0.16836908127E-01  0.20713994257E-01  0.00000000000E+00 0.  1.
     999901    1    3    3    0    0 -0.12757353375E+00  0.49682701426E-01  0.13111690380E-01  0.89068248762E+00  0.88000000000E+00 0. -1.
        -11    1    4    4    0    0  0.11402144799E+00 -0.50220385113E-01 -0.26124338358E-01  0.12730168836E+00  0.51100000000E-03 0.  1.
         11    1    4    4    0    0  0.19917485954E-02 -0.29187143536E-02 -0.38242601491E-02  0.52318297596E-02  0.51100000000E-03 0. -1.
</event>
<event>
 8    1  0.1118868E+005  0.1043930E+01  0.7957747E-01            NaN
         13   -1    0    0    0    0  0.00000000000E+00  0.00000000000E+00  0.74505805969E-08  0.10566000000E+00  0.10566000000E+00 0.  1.
     999900   -1    0    0    0    0 -0.00000000000E+00 -0.00000000000E+00 -0.74505805969E-08  0.93827000000E+00  0.93827000000E+00 0. -1.
     999902    2    1    2    0    0 -0.59726100608E-03 -0.19172380588E-01  0.11891858390E-01  0.10213611455E+01  0.10211117648E+01 0.  0.
     999903    2    3    3    0    0 -0.31123675764E-01  0.78273348419E-01 -0.96120228991E-01  0.12889593993E+00  0.16723176863E-01 0.  0.
         14    1    1    2    0    0  0.59726100608E-03  0.19172380588E-01 -0.11891858390E-01  0.22568854514E-01  0.00000000000E+00 0. -1.
     999901    1    3    3    0    0  0.30526414758E-01 -0.97445729007E-01  0.10801208738E+00  0.89246520555E+00  0.88000000000E+00 0.  1.
        -11    1    4    4    0    0 -0.30091115745E-02  0.80653891285E-02 -0.34664536721E-02  0.92942281187E-02  0.51100000000E-03 0. -1.
         11    1    4    4    0    0 -0.28114564189E-01  0.70207959291E-01 -0.92653775319E-01  0.11960171182E+00  0.51100000000E-03 0.  1.
</event>
<event>
 7    1  0.1118868E+005  0.1043930E+01  0.7957747E-01            NaN
         13   -1    0    0    0    0  0.00000000000E+00  0.00000000000E+00  0.74505805969E-08  0.10566000000E+00  0.10566000000E+00 0. -1.
     999900   -1    0    0    0    0 -0.00000000000E+00 -0.00000000000E+00 -0.74505805969E-08  0.93827000000E+00  0.93827000000E+00 0.  1.
     999902    2    1    2    0    0  0.21426036421E-01 -0.27409650348E-02  0.22250059072E-02  0.10222150610E+01  0.10219843895E+01 0.  0.
         14    1    1    2    0    0 -0.21426036421E-01  0.27409650348E-02 -0.22250059072E-02  0.21714939036E-01  0.00000000000E+00 0.  1.
     999901    1    3    3    0    0  0.82168629465E-01  0.86628440086E-01 -0.34707020147E-01  0.88874110265E+00  0.88000000000E+00 0. -1.
        -11    1    3    3    0    0 -0.73178168929E-01 -0.59290315392E-01  0.18231543314E-01  0.95932456445E-01  0.51100000000E-03 0. -1.
         11    1    3    3    0    0  0.12435575885E-01 -0.30079089729E-01  0.18700482740E-01  0.37541501864E-01  0.51100000000E-03 0.  1.
</event>
<event>
 8    1  0.1118868E+005  0.1043930E+01  0.7957747E-01            NaN
         13   -1    0    0    0    0  0.00000000000E+00  0.00000000000E+00  0.74505805969E-08  0.10566000000E+00  0.10566000000E+00 0.  1.
     999900   -1    0    0    0    0 -0.00000000000E+00 -0.00000000000E+00 -0.74505805969E-08  0.93827000000E+00  0.93827000000E+00 0. -1.
     999902    2    1    2    0    0  0.18933617032E-01  0.35152814865E-02  0.11953359853E-01  0.10212645666E+01  0.10210130230E+01 0.  0.
     999903    2    3    3    0    0  0.82071928464E-01  0.98708100727E-01 -0.28313742133E-01  0.13296869323E+00  0.19997869759E-01 0.  0.
         14    1    1    2    0    0 -0.18933617032E-01 -0.35152814865E-02 -0.11953359853E-01  0.22665433365E-01  0.00000000000E+00 0. -1.
     999901    1    3    3    0    0 -0.63138311433E-01 -0.95192819240E-01  0.40267101987E-01  0.88829587340E+00  0.88000000000E+00 0. -1.
        -11    1    4    4    0    0  0.38119375036E-01  0.31455777425E-01 -0.76730461096E-02  0.50016891588E-01  0.51100000000E-03 0. -1.
         11    1    4    4    0    0  0.43952553428E-01  0.67252323302E-01 -0.20640696024E-01  0.82951801642E-01  0.51100000000E-03 0.  1.
</event>
<event>
 8    1  0.1118868E+005  0.1043930E+01  0.7957747E-01            NaN
         13   -1    0    0    0    0  0.00000000000E+00  0.00000000000E+00  0.74505805969E-08  0.10566000000E+00  0.10566000000E+00 0.  1.
     999900   -1    0    0    0    0 -0.00000000000E+00 -0.00000000000E+00 -0.74505805969E-08  0.93827000000E+00  0.93827000000E+00 0.  1.
     999902    2    1    2    0    0 -0.49977490355E-02 -0.21338748902E-01  0.99533530003E-02  0.10198595007E+01  0.10195754078E+01 0.  0.
     999903    2    3    3    0    0 -0.10687487806E+00 -0.24121420243E-01 -0.68000055355E-01  0.13055447624E+00  0.20405422394E-01 0.  0.
         14    1    1    2    0    0  0.49977490355E-02  0.21338748902E-01 -0.99533530003E-02  0.24070499290E-01  0.00000000000E+00 0. -1.
     999901    1    3    3    0    0  0.10187712902E+00  0.27826713408E-02  0.77953408355E-01  0.88930502447E+00  0.88000000000E+00 0.  1.
        -11    1    4    4    0    0 -0.53529172648E-01 -0.23468851299E-02 -0.37079120419E-01  0.65161357308E-01  0.51100000000E-03 0. -1.
         11    1    4    4    0    0 -0.53345705409E-01 -0.21774535113E-01 -0.30920934936E-01  0.65393118930E-01  0.51100000000E-03 0.  1.
</event>
<event>
 8    1  0.1118868E+005  0.1043930E+01  0.7957747E-01            NaN
         13   -1    0    0    0    0  0.00000000000E+00  0.00000000000E+00  0.74505805969E-08  0.10566000000E+00  0.10566000000E+00 0. -1.
     999900   -1    0    0    0    0 -0.00000000000E+00 -0.00000000000E+00 -0.74505805969E-08  0.93827000000E+00  0.93827000000E+00 0. -1.
     999902    2    1    2    0    0 -0.73439693890E-02  0.92012023351E-02  0.22046667825E-01  0.10189369695E+01  0.10186304022E+01 0.  0.
     999903    2    3    3    0    0  0.10381139348E+00  0.71303016919E-01 -0.17906906271E-01  0.12887605129E+00  0.20674952609E-01 0.  0.
         14    1    1    2    0    0  0.73439693890E-02 -0.92012023351E-02 -0.22046667825E-01  0.24993030488E-01  0.00000000000E+00 0. -1.
     999901    1    3    3    0    0 -0.11115536287E+00 -0.62101814584E-01  0.39953574096E-01  0.89006091823E+00  0.88000000000E+00 0.  1.
        -11    1    4    4    0    0  0.48609138817E-01  0.29373081448E-01  0.17375636756E-02  0.56823468205E-01  0.51100000000E-03 0.  1.
         11    1    4    4    0    0  0.55202254661E-01  0.41929935471E-01 -0.19644469946E-01  0.72052583081E-01  0.51100000000E-03 0. -1.
</event>
<event>
 8    1  0.1118868E+005  0.1043930E+01  0.7957747E-01            NaN
         13   -1    0    0    0    0  0.00000000000E+00  0.00000000000E+00  0.74505805969E-08  0.10566000000E+00  0.10566000000E+00 0. -1.
     999900   -1    0    0    0    0 -0.00000000000E+00 -0.00000000000E+00 -0.74505805969E-08  0.93827000000E+00  0.93827000000E+00 0. -1.
     999902    2    1    2    0    0 -0.20878786976E-01 -0.10533458149E-01 -0.57009415227E-02  0.10198597233E+01  0.10195756357E+01 0.  0.
     999903    2    3    3    0    0  0.47161726533E-01  0.11720826167E+00 -0.28290003562E-02  0.12803255030E+00  0.20550562994E-01 0.  0.
         14    1    1    2    0    0  0.20878786976E-01  0.10533458149E-01  0.57009415227E-02  0.24070276700E-01  0.00000000000E+00 0. -1.
     999901    1    3    3    0    0 -0.68040513509E-01 -0.12774171982E+00 -0.28719411664E-02  0.89182717300E+00  0.88000000000E+00 0.  1.
        -11    1    4    4    0    0  0.48983242609E-01  0.10998493917E+00 -0.40382606737E-02  0.12046830941E+00  0.51100000000E-03 0.  1.
         11    1    4    4    0    0 -0.18215160765E-02  0.72233224987E-02  0.12092603175E-02  0.75642408907E-02  0.51100000000E-03 0. -1.
</event>
<event>
 8    1  0.1118868E+005  0.1043930E+01  0.7957747E-01            NaN
         13   -1    0    0    0    0  0.00000000000E+00  0.00000000000E+00  0.74505805969E-08  0.10566000000E+00  0.10566000000E+00 0. -1.
     999900   -1    0    0    0    0 -0.00000000000E+00 -0.00000000000E+00 -0.74505805969E-08  0.93827000000E+00  0.93827000000E+00 0.  1.
     999902    2    1    2    0    0  0.23496044726E-01 -0.40472860578E-02 -0.12431969659E-03  0.10200875987E+01  0.10198089277E+01 0.  0.
     999903    2    3    3    0    0  0.79815515506E-01 -0.17508693882E-01 -0.10212033563E+00  0.13230593665E+00  0.19980666811E-01 0.  0.
         14    1    1    2    0    0 -0.23496044726E-01  0.40472860578E-02  0.12431969659E-03  0.23842401255E-01  0.00000000000E+00 0. -1.
     999901    1    3    3    0    0 -0.56319470780E-01  0.13461407825E-01  0.10199601593E+00  0.88778166210E+00  0.88000000000E+00 0. -1.
        -11    1    4    4    0    0  0.33863135778E-01 -0.17963411056E-02 -0.55136213363E-01  0.64731769257E-01  0.51100000000E-03 0.  1.
         11    1    4    4    0    0  0.45952379728E-01 -0.15712352777E-01 -0.46984122267E-01  0.67574167391E-01  0.51100000000E-03 0. -1.
</event>
<event>
 8    1  0.1118868E+005  0.1043930E+01  0.7957747E-01            NaN
         13   -1    0    0    0    0  0.00000000000E+00  0.00000000000E+00  0.74505805969E-08  0.10566000000E+00  0.10566000000E+00 0.  1.
     999900   -1    0    0    0    0 -0.00000000000E+00 -0.00000000000E+00 -0.74505805969E-08  0.93827000000E+00  0.93827000000E+00 0.  1.
     999902    2    1    2    0    0  0.92737242931E-02 -0.20996722432E-01 -0.57200778535E-02  0.10202744804E+01  0.10200002117E+01 0.  0.
     999903    2    3    3    0    0  0.10205877699E+00  0.64566156887E-01  0.43662196346E-01  0.12989889602E+00  0.19558967803E-01 0.  0.
         14    1    1    2    0    0 -0.92737242931E-02  0.20996722432E-01  0.57200778535E-02  0.23655519564E-01  0.00000000000E+00 0.  1.
     999901    1    3    3    0    0 -0.92785052696E-01 -0.85562879320E-01 -0.49382274199E-01  0.89037558442E+00  0.88000000000E+00 0. -1.
        -11    1    4    4    0    0  0.61453941420E-01  0.37047232609E-01  0.35887412675E-01  0.80232486373E-01  0.51100000000E-03 0. -1.
         11    1    4    4    0    0  0.40604835569E-01  0.27518924278E-01  0.77747836708E-02  0.49666409646E-01  0.51100000000E-03 0.  1.
</event>
<event>
 8    1  0.1118868E+005  0.1043930E+01  0.7957747E-01            NaN
         13   -1    0    0    0    0  0.00000000000E+00  0.00000000000E+00  0.74505805969E-08  0.10566000000E+00  0.10566000000E+00 0.  1.
     999900   -1    0    0    0    0 -0.00000000000E+00 -0.00000000000E+00 -0.74505805969E-08  0.93827000000E+00  0.93827000000E+00 0.  1.
     999902    2    1    2    0    0 -0.14289209551E-01 -0.47411732280E-02  0.15183384960E-01  0.10225478717E+01  0.10223242903E+01 0.  0.
     999903    2    3    3    0    0 -0.10923330588E+00  0.44836648088E-02 -0.72993713872E-01  0.13301165553E+00  0.20297780144E-01 0.  0.
         14    1    1    2    0    0  0.14289209551E-01  0.47411732280E-02 -0.15183384960E-01  0.21382128332E-01  0.00000000000E+00 0. -1.
     999901    1    3    3    0    0  0.94944096326E-01 -0.92248380369E-02  0.88177098832E-01  0.88953621614E+00  0.88000000000E+00 0. -1.
        -11    1    4    4    0    0 -0.45205579953E-01 -0.67474543182E-03 -0.18794547507E-01  0.48964230590E-01  0.51100000000E-03 0. -1.
         11    1    4    4    0    0 -0.64027725924E-01  0.51584102407E-02 -0.54199166365E-01  0.84047424939E-01  0.51100000000E-03 0.  1.
</event>
<event>
 8    1  0.1118868E+005  0.1043930E+01  0.7957747E-01            NaN
         13   -1    0    0    0    0  0.00000000000E+00  0.00000000000E+00  0.74505805969E-08  0.10566000000E+00  0.10566000000E+00 0. -1.
     999900   -1    0    0    0    0 -0.00000000000E+00 -0.00000000000E+00 -0.74505805969E-08  0.93827000000E+00  0.93827000000E+00 0. -1.
     999902    2    1    2    0    0 -0.13713291999E-01  0.20952135101E-01  0.49170357899E-03  0.10188842795E+01  0.10185764021E+01 0.  0.
     999903    2    3    3    0    0 -0.71520443017E-01 -0.31236835369E-01 -0.10150850336E+00  0.12957589792E+00  0.19875195946E-01 0.  0.
         14    1    1    2    0    0  0.13713291999E-01 -0.20952135101E-01 -0.49170357899E-03  0.25045720496E-01  0.00000000000E+00 0. -1.
     999901    1    3    3    0    0  0.57807151018E-01  0.52188970470E-01  0.10200020694E+00  0.88930838159E+00  0.88000000000E+00 0.  1.
        -11    1    4    4    0    0 -0.33507855193E-02 -0.75047491019E-02 -0.12626416436E-01  0.15074366842E-01  0.51100000000E-03 0. -1.
         11    1    4    4    0    0 -0.68169657498E-01 -0.23732086267E-01 -0.88882086921E-01  0.11450153107E+00  0.51100000000E-03 0.  1.
</event>
<event>
 8    1  0.1118868E+005  0.1043930E+01  0.7957747E-01            NaN
         13   -1    0    0    0    0  0.00000000000E+00  0.00000000000E+00  0.74505805969E-08  0.10566000000E+00  0.10566000000E+00 0. -1.
     999900   -1    0    0    0    0 -0.00000000000E+00 -0.00000000000E+00 -0.74505805969E-08  0.93827000000E+00  0.93827000000E+00 0. -1.
     999902    2    1    2    0    0 -0.21934123884E-01  0.43227848580E-02  0.79567833348E-02  0.10202002158E+01  0.10199242019E+01 0.  0.
     999903    2    3    3    0    0  0.19071224349E-01  0.12495745936E+00  0.27188703414E-01  0.13081614235E+00  0.19888671598E-01 0.  0.
         14    1    1    2    0    0  0.21934123884E-01 -0.43227848580E-02 -0.79567833348E-02  0.23729784249E-01  0.00000000000E+00 0.  1.
     999901    1    3    3    0    0 -0.41005348233E-01 -0.12063467450E+00 -0.19231920080E-01  0.88938407340E+00  0.88000000000E+00 0.  1.
        -11    1    4    4    0    0  0.15361178227E-01  0.80683476532E-01  0.26754180293E-01  0.86381922102E-01  0.51100000000E-03 0. -1.
         11    1    4    4    0    0  0.37100461217E-02  0.44273982825E-01  0.43452312104E-03  0.44434220244E-01  0.51100000000E-03 0.  1.
</event>
<event>
 8    1  0.1118868E+005  0.1043930E+01  0.7957747E-01            NaN
         13   -1    0    0    0    0  0.00000000000E+00  0.00000000000E+00  0.74505805969E-08  0.10566000000E+00  0.10566000000E+00 0.  1.
     999900   -1    0    0    0    0 -0.00000000000E+00 -0.00000000000E+00 -0.74505805969E-08  0.93827000000E+00  0.93827000000E+00 0.  1.
     999902    2    1    2    0    0  0.13528846323E-01 -0.15495193391E-01  0.12949774681E-01  0.10196230593E+01  0.10193332898E+01 0.  0.
     999903    2    3    3    0    0  0.63545578648E-01  0.65849976852E-01 -0.88315366124E-01  0.12868347720E+00  0.19636022879E-01 0.  0.
         14    1    1    2    0    0 -0.13528846323E-01  0.15495193391E-01 -0.12949774681E-01  0.24306940683E-01  0.00000000000E+00 0. -1.
     999901    1    3    3    0    0 -0.50016732324E-01 -0.81345170243E-01  0.10126514081E+00  0.89093958211E+00  0.88000000000E+00 0.  1.
        -11    1    4    4    0    0  0.25485376454E-01  0.17684560298E-01 -0.39643550534E-01  0.50340046741E-01  0.51100000000E-03 0.  1.
         11    1    4    4    0    0  0.38060202193E-01  0.48165416554E-01 -0.48671815590E-01  0.78343430463E-01  0.51100000000E-03 0. -1.
</event>
<event>
 8    1  0.1118868E+005  0.1043930E+01  0.7957747E-01            NaN
         13   -1    0    0    0    0  0.00000000000E+00  0.00000000000E+00  0.74505805969E-08  0.10566000000E+00  0.10566000000E+00 0.  1.
     999900   -1    0    0    0    0 -0.00000000000E+00 -0.00000000000E+00 -0.74505805969E-08  0.93827000000E+00  0.93827000000E+00 0. -1.
     999902    2    1    2    0    0 -0.19204203087E-01  0.14100306256E-01  0.22238996890E-02  0.10200016532E+01  0.10197209455E+01 0.  0.
     999903    2    3    3    0    0 -0.11648493626E-01 -0.12142111731E+00  0.34707205776E-01  0.12900316261E+00  0.23631561494E-01 0.  0.
         14    1    1    2    0    0  0.19204203087E-01 -0.14100306256E-01 -0.22238996890E-02  0.23928346841E-01  0.00000000000E+00 0. -1.
     999901    1    3    3    0    0 -0.75557094618E-02  0.13552142356E+00 -0.32483306087E-01  0.89099849055E+00  0.88000000000E+00 0.  1.
        -11    1    4    4    0    0 -0.62891137405E-02 -0.11137653285E-01 -0.12972527845E-02  0.12866400357E-01  0.51100000000E-03 0.  1.
         11    1    4    4    0    0 -0.53593798851E-02 -0.11028346402E+00  0.36004458561E-01  0.11613676225E+00  0.51100000000E-03 0. -1.
</event>
<event>
 8    1  0.1118868E+005  0.1043930E+01  0.7957747E-01            NaN
         13   -1    0    0    0    0  0.00000000000E+00  0.00000000000E+00  0.74505805969E-08  0.10566000000E+00  0.10566000000E+00 0.  1.
     999900   -1    0    0    0    0 -0.00000000000E+00 -0.00000000000E+00 -0.74505805969E-08  0.93827000000E+00  0.93827000000E+00 0.  1.
     999902    2    1    2    0    0 -0.88192088231E-02  0.20682858923E-01  0.10448057964E-01  0.10191364320E+01  0.10188347982E+01 0.  0.
     999903    2    3    3    0    0  0.44476180050E-02  0.81623173806E-01  0.10204882445E+00  0.13218635954E+00  0.19420279846E-01 0.  0.
         14    1    1    2    0    0  0.88192088231E-02 -0.20682858923E-01 -0.10448057964E-01  0.24793567970E-01  0.00000000000E+00 0. -1.
     999901    1    3    3    0    0 -0.13266826828E-01 -0.60940314883E-01 -0.91600766481E-01  0.88695007249E+00  0.88000000000E+00 0.  1.
        -11    1    4    4    0    0 -0.47814339293E-02  0.40147997786E-01  0.39173613331E-01  0.56298818274E-01  0.51100000000E-03 0. -1.
         11    1    4    4    0    0  0.92290519343E-02  0.41475176020E-01  0.62875211114E-01  0.75887541265E-01  0.51100000000E-03 0.  1.
</event>
<event>
 8    1  0.1118868E+005  0.1043930E+01  0.7957747E-01            NaN
         13   -1    0    0    0    0  0.00000000000E+00  0.00000000000E+00  0.74505805969E-08  0.10566000000E+00  0.10566000000E+00 0.  1.
     999900   -1    0    0    0    0 -0.00000000000E+00 -0.00000000000E+00 -0.74505805969E-08  0.93827000000E+00  0.93827000000E+00 0. -1.
     999902    2    1    2    0    0 -0.12071375585E-03 -0.94771212210E-02 -0.21480044621E-01  0.10204518673E+01  0.10201817440E+01 0.  0.
     999903    2    3    3    0    0  0.61597488538E-01  0.11194192956E+00  0.76899310039E-02  0.12949585836E+00  0.19616220468E-01 0.  0.
         14    1    1    2    0    0  0.12071375585E-03  0.94771212210E-02  0.21480044621E-01  0.23478132706E-01  0.00000000000E+00 0.  1.
     999901    1    3    3    0    0 -0.61718202294E-01 -0.12141905078E+00 -0.29169975625E-01  0.89095600894E+00  0.88000000000E+00 0. -1.
        -11    1    4    4    0    0  0.34363044321E-01  0.54876859432E-01  0.12994191809E-01  0.66040886259E-01  0.51100000000E-03 0. -1.
         11    1    4    4    0    0  0.27234444217E-01  0.57065070124E-01 -0.53042608048E-02  0.63454972096E-01  0.51100000000E-03 0.  1.
</event>
<event>
 8    1  0.1665755E+005  0.1043930E+01  0.7957747E-01            NaN
         13   -1    0    0    0    0  0.00000000000E+00  0.00000000000E+00  0.74505805969E-08  0.10566000000E+00  0.10566000000E+00 0.  1.
     999900   -1    0    0    0    0 -0.00000000000E+00 -0.00000000000E+00 -0.74505805969E-08  0.93827000000E+00  0.93827000000E+00 0. -1.
     999902    2    1    2    0    0 -0.84987255414E-02  0.20958456723E-01  0.46846564555E-02  0.10208338694E+01  0.10205725636E+01 0.  0.
     999903    2    3    3    0    0 -0.56105951392E-01  0.41436962922E-01  0.11196287532E+00  0.13280547263E+00  0.15385331760E-01 0.  0.
         14    1    1    2    0    0  0.84987255414E-02 -0.20958456723E-01 -0.46846564555E-02  0.23096130632E-01  0.00000000000E+00 0.  1.
     999901    1    3    3    0    0  0.47607225850E-01 -0.20478506198E-01 -0.10727821886E+00  0.88802839674E+00  0.88000000000E+00 0. -1.
        -11    1    4    4    0    0 -0.38113328638E-01  0.30512117495E-01  0.64620531403E-01  0.80991909064E-01  0.51100000000E-03 0. -1.
         11    1    4    4    0    0 -0.17992622753E-01  0.10924845427E-01  0.47342343915E-01  0.51813563567E-01  0.51100000000E-03 0.  1.
</event>
<event>
 8    1  0.1118868E+005  0.1043930E+01  0.7957747E-01            NaN
         13   -1    0    0    0    0  0.00000000000E+00  0.00000000000E+00  0.74505805969E-08  0.10566000000E+00  0.10566000000E+00 0.  1.
     999900   -1    0    0    0    0 -0.00000000000E+00 -0.00000000000E+00 -0.74505805969E-08  0.93827000000E+00  0.93827000000E+00 0. -1.
     999902    2    1    2    0    0  0.28794266809E-02  0.24034314845E-02  0.22026882107E-01  0.10215860720E+01  0.10213416918E+01 0.  0.
     999903    2    3    3    0    0 -0.13678613633E-01 -0.98787086484E-01  0.86263860957E-01  0.13330679216E+00  0.19576879281E-01 0.  0.
         14    1    1    2    0    0 -0.28794266809E-02 -0.24034314845E-02 -0.22026882107E-01  0.22343927950E-01  0.00000000000E+00 0. -1.
     999901    1    3    3    0    0  0.16558040314E-01  0.10119051797E+00 -0.64236978851E-01  0.88827927989E+00  0.88000000000E+00 0. -1.
        -11    1    4    4    0    0  0.32073995954E-03 -0.16211419817E-01  0.59865003468E-02  0.17291972531E-01  0.51100000000E-03 0. -1.
         11    1    4    4    0    0 -0.13999353592E-01 -0.82575666667E-01  0.80277360610E-01  0.11601481963E+00  0.51100000000E-03 0.  1.
</event>
<event>
 8    1  0.1136396E+005  0.1043930E+01  0.7957747E-01            NaN
         13   -1    0    0    0    0  0.00000000000E+00  0.00000000000E+00  0.74505805969E-08  0.10566000000E+00  0.10566000000E+00 0.  1.
     999900   -1    0    0    0    0 -0.00000000000E+00 -0.00000000000E+00 -0.74505805969E-08  0.93827000000E+00  0.93827000000E+00 0. -1.
     999902    2    1    2    0    0  0.16875880100E-01 -0.67948988669E-02  0.15623641666E-01  0.10199495046E+01  0.10196675575E+01 0.  0.
     999903    2    3    3    0    0  0.89961991012E-01 -0.28049819342E-01  0.91693923389E-01  0.13339435179E+00  0.22501673500E-01 0.  0.
         14    1    1    2    0    0 -0.16875880100E-01  0.67948988669E-02 -0.15623641666E-01  0.23980495380E-01  0.00000000000E+00 0. -1.
     999901    1    3    3    0    0 -0.73086110911E-01  0.21254920476E-01 -0.76070281723E-01  0.88655515283E+00  0.88000000000E+00 0. -1.
        -11    1    4    4    0    0  0.27124508776E-01 -0.19202714454E-01  0.35495778341E-01  0.48628125810E-01  0.51100000000E-03 0.  1.
         11    1    4    4    0    0  0.62837482235E-01 -0.88471048887E-02  0.56198145048E-01  0.84766225977E-01  0.51100000000E-03 0. -1.
</event>
<event>
 7    1  0.1144941E+005  0.1043930E+01  0.7957747E-01            NaN
         13   -1    0    0    0    0  0.00000000000E+00  0.00000000000E+00  0.74505805969E-08  0.10566000000E+00  0.10566000000E+00 0. -1.
     999900   -1    0    0    0    0 -0.00000000000E+00 -0.00000000000E+00 -0.74505805969E-08  0.93827000000E+00  0.93827000000E+00 0.  1.
     999903    2    1    2    0    0 -0.87902089992E-01  0.77084022239E-01 -0.77327145013E-02  0.11879381165E+00  0.19581902467E-01 0.  0.
         14    1    1    2    0    0  0.18879611813E-01 -0.24578569127E-01 -0.25669484753E-01  0.40242617336E-01  0.00000000000E+00 0.  1.
     999901    1    1    2    0    0  0.69022478179E-01 -0.52505453111E-01  0.33402199255E-01  0.88489357101E+00  0.88000000000E+00 0.  1.
        -11    1    3    3    0    0 -0.47274359390E-01  0.29583108614E-01  0.31022710012E-03  0.55770805381E-01  0.51100000000E-03 0.  1.
         11    1    3    3    0    0 -0.40627730602E-01  0.47500913624E-01 -0.80429416015E-02  0.63023006273E-01  0.51100000000E-03 0. -1.
</event>
<event>
 8    1  0.1118868E+005  0.1043930E+01  0.7957747E-01            NaN
         13   -1    0    0    0    0  0.00000000000E+00  0.00000000000E+00  0.74505805969E-08  0.10566000000E+00  0.10566000000E+00 0.  1.
     999900   -1    0    0    0    0 -0.00000000000E+00 -0.00000000000E+00 -0.74505805969E-08  0.93827000000E+00  0.93827000000E+00 0. -1.
     999902    2    1    2    0    0  0.16710543680E-01  0.13334478724E-01  0.98452924107E-02  0.10203932123E+01  0.10201217218E+01 0.  0.
     999903    2    3    3    0    0 -0.45710208809E-01  0.11743910418E+00  0.34050434626E-01  0.13173128991E+00  0.17672981196E-01 0.  0.
         14    1    1    2    0    0 -0.16710543680E-01 -0.13334478724E-01 -0.98452924107E-02  0.23536787707E-01  0.00000000000E+00 0.  1.
     999901    1    3    3    0    0  0.62420752489E-01 -0.10410462545E+00 -0.24205142215E-01  0.88866192238E+00  0.88000000000E+00 0. -1.
        -11    1    4    4    0    0 -0.10117846631E-01  0.44812912321E-01  0.71628722119E-02  0.46498771924E-01  0.51100000000E-03 0. -1.
         11    1    4    4    0    0 -0.35592362178E-01  0.72626191855E-01  0.26887562414E-01  0.85232517987E-01  0.51100000000E-03 0.  1.
</event>
<event>
 8    1  0.1118868E+005  0.1043930E+01  0.7957747E-01            NaN
         13   -1    0    0    0    0  0.00000000000E+00  0.00000000000E+00  0.74505805969E-08  0.10566000000E+00  0.10566000000E+00 0.  1.
     999900   -1    0    0    0    0 -0.00000000000E+00 -0.00000000000E+00 -0.74505805969E-08  0.93827000000E+00  0.93827000000E+00 0.  1.
     999902    2    1    2    0    0 -0.98921657107E-02  0.21847773117E-01 -0.25211946799E-02  0.10198149310E+01  0.10195297724E+01 0.  0.
     999903    2    3    3    0    0  0.12441404760E+00  0.26637229316E-01 -0.14881922279E-01  0.12952627809E+00  0.19162147068E-01 0.  0.
         14    1    1    2    0    0  0.98921657107E-02 -0.21847773117E-01  0.25211946799E-02  0.24115069049E-01  0.00000000000E+00 0.  1.
     999901    1    3    3    0    0 -0.13430621331E+00 -0.47894561994E-02  0.12360727599E-01  0.89028865286E+00  0.88000000000E+00 0. -1.
        -11    1    4    4    0    0  0.10199765779E+00  0.14081672165E-01 -0.11505147011E-01  0.10360716778E+00  0.51100000000E-03 0.  1.
         11    1    4    4    0    0  0.22416389806E-01  0.12555557151E-01 -0.33767752682E-02  0.25919110314E-01  0.51100000000E-03 0. -1.
</event>
<event>
 8    1  0.1118868E+005  0.1043930E+01  0.7957747E-01            NaN
         13   -1    0    0    0    0  0.00000000000E+00  0.00000000000E+00  0.74505805969E-08  0.10566000000E+00  0.10566000000E+00 0.  1.
     999900   -1    0    0    0    0 -0.00000000000E+00 -0.00000000000E+00 -0.74505805969E-08  0.93827000000E+00  0.93827000000E+00 0.  1.
     999902    2    1    2    0    0 -0.73658584454E-02 -0.19623247660E-01  0.10385180346E-01  0.10205381277E+01  0.10202700086E+01 0.  0.
     999903    2    3    3    0    0  0.44561725766E-01  0.21705822324E-01 -0.11714955757E+00  0.12887133151E+00  0.20661827608E-01 0.  0.
         14    1    1    2    0    0  0.73658584454E-02  0.19623247660E-01 -0.10385180346E-01  0.23391872310E-01  0.00000000000E+00 0.  1.
     999901    1    3    3    0    0 -0.51927584211E-01 -0.41329069984E-01  0.12753473792E+00  0.89166679618E+00  0.88000000000E+00 0. -1.
        -11    1    4    4    0    0  0.27513422056E-01  0.61563588929E-02 -0.44857828011E-01  0.52984667622E-01  0.51100000000E-03 0. -1.
         11    1    4    4    0    0  0.17048303710E-01  0.15549463431E-01 -0.72291729563E-01  0.75886663892E-01  0.51100000000E-03 0.  1.
</event>
<event>
 8    1  0.1118868E+005  0.1043930E+01  0.7957747E-01            NaN
         13   -1    0    0    0    0  0.00000000000E+00  0.00000000000E+00  0.74505805969E-08  0.10566000000E+00  0.10566000000E+00 0.  1.
     999900   -1    0    0    0    0 -0.00000000000E+00 -0.00000000000E+00 -0.74505805969E-08  0.93827000000E+00  0.93827000000E+00 0. -1.
     999902    2    1    2    0    0 -0.22812226240E-01 -0.72138593827E-02 -0.27864515915E-03  0.10200027127E+01  0.10197220302E+01 0.  0.
     999903    2    3    3    0    0 -0.10350527595E+00  0.12345305994E-02 -0.80563516067E-01  0.13263108592E+00  0.19638192778E-01 0.  0.
         14    1    1    2    0    0  0.22812226240E-01  0.72138593827E-02  0.27864515915E-03  0.23927287275E-01  0.00000000000E+00 0. -1.
     999901    1    3    3    0    0  0.80693049709E-01 -0.84483899821E-02  0.80284870908E-01  0.88737162681E+00  0.88000000000E+00 0.  1.
        -11    1    4    4    0    0 -0.92814549529E-01  0.71523023246E-02 -0.70045788791E-01  0.11650051365E+00  0.51100000000E-03 0.  1.
         11    1    4    4    0    0 -0.10690726421E-01 -0.59177717252E-02 -0.10517727276E-01  0.16130572267E-01  0.51100000000E-03 0. -1.
</event>
<event>
 8    1  0.1118868E+005  0.1043930E+01  0.7957747E-01            NaN
         13   -1    0    0    0    0  0.00000000000E+00  0.00000000000E+00  0.74505805969E-08  0.10566000000E+00  0.10566000000E+00 0.  1.
     999900   -1    0    0    0    0 -0.00000000000E+00 -0.00000000000E+00 -0.74505805969E-08  0.93827000000E+00  0.93827000000E+00 0.  1.
     999902    2    1    2    0    0  0.16181733997E-01  0.14536942710E-01 -0.88685262890E-02  0.10204391086E+01  0.10201686882E+01 0.  0.
     999903    2    3    3    0    0  0.96644814162E-01  0.65359592749E-01  0.59620772196E-01  0.13266209101E+00  0.20796572897E-01 0.  0.
         14    1    1    2    0    0 -0.16181733997E-01 -0.14536942710E-01  0.88685262890E-02  0.23490891363E-01  0.00000000000E+00 0.  1.
     999901    1    3    3    0    0 -0.80463080165E-01 -0.50822650039E-01 -0.68489298485E-01  0.88777701763E+00  0.88000000000E+00 0. -1.
        -11    1    4    4    0    0  0.79862206675E-01  0.43687380415E-01  0.47622428092E-01  0.10273614768E+00  0.51100000000E-03 0.  1.
         11    1    4    4    0    0  0.16782607486E-01  0.21672212334E-01  0.11998344104E-01  0.29925943322E-01  0.51100000000E-03 0. -1.
</event>
<event>
 8    1  0.1118868E+005  0.1043930E+01  0.7957747E-01            NaN
         13   -1    0    0    0    0  0.00000000000E+00  0.00000000000E+00  0.74505805969E-08  0.10566000000E+00  0.10566000000E+00 0. -1.
     999900   -1    0    0    0    0 -0.00000000000E+00 -0.00000000000E+00 -0.74505805969E-08  0.93827000000E+00  0.93827000000E+00 0. -1.
     999902    2    1    2    0    0 -0.18326413542E-01  0.12043379790E-01  0.86659710240E-02  0.10203503587E+01  0.10200778671E+01 0.  0.
     999903    2    3    3    0    0  0.79565686131E-01 -0.57494464353E-01 -0.79312482262E-01  0.12784905159E+00  0.20459675206E-01 0.  0.
         14    1    1    2    0    0  0.18326413542E-01 -0.12043379790E-01 -0.86659710240E-02  0.23579641301E-01  0.00000000000E+00 0. -1.
     999901    1    3    3    0    0 -0.97892099673E-01  0.69537844144E-01  0.87978453286E-01  0.89250130711E+00  0.88000000000E+00 0.  1.
        -11    1    4    4    0    0  0.70682559203E-01 -0.45648556421E-01 -0.74170853583E-01  0.11216680222E+00  0.51100000000E-03 0. -1.
         11    1    4    4    0    0  0.88831269286E-02 -0.11845907933E-01 -0.51416286783E-02  0.15682249368E-01  0.51100000000E-03 0.  1.
</event>
<event>
 8    1  0.1118868E+005  0.1043930E+01  0.7957747E-01            NaN
         13   -1    0    0    0    0  0.00000000000E+00  0.00000000000E+00  0.74505805969E-08  0.10566000000E+00  0.10566000000E+00 0.  1.
     999900   -1    0    0    0    0 -0.00000000000E+00 -0.00000000000E+00 -0.74505805969E-08  0.93827000000E+00  0.93827000000E+00 0. -1.
     999902    2    1    2    0    0 -0.14919188573E-01 -0.20960591571E-01 -0.17801235414E-02  0.10181405171E+01  0.10178138411E+01 0.  0.
     999903    2    3    3    0    0 -0.44166454206E-01 -0.72017373325E-01 -0.98026587760E-01  0.13093953687E+00  0.19969293168E-01 0.  0.
         14    1    1    2    0    0  0.14919188573E-01  0.20960591571E-01  0.17801235414E-02  0.25789482866E-01  0.00000000000E+00 0. -1.
     999901    1    3    3    0    0  0.29247265633E-01  0.51056781754E-01  0.96246464219E-01  0.88720098027E+00  0.88000000000E+00 0.  1.
        -11    1    4    4    0    0 -0.27225853211E-01 -0.46719617861E-01 -0.47647633407E-01  0.72073073102E-01  0.51100000000E-03 0.  1.
         11    1    4    4    0    0 -0.16940600995E-01 -0.25297755465E-01 -0.50378954353E-01  0.58866463766E-01  0.51100000000E-03 0. -1.
</event>
<event>
 8    1  0.1118868E+005  0.1043930E+01  0.7957747E-01            NaN
         13   -1    0    0    0    0  0.00000000000E+00  0.00000000000E+00  0.74505805969E-08  0.10566000000E+00  0.10566000000E+00 0.  1.
     999900   -1    0    0    0    0 -0.00000000000E+00 -0.00000000000E+00 -0.74505805969E-08  0.93827000000E+00  0.93827000000E+00 0. -1.
     999902    2    1    2    0    0  0.11127359463E-01 -0.17680352128E-01 -0.13474823491E-01  0.10190707191E+01  0.10187674645E+01 0.  0.
     999903    2    3    3    0    0 -0.12311818004E+00  0.26440535482E-01 -0.16661673610E-01  0.12779148471E+00  0.13995142845E-01 0.  0.
         14    1    1    2    0    0 -0.11127359463E-01  0.17680352128E-01  0.13474823491E-01  0.24859280925E-01  0.00000000000E+00 0.  1.
     999901    1    3    3    0    0  0.13424553950E+00 -0.44120887610E-01  0.31868501192E-02  0.89127923437E+00  0.88000000000E+00 0.  1.
        -11    1    4    4    0    0 -0.67810178086E-01  0.13313653930E-01 -0.16028818689E-01  0.70941227665E-01  0.51100000000E-03 0. -1.
         11    1    4    4    0    0 -0.55308001955E-01  0.13126881552E-01 -0.63285492057E-03  0.56850257043E-01  0.51100000000E-03 0.  1.
</event>
<event>
 7    1  0.1118868E+005  0.1043930E+01  0.7957747E-01            NaN
         13   -1    0    0    0    0  0.00000000000E+00  0.00000000000E+00  0.74505805969E-08  0.10566000000E+00  0.10566000000E+00 0.  1.
     999900   -1    0    0    0    0 -0.00000000000E+00 -0.00000000000E+00 -0.74505805969E-08  0.93827000000E+00  0.93827000000E+00 0.  1.
     999902    2    1    2    0    0  0.11286056872E-01 -0.15101739608E-01 -0.23572577789E-02  0.10249301504E+01  0.10247540285E+01 0.  0.
         14    1    1    2    0    0 -0.11286056872E-01  0.15101739608E-01  0.23572577789E-02  0.18999849555E-01  0.00000000000E+00 0. -1.
     999901    1    3    3    0    0  0.10654515771E+00  0.77865729372E-01 -0.23263422859E-01  0.89014388123E+00  0.88000000000E+00 0.  1.
        -11    1    3    3    0    0 -0.71850663991E-02 -0.59621513887E-02  0.16212689791E-02  0.94901033947E-02  0.51100000000E-03 0.  1.
         11    1    3    3    0    0 -0.88074034438E-01 -0.87005317592E-01  0.19284896101E-01  0.12529616582E+00  0.51100000000E-03 0. -1.
</event>
<event>
 8    1  0.1118868E+005  0.1043930E+01  0.7957747E-01            NaN
         13   -1    0    0    0    0  0.00000000000E+00  0.00000000000E+00  0.74505805969E-08  0.10566000000E+00  0.10566000000E+00 0. -1.
     999900   -1    0    0    0    0 -0.00000000000E+00 -0.00000000000E+00 -0.74505805969E-08  0.93827000000E+00  0.93827000000E+00 0. -1.
     999902    2    1    2    0    0  0.12216329623E-01 -0.17076586107E-01 -0.27162592111E-02  0.10227586381E+01  0.10225394883E+01 0.  0.
     999903    2    3    3    0    0  0.86467861576E-01 -0.85028010453E-01  0.56192443343E-01  0.13506447828E+00  0.19451708309E-01 0.  0.
         14    1    1    2    0    0 -0.12216329623E-01  0.17076586107E-01  0.27162592111E-02  0.21171361945E-01  0.00000000000E+00 0. -1.
     999901    1    3    3    0    0 -0.74251531953E-01  0.67951424346E-01 -0.58908702554E-01  0.88769415978E+00  0.88000000000E+00 0. -1.
        -11    1    4    4    0    0  0.16525858205E-01 -0.27192488504E-01  0.18322668455E-01  0.36722155721E-01  0.51100000000E-03 0.  1.
         11    1    4    4    0    0  0.69942003370E-01 -0.57835521949E-01  0.37869774889E-01  0.98342322556E-01  0.51100000000E-03 0. -1.
</event>
<event>
 8    1  0.1118868E+005  0.1043930E+01  0.7957747E-01            NaN
         13   -1    0    0    0    0  0.00000000000E+00  0.00000000000E+00  0.74505805969E-08  0.10566000000E+00  0.10566000000E+00 0.  1.
     999900   -1    0    0    0    0 -0.00000000000E+00 -0.00000000000E+00 -0.74505805969E-08  0.93827000000E+00  0.93827000000E+00 0. -1.
     999902    2    1    2    0    0  0.13608508243E-01 -0.21234304386E-01 -0.62942932514E-02  0.10179356678E+01  0.10176037139E+01 0.  0.
     999903    2    3    3    0    0  0.11236816593E+00 -0.44602165856E-01 -0.46787009299E-01  0.13117798557E+00  0.20066931607E-01 0.  0.
         14    1    1    2    0    0 -0.13608508243E-01  0.21234304386E-01  0.62942932514E-02  0.25994332207E-01  0.00000000000E+00 0.  1.
     999901    1    3    3    0    0 -0.98759657687E-01  0.23367861470E-01  0.40492716048E-01  0.88675768223E+00  0.88000000000E+00 0. -1.
        -11    1    4    4    0    0  0.73936511258E-01 -0.19590658005E-01 -0.32896951278E-01  0.83263870331E-01  0.51100000000E-03 0. -1.
         11    1    4    4    0    0  0.38431654672E-01 -0.25011507851E-01 -0.13890058021E-01  0.47914115234E-01  0.51100000000E-03 0.  1.
</event>
<event>
 8    1  0.1118868E+005  0.1043930E+01  0.7957747E-01            NaN
         13   -1    0    0    0    0  0.00000000000E+00  0.00000000000E+00  0.74505805969E-08  0.10566000000E+00  0.10566000000E+00 0.  1.
     999900   -1    0    0    0    0 -0.00000000000E+00 -0.00000000000E+00 -0.74505805969E-08  0.93827000000E+00  0.93827000000E+00 0. -1.
     999902    2    1    2    0    0  0.17992066082E-01  0.14452155563E-02  0.11974985801E-01  0.10222688972E+01  0.10220393803E+01 0.  0.
     999903    2    3    3    0    0 -0.11373588157E-01 -0.37048981305E-01 -0.12319974258E+00  0.13063200247E+00  0.19610149757E-01 0.  0.
         14    1    1    2    0    0 -0.17992066082E-01 -0.14452155563E-02 -0.11974985801E-01  0.21661102807E-01  0.00000000000E+00 0. -1.
     999901    1    3    3    0    0  0.29365654238E-01  0.38494196862E-01  0.13517472838E+00  0.89163689472E+00  0.88000000000E+00 0.  1.
        -11    1    4    4    0    0 -0.92670190769E-02 -0.17009309300E-01 -0.87643006783E-01  0.89759411787E-01  0.51100000000E-03 0. -1.
         11    1    4    4    0    0 -0.21065690797E-02 -0.20039672005E-01 -0.35556735798E-01  0.40872590681E-01  0.51100000000E-03 0.  1.
</event>
<event>
 8    1  0.1118868E+005  0.1043930E+01  0.7957747E-01            NaN
         13   -1    0    0    0    0  0.00000000000E+00  0.00000000000E+00  0.74505805969E-08  0.10566000000E+00  0.10566000000E+00 0. -1.
     999900   -1    0    0    0    0 -0.00000000000E+00 -0.00000000000E+00 -0.74505805969E-08  0.93827000000E+00  0.93827000000E+00 0. -1.
     999902    2    1    2    0    0 -0.14202040747E-01 -0.22212930251E-01  0.49955052380E-02  0.10170959302E+01  0.10167418865E+01 0.  0.
     999903    2    3    3    0    0  0.45321584918E-01 -0.30261703843E-01  0.11434735681E+00  0.12829579953E+00  0.20363629043E-01 0.  0.
         14    1    1    2    0    0  0.14202040747E-01  0.22212930251E-01 -0.49955052380E-02  0.26834069842E-01  0.00000000000E+00 0.  1.
     999901    1    3    3    0    0 -0.59523625665E-01  0.80487735916E-02 -0.10935185157E+00  0.88880013063E+00  0.88000000000E+00 0. -1.
        -11    1    4    4    0    0  0.18300015997E-01 -0.24285863645E-01  0.63301865752E-01  0.70228776774E-01  0.51100000000E-03 0. -1.
         11    1    4    4    0    0  0.27021568921E-01 -0.59758401977E-02  0.51045491057E-01  0.58067022752E-01  0.51100000000E-03 0.  1.
</event>
<event>
 8    1  0.1118868E+005  0.1043930E+01  0.7957747E-01            NaN
         13   -1    0    0    0    0  0.00000000000E+00  0.00000000000E+00  0.74505805969E-08  0.10566000000E+00  0.10566000000E+00 0.  1.
     999900   -1    0    0    0    0 -0.00000000000E+00 -0.00000000000E+00 -0.74505805969E-08  0.93827000000E+00  0.93827000000E+00 0. -1.
     999902    2    1    2    0    0 -0.20687444883E-01 -0.16032693555E-01 -0.25228043863E-03  0.10177559425E+01  0.10174193223E+01 0.  0.
     999903    2    3    3    0    0 -0.98314883859E-01 -0.72580975475E-01 -0.43646057337E-01  0.13146775727E+00  0.21094513328E-01 0.  0.
         14    1    1    2    0    0  0.20687444883E-01  0.16032693555E-01  0.25228043863E-03  0.26174057458E-01  0.00000000000E+00 0.  1.
     999901    1    3    3    0    0  0.77627438976E-01  0.56548281920E-01  0.43393776899E-01  0.88628818527E+00  0.88000000000E+00 0.  1.
        -11    1    4    4    0    0 -0.30907589562E-01 -0.17745704545E-01 -0.37159102834E-02  0.35836548837E-01  0.51100000000E-03 0. -1.
         11    1    4    4    0    0 -0.67407294298E-01 -0.54835270930E-01 -0.39930147054E-01  0.95631208438E-01  0.51100000000E-03 0.  1.
</event>
<event>
 8    1  0.1118868E+005  0.1043930E+01  0.7957747E-01            NaN
         13   -1    0    0    0    0  0.00000000000E+00  0.00000000000E+00  0.74505805969E-08  0.10566000000E+00  0.10566000000E+00 0. -1.
     999900   -1    0    0    0    0 -0.00000000000E+00 -0.00000000000E+00 -0.74505805969E-08  0.93827000000E+00  0.93827000000E+00 0.  1.
     999902    2    1    2    0    0  0.21083883498E-01  0.13990276663E-01 -0.14227244058E-01  0.10149011788E+01  0.10144859439E+01 0.  0.
     999903    2    3    3    0    0 -0.24237029473E-01  0.38107927603E-01 -0.11731356168E+00  0.12739769427E+00  0.20689441959E-01 0.  0.
         14    1    1    2    0    0 -0.21083883498E-01 -0.13990276663E-01  0.14227244058E-01  0.29028821160E-01  0.00000000000E+00 0.  1.
     999901    1    3    3    0    0  0.45320912971E-01 -0.24117650940E-01  0.10308631762E+00  0.88750348457E+00  0.88000000000E+00 0. -1.
        -11    1    4    4    0    0 -0.62705835115E-02  0.26136600114E-01 -0.50928019117E-01  0.57587900945E-01  0.51100000000E-03 0.  1.
         11    1    4    4    0    0 -0.17966445962E-01  0.11971327489E-01 -0.66385542560E-01  0.69809793327E-01  0.51100000000E-03 0. -1.
</event>
<event>
 7    1  0.1118868E+005  0.1043930E+01  0.7957747E-01            NaN
         13   -1    0    0    0    0  0.00000000000E+00  0.00000000000E+00  0.74505805969E-08  0.10566000000E+00  0.10566000000E+00 0. -1.
     999900   -1    0    0    0    0 -0.00000000000E+00 -0.00000000000E+00 -0.74505805969E-08  0.93827000000E+00  0.93827000000E+00 0.  1.
     999903    2    1    2    0    0 -0.68766328394E-01  0.74562956486E-01 -0.90353733288E-02  0.10389784881E+00  0.20607829004E-01 0.  0.
         14    1    1    2    0    0  0.38194277874E-01  0.15231947043E-01 -0.34772448559E-01  0.53851074751E-01  0.00000000000E+00 0.  1.
     999901    1    1    2    0    0  0.30572050521E-01 -0.89794903529E-01  0.43807821888E-01  0.88618107643E+00  0.88000000000E+00 0. -1.
        -11    1    3    3    0    0 -0.16709760131E-01  0.68720174722E-02 -0.55586545481E-03  0.18083440358E-01  0.51100000000E-03 0.  1.
         11    1    3    3    0    0 -0.52056568263E-01  0.67690939013E-01 -0.84795078740E-02  0.85814408456E-01  0.51100000000E-03 0. -1.
</event>
<event>
 8    1  0.1118868E+005  0.1043930E+01  0.7957747E-01            NaN
         13   -1    0    0    0    0  0.00000000000E+00  0.00000000000E+00  0.74505805969E-08  0.10566000000E+00  0.10566000000E+00 0. -1.
     999900   -1    0    0    0    0 -0.00000000000E+00 -0.00000000000E+00 -0.74505805969E-08  0.93827000000E+00  0.93827000000E+00 0.  1.
     999902    2    1    2    0    0  0.18643074918E-01  0.18876515707E-01  0.63779998578E-02  0.10166432638E+01  0.10162770095E+01 0.  0.
     999903    2    3    3    0    0  0.10914466327E+00 -0.35254850160E-01  0.52876022615E-01  0.12912830150E+00  0.26884614589E-01 0.  0.
         14    1    1    2    0    0 -0.18643074918E-01 -0.18876515707E-01 -0.63779998578E-02  0.27286736152E-01  0.00000000000E+00 0.  1.
     999901    1    3    3    0    0 -0.90501588352E-01  0.54131365866E-01 -0.46498022757E-01  0.88751496234E+00  0.88000000000E+00 0.  1.
        -11    1    4    4    0    0  0.43996828978E-01 -0.27081094973E-01  0.29087999671E-01  0.59291479244E-01  0.51100000000E-03 0. -1.
         11    1    4    4    0    0  0.65147834292E-01 -0.81737551864E-02  0.23788022944E-01  0.69836822260E-01  0.51100000000E-03 0.  1.
</event>
<event>
 8    1  0.1118868E+005  0.1043930E+01  0.7957747E-01            NaN
         13   -1    0    0    0    0  0.00000000000E+00  0.00000000000E+00  0.74505805969E-08  0.10566000000E+00  0.10566000000E+00 0. -1.
     999900   -1    0    0    0    0 -0.00000000000E+00 -0.00000000000E+00 -0.74505805969E-08  0.93827000000E+00  0.93827000000E+00 0. -1.
     999902    2    1    2    0    0 -0.22364574499E-03  0.14894617110E-01  0.18448395007E-01  0.10202183380E+01  0.10199427505E+01 0.  0.
     999903    2    3    3    0    0  0.52125004370E-01 -0.10697590132E+00  0.47735581688E-01  0.12979678406E+00  0.20190588104E-01 0.  0.
         14    1    1    2    0    0  0.22364574499E-03 -0.14894617110E-01 -0.18448395007E-01  0.23711661996E-01  0.00000000000E+00 0.  1.
     999901    1    3    3    0    0 -0.52348650115E-01  0.12187051843E+00 -0.29287186681E-01  0.89042155395E+00  0.88000000000E+00 0.  1.
        -11    1    4    4    0    0  0.13685426040E-01 -0.33821216825E-01  0.52172434314E-02  0.36859820177E-01  0.51100000000E-03 0. -1.
         11    1    4    4    0    0  0.38439578330E-01 -0.73154684497E-01  0.42518338256E-01  0.92936963879E-01  0.51100000000E-03 0.  1.
</event>
<event>
 8    1  0.1118868E+005  0.1043930E+01  0.7957747E-01            NaN
         13   -1    0    0    0    0  0.00000000000E+00  0.00000000000E+00  0.74505805969E-08  0.10566000000E+00  0.10566000000E+00 0.  1.
     999900   -1    0    0    0    0 -0.00000000000E+00 -0.00000000000E+00 -0.74505805969E-08  0.93827000000E+00  0.93827000000E+00 0. -1.
     999902    2    1    2    0    0  0.21640108266E-02 -0.17819875127E-01 -0.15072394044E-01  0.10204905470E+01  0.10202213234E+01 0.  0.
     999903    2    3    3    0    0 -0.12393395599E+00 -0.24609552613E-01  0.27056117917E-01  0.13047840754E+00  0.18092147189E-01 0.  0.
         14    1    1    2    0    0 -0.21640108266E-02  0.17819875127E-01  0.15072394044E-01  0.23439452951E-01  0.00000000000E+00 0.  1.
     999901    1    3    3    0    0  0.12609796682E+00  0.67896774853E-02 -0.42128511961E-01  0.89001213951E+00  0.88000000000E+00 0.  1.
        -11    1    4    4    0    0 -0.66373122424E-01 -0.99017314100E-02  0.57272905058E-02  0.67353534746E-01  0.51100000000E-03 0. -1.
         11    1    4    4    0    0 -0.57560833567E-01 -0.14707821203E-01  0.21328827411E-01  0.63124872793E-01  0.51100000000E-03 0.  1.
</event>
<event>
 8    1  0.1118868E+005  0.1043930E+01  0.7957747E-01            NaN
         13   -1    0    0    0    0  0.00000000000E+00  0.00000000000E+00  0.74505805969E-08  0.10566000000E+00  0.10566000000E+00 0. -1.
     999900   -1    0    0    0    0 -0.00000000000E+00 -0.00000000000E+00 -0.74505805969E-08  0.93827000000E+00  0.93827000000E+00 0.  1.
     999902    2    1    2    0    0 -0.42369579265E-02 -0.20006957906E-01  0.89258121837E-02  0.10216163203E+01  0.10213726086E+01 0.  0.
     999903    2    3    3    0    0 -0.72150987278E-01 -0.55601742605E-01 -0.93726837035E-01  0.13233747179E+00  0.20764578311E-01 0.  0.
         14    1    1    2    0    0  0.42369579265E-02  0.20006957906E-01 -0.89258121837E-02  0.22313679667E-01  0.00000000000E+00 0.  1.
     999901    1    3    3    0    0  0.67914029351E-01  0.35594784699E-01  0.10265264922E+00  0.88927884855E+00  0.88000000000E+00 0. -1.
        -11    1    4    4    0    0 -0.56146315646E-01 -0.42049478429E-01 -0.58513892979E-01  0.91349352430E-01  0.51100000000E-03 0. -1.
         11    1    4    4    0    0 -0.16004671632E-01 -0.13552264177E-01 -0.35212944056E-01  0.40988119357E-01  0.51100000000E-03 0.  1.
</event>
<event>
 8    1  0.1118868E+005  0.1043930E+01  0.7957747E-01            NaN
         13   -1    0    0    0    0  0.00000000000E+00  0.00000000000E+00  0.74505805969E-08  0.10566000000E+00  0.10566000000E+00 0. -1.
     999900   -1    0    0    0    0 -0.00000000000E+00 -0.00000000000E+00 -0.74505805969E-08  0.93827000000E+00  0.93827000000E+00 0.  1.
     999902    2    1    2    0    0 -0.24305636807E-02 -0.72704013103E-02 -0.22646701717E-01  0.10200210169E+01  0.10197407687E+01 0.  0.
     999903    2    3    3    0    0  0.11398648771E+00  0.51055145919E-01  0.26587795403E-01  0.12907835037E+00  0.18835136374E-01 0.  0.
         14    1    1    2    0    0  0.24305636807E-02  0.72704013103E-02  0.22646701717E-01  0.23908983117E-01  0.00000000000E+00 0. -1.
     999901    1    3    3    0    0 -0.11641705140E+00 -0.58325547229E-01 -0.49234497120E-01  0.89094266652E+00  0.88000000000E+00 0.  1.
        -11    1    4    4    0    0  0.30825840252E-01  0.74328705006E-02  0.92791863552E-03  0.31726993951E-01  0.51100000000E-03 0.  1.
         11    1    4    4    0    0  0.83160647463E-01  0.43622275418E-01  0.25659876768E-01  0.97351356415E-01  0.51100000000E-03 0. -1.
</event>
<event>
 8    1  0.1118868E+005  0.1043930E+01  0.7957747E-01            NaN
         13   -1    0    0    0    0  0.00000000000E+00  0.00000000000E+00  0.74505805969E-08  0.10566000000E+00  0.10566000000E+00 0.  1.
     999900   -1    0    0    0    0 -0.00000000000E+00 -0.00000000000E+00 -0.74505805969E-08  0.93827000000E+00  0.93827000000E+00 0. -1.
     999902    2    1    2    0    0 -0.16676909598E-01 -0.10635645112E-02  0.16588903703E-01  0.10203834034E+01  0.10201116840E+01 0.  0.
     999903    2    3    3    0    0  0.68501959129E-01 -0.17568945457E-01  0.10881803923E+00  0.13131980577E+00  0.20058401620E-01 0.  0.
         14    1    1    2    0    0  0.16676909598E-01  0.10635645112E-02 -0.16588903703E-01  0.23546596554E-01  0.00000000000E+00 0. -1.
     999901    1    3    3    0    0 -0.85178868727E-01  0.16505380945E-01 -0.92229135528E-01  0.88906359768E+00  0.88000000000E+00 0. -1.
        -11    1    4    4    0    0  0.39114082750E-01  0.26274179101E-03  0.56736311454E-01  0.68914807270E-01  0.51100000000E-03 0. -1.
         11    1    4    4    0    0  0.29387876379E-01 -0.17831687248E-01  0.52081727777E-01  0.62404998497E-01  0.51100000000E-03 0.  1.
</event>
<event>
 8    1  0.1118868E+005  0.1043930E+01  0.7957747E-01            NaN
         13   -1    0    0    0    0  0.00000000000E+00  0.00000000000E+00  0.74505805969E-08  0.10566000000E+00  0.10566000000E+00 0. -1.
     999900   -1    0    0    0    0 -0.00000000000E+00 -0.00000000000E+00 -0.74505805969E-08  0.93827000000E+00  0.93827000000E+00 0. -1.
     999902    2    1    2    0    0  0.35124767930E-02 -0.11984654853E-02 -0.23440836800E-01  0.10201971822E+01  0.10199210969E+01 0.  0.
     999903    2    3    3    0    0 -0.28619868723E-01  0.12392485737E+00  0.14906847478E-01  0.12993942261E+00  0.22035704825E-01 0.  0.
         14    1    1    2    0    0 -0.35124767930E-02  0.11984654853E-02  0.23440836800E-01  0.23732817840E-01  0.00000000000E+00 0. -1.
     999901    1    3    3    0    0  0.32132345516E-01 -0.12512332285E+00 -0.38347684278E-01  0.89025775955E+00  0.88000000000E+00 0. -1.
        -11    1    4    4    0    0 -0.29766000091E-01  0.86416975963E-01  0.77007242351E-02  0.91724973539E-01  0.51100000000E-03 0.  1.
         11    1    4    4    0    0  0.11461313684E-02  0.37507881405E-01  0.72061232428E-02  0.38214449071E-01  0.51100000000E-03 0. -1.
</event>
<event>
 7    1  0.1118868E+005  0.1043930E+01  0.7957747E-01            NaN
         13   -1    0    0    0    0  0.00000000000E+00  0.00000000000E+00  0.74505805969E-08  0.10566000000E+00  0.10566000000E+00 0. -1.
     999900   -1    0    0    0    0 -0.00000000000E+00 -0.00000000000E+00 -0.74505805969E-08  0.93827000000E+00  0.93827000000E+00 0. -1.
     999903    2    1    2    0    0  0.97023447537E-01 -0.31862054143E-01  0.21952318388E-01  0.10643292542E+00  0.20428496382E-01 0.  0.
         14    1    1    2    0    0  0.14592168272E-01  0.12655755828E-01 -0.46023469702E-01  0.49912516405E-01  0.00000000000E+00 0.  1.
     999901    1    1    2    0    0 -0.11161561581E+00  0.19206298315E-01  0.24071151315E-01  0.88758455818E+00  0.88000000000E+00 0. -1.
        -11    1    3    3    0    0  0.18661007424E-01 -0.85597657275E-02 -0.34445386131E-02  0.20823754576E-01  0.51100000000E-03 0. -1.
         11    1    3    3    0    0  0.78362440113E-01 -0.23302288415E-01  0.25396857001E-01  0.85609170842E-01  0.51100000000E-03 0.  1.
</event>
<event>
 7    1  0.1118868E+005  0.1043930E+01  0.7957747E-01            NaN
         13   -1    0    0    0    0  0.00000000000E+00  0.00000000000E+00  0.74505805969E-08  0.10566000000E+00  0.10566000000E+00 0. -1.
     999900   -1    0    0    0    0 -0.00000000000E+00 -0.00000000000E+00 -0.74505805969E-08  0.93827000000E+00  0.93827000000E+00 0.  1.
     999902    2    1    2    0    0 -0.13524652288E-01 -0.71670975852E-02  0.17937332605E-01  0.10203496818E+01  0.10200771744E+01 0.  0.
         14    1    1    2    0    0  0.13524652288E-01  0.71670975852E-02 -0.17937332605E-01  0.23580318240E-01  0.00000000000E+00 0.  1.
     999901    1    3    3    0    0  0.69053493581E-01  0.21035511738E-03 -0.80031384786E-01  0.88632581581E+00  0.88000000000E+00 0.  1.
        -11    1    3    3    0    0 -0.25178677254E-01  0.10258900007E-01  0.50963067584E-01  0.57764229382E-01  0.51100000000E-03 0. -1.
         11    1    3    3    0    0 -0.57399468615E-01 -0.17636352710E-01  0.47005649808E-01  0.76259636565E-01  0.51100000000E-03 0.  1.
</event>
<event>
 8    1  0.1118868E+005  0.1043930E+01  0.7957747E-01            NaN
         13   -1    0    0    0    0  0.00000000000E+00  0.00000000000E+00  0.74505805969E-08  0.10566000000E+00  0.10566000000E+00 0. -1.
     999900   -1    0    0    0    0 -0.00000000000E+00 -0.00000000000E+00 -0.74505805969E-08  0.93827000000E+00  0.93827000000E+00 0.  1.
     999902    2    1    2    0    0 -0.15952998035E-01  0.80391043492E-02  0.16435083997E-01  0.10196557888E+01  0.10193668085E+01 0.  0.
     999903    2    3    3    0    0  0.10130426349E+00 -0.13981869779E-01  0.76836416898E-01  0.12955326113E+00  0.20546679160E-01 0.  0.
         14    1    1    2    0    0  0.15952998035E-01 -0.80391043492E-02 -0.16435083997E-01  0.24274211234E-01  0.00000000000E+00 0.  1.
     999901    1    3    3    0    0 -0.11725726153E+00  0.22020974128E-01 -0.60401332901E-01  0.89010252763E+00  0.88000000000E+00 0.  1.
        -11    1    4    4    0    0  0.44103923965E-01 -0.52518539790E-02  0.20966377783E-01  0.49118104581E-01  0.51100000000E-03 0.  1.
         11    1    4    4    0    0  0.57200339526E-01 -0.87300157999E-02  0.55870039116E-01  0.80435156552E-01  0.51100000000E-03 0. -1.
</event>
<event>
 8    1  0.1118868E+005  0.1043930E+01  0.7957747E-01            NaN
         13   -1    0    0    0    0  0.00000000000E+00  0.00000000000E+00  0.74505805969E-08  0.10566000000E+00  0.10566000000E+00 0.  1.
     999900   -1    0    0    0    0 -0.00000000000E+00 -0.00000000000E+00 -0.74505805969E-08  0.93827000000E+00  0.93827000000E+00 0. -1.
     999902    2    1    2    0    0  0.17699026506E-02 -0.23453225508E-01  0.34561975397E-02  0.10201575024E+01  0.10198804822E+01 0.  0.
     999903    2    3    3    0    0  0.10126391320E+00 -0.50612120096E-01 -0.64071092741E-01  0.13156502062E+00  0.19704895526E-01 0.  0.
         14    1    1    2    0    0 -0.17699026506E-02  0.23453225508E-01 -0.34561975397E-02  0.23772497629E-01  0.00000000000E+00 0. -1.
     999901    1    3    3    0    0 -0.99494010553E-01  0.27158894589E-01  0.67527290281E-01  0.88859248175E+00  0.88000000000E+00 0.  1.
        -11    1    4    4    0    0  0.98107599045E-01 -0.50583143003E-01 -0.57972225094E-01  0.12467876864E+00  0.51100000000E-03 0. -1.
         11    1    4    4    0    0  0.31563141589E-02 -0.28977093126E-04 -0.60988676472E-02  0.68862519791E-02  0.51100000000E-03 0.  1.
</event>
<event>
 8    1  0.1118868E+005  0.1043930E+01  0.7957747E-01            NaN
         13   -1    0    0    0    0  0.00000000000E+00  0.00000000000E+00  0.74505805969E-08  0.10566000000E+00  0.10566000000E+00 0.  1.
     999900   -1    0    0    0    0 -0.00000000000E+00 -0.00000000000E+00 -0.74505805969E-08  0.93827000000E+00  0.93827000000E+00 0. -1.
     999902    2    1    2    0    0  0.18447390786E-01 -0.18863183449E-01  0.16770962431E-01  0.10126667453E+01  0.10121840474E+01 0.  0.
     999903    2    3    3    0    0  0.10551431783E+00 -0.46979189443E-01  0.49666258523E-01  0.12731186720E+00  0.20031444962E-01 0.  0.
         14    1    1    2    0    0 -0.18447390786E-01  0.18863183449E-01 -0.16770962431E-01  0.31263254748E-01  0.00000000000E+00 0. -1.
     999901    1    3    3    0    0 -0.87066927045E-01  0.28116005994E-01 -0.32895296093E-01  0.88535487805E+00  0.88000000000E+00 0. -1.
        -11    1    4    4    0    0  0.35312304148E-01 -0.77066693980E-02  0.93725146638E-02  0.37342425330E-01  0.51100000000E-03 0.  1.
         11    1    4    4    0    0  0.70202013683E-01 -0.39272520045E-01  0.40293743859E-01  0.89969441873E-01  0.51100000000E-03 0. -1.
</event>
<event>
 8    1  0.1118868E+005  0.1043930E+01  0.7957747E-01            NaN
         13   -1    0    0    0    0  0.00000000000E+00  0.00000000000E+00  0.74505805969E-08  0.10566000000E+00  0.10566000000E+00 0. -1.
     999900   -1    0    0    0    0 -0.00000000000E+00 -0.00000000000E+00 -0.74505805969E-08  0.93827000000E+00  0.93827000000E+00 0.  1.
     999902    2    1    2    0    0  0.96023325255E-02  0.10344973368E-01 -0.18448811863E-01  0.10207010972E+01  0.10204367438E+01 0.  0.
     999903    2    3    3    0    0 -0.45761983885E-01 -0.80227304133E-01  0.86600369274E-01  0.12811839775E+00  0.19598989423E-01 0.  0.
         14    1    1    2    0    0 -0.96023325255E-02 -0.10344973368E-01  0.18448811863E-01  0.23228902752E-01  0.00000000000E+00 0. -1.
     999901    1    3    3    0    0  0.55364316410E-01  0.90572277501E-01 -0.10504918114E+00  0.89258269950E+00  0.88000000000E+00 0.  1.
        -11    1    4    4    0    0 -0.18148356389E-01 -0.43083203628E-01  0.32603947273E-01  0.56998278687E-01  0.51100000000E-03 0.  1.
         11    1    4    4    0    0 -0.27613627496E-01 -0.37144100505E-01  0.53996422001E-01  0.71120119065E-01  0.51100000000E-03 0. -1.
</event>
<event>
 8    1  0.1118868E+005  0.1043930E+01  0.7957747E-01            NaN
         13   -1    0    0    0    0  0.00000000000E+00  0.00000000000E+00  0.74505805969E-08  0.10566000000E+00  0.10566000000E+00 0. -1.
     999900   -1    0    0    0    0 -0.00000000000E+00 -0.00000000000E+00 -0.74505805969E-08  0.93827000000E+00  0.93827000000E+00 0.  1.
     999902    2    1    2    0    0 -0.15120682038E-03  0.17356853297E-01 -0.14991367794E-01  0.10209947797E+01  0.10207371434E+01 0.  0.
     999903    2    3    3    0    0  0.12700917239E+00  0.22707140058E-01 -0.18373614541E-01  0.13183234959E+00  0.19880508144E-01 0.  0.
         14    1    1    2    0    0  0.15120682038E-03 -0.17356853297E-01  0.14991367794E-01  0.22935220256E-01  0.00000000000E+00 0.  1.
     999901    1    3    3    0    0 -0.12716037922E+00 -0.53502867613E-02  0.33822467468E-02  0.88916243016E+00  0.88000000000E+00 0. -1.
        -11    1    4    4    0    0  0.66902641962E-01  0.11443081293E-01 -0.19652668839E-01  0.70663966238E-01  0.51100000000E-03 0. -1.
         11    1    4    4    0    0  0.60106530433E-01  0.11264058766E-01  0.12790542984E-02  0.61168383348E-01  0.51100000000E-03 0.  1.
</event>
<event>
 8    1  0.1118868E+005  0.1043930E+01  0.7957747E-01            NaN
         13   -1    0    0    0    0  0.00000000000E+00  0.00000000000E+00  0.74505805969E-08  0.10566000000E+00  0.10566000000E+00 0. -1.
     999900   -1    0    0    0    0 -0.00000000000E+00 -0.00000000000E+00 -0.74505805969E-08  0.93827000000E+00  0.93827000000E+00 0.  1.
     999902    2    1    2    0    0 -0.82084252012E-02  0.23155348300E-01 -0.36388124925E-02  0.10190947558E+01  0.10187920945E+01 0.  0.
     999903    2    3    3    0    0 -0.10449186222E+00  0.15058171072E-01  0.74040903961E-01  0.13040459443E+00  0.19442350764E-01 0.  0.
         14    1    1    2    0    0  0.82084252012E-02 -0.23155348300E-01  0.36388124925E-02  0.24835244222E-01  0.00000000000E+00 0. -1.
     999901    1    3    3    0    0  0.96283437021E-01  0.80971772281E-02 -0.77679716453E-01  0.88869016135E+00  0.88000000000E+00 0. -1.
        -11    1    4    4    0    0 -0.74368399211E-01  0.19512658229E-01  0.52526449743E-01  0.93116548883E-01  0.51100000000E-03 0.  1.
         11    1    4    4    0    0 -0.30123463011E-01 -0.44544871571E-02  0.21514454218E-01  0.37288045550E-01  0.51100000000E-03 0. -1.
</event>
<event>
 8    1  0.1118868E+005  0.1043930E+01  0.7957747E-01            NaN
         13   -1    0    0    0    0  0.00000000000E+00  0.00000000000E+00  0.74505805969E-08  0.10566000000E+00  0.10566000000E+00 0.  1.
     999900   -1    0    0    0    0 -0.00000000000E+00 -0.00000000000E+00 -0.74505805969E-08  0.93827000000E+00  0.93827000000E+00 0.  1.
     999902    2    1    2    0    0 -0.11964507427E-01  0.26890923992E-02 -0.25094338909E-01  0.10159996133E+01  0.10156156299E+01 0.  0.
     999903    2    3    3    0    0  0.66632741228E-02  0.12470917970E+00  0.58387641933E-02  0.12684678458E+00  0.21429812625E-01 0.  0.
         14    1    1    2    0    0  0.11964507427E-01 -0.26890923992E-02  0.25094338909E-01  0.27930386699E-01  0.00000000000E+00 0.  1.
     999901    1    3    3    0    0 -0.18627781550E-01 -0.12202008730E+00 -0.30933103102E-01  0.88915282872E+00  0.88000000000E+00 0. -1.
        -11    1    4    4    0    0 -0.38903638093E-02  0.38411507782E-01  0.97270612075E-02  0.39817781222E-01  0.51100000000E-03 0.  1.
         11    1    4    4    0    0  0.10553637932E-01  0.86297671914E-01 -0.38882970142E-02  0.87029003361E-01  0.51100000000E-03 0. -1.
</event>
<event>
 8    1  0.1118868E+005  0.1043930E+01  0.7957747E-01            NaN
         13   -1    0    0    0    0  0.00000000000E+00  0.00000000000E+00  0.74505805969E-08  0.10566000000E+00  0.10566000000E+00 0. -1.
     999900   -1    0    0    0    0 -0.00000000000E+00 -0.00000000000E+00 -0.74505805969E-08  0.93827000000E+00  0.93827000000E+00 0. -1.
     999902    2    1    2    0    0  0.57585677540E-02 -0.21760750796E-01 -0.70049285296E-02  0.10203554289E+01  0.10200830559E+01 0.  0.
     999903    2    3    3    0    0 -0.96701071344E-01  0.62776147602E-01  0.52872976122E-01  0.12837458367E+00  0.19812627824E-01 0.  0.
         14    1    1    2    0    0 -0.57585677540E-02  0.21760750796E-01  0.70049285296E-02  0.23574571077E-01  0.00000000000E+00 0. -1.
     999901    1    3    3    0    0  0.10245963910E+00 -0.84536898398E-01 -0.59877904652E-01  0.89198084525E+00  0.88000000000E+00 0.  1.
        -11    1    4    4    0    0 -0.38054120302E-01  0.22305641916E-01  0.10060696667E-01  0.45245292259E-01  0.51100000000E-03 0. -1.
         11    1    4    4    0    0 -0.58646951042E-01  0.40470505686E-01  0.42812279455E-01  0.83129291409E-01  0.51100000000E-03 0.  1.
</event>
<event>
 8    1  0.1118868E+005  0.1043930E+01  0.7957747E-01            NaN
         13   -1    0    0    0    0  0.00000000000E+00  0.00000000000E+00  0.74505805969E-08  0.10566000000E+00  0.10566000000E+00 0. -1.
     999900   -1    0    0    0    0 -0.00000000000E+00 -0.00000000000E+00 -0.74505805969E-08  0.93827000000E+00  0.93827000000E+00 0. -1.
     999902    2    1    2    0    0 -0.17718641338E-01  0.10060123143E-01  0.10757001790E-01  0.10208893964E+01  0.10206293598E+01 0.  0.
     999903    2    3    3    0    0  0.52957492391E-01  0.10645820768E+00 -0.50335044460E-01  0.13070967030E+00  0.20336057273E-01 0.  0.
         14    1    1    2    0    0  0.17718641338E-01 -0.10060123143E-01 -0.10757001790E-01  0.23040603639E-01  0.00000000000E+00 0.  1.
     999901    1    3    3    0    0 -0.70676133729E-01 -0.96398084538E-01  0.61092046250E-01  0.89017972606E+00  0.88000000000E+00 0.  1.
        -11    1    4    4    0    0  0.12043381681E-01  0.44667005825E-01 -0.15248494199E-01  0.48713059317E-01  0.51100000000E-03 0.  1.
         11    1    4    4    0    0  0.40914110710E-01  0.61791201856E-01 -0.35086550261E-01  0.81996610980E-01  0.51100000000E-03 0. -1.
</event>
<event>
 8    1  0.1118868E+005  0.1043930E+01  0.7957747E-01            NaN
         13   -1    0    0    0    0  0.00000000000E+00  0.00000000000E+00  0.74505805969E-08  0.10566000000E+00  0.10566000000E+00 0. -1.
     999900   -1    0    0    0    0 -0.00000000000E+00 -0.00000000000E+00 -0.74505805969E-08  0.93827000000E+00  0.93827000000E+00 0.  1.
     999902    2    1    2    0    0 -0.19195463152E-01  0.60435110506E-02 -0.14484073948E-01  0.10191352782E+01  0.10188336160E+01 0.  0.
     999903    2    3    3    0    0  0.38713490767E-01  0.69554013776E-01 -0.10043707832E+00  0.13078008467E+00  0.26063933789E-01 0.  0.
         14    1    1    2    0    0  0.19195463152E-01 -0.60435110506E-02  0.14484073948E-01  0.24794721809E-01  0.00000000000E+00 0. -1.
     999901    1    3    3    0    0 -0.57908953919E-01 -0.63510502726E-01  0.85953004371E-01  0.88835519352E+00  0.88000000000E+00 0. -1.
        -11    1    4    4    0    0  0.20629858032E-01  0.23710438210E-01 -0.22839530117E-01  0.38854615935E-01  0.51100000000E-03 0. -1.
         11    1    4    4    0    0  0.18083632735E-01  0.45843575566E-01 -0.77597548202E-01  0.91925468732E-01  0.51100000000E-03 0.  1.
</event>
<event>
 8    1  0.1118868E+005  0.1043930E+01  0.7957747E-01            NaN
         13   -1    0    0    0    0  0.00000000000E+00  0.00000000000E+00  0.74505805969E-08  0.10566000000E+00  0.10566000000E+00 0.  1.
     999900   -1    0    0    0    0 -0.00000000000E+00 -0.00000000000E+00 -0.74505805969E-08  0.93827000000E+00  0.93827000000E+00 0.  1.
     999902    2    1    2    0    0  0.17541866187E-01  0.75408909417E-02  0.54709512428E-02  0.10240676383E+01  0.10238749994E+01 0.  0.
     999903    2    3    3    0    0  0.81160263573E-01 -0.50020400912E-01  0.94183432713E-01  0.13545607681E+00  0.19718033823E-01 0.  0.
         14    1    1    2    0    0 -0.17541866187E-01 -0.75408909417E-02 -0.54709512428E-02  0.19862361718E-01  0.00000000000E+00 0. -1.
     999901    1    3    3    0    0 -0.63618397386E-01  0.57561291853E-01 -0.88712481470E-01  0.88861156147E+00  0.88000000000E+00 0.  1.
        -11    1    4    4    0    0  0.36990121196E-01 -0.23140292741E-01  0.29621092519E-01  0.52739097994E-01  0.51100000000E-03 0. -1.
         11    1    4    4    0    0  0.44170142377E-01 -0.26880108171E-01  0.64562340193E-01  0.82716978820E-01  0.51100000000E-03 0.  1.
</event>
<event>
 8    1  0.1118868E+005  0.1043930E+01  0.7957747E-01            NaN
         13   -1    0    0    0    0  0.00000000000E+00  0.00000000000E+00  0.74505805969E-08  0.10566000000E+00  0.10566000000E+00 0.  1.
     999900   -1    0    0    0    0 -0.00000000000E+00 -0.00000000000E+00 -0.74505805969E-08  0.93827000000E+00  0.93827000000E+00 0. -1.
     999902    2    1    2    0    0  0.17780915716E-01 -0.13531890425E-01  0.67938297018E-02  0.10205755755E+01  0.10203083241E+01 0.  0.
     999903    2    3    3    0    0  0.60711163099E-01 -0.62227240959E-01 -0.97387275493E-01  0.13205548794E+00  0.19907175200E-01 0.  0.
         14    1    1    2    0    0 -0.17780915716E-01  0.13531890425E-01 -0.67938297018E-02  0.23354424510E-01  0.00000000000E+00 0. -1.
     999901    1    3    3    0    0 -0.42930247382E-01  0.48695350534E-01  0.10418110519E+00  0.88852008755E+00  0.88000000000E+00 0.  1.
        -11    1    4    4    0    0  0.43524033986E-01 -0.30760516109E-01 -0.56539820855E-01  0.77701758982E-01  0.51100000000E-03 0.  1.
         11    1    4    4    0    0  0.17187129113E-01 -0.31466724851E-01 -0.40847454638E-01  0.54353728955E-01  0.51100000000E-03 0. -1.
</event>
<event>
 8    1  0.1118868E+005  0.1043930E+01  0.7957747E-01            NaN
         13   -1    0    0    0    0  0.00000000000E+00  0.00000000000E+00  0.74505805969E-08  0.10566000000E+00  0.10566000000E+00 0. -1.
     999900   -1    0    0    0    0 -0.00000000000E+00 -0.00000000000E+00 -0.74505805969E-08  0.93827000000E+00  0.93827000000E+00 0. -1.
     999902    2    1    2    0    0  0.23561451858E-01 -0.49361262481E-03  0.10847172672E-02  0.10203384278E+01  0.10200656572E+01 0.  0.
     999903    2    3    3    0    0 -0.49525725000E-02 -0.66010944109E-01 -0.11070117228E+00  0.13039367929E+00  0.19125619953E-01 0.  0.
         14    1    1    2    0    0 -0.23561451858E-01  0.49361262481E-03 -0.10847172672E-02  0.23591572195E-01  0.00000000000E+00 0. -1.
     999901    1    3    3    0    0  0.28514024358E-01  0.65517331484E-01  0.11178588954E+00  0.88994474852E+00  0.88000000000E+00 0.  1.
        -11    1    4    4    0    0 -0.87149477072E-02 -0.36477906549E-01 -0.75380712341E-01  0.84196798596E-01  0.51100000000E-03 0.  1.
         11    1    4    4    0    0  0.37623752072E-02 -0.29533037560E-01 -0.35320459936E-01  0.46196880693E-01  0.51100000000E-03 0. -1.
</event>
<event>
 8    1  0.1118868E+005  0.1043930E+01  0.7957747E-01            NaN
         13   -1    0    0    0    0  0.00000000000E+00  0.00000000000E+00  0.74505805969E-08  0.10566000000E+00  0.10566000000E+00 0.  1.
     999900   -1    0    0    0    0 -0.00000000000E+00 -0.00000000000E+00 -0.74505805969E-08  0.93827000000E+00  0.93827000000E+00 0. -1.
     999902    2    1    2    0    0  0.17565870667E-02  0.52669288739E-02  0.22480852461E-01  0.10207736863E+01  0.10205110013E+01 0.  0.
     999903    2    3    3    0    0 -0.11136162449E+00  0.58000434465E-02  0.68224901747E-01  0.13235456669E+00  0.20689180574E-01 0.  0.
         14    1    1    2    0    0 -0.17565870667E-02 -0.52669288739E-02 -0.22480852461E-01  0.23156313723E-01  0.00000000000E+00 0. -1.
     999901    1    3    3    0    0  0.11311821156E+00 -0.53311457253E-03 -0.45744049286E-01  0.88841911958E+00  0.88000000000E+00 0.  1.
        -11    1    4    4    0    0 -0.10108801098E+00  0.30109872030E-02  0.67664013544E-01  0.12168209341E+00  0.51100000000E-03 0. -1.
         11    1    4    4    0    0 -0.10273613513E-01  0.27890562434E-02  0.56088820322E-03  0.10672473280E-01  0.51100000000E-03 0.  1.
</event>
<event>
 8    1  0.1118868E+005  0.1043930E+01  0.7957747E-01            NaN
         13   -1    0    0    0    0  0.00000000000E+00  0.00000000000E+00  0.74505805969E-08  0.10566000000E+00  0.10566000000E+00 0. -1.
     999900   -1    0    0    0    0 -0.00000000000E+00 -0.00000000000E+00 -0.74505805969E-08  0.93827000000E+00  0.93827000000E+00 0.  1.
     999902    2    1    2    0    0  0.64843688367E-02 -0.11717299098E-01  0.19356971533E-01  0.10203920629E+01  0.10201205456E+01 0.  0.
     999903    2    3    3    0    0 -0.98311569377E-01 -0.84193895900E-01  0.35272384963E-02  0.13107455703E+00  0.20354884144E-01 0.  0.
         14    1    1    2    0    0 -0.64843688367E-02  0.11717299098E-01 -0.19356971533E-01  0.23537937129E-01  0.00000000000E+00 0.  1.
     999901    1    3    3    0    0  0.10479593821E+00  0.72476596802E-01  0.15829733037E-01  0.88931750584E+00  0.88000000000E+00 0. -1.
        -11    1    4    4    0    0 -0.50783233508E-01 -0.35116550848E-01  0.95906420198E-02  0.62484802027E-01  0.51100000000E-03 0. -1.
         11    1    4    4    0    0 -0.47528335869E-01 -0.49077345052E-01 -0.60634035235E-02  0.68589755001E-01  0.51100000000E-03 0.  1.
</event>
<event>
 8    1  0.1118868E+005  0.1043930E+01  0.7957747E-01            NaN
         13   -1    0    0    0    0  0.00000000000E+00  0.00000000000E+00  0.74505805969E-08  0.10566000000E+00  0.10566000000E+00 0. -1.
     999900   -1    0    0    0    0 -0.00000000000E+00 -0.00000000000E+00 -0.74505805969E-08  0.93827000000E+00  0.93827000000E+00 0.  1.
     999902    2    1    2    0    0  0.18946175315E-01  0.12946330549E-01  0.80369860700E-02  0.10196162554E+01  0.10193263216E+01 0.  0.
     999903    2    3    3    0    0 -0.37629063645E-01  0.43692218891E-01  0.11558810536E+00  0.13073307373E+00  0.20138769640E-01 0.  0.
         14    1    1    2    0    0 -0.18946175315E-01 -0.12946330549E-01 -0.80369860700E-02  0.24313744648E-01  0.00000000000E+00 0.  1.
     999901    1    3    3    0    0  0.56575238960E-01 -0.30745888342E-01 -0.10755111929E+00  0.88888318162E+00  0.88000000000E+00 0.  1.
        -11    1    4    4    0    0 -0.97420717640E-03  0.24324745749E-02  0.21395442023E-01  0.21561356000E-01  0.51100000000E-03 0.  1.
         11    1    4    4    0    0 -0.36654856469E-01  0.41259744316E-01  0.94192663339E-01  0.10917171773E+00  0.51100000000E-03 0. -1.
</event>
<event>
 8    1  0.1118868E+005  0.1043930E+01  0.7957747E-01            NaN
         13   -1    0    0    0    0  0.00000000000E+00  0.00000000000E+00  0.74505805969E-08  0.10566000000E+00  0.10566000000E+00 0. -1.
     999900   -1    0    0    0    0 -0.00000000000E+00 -0.00000000000E+00 -0.74505805969E-08  0.93827000000E+00  0.93827000000E+00 0. -1.
     999902    2    1    2    0    0  0.40812110048E-02  0.18886420394E-01  0.63104869120E-02  0.10236032835E+01  0.10234014396E+01 0.  0.
     999903    2    3    3    0    0 -0.19009237441E-03 -0.86167898952E-01 -0.96999412563E-01  0.13134346183E+00  0.20427334189E-01 0.  0.
         14    1    1    2    0    0 -0.40812110048E-02 -0.18886420394E-01 -0.63104869120E-02  0.20326716499E-01  0.00000000000E+00 0.  1.
     999901    1    3    3    0    0  0.42713033792E-02  0.10505431935E+00  0.10330989947E+00  0.89225982167E+00  0.88000000000E+00 0.  1.
        -11    1    4    4    0    0  0.93868861988E-02 -0.58620426222E-01 -0.63803229089E-01  0.87152631435E-01  0.51100000000E-03 0.  1.
         11    1    4    4    0    0 -0.95769785732E-02 -0.27547472730E-01 -0.33196183474E-01  0.44190830391E-01  0.51100000000E-03 0. -1.
</event>
<event>
 8    1  0.1118868E+005  0.1043930E+01  0.7957747E-01            NaN
         13   -1    0    0    0    0  0.00000000000E+00  0.00000000000E+00  0.74505805969E-08  0.10566000000E+00  0.10566000000E+00 0. -1.
     999900   -1    0    0    0    0 -0.00000000000E+00 -0.00000000000E+00 -0.74505805969E-08  0.93827000000E+00  0.93827000000E+00 0.  1.
     999902    2    1    2    0    0  0.95655574540E-02  0.52119655914E-02 -0.21622205151E-01  0.10197187582E+01  0.10194312932E+01 0.  0.
     999903    2    3    3    0    0 -0.86533168335E-02 -0.98993680742E-01 -0.83431643158E-01  0.13123063179E+00  0.19647160656E-01 0.  0.
         14    1    1    2    0    0 -0.95655574540E-02 -0.52119655914E-02  0.21622205151E-01  0.24211241817E-01  0.00000000000E+00 0.  1.
     999901    1    3    3    0    0  0.18218874288E-01  0.10420564633E+00  0.61809438006E-01  0.88848812639E+00  0.88000000000E+00 0. -1.
        -11    1    4    4    0    0 -0.10707140404E-01 -0.46930968519E-01 -0.49513087274E-01  0.69057697574E-01  0.51100000000E-03 0.  1.
         11    1    4    4    0    0  0.20538235704E-02 -0.52062712223E-01 -0.33918555884E-01  0.62172934220E-01  0.51100000000E-03 0. -1.
</event>
<event>
 8    1  0.1118868E+005  0.1043930E+01  0.7957747E-01            NaN
         13   -1    0    0    0    0  0.00000000000E+00  0.00000000000E+00  0.74505805969E-08  0.10566000000E+00  0.10566000000E+00 0. -1.
     999900   -1    0    0    0    0 -0.00000000000E+00 -0.00000000000E+00 -0.74505805969E-08  0.93827000000E+00  0.93827000000E+00 0. -1.
     999902    2    1    2    0    0 -0.43186383083E-02  0.18662386550E-01 -0.14929770042E-01  0.10196435152E+01  0.10193542391E+01 0.  0.
     999903    2    3    3    0    0 -0.54444561004E-01  0.37545001474E-01 -0.11310690331E+00  0.13256521499E+00  0.20162521908E-01 0.  0.
         14    1    1    2    0    0  0.43186383083E-02 -0.18662386550E-01  0.14929770042E-01  0.24286484762E-01  0.00000000000E+00 0. -1.
     999901    1    3    3    0    0  0.50125922696E-01 -0.18882614924E-01  0.98177133271E-01  0.88707830025E+00  0.88000000000E+00 0.  1.
        -11    1    4    4    0    0 -0.26370690503E-01  0.65242531900E-02 -0.40630792852E-01  0.48878437435E-01  0.51100000000E-03 0.  1.
         11    1    4    4    0    0 -0.28073870501E-01  0.31020748284E-01 -0.72476110462E-01  0.83686777556E-01  0.51100000000E-03 0. -1.
</event>
<event>
 8    1  0.1118868E+005  0.1043930E+01  0.7957747E-01            NaN
         13   -1    0    0    0    0  0.00000000000E+00  0.00000000000E+00  0.74505805969E-08  0.10566000000E+00  0.10566000000E+00 0. -1.
     999900   -1    0    0    0    0 -0.00000000000E+00 -0.00000000000E+00 -0.74505805969E-08  0.93827000000E+00  0.93827000000E+00 0.  1.
     999902    2    1    2    0    0 -0.93030071573E-02 -0.16247719583E-01 -0.15009453739E-01  0.10199337912E+01  0.10196514701E+01 0.  0.
     999903    2    3    3    0    0 -0.19352833017E-02  0.51741742098E-01 -0.11897008622E+00  0.13117923380E+00  0.19317266040E-01 0.  0.
         14    1    1    2    0    0  0.93030071573E-02  0.16247719583E-01  0.15009453739E-01  0.23996208770E-01  0.00000000000E+00 0.  1.
     999901    1    3    3    0    0 -0.73677238556E-02 -0.67989461681E-01  0.10396063248E+00  0.88875455743E+00  0.88000000000E+00 0. -1.
        -11    1    4    4    0    0 -0.97697999434E-02  0.37156355842E-01 -0.76870691126E-01  0.85938396806E-01  0.51100000000E-03 0. -1.
         11    1    4    4    0    0  0.78345166417E-02  0.14585386255E-01 -0.42099395094E-01  0.45240836989E-01  0.51100000000E-03 0.  1.
</event>
<event>
 8    1  0.1118868E+005  0.1043930E+01  0.7957747E-01            NaN
         13   -1    0    0    0    0  0.00000000000E+00  0.00000000000E+00  0.74505805969E-08  0.10566000000E+00  0.10566000000E+00 0. -1.
     999900   -1    0    0    0    0 -0.00000000000E+00 -0.00000000000E+00 -0.74505805969E-08  0.93827000000E+00  0.93827000000E+00 0. -1.
     999902    2    1    2    0    0 -0.11102567580E-01 -0.19867826217E-01  0.62885344741E-02  0.10203176475E+01  0.10200443905E+01 0.  0.
     999903    2    3    3    0    0  0.10889378445E+00 -0.12255502263E-01 -0.65707141022E-01  0.12922817427E+00  0.19350426790E-01 0.  0.
         14    1    1    2    0    0  0.11102567580E-01  0.19867826217E-01 -0.62885344741E-02  0.23612352515E-01  0.00000000000E+00 0.  1.
     999901    1    3    3    0    0 -0.11999635203E+00 -0.76123239539E-02  0.71995675496E-01  0.89108947321E+00  0.88000000000E+00 0. -1.
        -11    1    4    4    0    0  0.47281943851E-01 -0.19080174248E-02 -0.38832666870E-01  0.61216500080E-01  0.51100000000E-03 0.  1.
         11    1    4    4    0    0  0.61611840601E-01 -0.10347484838E-01 -0.26874474152E-01  0.68011674194E-01  0.51100000000E-03 0. -1.
</event>
<event>
 8    1  0.1118868E+005  0.1043930E+01  0.7957747E-01            NaN
         13   -1    0    0    0    0  0.00000000000E+00  0.00000000000E+00  0.74505805969E-08  0.10566000000E+00  0.10566000000E+00 0. -1.
     999900   -1    0    0    0    0 -0.00000000000E+00 -0.00000000000E+00 -0.74505805969E-08  0.93827000000E+00  0.93827000000E+00 0.  1.
     999902    2    1    2    0    0 -0.18138964370E-01 -0.12186374363E-01 -0.58485262984E-02  0.10213084393E+01  0.10210578794E+01 0.  0.
     999903    2    3    3    0    0 -0.16117911067E-02  0.80385052516E-01  0.99936352611E-01  0.12999869677E+00  0.21166767580E-01 0.  0.
         14    1    1    2    0    0  0.18138964370E-01  0.12186374363E-01  0.58485262984E-02  0.22621560698E-01  0.00000000000E+00 0.  1.
     999901    1    3    3    0    0 -0.16527173263E-01 -0.92571426879E-01 -0.10578487891E+00  0.89130974253E+00  0.88000000000E+00 0. -1.
        -11    1    4    4    0    0 -0.34423042245E-02  0.26945334139E-01  0.49635596969E-01  0.56584928185E-01  0.51100000000E-03 0.  1.
         11    1    4    4    0    0  0.18305131178E-02  0.53439718377E-01  0.50300755641E-01  0.73413768583E-01  0.51100000000E-03 0. -1.
</event>
<event>
 8    1  0.1118868E+005  0.1043930E+01  0.7957747E-01            NaN
         13   -1    0    0    0    0  0.00000000000E+00  0.00000000000E+00  0.74505805969E-08  0.10566000000E+00  0.10566000000E+00 0. -1.
     999900   -1    0    0    0    0 -0.00000000000E+00 -0.00000000000E+00 -0.74505805969E-08  0.93827000000E+00  0.93827000000E+00 0.  1.
     999902    2    1    2    0    0 -0.94556762513E-02 -0.94758984486E-02 -0.13959277607E-01  0.10245892685E+01  0.10244067089E+01 0.  0.
     999903    2    3    3    0    0 -0.10878908257E+00  0.76306479507E-01  0.76683884455E-02  0.13459292133E+00  0.19967648591E-01 0.  0.
         14    1    1    2    0    0  0.94556762513E-02  0.94758984486E-02  0.13959277607E-01  0.19340731529E-01  0.00000000000E+00 0.  1.
     999901    1    3    3    0    0  0.99333406321E-01 -0.85782377955E-01 -0.21627666052E-01  0.88999634714E+00  0.88000000000E+00 0. -1.
        -11    1    4    4    0    0 -0.70326858900E-01  0.40447003191E-01 -0.18461020248E-02  0.81151071241E-01  0.51100000000E-03 0.  1.
         11    1    4    4    0    0 -0.38462223672E-01  0.35859476316E-01  0.95144904703E-02  0.53441850093E-01  0.51100000000E-03 0. -1.
</event>
<event>
 8    1  0.1118868E+005  0.1043930E+01  0.7957747E-01            NaN
         13   -1    0    0    0    0  0.00000000000E+00  0.00000000000E+00  0.74505805969E-08  0.10566000000E+00  0.10566000000E+00 0.  1.
     999900   -1    0    0    0    0 -0.00000000000E+00 -0.00000000000E+00 -0.74505805969E-08  0.93827000000E+00  0.93827000000E+00 0. -1.
     999902    2    1    2    0    0 -0.41082394696E-02 -0.15695525706E-01 -0.17493222645E-01  0.10200712490E+01  0.10197921911E+01 0.  0.
     999903    2    3    3    0    0 -0.69158421149E-01 -0.10065955885E+00  0.44270831971E-01  0.13144016051E+00  0.20034351177E-01 0.  0.
         14    1    1    2    0    0  0.41082394696E-02  0.15695525706E-01  0.17493222645E-01  0.23858750957E-01  0.00000000000E+00 0.  1.
     999901    1    3    3    0    0  0.65050181679E-01  0.84964033147E-01 -0.61764054616E-01  0.88863108853E+00  0.88000000000E+00 0. -1.
        -11    1    4    4    0    0 -0.48946889846E-01 -0.56532698557E-01  0.21385981643E-01  0.77777666226E-01  0.51100000000E-03 0. -1.
         11    1    4    4    0    0 -0.20211531303E-01 -0.44126860297E-01  0.22884850328E-01  0.53662494284E-01  0.51100000000E-03 0.  1.
</event>
<event>
 8    1  0.1118868E+005  0.1043930E+01  0.7957747E-01            NaN
         13   -1    0    0    0    0  0.00000000000E+00  0.00000000000E+00  0.74505805969E-08  0.10566000000E+00  0.10566000000E+00 0.  1.
     999900   -1    0    0    0    0 -0.00000000000E+00 -0.00000000000E+00 -0.74505805969E-08  0.93827000000E+00  0.93827000000E+00 0. -1.
     999902    2    1    2    0    0 -0.88121488005E-02  0.11173814424E-01 -0.17299498351E-01  0.10215295371E+01  0.10212839049E+01 0.  0.
     999903    2    3    3    0    0 -0.76914696454E-01 -0.35284455246E-01 -0.10137912567E+00  0.13368624487E+00  0.20818780776E-01 0.  0.
         14    1    1    2    0    0  0.88121488005E-02 -0.11173814424E-01  0.17299498351E-01  0.22400462907E-01  0.00000000000E+00 0.  1.
     999901    1    3    3    0    0  0.68102547654E-01  0.46458269670E-01  0.84079627317E-01  0.88784329222E+00  0.88000000000E+00 0. -1.
        -11    1    4    4    0    0 -0.43543216714E-01 -0.11586318514E-01 -0.63874241415E-01  0.78169267208E-01  0.51100000000E-03 0. -1.
         11    1    4    4    0    0 -0.33371479740E-01 -0.23698136733E-01 -0.37504884253E-01  0.55516977660E-01  0.51100000000E-03 0.  1.
</event>
<event>
 8    1  0.1118868E+005  0.1043930E+01  0.7957747E-01            NaN
         13   -1    0    0    0    0  0.00000000000E+00  0.00000000000E+00  0.74505805969E-08  0.10566000000E+00  0.10566000000E+00 0. -1.
     999900   -1    0    0    0    0 -0.00000000000E+00 -0.00000000000E+00 -0.74505805969E-08  0.93827000000E+00  0.93827000000E+00 0. -1.
     999902    2    1    2    0    0  0.47128741682E-02  0.18438271407E-01 -0.14052239159E-01  0.10202731519E+01  0.10199988520E+01 0.  0.
     999903    2    3    3    0    0 -0.46148571555E-01 -0.31508902834E-01 -0.11706807180E+00  0.13140090652E+00  0.20946674806E-01 0.  0.
         14    1    1    2    0    0 -0.47128741682E-02 -0.18438271407E-01  0.14052239159E-01  0.23656848074E-01  0.00000000000E+00 0. -1.
     999901    1    3    3    0    0  0.50861445724E-01  0.49947174241E-01  0.10301583264E+00  0.88887224540E+00  0.88000000000E+00 0.  1.
        -11    1    4    4    0    0 -0.44803444329E-01 -0.27915366657E-01 -0.92285746007E-01  0.10631809045E+00  0.51100000000E-03 0. -1.
         11    1    4    4    0    0 -0.13451272260E-02 -0.35935361775E-02 -0.24782325793E-01  0.25082816074E-01  0.51100000000E-03 0.  1.
</event>
<event>
 8    1  0.1118868E+005  0.1043930E+01  0.7957747E-01            NaN
         13   -1    0    0    0    0  0.00000000000E+00  0.00000000000E+00  0.74505805969E-08  0.10566000000E+00  0.10566000000E+00 0. -1.
     999900   -1    0    0    0    0 -0.00000000000E+00 -0.00000000000E+00 -0.74505805969E-08  0.93827000000E+00  0.93827000000E+00 0.  1.
     999902    2    1    2    0    0 -0.66893098721E-02 -0.12169638608E-01 -0.13728969888E-01  0.10244022868E+01  0.10242161459E+01 0.  0.
     999903    2    3    3    0    0  0.92623213231E-01  0.92605778860E-01  0.52025621473E-02  0.13243857210E+00  0.18921385258E-01 0.  0.
         14    1    1    2    0    0  0.66893098721E-02  0.12169638608E-01  0.13728969888E-01  0.19527713246E-01  0.00000000000E+00 0. -1.
     999901    1    3    3    0    0 -0.99312523103E-01 -0.10477541747E+00 -0.18931532035E-01  0.89196371465E+00  0.88000000000E+00 0.  1.
        -11    1    4    4    0    0  0.27042357464E-01  0.39733047835E-01  0.32374235708E-02  0.48174123965E-01  0.51100000000E-03 0.  1.
         11    1    4    4    0    0  0.65580855767E-01  0.52872731025E-01  0.19651385765E-02  0.84264448137E-01  0.51100000000E-03 0. -1.
</event>
<event>
 8    1  0.1118868E+005  0.1043930E+01  0.7957747E-01            NaN
         13   -1    0    0    0    0  0.00000000000E+00  0.00000000000E+00  0.74505805969E-08  0.10566000000E+00  0.10566000000E+00 0.  1.
     999900   -1    0    0    0    0 -0.00000000000E+00 -0.00000000000E+00 -0.74505805969E-08  0.93827000000E+00  0.93827000000E+00 0.  1.
     999902    2    1    2    0    0  0.18589578818E-01 -0.12745530983E-01  0.54158956251E-02  0.10207491259E+01  0.10204858769E+01 0.  0.
     999903    2    3    3    0    0 -0.26396405965E-01 -0.11200113775E+00  0.62708246380E-01  0.13217846026E+00  0.17256769301E-01 0.  0.
         14    1    1    2    0    0 -0.18589578818E-01  0.12745530983E-01 -0.54158956251E-02  0.23180874144E-01  0.00000000000E+00 0.  1.
     999901    1    3    3    0    0  0.44985984782E-01  0.99255606771E-01 -0.57292350754E-01  0.88857066560E+00  0.88000000000E+00 0.  1.
        -11    1    4    4    0    0 -0.16788391054E-01 -0.47624375874E-01  0.19940542808E-01  0.54293808303E-01  0.51100000000E-03 0.  1.
         11    1    4    4    0    0 -0.96080149105E-02 -0.64376761880E-01  0.42767703572E-01  0.77884651957E-01  0.51100000000E-03 0. -1.
</event>
<event>
 8    1  0.1118868E+005  0.1043930E+01  0.7957747E-01            NaN
         13   -1    0    0    0    0  0.00000000000E+00  0.00000000000E+00  0.74505805969E-08  0.10566000000E+00  0.10566000000E+00 0. -1.
     999900   -1    0    0    0    0 -0.00000000000E+00 -0.00000000000E+00 -0.74505805969E-08  0.93827000000E+00  0.93827000000E+00 0. -1.
     999902    2    1    2    0    0 -0.95523675977E-02 -0.19381503480E-01  0.11243081871E-01  0.10195723052E+01  0.10192813097E+01 0.  0.
     999903    2    3    3    0    0  0.98170306710E-02  0.95121171231E-01 -0.81295708449E-01  0.12713213144E+00  0.20228082573E-01 0.  0.
         14    1    1    2    0    0  0.95523675977E-02  0.19381503480E-01 -0.11243081871E-01  0.24357694756E-01  0.00000000000E+00 0.  1.
     999901    1    3    3    0    0 -0.19369398269E-01 -0.11450267471E+00  0.92538790320E-01  0.89244017380E+00  0.88000000000E+00 0.  1.
        -11    1    4    4    0    0  0.13994982123E-01  0.87942033117E-01 -0.70976274823E-01  0.11387516596E+00  0.51100000000E-03 0.  1.
         11    1    4    4    0    0 -0.41779514524E-02  0.71791381146E-02 -0.10319433626E-01  0.13256965481E-01  0.51100000000E-03 0. -1.
</event>
<event>
 8    1  0.1118868E+005  0.1043930E+01  0.7957747E-01            NaN
         13   -1    0    0    0    0  0.00000000000E+00  0.00000000000E+00  0.74505805969E-08  0.10566000000E+00  0.10566000000E+00 0.  1.
     999900   -1    0    0    0    0 -0.00000000000E+00 -0.00000000000E+00 -0.74505805969E-08  0.93827000000E+00  0.93827000000E+00 0.  1.
     999902    2    1    2    0    0  0.19827838373E-01 -0.40230469629E-02 -0.12068262678E-01  0.10203721766E+01  0.10201001949E+01 0.  0.
     999903    2    3    3    0    0  0.80202578006E-01  0.79610877998E-01 -0.66688072560E-01  0.13266554358E+00  0.19557658811E-01 0.  0.
         14    1    1    2    0    0 -0.19827838373E-01  0.40230469629E-02  0.12068262678E-01  0.23557823445E-01  0.00000000000E+00 0. -1.
     999901    1    3    3    0    0 -0.60374739633E-01 -0.83633924961E-01  0.54619809882E-01  0.88770663297E+00  0.88000000000E+00 0. -1.
        -11    1    4    4    0    0  0.54129050753E-01  0.41776190568E-01 -0.44971586052E-01  0.81840753337E-01  0.51100000000E-03 0. -1.
         11    1    4    4    0    0  0.26073527253E-01  0.37834687430E-01 -0.21716486508E-01  0.50824790246E-01  0.51100000000E-03 0.  1.
</event>
<event>
 8    1  0.1118868E+005  0.1043930E+01  0.7957747E-01            NaN
         13   -1    0    0    0    0  0.00000000000E+00  0.00000000000E+00  0.74505805969E-08  0.10566000000E+00  0.10566000000E+00 0. -1.
     999900   -1    0    0    0    0 -0.00000000000E+00 -0.00000000000E+00 -0.74505805969E-08  0.93827000000E+00  0.93827000000E+00 0.  1.
     999902    2    1    2    0    0  0.74398679761E-02 -0.21481092639E-01  0.68088414627E-02  0.10201992331E+01  0.10199231961E+01 0.  0.
     999903    2    3    3    0    0  0.12453476975E+00 -0.55487449219E-02 -0.34850896391E-01  0.13132320715E+00  0.22169851380E-01 0.  0.
         14    1    1    2    0    0 -0.74398679761E-02  0.21481092639E-01 -0.68088414627E-02  0.23730766918E-01  0.00000000000E+00 0.  1.
     999901    1    3    3    0    0 -0.11709490177E+00 -0.15932347717E-01  0.41659737854E-01  0.88887602594E+00  0.88000000000E+00 0. -1.
        -11    1    4    4    0    0  0.10225969219E+00  0.31057065597E-02 -0.24068663474E-01  0.10510115005E+00  0.51100000000E-03 0. -1.
         11    1    4    4    0    0  0.22275077557E-01 -0.86544514815E-02 -0.10782232917E-01  0.26222057095E-01  0.51100000000E-03 0.  1.
</event>
<event>
 8    1  0.1118868E+005  0.1043930E+01  0.7957747E-01            NaN
         13   -1    0    0    0    0  0.00000000000E+00  0.00000000000E+00  0.74505805969E-08  0.10566000000E+00  0.10566000000E+00 0.  1.
     999900   -1    0    0    0    0 -0.00000000000E+00 -0.00000000000E+00 -0.74505805969E-08  0.93827000000E+00  0.93827000000E+00 0.  1.
     999902    2    1    2    0    0  0.15583425451E-01 -0.18610628267E-01  0.23687182530E-02  0.10195412842E+01  0.10192495380E+01 0.  0.
     999903    2    3    3    0    0  0.83142935590E-01 -0.46805622805E-01 -0.88743743244E-01  0.13181343975E+00  0.19895146894E-01 0.  0.
         14    1    1    2    0    0 -0.15583425451E-01  0.18610628267E-01 -0.23687182530E-02  0.24388715822E-01  0.00000000000E+00 0.  1.
     999901    1    3    3    0    0 -0.67559510138E-01  0.28194994538E-01  0.91112461497E-01  0.88772784442E+00  0.88000000000E+00 0. -1.
        -11    1    4    4    0    0  0.26450276349E-01 -0.10097796931E-01 -0.15899061097E-01  0.32474973234E-01  0.51100000000E-03 0.  1.
         11    1    4    4    0    0  0.56692659240E-01 -0.36707825874E-01 -0.72844682147E-01  0.99338466519E-01  0.51100000000E-03 0. -1.
</event>
<event>
 8    1  0.1118868E+005  0.1043930E+01  0.7957747E-01            NaN
         13   -1    0    0    0    0  0.00000000000E+00  0.00000000000E+00  0.74505805969E-08  0.10566000000E+00  0.10566000000E+00 0.  1.
     999900   -1    0    0    0    0 -0.00000000000E+00 -0.00000000000E+00 -0.74505805969E-08  0.93827000000E+00  0.93827000000E+00 0.  1.
     999902    2    1    2    0    0  0.22075512613E-01 -0.85016283463E-02  0.25876981241E-02  0.10201328967E+01  0.10198552961E+01 0.  0.
     999903    2    3    3    0    0 -0.23127131159E-02 -0.12724426088E+00  0.22844396513E-01  0.13159199608E+00  0.24456827453E-01 0.  0.
         14    1    1    2    0    0 -0.22075512613E-01  0.85016283463E-02 -0.25876981241E-02  0.23797103253E-01  0.00000000000E+00 0. -1.
     999901    1    3    3    0    0  0.24388225729E-01  0.11874263254E+00 -0.20256698389E-01  0.88854090067E+00  0.88000000000E+00 0. -1.
        -11    1    4    4    0    0  0.10252665137E-01 -0.59039942004E-01  0.15159920414E-01  0.61813560019E-01  0.51100000000E-03 0. -1.
         11    1    4    4    0    0 -0.12565378252E-01 -0.68204318881E-01  0.76844760988E-02  0.69778436057E-01  0.51100000000E-03 0.  1.
</event>
<event>
 8    1  0.1118868E+005  0.1043930E+01  0.7957747E-01            NaN
         13   -1    0    0    0    0  0.00000000000E+00  0.00000000000E+00  0.74505805969E-08  0.10566000000E+00  0.10566000000E+00 0.  1.
     999900   -1    0    0    0    0 -0.00000000000E+00 -0.00000000000E+00 -0.74505805969E-08  0.93827000000E+00  0.93827000000E+00 0. -1.
     999902    2    1    2    0    0  0.15933951047E-01  0.11922411832E-01  0.11295277378E-01  0.10210472993E+01  0.10207908549E+01 0.  0.
     999903    2    3    3    0    0  0.71451477248E-02  0.11677798927E+00  0.60894462424E-01  0.13339195271E+00  0.19928009948E-01 0.  0.
         14    1    1    2    0    0 -0.15933951047E-01 -0.11922411832E-01 -0.11295277378E-01  0.22882700691E-01  0.00000000000E+00 0. -1.
     999901    1    3    3    0    0  0.87888033221E-02 -0.10485557744E+00 -0.49599185046E-01  0.88765534660E+00  0.88000000000E+00 0.  1.
        -11    1    4    4    0    0 -0.65636707539E-02  0.31123659120E-01  0.13676416145E-01  0.34627581642E-01  0.51100000000E-03 0. -1.
         11    1    4    4    0    0  0.13708818479E-01  0.85654330150E-01  0.47218046279E-01  0.98764371071E-01  0.51100000000E-03 0.  1.
</event>
<event>
 8    1  0.1118868E+005  0.1043930E+01  0.7957747E-01            NaN
         13   -1    0    0    0    0  0.00000000000E+00  0.00000000000E+00  0.74505805969E-08  0.10566000000E+00  0.10566000000E+00 0. -1.
     999900   -1    0    0    0    0 -0.00000000000E+00 -0.00000000000E+00 -0.74505805969E-08  0.93827000000E+00  0.93827000000E+00 0.  1.
     999902    2    1    2    0    0 -0.11723545878E-01 -0.46112425642E-02  0.20094515549E-01  0.10202130305E+01  0.10199373182E+01 0.  0.
     999903    2    3    3    0    0 -0.70424348184E-01  0.10198350441E+00 -0.34440869351E-01  0.13016677752E+00  0.19924670640E-01 0.  0.
         14    1    1    2    0    0  0.11723545878E-01  0.46112425642E-02 -0.20094515549E-01  0.23716969475E-01  0.00000000000E+00 0.  1.
     999901    1    3    3    0    0  0.58700802306E-01 -0.10659474698E+00  0.54535384899E-01  0.89004625300E+00  0.88000000000E+00 0.  1.
        -11    1    4    4    0    0 -0.44489692633E-01  0.79495854212E-01 -0.27292059604E-01  0.95100164174E-01  0.51100000000E-03 0.  1.
         11    1    4    4    0    0 -0.25934655551E-01  0.22487650200E-01 -0.71488097460E-02  0.35066613350E-01  0.51100000000E-03 0. -1.
</event>
<event>
 8    1  0.1203338E+005  0.1043930E+01  0.7957747E-01            NaN
         13   -1    0    0    0    0  0.00000000000E+00  0.00000000000E+00  0.74505805969E-08  0.10566000000E+00  0.10566000000E+00 0.  1.
     999900   -1    0    0    0    0 -0.00000000000E+00 -0.00000000000E+00 -0.74505805969E-08  0.93827000000E+00  0.93827000000E+00 0. -1.
     999902    2    1    2    0    0  0.30113996489E-01  0.10154007412E-01 -0.56187061130E-02  0.10116573102E+01  0.10111424166E+01 0.  0.
     999903    2    3    3    0    0 -0.51436367948E-01  0.70314284692E-01  0.82328057946E-01  0.12148634107E+00  0.19779367082E-01 0.  0.
         14    1    1    2    0    0 -0.30113996489E-01 -0.10154007412E-01  0.56187061130E-02  0.32272689839E-01  0.00000000000E+00 0.  1.
     999901    1    3    3    0    0  0.81550364437E-01 -0.60160277279E-01 -0.87946764059E-01  0.89017096909E+00  0.88000000000E+00 0. -1.
        -11    1    4    4    0    0 -0.37388626571E-01  0.36313922748E-01  0.42390420109E-01  0.67184962754E-01  0.51100000000E-03 0. -1.
         11    1    4    4    0    0 -0.14047741377E-01  0.34000361944E-01  0.39937637837E-01  0.54301378316E-01  0.51100000000E-03 0.  1.
</event>
<event>
 8    1  0.1118868E+005  0.1043930E+01  0.7957747E-01            NaN
         13   -1    0    0    0    0  0.00000000000E+00  0.00000000000E+00  0.74505805969E-08  0.10566000000E+00  0.10566000000E+00 0.  1.
     999900   -1    0    0    0    0 -0.00000000000E+00 -0.00000000000E+00 -0.74505805969E-08  0.93827000000E+00  0.93827000000E+00 0.  1.
     999902    2    1    2    0    0  0.20408884377E-01  0.10061806229E-01 -0.66274116743E-02  0.10202301036E+01  0.10199547927E+01 0.  0.
     999903    2    3    3    0    0  0.57376989606E-01 -0.11348850444E+00 -0.22902959784E-01  0.13068178360E+00  0.19530064563E-01 0.  0.
         14    1    1    2    0    0 -0.20408884377E-01 -0.10061806229E-01  0.66274116743E-02  0.23699896448E-01  0.00000000000E+00 0.  1.
     999901    1    3    3    0    0 -0.36968105228E-01  0.12355031067E+00  0.16275548109E-01  0.88954831996E+00  0.88000000000E+00 0. -1.
        -11    1    4    4    0    0  0.48260649316E-01 -0.75648853925E-01 -0.15990152924E-01  0.91147054171E-01  0.51100000000E-03 0. -1.
         11    1    4    4    0    0  0.91163402901E-02 -0.37839650511E-01 -0.69128068602E-02  0.39534729425E-01  0.51100000000E-03 0.  1.
</event>
<event>
 8    1  0.1118868E+005  0.1043930E+01  0.7957747E-01            NaN
         13   -1    0    0    0    0  0.00000000000E+00  0.00000000000E+00  0.74505805969E-08  0.10566000000E+00  0.10566000000E+00 0.  1.
     999900   -1    0    0    0    0 -0.00000000000E+00 -0.00000000000E+00 -0.74505805969E-08  0.93827000000E+00  0.93827000000E+00 0. -1.
     999902    2    1    2    0    0 -0.10814482974E-01  0.18118769473E-01  0.10260248334E-01  0.10204669323E+01  0.10201971596E+01 0.  0.
     999903    2    3    3    0    0  0.18376568212E-01  0.10146645741E+00  0.81932186520E-01  0.13314747390E+00  0.19550610753E-01 0.  0.
         14    1    1    2    0    0  0.10814482974E-01 -0.18118769473E-01 -0.10260248334E-01  0.23463067683E-01  0.00000000000E+00 0. -1.
     999901    1    3    3    0    0 -0.29191051186E-01 -0.83347687937E-01 -0.71671938185E-01  0.88731945841E+00  0.88000000000E+00 0. -1.
        -11    1    4    4    0    0  0.12146219517E-01  0.37707846390E-01  0.21496073175E-01  0.45074988751E-01  0.51100000000E-03 0.  1.
         11    1    4    4    0    0  0.62303486951E-02  0.63758611019E-01  0.60436113345E-01  0.88072485154E-01  0.51100000000E-03 0. -1.
</event>
<event>
 8    1  0.1118868E+005  0.1043930E+01  0.7957747E-01            NaN
         13   -1    0    0    0    0  0.00000000000E+00  0.00000000000E+00  0.74505805969E-08  0.10566000000E+00  0.10566000000E+00 0.  1.
     999900   -1    0    0    0    0 -0.00000000000E+00 -0.00000000000E+00 -0.74505805969E-08  0.93827000000E+00  0.93827000000E+00 0. -1.
     999902    2    1    2    0    0  0.20703567469E-01 -0.12605314036E-01 -0.63955771955E-02  0.10188613930E+01  0.10185529457E+01 0.  0.
     999903    2    3    3    0    0 -0.96598685816E-01  0.52662907157E-02 -0.78392781464E-01  0.12798384235E+00  0.29587088351E-01 0.  0.
         14    1    1    2    0    0 -0.20703567469E-01  0.12605314036E-01  0.63955771955E-02  0.25068606973E-01  0.00000000000E+00 0. -1.
     999901    1    3    3    0    0  0.11730225329E+00 -0.17871604751E-01  0.71997204269E-01  0.89087755068E+00  0.88000000000E+00 0.  1.
        -11    1    4    4    0    0 -0.37570477672E-01  0.16456881426E-01 -0.34045885588E-01  0.53308096807E-01  0.51100000000E-03 0. -1.
         11    1    4    4    0    0 -0.59028208144E-01 -0.11190590710E-01 -0.44346895877E-01  0.74675745540E-01  0.51100000000E-03 0.  1.
</event>
<event>
 8    1  0.1118868E+005  0.1043930E+01  0.7957747E-01            NaN
         13   -1    0    0    0    0  0.00000000000E+00  0.00000000000E+00  0.74505805969E-08  0.10566000000E+00  0.10566000000E+00 0.  1.
     999900   -1    0    0    0    0 -0.00000000000E+00 -0.00000000000E+00 -0.74505805969E-08  0.93827000000E+00  0.93827000000E+00 0. -1.
     999902    2    1    2    0    0 -0.63881185755E-02  0.10032759960E-01  0.20211206998E-01  0.10204788333E+01  0.10202093373E+01 0.  0.
     999903    2    3    3    0    0  0.12306171045E+00 -0.30613781208E-01  0.20674854484E-01  0.13008026271E+00  0.20298693556E-01 0.  0.
         14    1    1    2    0    0  0.63881185755E-02 -0.10032759960E-01 -0.20211206998E-01  0.23451166702E-01  0.00000000000E+00 0. -1.
     999901    1    3    3    0    0 -0.12944982902E+00  0.40646541169E-01 -0.46364748583E-03  0.89039857059E+00  0.88000000000E+00 0.  1.
        -11    1    4    4    0    0  0.93827117770E-01 -0.14506238958E-01  0.13022902706E-01  0.95832228993E-01  0.51100000000E-03 0. -1.
         11    1    4    4    0    0  0.29234592676E-01 -0.16107542250E-01  0.76519517778E-02  0.34248033714E-01  0.51100000000E-03 0.  1.
</event>
<event>
 8    1  0.1118868E+005  0.1043930E+01  0.7957747E-01            NaN
         13   -1    0    0    0    0  0.00000000000E+00  0.00000000000E+00  0.74505805969E-08  0.10566000000E+00  0.10566000000E+00 0.  1.
     999900   -1    0    0    0    0 -0.00000000000E+00 -0.00000000000E+00 -0.74505805969E-08  0.93827000000E+00  0.93827000000E+00 0. -1.
     999902    2    1    2    0    0 -0.41126849288E-02 -0.54593678338E-02  0.21682602489E-01  0.10211955740E+01  0.10209424794E+01 0.  0.
     999903    2    3    3    0    0 -0.77378062505E-01 -0.99393489546E-01 -0.32452947853E-01  0.13152030034E+00  0.19441328532E-01 0.  0.
         14    1    1    2    0    0  0.41126849288E-02  0.54593678338E-02 -0.21682602489E-01  0.22734425991E-01  0.00000000000E+00 0. -1.
     999901    1    3    3    0    0  0.73265377577E-01  0.93934121712E-01  0.54135550342E-01  0.88967527367E+00  0.88000000000E+00 0.  1.
        -11    1    4    4    0    0 -0.62644750793E-01 -0.76750951948E-01 -0.33211475342E-01  0.10449084478E+00  0.51100000000E-03 0. -1.
         11    1    4    4    0    0 -0.14733311712E-01 -0.22642537598E-01  0.75852748943E-03  0.27029455559E-01  0.51100000000E-03 0.  1.
</event>
<event>
 8    1  0.1118868E+005  0.1043930E+01  0.7957747E-01            NaN
         13   -1    0    0    0    0  0.00000000000E+00  0.00000000000E+00  0.74505805969E-08  0.10566000000E+00  0.10566000000E+00 0. -1.
     999900   -1    0    0    0    0 -0.00000000000E+00 -0.00000000000E+00 -0.74505805969E-08  0.93827000000E+00  0.93827000000E+00 0. -1.
     999902    2    1    2    0    0  0.21956359255E-01  0.99106598783E-03  0.91339058029E-02  0.10201289043E+01  0.10198512093E+01 0.  0.
     999903    2    3    3    0    0 -0.68730176493E-01  0.10734585320E+00  0.19577726290E-02  0.12906948681E+00  0.20202232340E-01 0.  0.
         14    1    1    2    0    0 -0.21956359255E-01 -0.99106598783E-03 -0.91339058029E-02  0.23801095747E-01  0.00000000000E+00 0.  1.
     999901    1    3    3    0    0  0.90686535748E-01 -0.10635478721E+00  0.71761331738E-02  0.89105941744E+00  0.88000000000E+00 0.  1.
        -11    1    4    4    0    0 -0.45733745111E-01  0.57935287298E-01 -0.56965420880E-02  0.74032321786E-01  0.51100000000E-03 0.  1.
         11    1    4    4    0    0 -0.22996431382E-01  0.49410565902E-01  0.76543147170E-02  0.55037165024E-01  0.51100000000E-03 0. -1.
</event>
<event>
 8    1  0.1118868E+005  0.1043930E+01  0.7957747E-01            NaN
         13   -1    0    0    0    0  0.00000000000E+00  0.00000000000E+00  0.74505805969E-08  0.10566000000E+00  0.10566000000E+00 0.  1.
     999900   -1    0    0    0    0 -0.00000000000E+00 -0.00000000000E+00 -0.74505805969E-08  0.93827000000E+00  0.93827000000E+00 0. -1.
     999902    2    1    2    0    0 -0.14744328981E-01  0.49370572059E-02  0.16094273410E-01  0.10215515414E+01  0.10213063969E+01 0.  0.
     999903    2    3    3    0    0  0.46253560471E-01  0.95701995543E-01  0.76963119888E-01  0.13269607905E+00  0.19663767820E-01 0.  0.
         14    1    1    2    0    0  0.14744328981E-01 -0.49370572059E-02 -0.16094273410E-01  0.22378458561E-01  0.00000000000E+00 0. -1.
     999901    1    3    3    0    0 -0.60997889453E-01 -0.90764938337E-01 -0.60868846478E-01  0.88885546239E+00  0.88000000000E+00 0.  1.
        -11    1    4    4    0    0  0.26730859505E-01  0.70846145923E-01  0.46887753631E-01  0.89064234144E-01  0.51100000000E-03 0.  1.
         11    1    4    4    0    0  0.19522700966E-01  0.24855849620E-01  0.30075366257E-01  0.43631844906E-01  0.51100000000E-03 0. -1.
</event>
<event>
 8    1  0.1118868E+005  0.1043930E+01  0.7957747E-01            NaN
         13   -1    0    0    0    0  0.00000000000E+00  0.00000000000E+00  0.74505805969E-08  0.10566000000E+00  0.10566000000E+00 0. -1.
     999900   -1    0    0    0    0 -0.00000000000E+00 -0.00000000000E+00 -0.74505805969E-08  0.93827000000E+00  0.93827000000E+00 0.  1.
     999902    2    1    2    0    0 -0.19456032879E-01 -0.18437428647E-01 -0.31495706400E-02  0.10169411915E+01  0.10165829977E+01 0.  0.
     999903    2    3    3    0    0 -0.25103269655E-01  0.86607606763E-01  0.85731330899E-01  0.12623014663E+00  0.21287017726E-01 0.  0.
         14    1    1    2    0    0  0.19456032879E-01  0.18437428647E-01  0.31495706400E-02  0.26988808527E-01  0.00000000000E+00 0. -1.
     999901    1    3    3    0    0  0.56472367761E-02 -0.10504503541E+00 -0.88880901539E-01  0.89071104484E+00  0.88000000000E+00 0.  1.
        -11    1    4    4    0    0 -0.20604045556E-02  0.42040597951E-01  0.33435385036E-01  0.53757262175E-01  0.51100000000E-03 0. -1.
         11    1    4    4    0    0 -0.23042865099E-01  0.44567008812E-01  0.52295945863E-01  0.72472884454E-01  0.51100000000E-03 0.  1.
</event>
<event>
 8    1  0.1118868E+005  0.1043930E+01  0.7957747E-01            NaN
         13   -1    0    0    0    0  0.00000000000E+00  0.00000000000E+00  0.74505805969E-08  0.10566000000E+00  0.10566000000E+00 0.  1.
     999900   -1    0    0    0    0 -0.00000000000E+00 -0.00000000000E+00 -0.74505805969E-08  0.93827000000E+00  0.93827000000E+00 0.  1.
     999902    2    1    2    0    0 -0.20844235624E-01 -0.98300229644E-02  0.18856786399E-02  0.10208071262E+01  0.10205452080E+01 0.  0.
     999903    2    3    3    0    0 -0.11092147549E+00 -0.70497644627E-01 -0.16377588057E-01  0.13394297853E+00  0.19975096591E-01 0.  0.
         14    1    1    2    0    0  0.20844235624E-01  0.98300229644E-02 -0.18856786399E-02  0.23122873830E-01  0.00000000000E+00 0. -1.
     999901    1    3    3    0    0  0.90077239867E-01  0.60667621662E-01  0.18263266697E-01  0.88686414764E+00  0.88000000000E+00 0.  1.
        -11    1    4    4    0    0 -0.65182976367E-01 -0.33883543174E-01 -0.14463143360E-02  0.73479710480E-01  0.51100000000E-03 0. -1.
         11    1    4    4    0    0 -0.45738499124E-01 -0.36614101452E-01 -0.14931273721E-01  0.60463268049E-01  0.51100000000E-03 0.  1.
</event>
<event>
 8    1  0.1118868E+005  0.1043930E+01  0.7957747E-01            NaN
         13   -1    0    0    0    0  0.00000000000E+00  0.00000000000E+00  0.74505805969E-08  0.10566000000E+00  0.10566000000E+00 0.  1.
     999900   -1    0    0    0    0 -0.00000000000E+00 -0.00000000000E+00 -0.74505805969E-08  0.93827000000E+00  0.93827000000E+00 0. -1.
     999902    2    1    2    0    0  0.71192127443E-02  0.17791152678E-01 -0.13777586990E-01  0.10203285126E+01  0.10200555100E+01 0.  0.
     999903    2    3    3    0    0  0.10192734620E+00 -0.55944146751E-01  0.53656767532E-01  0.12961370487E+00  0.20043261446E-01 0.  0.
         14    1    1    2    0    0 -0.71192127443E-02 -0.17791152678E-01  0.13777586990E-01  0.23601487389E-01  0.00000000000E+00 0.  1.
     999901    1    3    3    0    0 -0.94808133460E-01  0.73735299428E-01 -0.67434354522E-01  0.89071480774E+00  0.88000000000E+00 0.  1.
        -11    1    4    4    0    0  0.60166641899E-01 -0.30904981775E-01  0.20418171770E-01  0.70656249231E-01  0.51100000000E-03 0.  1.
         11    1    4    4    0    0  0.41760704305E-01 -0.25039164976E-01  0.33238595762E-01  0.58957455643E-01  0.51100000000E-03 0. -1.
</event>
<event>
 8    1  0.1142210E+005  0.1043930E+01  0.7957747E-01            NaN
         13   -1    0    0    0    0  0.00000000000E+00  0.00000000000E+00  0.74505805969E-08  0.10566000000E+00  0.10566000000E+00 0.  1.
     999900   -1    0    0    0    0 -0.00000000000E+00 -0.00000000000E+00 -0.74505805969E-08  0.93827000000E+00  0.93827000000E+00 0.  1.
     999902    2    1    2    0    0  0.23435549790E-01  0.34653978419E-02  0.49226477811E-02  0.10197335863E+01  0.10194464775E+01 0.  0.
     999903    2    3    3    0    0  0.11835159756E+00  0.24562031940E-02  0.57559979337E-01  0.13306523606E+00  0.19495441665E-01 0.  0.
         14    1    1    2    0    0 -0.23435549790E-01 -0.34653978419E-02 -0.49226477811E-02  0.24196413729E-01  0.00000000000E+00 0. -1.
     999901    1    3    3    0    0 -0.94916047773E-01  0.10091946479E-02 -0.52637331556E-01  0.88666835021E+00  0.88000000000E+00 0.  1.
        -11    1    4    4    0    0  0.52444018511E-01  0.10761182496E-01  0.25323783931E-01  0.59226119912E-01  0.51100000000E-03 0.  1.
         11    1    4    4    0    0  0.65907579052E-01 -0.83049793023E-02  0.32236195407E-01  0.73839116145E-01  0.51100000000E-03 0. -1.
</event>
<event>
 8    1  0.1118868E+005  0.1043930E+01  0.7957747E-01            NaN
         13   -1    0    0    0    0  0.00000000000E+00  0.00000000000E+00  0.74505805969E-08  0.10566000000E+00  0.10566000000E+00 0. -1.
     999900   -1    0    0    0    0 -0.00000000000E+00 -0.00000000000E+00 -0.74505805969E-08  0.93827000000E+00  0.93827000000E+00 0.  1.
     999902    2    1    2    0    0  0.18822701383E-01 -0.13959154355E-01 -0.37730705981E-02  0.10201942013E+01  0.10199180458E+01 0.  0.
     999903    2    3    3    0    0 -0.71477064321E-01 -0.33931638829E-01 -0.10122094782E+00  0.12999813493E+00  0.19837035323E-01 0.  0.
         14    1    1    2    0    0 -0.18822701383E-01  0.13959154355E-01  0.37730705981E-02  0.23735798689E-01  0.00000000000E+00 0.  1.
     999901    1    3    3    0    0  0.90299765705E-01  0.19972484475E-01  0.97447877222E-01  0.89019606638E+00  0.88000000000E+00 0.  1.
        -11    1    4    4    0    0 -0.53028556781E-01 -0.18037148245E-01 -0.59726479699E-01  0.81883331939E-01  0.51100000000E-03 0. -1.
         11    1    4    4    0    0 -0.18448507540E-01 -0.15894490585E-01 -0.41494468121E-01  0.48114802993E-01  0.51100000000E-03 0.  1.
</event>
<event>
 8    1  0.1118868E+005  0.1043930E+01  0.7957747E-01            NaN
         13   -1    0    0    0    0  0.00000000000E+00  0.00000000000E+00  0.74505805969E-08  0.10566000000E+00  0.10566000000E+00 0. -1.
     999900   -1    0    0    0    0 -0.00000000000E+00 -0.00000000000E+00 -0.74505805969E-08  0.93827000000E+00  0.93827000000E+00 0. -1.
     999902    2    1    2    0    0 -0.53794232660E-02  0.66382892020E-02 -0.21962234175E-01  0.10203642450E+01  0.10200920780E+01 0.  0.
     999903    2    3    3    0    0 -0.78181644939E-01  0.42009590140E-01 -0.97683072189E-01  0.13341163200E+00  0.19480905852E-01 0.  0.
         14    1    1    2    0    0  0.53794232660E-02 -0.66382892020E-02  0.21962234175E-01  0.23565754988E-01  0.00000000000E+00 0. -1.
     999901    1    3    3    0    0  0.72802221673E-01 -0.35371300938E-01  0.75720838014E-01  0.88695261301E+00  0.88000000000E+00 0.  1.
        -11    1    4    4    0    0 -0.33411186370E-01  0.28131613398E-01 -0.41617150083E-01  0.60331943024E-01  0.51100000000E-03 0.  1.
         11    1    4    4    0    0 -0.44770458569E-01  0.13877976742E-01 -0.56065922106E-01  0.73079688981E-01  0.51100000000E-03 0. -1.
</event>
<event>
 8    1  0.1118868E+005  0.1043930E+01  0.7957747E-01            NaN
         13   -1    0    0    0    0  0.00000000000E+00  0.00000000000E+00  0.74505805969E-08  0.10566000000E+00  0.10566000000E+00 0.  1.
     999900   -1    0    0    0    0 -0.00000000000E+00 -0.00000000000E+00 -0.74505805969E-08  0.93827000000E+00  0.93827000000E+00 0.  1.
     999902    2    1    2    0    0 -0.58013741671E-02  0.10176427252E-01 -0.24105549854E-01  0.10171290085E+01  0.10167758488E+01 0.  0.
     999903    2    3    3    0    0  0.40010247759E-01 -0.10302158124E+00  0.54492922266E-01  0.12522642765E+00  0.22313974958E-01 0.  0.
         14    1    1    2    0    0  0.58013741671E-02 -0.10176427252E-01  0.24105549854E-01  0.26800991541E-01  0.00000000000E+00 0.  1.
     999901    1    3    3    0    0 -0.45811621926E-01  0.11319800849E+00 -0.78598472120E-01  0.89190258081E+00  0.88000000000E+00 0. -1.
        -11    1    4    4    0    0  0.26903213986E-01 -0.40360434285E-01  0.27387798803E-01  0.55705477493E-01  0.51100000000E-03 0.  1.
         11    1    4    4    0    0  0.13107033773E-01 -0.62661146955E-01  0.27105123464E-01  0.69520950160E-01  0.51100000000E-03 0. -1.
</event>
<event>
 8    1  0.1118868E+005  0.1043930E+01  0.7957747E-01            NaN
         13   -1    0    0    0    0  0.00000000000E+00  0.00000000000E+00  0.74505805969E-08  0.10566000000E+00  0.10566000000E+00 0.  1.
     999900   -1    0    0    0    0 -0.00000000000E+00 -0.00000000000E+00 -0.74505805969E-08  0.93827000000E+00  0.93827000000E+00 0.  1.
     999902    2    1    2    0    0  0.23820401620E-01  0.87281566028E-02 -0.82025013613E-02  0.10172677930E+01  0.10169183298E+01 0.  0.
     999903    2    3    3    0    0  0.22797372038E-01  0.38666822693E-01  0.11744674628E+00  0.12783814223E+00  0.23108635780E-01 0.  0.
         14    1    1    2    0    0 -0.23820401620E-01 -0.87281566028E-02  0.82025013613E-02  0.26662206953E-01  0.00000000000E+00 0.  1.
     999901    1    3    3    0    0  0.10230295826E-02 -0.29938666090E-01 -0.12564924764E+00  0.88942965082E+00  0.88000000000E+00 0.  1.
        -11    1    4    4    0    0  0.10933875508E-01  0.36751540314E-01  0.92888493655E-01  0.10049258044E+00  0.51100000000E-03 0. -1.
         11    1    4    4    0    0  0.11863496530E-01  0.19152823787E-02  0.24558252628E-01  0.27345561791E-01  0.51100000000E-03 0.  1.
</event>
<event>
 7    1  0.1118868E+005  0.1043930E+01  0.7957747E-01            NaN
         13   -1    0    0    0    0  0.00000000000E+00  0.00000000000E+00  0.74505805969E-08  0.10566000000E+00  0.10566000000E+00 0.  1.
     999900   -1    0    0    0    0 -0.00000000000E+00 -0.00000000000E+00 -0.74505805969E-08  0.93827000000E+00  0.93827000000E+00 0.  1.
     999903    2    1    2    0    0  0.12734700378E-01  0.10949541077E+00  0.33184902567E-02  0.11208383286E+00  0.20008888986E-01 0.  0.
         14    1    1    2    0    0  0.18058823309E-02  0.57147071961E-03 -0.43901539679E-01  0.43942382457E-01  0.00000000000E+00 0. -1.
     999901    1    1    2    0    0 -0.14540582709E-01 -0.11006688149E+00  0.40583049423E-01  0.88790378468E+00  0.88000000000E+00 0.  1.
        -11    1    3    3    0    0  0.57623178245E-02  0.80798310508E-01 -0.56885304562E-02  0.81204629101E-01  0.51100000000E-03 0. -1.
         11    1    3    3    0    0  0.69723825533E-02  0.28697100263E-01  0.90070207129E-02  0.30879203764E-01  0.51100000000E-03 0.  1.
</event>
<event>
 8    1  0.1118868E+005  0.1043930E+01  0.7957747E-01            NaN
         13   -1    0    0    0    0  0.00000000000E+00  0.00000000000E+00  0.74505805969E-08  0.10566000000E+00  0.10566000000E+00 0.  1.
     999900   -1    0    0    0    0 -0.00000000000E+00 -0.00000000000E+00 -0.74505805969E-08  0.93827000000E+00  0.93827000000E+00 0.  1.
     999902    2    1    2    0    0 -0.15595710709E-01 -0.18257902745E-01 -0.51649372309E-02  0.10193687748E+01  0.10190728361E+01 0.  0.
     999903    2    3    3    0    0 -0.37793660124E-01 -0.38964283889E-01  0.11672691910E+00  0.13044857154E+00  0.21096919473E-01 0.  0.
         14    1    1    2    0    0  0.15595710709E-01  0.18257902745E-01  0.51649372309E-02  0.24561225168E-01  0.00000000000E+00 0.  1.
     999901    1    3    3    0    0  0.22197949416E-01  0.20706381144E-01 -0.12189185633E+00  0.88892020329E+00  0.88000000000E+00 0.  1.
        -11    1    4    4    0    0 -0.13069758804E-01 -0.18376969663E-01  0.71279831532E-01  0.74763675093E-01  0.51100000000E-03 0. -1.
         11    1    4    4    0    0 -0.24723901320E-01 -0.20587314226E-01  0.45447087563E-01  0.55684896449E-01  0.51100000000E-03 0.  1.
</event>
<event>
 8    1  0.1118868E+005  0.1043930E+01  0.7957747E-01            NaN
         13   -1    0    0    0    0  0.00000000000E+00  0.00000000000E+00  0.74505805969E-08  0.10566000000E+00  0.10566000000E+00 0.  1.
     999900   -1    0    0    0    0 -0.00000000000E+00 -0.00000000000E+00 -0.74505805969E-08  0.93827000000E+00  0.93827000000E+00 0.  1.
     999902    2    1    2    0    0  0.68624096903E-02 -0.21747286816E-01 -0.68522910258E-02  0.10201184263E+01  0.10198404839E+01 0.  0.
     999903    2    3    3    0    0  0.18720486401E-01 -0.13042724819E+00 -0.36314483504E-02  0.13334769954E+00  0.20166751654E-01 0.  0.
         14    1    1    2    0    0 -0.68624096903E-02  0.21747286816E-01  0.68522910258E-02  0.23811573718E-01  0.00000000000E+00 0.  1.
     999901    1    3    3    0    0 -0.11858076711E-01  0.10867996138E+00 -0.32208426754E-02  0.88677072675E+00  0.88000000000E+00 0. -1.
        -11    1    4    4    0    0  0.13434475635E-01 -0.11516140093E+00 -0.90607490958E-02  0.11629699779E+00  0.51100000000E-03 0. -1.
         11    1    4    4    0    0  0.52860107661E-02 -0.15265847265E-01  0.54293007453E-02  0.17050701748E-01  0.51100000000E-03 0.  1.
</event>
<event>
 8    1  0.1118868E+005  0.1043930E+01  0.7957747E-01            NaN
         13   -1    0    0    0    0  0.00000000000E+00  0.00000000000E+00  0.74505805969E-08  0.10566000000E+00  0.10566000000E+00 0. -1.
     999900   -1    0    0    0    0 -0.00000000000E+00 -0.00000000000E+00 -0.74505805969E-08  0.93827000000E+00  0.93827000000E+00 0. -1.
     999902    2    1    2    0    0 -0.46044436014E-02  0.21688464638E-01 -0.78042558366E-02  0.10204247493E+01  0.10201539944E+01 0.  0.
     999903    2    3    3    0    0  0.11155097570E+00  0.28200196428E-01  0.58076032401E-01  0.13032661068E+00  0.19321714546E-01 0.  0.
         14    1    1    2    0    0  0.46044436014E-02 -0.21688464638E-01  0.78042558366E-02  0.23505250655E-01  0.00000000000E+00 0. -1.
     999901    1    3    3    0    0 -0.11615541930E+00 -0.65117317903E-02 -0.65880288238E-01  0.89009813867E+00  0.88000000000E+00 0. -1.
        -11    1    4    4    0    0  0.84551196866E-01  0.13644361892E-01  0.38248284046E-01  0.93799071725E-01  0.51100000000E-03 0. -1.
         11    1    4    4    0    0  0.26999778832E-01  0.14555834535E-01  0.19827748354E-01  0.36527538951E-01  0.51100000000E-03 0.  1.
</event>
<event>
 8    1  0.1118868E+005  0.1043930E+01  0.7957747E-01            NaN
         13   -1    0    0    0    0  0.00000000000E+00  0.00000000000E+00  0.74505805969E-08  0.10566000000E+00  0.10566000000E+00 0. -1.
     999900   -1    0    0    0    0 -0.00000000000E+00 -0.00000000000E+00 -0.74505805969E-08  0.93827000000E+00  0.93827000000E+00 0. -1.
     999902    2    1    2    0    0  0.13017330471E-01  0.18397612482E-01  0.85414187495E-02  0.10198285712E+01  0.10195437390E+01 0.  0.
     999903    2    3    3    0    0  0.56261864422E-01  0.59837702649E-01 -0.10053142766E+00  0.13107424256E+00  0.18109143250E-01 0.  0.
         14    1    1    2    0    0 -0.13017330471E-01 -0.18397612482E-01 -0.85414187495E-02  0.24101428835E-01  0.00000000000E+00 0.  1.
     999901    1    3    3    0    0 -0.43244533951E-01 -0.41440090167E-01  0.10907284641E+00  0.88875432860E+00  0.88000000000E+00 0.  1.
        -11    1    4    4    0    0  0.10073133994E-01  0.18243697944E-01 -0.35107140061E-01  0.40829804646E-01  0.51100000000E-03 0.  1.
         11    1    4    4    0    0  0.46188730428E-01  0.41594004705E-01 -0.65424287597E-01  0.90244437915E-01  0.51100000000E-03 0. -1.
</event>
<event>
 8    1  0.1118868E+005  0.1043930E+01  0.7957747E-01            NaN
         13   -1    0    0    0    0  0.00000000000E+00  0.00000000000E+00  0.74505805969E-08  0.10566000000E+00  0.10566000000E+00 0.  1.
     999900   -1    0    0    0    0 -0.00000000000E+00 -0.00000000000E+00 -0.74505805969E-08  0.93827000000E+00  0.93827000000E+00 0.  1.
     999902    2    1    2    0    0  0.98908429886E-03 -0.24242966676E-01 -0.76901495521E-04  0.10196667431E+01  0.10193780267E+01 0.  0.
     999903    2    3    3    0    0  0.77294930707E-01  0.20161995808E-01  0.99966340830E-01  0.12960886116E+00  0.20595514173E-01 0.  0.
         14    1    1    2    0    0 -0.98908429886E-03  0.24242966676E-01  0.76901495521E-04  0.24263256889E-01  0.00000000000E+00 0. -1.
     999901    1    3    3    0    0 -0.76305846408E-01 -0.44404962484E-01 -0.10004324233E+00  0.89005788195E+00  0.88000000000E+00 0.  1.
        -11    1    4    4    0    0  0.35081900714E-01  0.15473635829E-01  0.34568192582E-01  0.51627456095E-01  0.51100000000E-03 0.  1.
         11    1    4    4    0    0  0.42213029994E-01  0.46883599788E-02  0.65398148248E-01  0.77981405065E-01  0.51100000000E-03 0. -1.
</event>
<event>
 8    1  0.1118868E+005  0.1043930E+01  0.7957747E-01            NaN
         13   -1    0    0    0    0  0.00000000000E+00  0.00000000000E+00  0.74505805969E-08  0.10566000000E+00  0.10566000000E+00 0.  1.
     999900   -1    0    0    0    0 -0.00000000000E+00 -0.00000000000E+00 -0.74505805969E-08  0.93827000000E+00  0.93827000000E+00 0. -1.
     999902    2    1    2    0    0 -0.21919140986E-01  0.33283696082E-03 -0.10081157641E-01  0.10198014016E+01  0.10195159192E+01 0.  0.
     999903    2    3    3    0    0 -0.28966698552E-01  0.81603733235E-02 -0.12692028477E+00  0.13201633750E+00  0.20344369297E-01 0.  0.
         14    1    1    2    0    0  0.21919140986E-01 -0.33283696082E-03  0.10081157641E-01  0.24128598413E-01  0.00000000000E+00 0.  1.
     999901    1    3    3    0    0  0.70475575659E-02 -0.78275363626E-02  0.11683912713E+00  0.88778506409E+00  0.88000000000E+00 0.  1.
        -11    1    4    4    0    0 -0.25202668714E-01  0.50112375968E-03 -0.11215906415E+00  0.11495800289E+00  0.51100000000E-03 0. -1.
         11    1    4    4    0    0 -0.37640298381E-02  0.76592495638E-02 -0.14761220616E-01  0.17058334607E-01  0.51100000000E-03 0.  1.
</event>
<event>
 8    1  0.1118868E+005  0.1043930E+01  0.7957747E-01            NaN
         13   -1    0    0    0    0  0.00000000000E+00  0.00000000000E+00  0.74505805969E-08  0.10566000000E+00  0.10566000000E+00 0.  1.
     999900   -1    0    0    0    0 -0.00000000000E+00 -0.00000000000E+00 -0.74505805969E-08  0.93827000000E+00  0.93827000000E+00 0.  1.
     999902    2    1    2    0    0  0.71059697022E-02  0.21468491371E-01  0.49503672269E-02  0.10207805494E+01  0.10205180219E+01 0.  0.
     999903    2    3    3    0    0  0.12945184807E+00  0.20786475411E-01 -0.56491151833E-02  0.13225293131E+00  0.16403256044E-01 0.  0.
         14    1    1    2    0    0 -0.71059697022E-02 -0.21468491371E-01 -0.49503672269E-02  0.23149450595E-01  0.00000000000E+00 0.  1.
     999901    1    3    3    0    0 -0.12234587836E+00  0.68201596013E-03  0.10599482410E-01  0.88852761810E+00  0.88000000000E+00 0. -1.
        -11    1    4    4    0    0  0.52888948602E-01  0.37986741730E-03 -0.19023980433E-02  0.52926981992E-01  0.51100000000E-03 0.  1.
         11    1    4    4    0    0  0.76562899464E-01  0.20406607994E-01 -0.37467171400E-02  0.79325949313E-01  0.51100000000E-03 0. -1.
</event>
<event>
 8    1  0.1118868E+005  0.1043930E+01  0.7957747E-01            NaN
         13   -1    0    0    0    0  0.00000000000E+00  0.00000000000E+00  0.74505805969E-08  0.10566000000E+00  0.10566000000E+00 0.  1.
     999900   -1    0    0    0    0 -0.00000000000E+00 -0.00000000000E+00 -0.74505805969E-08  0.93827000000E+00  0.93827000000E+00 0. -1.
     999902    2    1    2    0    0 -0.70831969572E-02  0.13471192872E-01 -0.18658120397E-01  0.10198515828E+01  0.10195673008E+01 0.  0.
     999903    2    3    3    0    0  0.73429563417E-01 -0.22143365062E-01  0.97461767060E-01  0.12786810228E+00  0.31132396979E-01 0.  0.
         14    1    1    2    0    0  0.70831969572E-02 -0.13471192872E-01  0.18658120397E-01  0.24078417167E-01  0.00000000000E+00 0.  1.
     999901    1    3    3    0    0 -0.80512760374E-01  0.35614557934E-01 -0.11611988746E+00  0.89198348056E+00  0.88000000000E+00 0. -1.
        -11    1    4    4    0    0  0.16172477737E-01  0.79847134027E-02  0.19893443766E-01  0.26857306457E-01  0.51100000000E-03 0.  1.
         11    1    4    4    0    0  0.57257085680E-01 -0.30128078465E-01  0.77568323294E-01  0.10101079582E+00  0.51100000000E-03 0. -1.
</event>
<event>
 8    1  0.1118868E+005  0.1043930E+01  0.7957747E-01            NaN
         13   -1    0    0    0    0  0.00000000000E+00  0.00000000000E+00  0.74505805969E-08  0.10566000000E+00  0.10566000000E+00 0.  1.
     999900   -1    0    0    0    0 -0.00000000000E+00 -0.00000000000E+00 -0.74505805969E-08  0.93827000000E+00  0.93827000000E+00 0.  1.
     999902    2    1    2    0    0  0.20877923845E-01  0.79917815720E-02  0.70695480149E-02  0.10204835763E+01  0.10202141906E+01 0.  0.
     999903    2    3    3    0    0 -0.96185977235E-01  0.22523221238E-01 -0.79538357862E-01  0.12839835106E+00  0.20018703037E-01 0.  0.
         14    1    1    2    0    0 -0.20877923845E-01 -0.79917815720E-02 -0.70695480149E-02  0.23446423734E-01  0.00000000000E+00 0.  1.
     999901    1    3    3    0    0  0.11706390108E+00 -0.14531439666E-01  0.86607905877E-01  0.89208522521E+00  0.88000000000E+00 0. -1.
        -11    1    4    4    0    0 -0.74983394451E-01  0.14198961943E-01 -0.50604357193E-01  0.91570639681E-01  0.51100000000E-03 0.  1.
         11    1    4    4    0    0 -0.21202582784E-01  0.83242592949E-02 -0.28934000669E-01  0.36827711376E-01  0.51100000000E-03 0. -1.
</event>
<event>
 8    1  0.1118868E+005  0.1043930E+01  0.7957747E-01            NaN
         13   -1    0    0    0    0  0.00000000000E+00  0.00000000000E+00  0.74505805969E-08  0.10566000000E+00  0.10566000000E+00 0.  1.
     999900   -1    0    0    0    0 -0.00000000000E+00 -0.00000000000E+00 -0.74505805969E-08  0.93827000000E+00  0.93827000000E+00 0. -1.
     999902    2    1    2    0    0 -0.22681544630E-01  0.59198845353E-02 -0.64056149202E-03  0.10204798866E+01  0.10202104151E+01 0.  0.
     999903    2    3    3    0    0 -0.58712450212E-01 -0.53299335208E-01 -0.10323522866E+00  0.13181189017E+00  0.20709683924E-01 0.  0.
         14    1    1    2    0    0  0.22681544630E-01 -0.59198845353E-02  0.64056149202E-03  0.23450113406E-01  0.00000000000E+00 0. -1.
     999901    1    3    3    0    0  0.36030905582E-01  0.59219219743E-01  0.10259466717E+00  0.88866799643E+00  0.88000000000E+00 0.  1.
        -11    1    4    4    0    0 -0.26018965180E-01 -0.35601828698E-01 -0.47512293099E-01  0.64824037766E-01  0.51100000000E-03 0. -1.
         11    1    4    4    0    0 -0.32693485033E-01 -0.17697506510E-01 -0.55722935565E-01  0.66987852400E-01  0.51100000000E-03 0.  1.
</event>
<event>
 8    1  0.1118868E+005  0.1043930E+01  0.7957747E-01            NaN
         13   -1    0    0    0    0  0.00000000000E+00  0.00000000000E+00  0.74505805969E-08  0.10566000000E+00  0.10566000000E+00 0. -1.
     999900   -1    0    0    0    0 -0.00000000000E+00 -0.00000000000E+00 -0.74505805969E-08  0.93827000000E+00  0.93827000000E+00 0.  1.
     999902    2    1    2    0    0 -0.13983219933E-01  0.17079667146E-01 -0.78472983785E-02  0.10205029737E+01  0.10202340387E+01 0.  0.
     999903    2    3    3    0    0 -0.59544475567E-01  0.11425446730E+00 -0.29030644763E-01  0.13372932504E+00  0.21003003872E-01 0.  0.
         14    1    1    2    0    0  0.13983219933E-01 -0.17079667146E-01  0.78472983785E-02  0.23427026302E-01  0.00000000000E+00 0. -1.
     999901    1    3    3    0    0  0.45561255634E-01 -0.97174800149E-01  0.21183346384E-01  0.88677364866E+00  0.88000000000E+00 0.  1.
        -11    1    4    4    0    0 -0.43353463405E-01  0.81891003607E-01 -0.11047506879E-01  0.93316492595E-01  0.51100000000E-03 0. -1.
         11    1    4    4    0    0 -0.16191012162E-01  0.32363463688E-01 -0.17983137884E-01  0.40412832440E-01  0.51100000000E-03 0.  1.
</event>
<event>
 8    1  0.1118868E+005  0.1043930E+01  0.7957747E-01            NaN
         13   -1    0    0    0    0  0.00000000000E+00  0.00000000000E+00  0.74505805969E-08  0.10566000000E+00  0.10566000000E+00 0. -1.
     999900   -1    0    0    0    0 -0.00000000000E+00 -0.00000000000E+00 -0.74505805969E-08  0.93827000000E+00  0.93827000000E+00 0. -1.
     999902    2    1    2    0    0  0.72973338682E-02  0.65671921831E-02 -0.20883885200E-01  0.10208536971E+01  0.10205928449E+01 0.  0.
     999903    2    3    3    0    0  0.17202586820E-01  0.81589365091E-01  0.97478388120E-01  0.12971057267E+00  0.19236502343E-01 0.  0.
         14    1    1    2    0    0 -0.72973338682E-02 -0.65671921831E-02  0.20883885200E-01  0.23076302906E-01  0.00000000000E+00 0.  1.
     999901    1    3    3    0    0 -0.99052529518E-02 -0.75022172908E-01 -0.11836227332E+00  0.89114312442E+00  0.88000000000E+00 0. -1.
        -11    1    4    4    0    0  0.16954325876E-02  0.37979033262E-01  0.33041930704E-01  0.50371735774E-01  0.51100000000E-03 0. -1.
         11    1    4    4    0    0  0.15507154232E-01  0.43610331829E-01  0.64436457416E-01  0.79338836895E-01  0.51100000000E-03 0.  1.
</event>
<event>
 8    1  0.1118868E+005  0.1043930E+01  0.7957747E-01            NaN
         13   -1    0    0    0    0  0.00000000000E+00  0.00000000000E+00  0.74505805969E-08  0.10566000000E+00  0.10566000000E+00 0.  1.
     999900   -1    0    0    0    0 -0.00000000000E+00 -0.00000000000E+00 -0.74505805969E-08  0.93827000000E+00  0.93827000000E+00 0.  1.
     999902    2    1    2    0    0 -0.20498918834E-01 -0.95087635098E-02  0.37253200179E-02  0.10210280292E+01  0.10207711478E+01 0.  0.
     999903    2    3    3    0    0 -0.10887881286E+00 -0.24054682930E-02 -0.73908396986E-01  0.13317192798E+00  0.20296036286E-01 0.  0.
         14    1    1    2    0    0  0.20498918834E-01  0.95087635098E-02 -0.37253200179E-02  0.22901970790E-01  0.00000000000E+00 0. -1.
     999901    1    3    3    0    0  0.88379894031E-01 -0.71032952168E-02  0.77633717004E-01  0.88785610123E+00  0.88000000000E+00 0. -1.
        -11    1    4    4    0    0 -0.57743214620E-01  0.88459258694E-02 -0.38892798696E-01  0.70181480111E-01  0.51100000000E-03 0.  1.
         11    1    4    4    0    0 -0.51135598245E-01 -0.11251394162E-01 -0.35015598290E-01  0.62990447871E-01  0.51100000000E-03 0. -1.
</event>
<event>
 8    1  0.1118868E+005  0.1043930E+01  0.7957747E-01            NaN
         13   -1    0    0    0    0  0.00000000000E+00  0.00000000000E+00  0.74505805969E-08  0.10566000000E+00  0.10566000000E+00 0. -1.
     999900   -1    0    0    0    0 -0.00000000000E+00 -0.00000000000E+00 -0.74505805969E-08  0.93827000000E+00  0.93827000000E+00 0. -1.
     999902    2    1    2    0    0  0.23388513979E-03 -0.22169609036E-01 -0.90385300144E-02  0.10199875421E+01  0.10197064993E+01 0.  0.
     999903    2    3    3    0    0  0.97126722671E-02 -0.96704166844E-01 -0.88885174827E-01  0.13318388037E+00  0.19782310244E-01 0.  0.
         14    1    1    2    0    0 -0.23388513979E-03  0.22169609036E-01  0.90385300144E-02  0.23942457933E-01  0.00000000000E+00 0. -1.
     999901    1    3    3    0    0 -0.94787871273E-02  0.74534557808E-01  0.79846644813E-01  0.88680366170E+00  0.88000000000E+00 0.  1.
        -11    1    4    4    0    0  0.54888116875E-02 -0.83495041568E-01 -0.66664766055E-01  0.10698598588E+00  0.51100000000E-03 0.  1.
         11    1    4    4    0    0  0.42238605796E-02 -0.13209125276E-01 -0.22220408772E-01  0.26197894491E-01  0.51100000000E-03 0. -1.
</event>
<event>
 8    1  0.1118868E+005  0.1043930E+01  0.7957747E-01            NaN
         13   -1    0    0    0    0  0.00000000000E+00  0.00000000000E+00  0.74505805969E-08  0.10566000000E+00  0.10566000000E+00 0.  1.
     999900   -1    0    0    0    0 -0.00000000000E+00 -0.00000000000E+00 -0.74505805969E-08  0.93827000000E+00  0.93827000000E+00 0. -1.
     999902    2    1    2    0    0 -0.20139242403E-01  0.65371495916E-02  0.10364149537E-01  0.10203558827E+01  0.10200835203E+01 0.  0.
     999903    2    3    3    0    0 -0.86457519013E-01 -0.86750653241E-01  0.45594256983E-01  0.13224446605E+00  0.20228299467E-01 0.  0.
         14    1    1    2    0    0  0.20139242403E-01 -0.65371495916E-02 -0.10364149537E-01  0.23574117268E-01  0.00000000000E+00 0. -1.
     999901    1    3    3    0    0  0.66318276611E-01  0.93287802833E-01 -0.35230107446E-01  0.88811141668E+00  0.88000000000E+00 0. -1.
        -11    1    4    4    0    0 -0.30873332387E-01 -0.42656351661E-01  0.25460492016E-01  0.58491236646E-01  0.51100000000E-03 0. -1.
         11    1    4    4    0    0 -0.55584186626E-01 -0.44094301580E-01  0.20133764968E-01  0.73753229404E-01  0.51100000000E-03 0.  1.
</event>
<event>
 8    1  0.1118868E+005  0.1043930E+01  0.7957747E-01            NaN
         13   -1    0    0    0    0  0.00000000000E+00  0.00000000000E+00  0.74505805969E-08  0.10566000000E+00  0.10566000000E+00 0.  1.
     999900   -1    0    0    0    0 -0.00000000000E+00 -0.00000000000E+00 -0.74505805969E-08  0.93827000000E+00  0.93827000000E+00 0.  1.
     999902    2    1    2    0    0 -0.38872826554E-02 -0.24462582363E-01  0.65525039505E-02  0.10183084425E+01  0.10179860607E+01 0.  0.
     999903    2    3    3    0    0  0.12669764779E+00 -0.65454319750E-02  0.13739792998E-02  0.12847684860E+00  0.20230575170E-01 0.  0.
         14    1    1    2    0    0  0.38872826554E-02  0.24462582363E-01 -0.65525039505E-02  0.25621557532E-01  0.00000000000E+00 0. -1.
     999901    1    3    3    0    0 -0.13058493044E+00 -0.17917150388E-01  0.51785246507E-02  0.88983159387E+00  0.88000000000E+00 0.  1.
        -11    1    4    4    0    0  0.96480993165E-01 -0.88314075084E-02 -0.66859712560E-02  0.97116111605E-01  0.51100000000E-03 0.  1.
         11    1    4    4    0    0  0.30216654621E-01  0.22859755334E-02  0.80599505558E-02  0.31360736991E-01  0.51100000000E-03 0. -1.
</event>
<event>
 8    1  0.1118868E+005  0.1043930E+01  0.7957747E-01            NaN
         13   -1    0    0    0    0  0.00000000000E+00  0.00000000000E+00  0.74505805969E-08  0.10566000000E+00  0.10566000000E+00 0. -1.
     999900   -1    0    0    0    0 -0.00000000000E+00 -0.00000000000E+00 -0.74505805969E-08  0.93827000000E+00  0.93827000000E+00 0. -1.
     999902    2    1    2    0    0  0.98815566411E-02 -0.18896798515E-01  0.88724213168E-02  0.10208333765E+01  0.10205720595E+01 0.  0.
     999903    2    3    3    0    0  0.31233501495E-01  0.10503276472E+00  0.66915121148E-01  0.13000039712E+00  0.20372936303E-01 0.  0.
         14    1    1    2    0    0 -0.98815566411E-02  0.18896798515E-01 -0.88724213168E-02  0.23096623471E-01  0.00000000000E+00 0. -1.
     999901    1    3    3    0    0 -0.21351944854E-01 -0.12392956323E+00 -0.58042699831E-01  0.89083297941E+00  0.88000000000E+00 0. -1.
        -11    1    4    4    0    0  0.23275456127E-01  0.77955829338E-01  0.38712273198E-01  0.90098609328E-01  0.51100000000E-03 0. -1.
         11    1    4    4    0    0  0.79580453680E-02  0.27076935382E-01  0.28202847950E-01  0.39901787795E-01  0.51100000000E-03 0.  1.
</event>
<event>
 8    1  0.1118868E+005  0.1043930E+01  0.7957747E-01            NaN
         13   -1    0    0    0    0  0.00000000000E+00  0.00000000000E+00  0.74505805969E-08  0.10566000000E+00  0.10566000000E+00 0. -1.
     999900   -1    0    0    0    0 -0.00000000000E+00 -0.00000000000E+00 -0.74505805969E-08  0.93827000000E+00  0.93827000000E+00 0. -1.
     999902    2    1    2    0    0  0.70257309829E-02 -0.18188445654E-01 -0.15413430798E-01  0.10190753365E+01  0.10187721959E+01 0.  0.
     999903    2    3    3    0    0 -0.50820431692E-01  0.54839490544E-01 -0.10386015192E+00  0.12974857958E+00  0.21393380914E-01 0.  0.
         14    1    1    2    0    0 -0.70257309829E-02  0.18188445654E-01  0.15413430798E-01  0.24854663549E-01  0.00000000000E+00 0.  1.
     999901    1    3    3    0    0  0.57846162675E-01 -0.73027936198E-01  0.88446721122E-01  0.88932675687E+00  0.88000000000E+00 0.  1.
        -11    1    4    4    0    0 -0.48281127458E-01  0.40360529170E-01 -0.86992725083E-01  0.10736868688E+00  0.51100000000E-03 0. -1.
         11    1    4    4    0    0 -0.25393042334E-02  0.14478961374E-01 -0.16867426837E-01  0.22379892707E-01  0.51100000000E-03 0.  1.
</event>
<event>
 8    1  0.1118868E+005  0.1043930E+01  0.7957747E-01            NaN
         13   -1    0    0    0    0  0.00000000000E+00  0.00000000000E+00  0.74505805969E-08  0.10566000000E+00  0.10566000000E+00 0.  1.
     999900   -1    0    0    0    0 -0.00000000000E+00 -0.00000000000E+00 -0.74505805969E-08  0.93827000000E+00  0.93827000000E+00 0.  1.
     999902    2    1    2    0    0  0.12776630979E-01 -0.19241638270E-01  0.79528749915E-02  0.10195019186E+01  0.10192092184E+01 0.  0.
     999903    2    3    3    0    0 -0.12009962713E+00 -0.25193786000E-01 -0.32450034900E-01  0.12859006929E+00  0.20585282729E-01 0.  0.
         14    1    1    2    0    0 -0.12776630979E-01  0.19241638270E-01 -0.79528749915E-02  0.24428081446E-01  0.00000000000E+00 0. -1.
     999901    1    3    3    0    0  0.13287625811E+00  0.59521477299E-02  0.40402909892E-01  0.89091184926E+00  0.88000000000E+00 0.  1.
        -11    1    4    4    0    0 -0.79327240495E-01 -0.72666742315E-02 -0.24502395969E-01  0.83344130976E-01  0.51100000000E-03 0. -1.
         11    1    4    4    0    0 -0.40772386636E-01 -0.17927111768E-01 -0.79476389310E-02  0.45245938314E-01  0.51100000000E-03 0.  1.
</event>
<event>
 8    1  0.1118868E+005  0.1043930E+01  0.7957747E-01            NaN
         13   -1    0    0    0    0  0.00000000000E+00  0.00000000000E+00  0.74505805969E-08  0.10566000000E+00  0.10566000000E+00 0.  1.
     999900   -1    0    0    0    0 -0.00000000000E+00 -0.00000000000E+00 -0.74505805969E-08  0.93827000000E+00  0.93827000000E+00 0. -1.
     999902    2    1    2    0    0 -0.96749864065E-02 -0.19318097542E-01 -0.13044758037E-01  0.10186919342E+01  0.10183792500E+01 0.  0.
     999903    2    3    3    0    0 -0.10273620805E+00  0.14692871208E-02 -0.78227758554E-01  0.13114400313E+00  0.22853448332E-01 0.  0.
         14    1    1    2    0    0  0.96749864065E-02  0.19318097542E-01  0.13044758037E-01  0.25238065830E-01  0.00000000000E+00 0.  1.
     999901    1    3    3    0    0  0.93061221639E-01 -0.20787384663E-01  0.65183000518E-01  0.88754793104E+00  0.88000000000E+00 0.  1.
        -11    1    4    4    0    0 -0.36166985307E-01 -0.42786451167E-02 -0.15807093957E-01  0.39704948943E-01  0.51100000000E-03 0.  1.
         11    1    4    4    0    0 -0.66569222739E-01  0.57479322376E-02 -0.62420664597E-01  0.91439054188E-01  0.51100000000E-03 0. -1.
</event>
<event>
 8    1  0.1118868E+005  0.1043930E+01  0.7957747E-01            NaN
         13   -1    0    0    0    0  0.00000000000E+00  0.00000000000E+00  0.74505805969E-08  0.10566000000E+00  0.10566000000E+00 0. -1.
     999900   -1    0    0    0    0 -0.00000000000E+00 -0.00000000000E+00 -0.74505805969E-08  0.93827000000E+00  0.93827000000E+00 0. -1.
     999902    2    1    2    0    0 -0.10676840411E-01  0.12374095443E-01 -0.17071329306E-01  0.10202964763E+01  0.10200227233E+01 0.  0.
     999903    2    3    3    0    0 -0.50386687653E-01 -0.41192140265E-01 -0.11361853436E+00  0.13250845182E+00  0.20339806777E-01 0.  0.
         14    1    1    2    0    0  0.10676840411E-01 -0.12374095443E-01  0.17071329306E-01  0.23633523721E-01  0.00000000000E+00 0. -1.
     999901    1    3    3    0    0  0.39709847241E-01  0.53566235708E-01  0.96547205057E-01  0.88778802446E+00  0.88000000000E+00 0.  1.
        -11    1    4    4    0    0 -0.17034005997E-01 -0.17450547609E-01 -0.25203259156E-01  0.35073413937E-01  0.51100000000E-03 0. -1.
         11    1    4    4    0    0 -0.33352681655E-01 -0.23741592656E-01 -0.88415275207E-01  0.97435037878E-01  0.51100000000E-03 0.  1.
</event>
<event>
 8    1  0.1118868E+005  0.1043930E+01  0.7957747E-01            NaN
         13   -1    0    0    0    0  0.00000000000E+00  0.00000000000E+00  0.74505805969E-08  0.10566000000E+00  0.10566000000E+00 0. -1.
     999900   -1    0    0    0    0 -0.00000000000E+00 -0.00000000000E+00 -0.74505805969E-08  0.93827000000E+00  0.93827000000E+00 0. -1.
     999902    2    1    2    0    0  0.13476923254E-01  0.12586961371E-01 -0.16307355640E-01  0.10193131581E+01  0.10190158612E+01 0.  0.
     999903    2    3    3    0    0  0.56470016254E-01 -0.90126200108E-01 -0.72847949921E-01  0.13049639499E+00  0.20270437010E-01 0.  0.
         14    1    1    2    0    0 -0.13476923254E-01 -0.12586961371E-01  0.16307355640E-01  0.24616841896E-01  0.00000000000E+00 0. -1.
     999901    1    3    3    0    0 -0.42993093000E-01  0.10271316148E+00  0.56540594281E-01  0.88881676311E+00  0.88000000000E+00 0. -1.
        -11    1    4    4    0    0  0.33066730971E-01 -0.46864159835E-01 -0.27565940631E-01  0.63638041909E-01  0.51100000000E-03 0. -1.
         11    1    4    4    0    0  0.23403285283E-01 -0.43262040273E-01 -0.45282009290E-01  0.66858353083E-01  0.51100000000E-03 0.  1.
</event>
<event>
 8    1  0.1118868E+005  0.1043930E+01  0.7957747E-01            NaN
         13   -1    0    0    0    0  0.00000000000E+00  0.00000000000E+00  0.74505805969E-08  0.10566000000E+00  0.10566000000E+00 0.  1.
     999900   -1    0    0    0    0 -0.00000000000E+00 -0.00000000000E+00 -0.74505805969E-08  0.93827000000E+00  0.93827000000E+00 0.  1.
     999902    2    1    2    0    0  0.34592164733E-01 -0.11693195368E-01 -0.29721734015E-02  0.10072941911E+01  0.10066277390E+01 0.  0.
     999903    2    3    3    0    0 -0.10180704396E+00 -0.23895316144E-01 -0.45693224257E-01  0.11567839713E+00  0.18919843693E-01 0.  0.
         14    1    1    2    0    0 -0.34592164733E-01  0.11693195368E-01  0.29721734015E-02  0.36635808897E-01  0.00000000000E+00 0. -1.
     999901    1    3    3    0    0  0.13639920869E+00  0.12202120776E-01  0.42721050856E-01  0.89161579398E+00  0.88000000000E+00 0.  1.
        -11    1    4    4    0    0 -0.78616987395E-01 -0.17717631520E-01 -0.43482519291E-01  0.91572571104E-01  0.51100000000E-03 0.  1.
         11    1    4    4    0    0 -0.23190056564E-01 -0.61776846245E-02 -0.22107049664E-02  0.24105826022E-01  0.51100000000E-03 0. -1.
</event>
<event>
 8    1  0.1118868E+005  0.1043930E+01  0.7957747E-01            NaN
         13   -1    0    0    0    0  0.00000000000E+00  0.00000000000E+00  0.74505805969E-08  0.10566000000E+00  0.10566000000E+00 0. -1.
     999900   -1    0    0    0    0 -0.00000000000E+00 -0.00000000000E+00 -0.74505805969E-08  0.93827000000E+00  0.93827000000E+00 0. -1.
     999902    2    1    2    0    0 -0.91235503305E-02 -0.13624655777E-01  0.17701525243E-01  0.10198008804E+01  0.10195153855E+01 0.  0.
     999903    2    3    3    0    0 -0.41936506909E-01  0.11190619007E+00  0.46721047561E-01  0.12981390521E+00  0.19675561261E-01 0.  0.
         14    1    1    2    0    0  0.91235503305E-02  0.13624655777E-01 -0.17701525243E-01  0.24129119578E-01  0.00000000000E+00 0.  1.
     999901    1    3    3    0    0  0.32812956579E-01 -0.12553084585E+00 -0.29019522318E-01  0.88998697522E+00  0.88000000000E+00 0.  1.
        -11    1    4    4    0    0 -0.20396723364E-01  0.60955706701E-01  0.14857144284E-01  0.65974391703E-01  0.51100000000E-03 0.  1.
         11    1    4    4    0    0 -0.21539783546E-01  0.50950483373E-01  0.31863903277E-01  0.63839513502E-01  0.51100000000E-03 0. -1.
</event>
<event>
 8    1  0.1118868E+005  0.1043930E+01  0.7957747E-01            NaN
         13   -1    0    0    0    0  0.00000000000E+00  0.00000000000E+00  0.74505805969E-08  0.10566000000E+00  0.10566000000E+00 0.  1.
     999900   -1    0    0    0    0 -0.00000000000E+00 -0.00000000000E+00 -0.74505805969E-08  0.93827000000E+00  0.93827000000E+00 0.  1.
     999902    2    1    2    0    0 -0.80907648384E-02 -0.22090657709E-01  0.13802077757E-01  0.10166544618E+01  0.10162885120E+01 0.  0.
     999903    2    3    3    0    0  0.27723712513E-01 -0.69829641133E-02  0.12419738302E+00  0.12890559944E+00  0.19346772209E-01 0.  0.
         14    1    1    2    0    0  0.80907648384E-02  0.22090657709E-01 -0.13802077757E-01  0.27275538200E-01  0.00000000000E+00 0.  1.
     999901    1    3    3    0    0 -0.35814477352E-01 -0.15107693596E-01 -0.11039530526E+00  0.88774886236E+00  0.88000000000E+00 0.  1.
        -11    1    4    4    0    0  0.26754561084E-01 -0.12038136445E-01  0.10638569933E+00  0.11035806002E+00  0.51100000000E-03 0.  1.
         11    1    4    4    0    0  0.96915142933E-03  0.50551723319E-02  0.17811683687E-01  0.18547539420E-01  0.51100000000E-03 0. -1.
</event>
<event>
 8    1  0.1118868E+005  0.1043930E+01  0.7957747E-01            NaN
         13   -1    0    0    0    0  0.00000000000E+00  0.00000000000E+00  0.74505805969E-08  0.10566000000E+00  0.10566000000E+00 0. -1.
     999900   -1    0    0    0    0 -0.00000000000E+00 -0.00000000000E+00 -0.74505805969E-08  0.93827000000E+00  0.93827000000E+00 0.  1.
     999902    2    1    2    0    0 -0.70471277449E-02  0.14523019755E-01  0.20695541248E-01  0.10176833709E+01  0.10173448569E+01 0.  0.
     999903    2    3    3    0    0 -0.51813835568E-01 -0.91316645543E-01 -0.66628934956E-01  0.12592574853E+00  0.19861416392E-01 0.  0.
         14    1    1    2    0    0  0.70471277449E-02 -0.14523019755E-01 -0.20695541248E-01  0.26246629113E-01  0.00000000000E+00 0.  1.
     999901    1    3    3    0    0  0.44766707823E-01  0.10583966530E+00  0.87324476204E-01  0.89175762235E+00  0.88000000000E+00 0.  1.
        -11    1    4    4    0    0 -0.23122641144E-01 -0.33801848648E-01 -0.36818186004E-01  0.55073237123E-01  0.51100000000E-03 0. -1.
         11    1    4    4    0    0 -0.28691194424E-01 -0.57514796894E-01 -0.29810748952E-01  0.70852511412E-01  0.51100000000E-03 0.  1.
</event>
<event>
 8    1  0.1118868E+005  0.1043930E+01  0.7957747E-01            NaN
         13   -1    0    0    0    0  0.00000000000E+00  0.00000000000E+00  0.74505805969E-08  0.10566000000E+00  0.10566000000E+00 0. -1.
     999900   -1    0    0    0    0 -0.00000000000E+00 -0.00000000000E+00 -0.74505805969E-08  0.93827000000E+00  0.93827000000E+00 0. -1.
     999902    2    1    2    0    0 -0.87612448093E-02 -0.10592544038E-01  0.19274612290E-01  0.10202557085E+01  0.10199809991E+01 0.  0.
     999903    2    3    3    0    0 -0.84724915096E-01  0.55852349727E-01  0.82433696371E-01  0.13223855042E+00  0.19847511493E-01 0.  0.
         14    1    1    2    0    0  0.87612448093E-02  0.10592544038E-01 -0.19274612290E-01  0.23674291515E-01  0.00000000000E+00 0.  1.
     999901    1    3    3    0    0  0.75963670287E-01 -0.66444893765E-01 -0.63159084080E-01  0.88801715806E+00  0.88000000000E+00 0. -1.
        -11    1    4    4    0    0 -0.27135217604E-01  0.17391270531E-01  0.14913268613E-01  0.35516799220E-01  0.51100000000E-03 0.  1.
         11    1    4    4    0    0 -0.57589697492E-01  0.38461079195E-01  0.67520427757E-01  0.96721751202E-01  0.51100000000E-03 0. -1.
</event>
<event>
 8    1  0.1118868E+005  0.1043930E+01  0.7957747E-01            NaN
         13   -1    0    0    0    0  0.00000000000E+00  0.00000000000E+00  0.74505805969E-08  0.10566000000E+00  0.10566000000E+00 0.  1.
     999900   -1    0    0    0    0 -0.00000000000E+00 -0.00000000000E+00 -0.74505805969E-08  0.93827000000E+00  0.93827000000E+00 0.  1.
     999902    2    1    2    0    0 -0.13933706115E-01  0.19747390042E-01  0.94465335837E-02  0.10179811161E+01  0.10176503369E+01 0.  0.
     999903    2    3    3    0    0 -0.58944765891E-01 -0.42330746402E-01  0.10533450286E+00  0.12945751304E+00  0.19937719846E-01 0.  0.
         14    1    1    2    0    0  0.13933706115E-01 -0.19747390042E-01 -0.94465335837E-02  0.25948883913E-01  0.00000000000E+00 0. -1.
     999901    1    3    3    0    0  0.45011059776E-01  0.62078136444E-01 -0.95887969273E-01  0.88852360305E+00  0.88000000000E+00 0.  1.
        -11    1    4    4    0    0 -0.44429622806E-01 -0.41357924905E-01  0.85066595032E-01  0.10450385661E+00  0.51100000000E-03 0.  1.
         11    1    4    4    0    0 -0.14515143085E-01 -0.97282149706E-03  0.20267907825E-01  0.24953656426E-01  0.51100000000E-03 0. -1.
</event>
<event>
 8    1  0.1118868E+005  0.1043930E+01  0.7957747E-01            NaN
         13   -1    0    0    0    0  0.00000000000E+00  0.00000000000E+00  0.74505805969E-08  0.10566000000E+00  0.10566000000E+00 0. -1.
     999900   -1    0    0    0    0 -0.00000000000E+00 -0.00000000000E+00 -0.74505805969E-08  0.93827000000E+00  0.93827000000E+00 0.  1.
     999902    2    1    2    0    0  0.14540247131E-01  0.18127834056E-01 -0.88822613964E-03  0.10206743319E+01  0.10204093618E+01 0.  0.
     999903    2    3    3    0    0  0.67871953483E-01 -0.60623417161E-01  0.91497884474E-01  0.13074106252E+00  0.20965728894E-01 0.  0.
         14    1    1    2    0    0 -0.14540247131E-01 -0.18127834056E-01  0.88822613964E-03  0.23255668123E-01  0.00000000000E+00 0. -1.
     999901    1    3    3    0    0 -0.53331706352E-01  0.78751251217E-01 -0.92386110614E-01  0.88993326936E+00  0.88000000000E+00 0.  1.
        -11    1    4    4    0    0  0.39281135801E-01 -0.22617211315E-01  0.37934647684E-01  0.59108751412E-01  0.51100000000E-03 0.  1.
         11    1    4    4    0    0  0.28590817682E-01 -0.38006205846E-01  0.53563236790E-01  0.71632311110E-01  0.51100000000E-03 0. -1.
</event>
<event>
 8    1  0.1118868E+005  0.1043930E+01  0.7957747E-01            NaN
         13   -1    0    0    0    0  0.00000000000E+00  0.00000000000E+00  0.74505805969E-08  0.10566000000E+00  0.10566000000E+00 0. -1.
     999900   -1    0    0    0    0 -0.00000000000E+00 -0.00000000000E+00 -0.74505805969E-08  0.93827000000E+00  0.93827000000E+00 0.  1.
     999902    2    1    2    0    0 -0.78374761021E-02 -0.14786949261E-01  0.16005065935E-01  0.10207730996E+01  0.10205104011E+01 0.  0.
     999903    2    3    3    0    0  0.50384061215E-01 -0.12026762733E+00 -0.81602420679E-02  0.13223504023E+00  0.20412263597E-01 0.  0.
         14    1    1    2    0    0  0.78374761021E-02  0.14786949261E-01 -0.16005065935E-01  0.23156900390E-01  0.00000000000E+00 0.  1.
     999901    1    3    3    0    0 -0.58221537317E-01  0.10548067807E+00  0.24165308003E-01  0.88853805938E+00  0.88000000000E+00 0.  1.
        -11    1    4    4    0    0  0.28914224778E-01 -0.49989719666E-01  0.33696356262E-02  0.57849978670E-01  0.51100000000E-03 0. -1.
         11    1    4    4    0    0  0.21469836437E-01 -0.70277907668E-01 -0.11529877694E-01  0.74385061561E-01  0.51100000000E-03 0.  1.
</event>
<event>
 7    1  0.1118868E+005  0.1043930E+01  0.7957747E-01            NaN
         13   -1    0    0    0    0  0.00000000000E+00  0.00000000000E+00  0.74505805969E-08  0.10566000000E+00  0.10566000000E+00 0. -1.
     999900   -1    0    0    0    0 -0.00000000000E+00 -0.00000000000E+00 -0.74505805969E-08  0.93827000000E+00  0.93827000000E+00 0.  1.
     999903    2    1    2    0    0 -0.75640913687E-01 -0.64651810465E-01 -0.16786596647E-01  0.10284699086E+00  0.19857222399E-01 0.  0.
         14    1    1    2    0    0 -0.39152777447E-01 -0.27916613906E-01 -0.64075769097E-02  0.48511177636E-01  0.00000000000E+00 0. -1.
     999901    1    1    2    0    0  0.11479369113E+00  0.92568424371E-01  0.23194173556E-01  0.89257183151E+00  0.88000000000E+00 0.  1.
        -11    1    3    3    0    0 -0.47071726095E-01 -0.34435813143E-01 -0.18604016965E-01  0.61220447504E-01  0.51100000000E-03 0.  1.
         11    1    3    3    0    0 -0.28569187592E-01 -0.30215997322E-01  0.18174203182E-02  0.41626543352E-01  0.51100000000E-03 0. -1.
</event>
<event>
 8    1  0.1118868E+005  0.1043930E+01  0.7957747E-01            NaN
         13   -1    0    0    0    0  0.00000000000E+00  0.00000000000E+00  0.74505805969E-08  0.10566000000E+00  0.10566000000E+00 0.  1.
     999900   -1    0    0    0    0 -0.00000000000E+00 -0.00000000000E+00 -0.74505805969E-08  0.93827000000E+00  0.93827000000E+00 0. -1.
     999902    2    1    2    0    0  0.22242091457E-01  0.24037785976E-02 -0.10016594732E-01  0.10194183506E+01  0.10191236199E+01 0.  0.
     999903    2    3    3    0    0 -0.86709217198E-01  0.91542432964E-01  0.57591610067E-02  0.12809071065E+00  0.21807265730E-01 0.  0.
         14    1    1    2    0    0 -0.22242091457E-01 -0.24037785976E-02  0.10016594732E-01  0.24511649352E-01  0.00000000000E+00 0.  1.
     999901    1    3    3    0    0  0.10895130865E+00 -0.89138654367E-01 -0.15775755739E-01  0.89132764000E+00  0.88000000000E+00 0.  1.
        -11    1    4    4    0    0 -0.17651481416E-01  0.32957599448E-01  0.98653260221E-03  0.37403375852E-01  0.51100000000E-03 0. -1.
         11    1    4    4    0    0 -0.69057735781E-01  0.58584833516E-01  0.47726284045E-02  0.90687334795E-01  0.51100000000E-03 0.  1.
</event>
<event>
 8    1  0.1118868E+005  0.1043930E+01  0.7957747E-01            NaN
         13   -1    0    0    0    0  0.00000000000E+00  0.00000000000E+00  0.74505805969E-08  0.10566000000E+00  0.10566000000E+00 0. -1.
     999900   -1    0    0    0    0 -0.00000000000E+00 -0.00000000000E+00 -0.74505805969E-08  0.93827000000E+00  0.93827000000E+00 0.  1.
     999902    2    1    2    0    0 -0.40645291669E-02  0.68794235594E-02 -0.23304072826E-01  0.10192941181E+01  0.10189963555E+01 0.  0.
     999903    2    3    3    0    0  0.32255218346E-01 -0.12283688997E+00  0.24263913114E-02  0.12867214284E+00  0.20526381100E-01 0.  0.
         14    1    1    2    0    0  0.40645291669E-02 -0.68794235594E-02  0.23304072826E-01  0.24635881883E-01  0.00000000000E+00 0. -1.
     999901    1    3    3    0    0 -0.36319747512E-01  0.12971631353E+00 -0.25730464138E-01  0.89062197527E+00  0.88000000000E+00 0.  1.
        -11    1    4    4    0    0  0.79728598150E-02 -0.10526064123E-01 -0.33073348944E-02  0.13622191625E-01  0.51100000000E-03 0. -1.
         11    1    4    4    0    0  0.24282358531E-01 -0.11231082585E+00  0.57337262058E-02  0.11504995122E+00  0.51100000000E-03 0.  1.
</event>
<event>
 8    1  0.1118868E+005  0.1043930E+01  0.7957747E-01            NaN
         13   -1    0    0    0    0  0.00000000000E+00  0.00000000000E+00  0.74505805969E-08  0.10566000000E+00  0.10566000000E+00 0.  1.
     999900   -1    0    0    0    0 -0.00000000000E+00 -0.00000000000E+00 -0.74505805969E-08  0.93827000000E+00  0.93827000000E+00 0. -1.
     999902    2    1    2    0    0  0.13640997609E-01 -0.19197884013E-01 -0.57643323045E-03  0.10203722446E+01  0.10201002645E+01 0.  0.
     999903    2    3    3    0    0 -0.12601374485E+00 -0.47111528494E-02 -0.19093178316E-01  0.12904952953E+00  0.19686867706E-01 0.  0.
         14    1    1    2    0    0 -0.13640997609E-01  0.19197884013E-01  0.57643323045E-03  0.23557755446E-01  0.00000000000E+00 0.  1.
     999901    1    3    3    0    0  0.13965474246E+00 -0.14486731164E-01  0.18516745085E-01  0.89132271503E+00  0.88000000000E+00 0. -1.
        -11    1    4    4    0    0 -0.32440653460E-01 -0.97182019357E-02 -0.66999841191E-02  0.34525213308E-01  0.51100000000E-03 0.  1.
         11    1    4    4    0    0 -0.93573091394E-01  0.50070490862E-02 -0.12393194197E-01  0.94524316221E-01  0.51100000000E-03 0. -1.
</event>
<event>
 8    1  0.1118868E+005  0.1043930E+01  0.7957747E-01            NaN
         13   -1    0    0    0    0  0.00000000000E+00  0.00000000000E+00  0.74505805969E-08  0.10566000000E+00  0.10566000000E+00 0. -1.
     999900   -1    0    0    0    0 -0.00000000000E+00 -0.00000000000E+00 -0.74505805969E-08  0.93827000000E+00  0.93827000000E+00 0.  1.
     999902    2    1    2    0    0  0.12767255563E-01 -0.17597001907E-01 -0.12579658591E-01  0.10188121756E+01  0.10185025008E+01 0.  0.
     999903    2    3    3    0    0  0.13729550948E-01 -0.63080741526E-01 -0.11297014325E+00  0.13193679206E+00  0.21849103213E-01 0.  0.
         14    1    1    2    0    0 -0.12767255563E-01  0.17597001907E-01  0.12579658591E-01  0.25117824368E-01  0.00000000000E+00 0. -1.
     999901    1    3    3    0    0 -0.96229538445E-03  0.45483739620E-01  0.10039048466E+00  0.88687538358E+00  0.88000000000E+00 0. -1.
        -11    1    4    4    0    0  0.12693081895E-01 -0.37727268366E-01 -0.49108959851E-01  0.63217182514E-01  0.51100000000E-03 0. -1.
         11    1    4    4    0    0  0.10364690525E-02 -0.25353473160E-01 -0.63861183400E-01  0.68719609542E-01  0.51100000000E-03 0.  1.
</event>
<event>
 8    1  0.1118868E+005  0.1043930E+01  0.7957747E-01            NaN
         13   -1    0    0    0    0  0.00000000000E+00  0.00000000000E+00  0.74505805969E-08  0.10566000000E+00  0.10566000000E+00 0.  1.
     999900   -1    0    0    0    0 -0.00000000000E+00 -0.00000000000E+00 -0.74505805969E-08  0.93827000000E+00  0.93827000000E+00 0.  1.
     999902    2    1    2    0    0 -0.26294560303E-02  0.20672537928E-03 -0.23078738088E-01  0.10207010326E+01  0.10204366776E+01 0.  0.
     999903    2    3    3    0    0  0.10651891432E+00  0.38505243754E-01 -0.65132889064E-01  0.13213550611E+00  0.19712073307E-01 0.  0.
         14    1    1    2    0    0  0.26294560303E-02 -0.20672537928E-03  0.23078738088E-01  0.23228967392E-01  0.00000000000E+00 0.  1.
     999901    1    3    3    0    0 -0.10914837035E+00 -0.38298518374E-01  0.42054150976E-01  0.88856552649E+00  0.88000000000E+00 0. -1.
        -11    1    4    4    0    0  0.65081923466E-01  0.31895742907E-01 -0.47246348821E-01  0.86518632534E-01  0.51100000000E-03 0. -1.
         11    1    4    4    0    0  0.41436990852E-01  0.66095008469E-02 -0.17886540242E-01  0.45616873579E-01  0.51100000000E-03 0.  1.
</event>
<event>
 8    1  0.1118868E+005  0.1043930E+01  0.7957747E-01            NaN
         13   -1    0    0    0    0  0.00000000000E+00  0.00000000000E+00  0.74505805969E-08  0.10566000000E+00  0.10566000000E+00 0.  1.
     999900   -1    0    0    0    0 -0.00000000000E+00 -0.00000000000E+00 -0.74505805969E-08  0.93827000000E+00  0.93827000000E+00 0. -1.
     999902    2    1    2    0    0 -0.67170396510E-02  0.18326735840E-01  0.12956102508E-01  0.10205024850E+01  0.10202335386E+01 0.  0.
     999903    2    3    3    0    0 -0.51505765154E-01 -0.50851578832E-01  0.10793877923E+00  0.13156301682E+00  0.20477314758E-01 0.  0.
         14    1    1    2    0    0  0.67170396510E-02 -0.18326735840E-01 -0.12956102508E-01  0.23427515029E-01  0.00000000000E+00 0. -1.
     999901    1    3    3    0    0  0.44788725503E-01  0.69178314672E-01 -0.94982676723E-01  0.88893946815E+00  0.88000000000E+00 0. -1.
        -11    1    4    4    0    0 -0.13077527399E-01 -0.15583356355E-01  0.16115420787E-01  0.25958247751E-01  0.51100000000E-03 0. -1.
         11    1    4    4    0    0 -0.38428237755E-01 -0.35268222477E-01  0.91823358445E-01  0.10560476907E+00  0.51100000000E-03 0.  1.
</event>
<event>
 8    1  0.1118868E+005  0.1043930E+01  0.7957747E-01            NaN
         13   -1    0    0    0    0  0.00000000000E+00  0.00000000000E+00  0.74505805969E-08  0.10566000000E+00  0.10566000000E+00 0.  1.
     999900   -1    0    0    0    0 -0.00000000000E+00 -0.00000000000E+00 -0.74505805969E-08  0.93827000000E+00  0.93827000000E+00 0. -1.
     999902    2    1    2    0    0  0.15169838350E-01  0.81005182338E-02 -0.14091861312E-01  0.10216966254E+01  0.10214546840E+01 0.  0.
     999903    2    3    3    0    0  0.12233023526E+00  0.50246509192E-01 -0.10170072359E-01  0.13418605326E+00  0.20324083579E-01 0.  0.
         14    1    1    2    0    0 -0.15169838350E-01 -0.81005182338E-02  0.14091861312E-01  0.22233374608E-01  0.00000000000E+00 0.  1.
     999901    1    3    3    0    0 -0.10716039691E+00 -0.42145990958E-01 -0.39217889532E-02  0.88751057213E+00  0.88000000000E+00 0. -1.
        -11    1    4    4    0    0  0.35114885561E-01  0.24641794480E-01 -0.30168490170E-02  0.43007391483E-01  0.51100000000E-03 0.  1.
         11    1    4    4    0    0  0.87215349696E-01  0.25604714712E-01 -0.71532233417E-02  0.91178661776E-01  0.51100000000E-03 0. -1.
</event>
<event>
 8    1  0.1118868E+005  0.1043930E+01  0.7957747E-01            NaN
         13   -1    0    0    0    0  0.00000000000E+00  0.00000000000E+00  0.74505805969E-08  0.10566000000E+00  0.10566000000E+00 0. -1.
     999900   -1    0    0    0    0 -0.00000000000E+00 -0.00000000000E+00 -0.74505805969E-08  0.93827000000E+00  0.93827000000E+00 0. -1.
     999902    2    1    2    0    0  0.19639949831E-02 -0.23722488705E-01 -0.25358525214E-03  0.10201249994E+01  0.10198472123E+01 0.  0.
     999903    2    3    3    0    0 -0.12609967011E+00  0.20006321321E-02  0.26330163759E-01  0.13008641770E+00  0.18001922560E-01 0.  0.
         14    1    1    2    0    0 -0.19639949831E-02  0.23722488705E-01  0.25358525214E-03  0.23805000570E-01  0.00000000000E+00 0. -1.
     999901    1    3    3    0    0  0.12806366509E+00 -0.25723120837E-01 -0.26583749011E-01  0.89003858173E+00  0.88000000000E+00 0. -1.
        -11    1    4    4    0    0 -0.88588734902E-01  0.84482055989E-02  0.22749710696E-01  0.91853941598E-01  0.51100000000E-03 0.  1.
         11    1    4    4    0    0 -0.37510935204E-01 -0.64475734668E-02  0.35804530627E-02  0.38232476099E-01  0.51100000000E-03 0. -1.
</event>
<event>
 8    1  0.1118868E+005  0.1043930E+01  0.7957747E-01            NaN
         13   -1    0    0    0    0  0.00000000000E+00  0.00000000000E+00  0.74505805969E-08  0.10566000000E+00  0.10566000000E+00 0.  1.
     999900   -1    0    0    0    0 -0.00000000000E+00 -0.00000000000E+00 -0.74505805969E-08  0.93827000000E+00  0.93827000000E+00 0. -1.
     999902    2    1    2    0    0 -0.17778937500E-01  0.14515130329E-01 -0.18890339031E-02  0.10209007126E+01  0.10206409344E+01 0.  0.
     999903    2    3    3    0    0 -0.10871585582E+00  0.36865019440E-02 -0.74298920796E-01  0.13319018886E+00  0.19661362481E-01 0.  0.
         14    1    1    2    0    0  0.17778937500E-01 -0.14515130329E-01  0.18890339031E-02  0.23029287357E-01  0.00000000000E+00 0.  1.
     999901    1    3    3    0    0  0.90936918323E-01  0.10828628385E-01  0.72409886893E-01  0.88771052378E+00  0.88000000000E+00 0.  1.
        -11    1    4    4    0    0 -0.58971812486E-01  0.92475860720E-02 -0.48281283750E-01  0.76775881614E-01  0.51100000000E-03 0.  1.
         11    1    4    4    0    0 -0.49744043337E-01 -0.55610841280E-02 -0.26017637046E-01  0.56414307251E-01  0.51100000000E-03 0. -1.
</event>
<event>
 8    1  0.1118868E+005  0.1043930E+01  0.7957747E-01            NaN
         13   -1    0    0    0    0  0.00000000000E+00  0.00000000000E+00  0.74505805969E-08  0.10566000000E+00  0.10566000000E+00 0.  1.
     999900   -1    0    0    0    0 -0.00000000000E+00 -0.00000000000E+00 -0.74505805969E-08  0.93827000000E+00  0.93827000000E+00 0. -1.
     999902    2    1    2    0    0  0.16670009135E-01 -0.87792245374E-03 -0.73422956601E-02  0.10256935185E+01  0.10255313865E+01 0.  0.
     999903    2    3    3    0    0  0.25475267904E-01  0.13117655128E+00 -0.13343873516E-01  0.13577670465E+00  0.20024427177E-01 0.  0.
         14    1    1    2    0    0 -0.16670009135E-01  0.87792245374E-03  0.73422956601E-02  0.18236481513E-01  0.00000000000E+00 0.  1.
     999901    1    3    3    0    0 -0.88052587684E-02 -0.13205447374E+00  0.60015778557E-02  0.88991681384E+00  0.88000000000E+00 0. -1.
        -11    1    4    4    0    0  0.18289532227E-01  0.49748744477E-01 -0.37153347502E-03  0.53007959066E-01  0.51100000000E-03 0. -1.
         11    1    4    4    0    0  0.71857356761E-02  0.81427806805E-01 -0.12972340041E-01  0.82768745583E-01  0.51100000000E-03 0.  1.
</event>
<event>
 8    1  0.1118868E+005  0.1043930E+01  0.7957747E-01            NaN
         13   -1    0    0    0    0  0.00000000000E+00  0.00000000000E+00  0.74505805969E-08  0.10566000000E+00  0.10566000000E+00 0. -1.
     999900   -1    0    0    0    0 -0.00000000000E+00 -0.00000000000E+00 -0.74505805969E-08  0.93827000000E+00  0.93827000000E+00 0.  1.
     999902    2    1    2    0    0 -0.17104567089E-02 -0.13483617202E-01  0.19520966650E-01  0.10201434127E+01  0.10198660602E+01 0.  0.
     999903    2    3    3    0    0 -0.82289282848E-01  0.71827999716E-01 -0.64593341408E-01  0.12837761611E+00  0.19435147252E-01 0.  0.
         14    1    1    2    0    0  0.17104567089E-02  0.13483617202E-01 -0.19520966650E-01  0.23786587270E-01  0.00000000000E+00 0.  1.
     999901    1    3    3    0    0  0.80578826139E-01 -0.85311616918E-01  0.84114308058E-01  0.89176579662E+00  0.88000000000E+00 0. -1.
        -11    1    4    4    0    0 -0.48385850550E-01  0.32381724721E-01 -0.26887305733E-01  0.64132323831E-01  0.51100000000E-03 0. -1.
         11    1    4    4    0    0 -0.33903432298E-01  0.39446274995E-01 -0.37706035675E-01  0.64245292278E-01  0.51100000000E-03 0.  1.
</event>
<event>
 8    1  0.1118868E+005  0.1043930E+01  0.7957747E-01            NaN
         13   -1    0    0    0    0  0.00000000000E+00  0.00000000000E+00  0.74505805969E-08  0.10566000000E+00  0.10566000000E+00 0.  1.
     999900   -1    0    0    0    0 -0.00000000000E+00 -0.00000000000E+00 -0.74505805969E-08  0.93827000000E+00  0.93827000000E+00 0.  1.
     999902    2    1    2    0    0 -0.62515890432E-02  0.57890913722E-02 -0.22792196426E-01  0.10195973026E+01  0.10193069112E+01 0.  0.
     999903    2    3    3    0    0 -0.60242350048E-01 -0.46039928552E-01  0.10087545753E+00  0.12780419980E+00  0.20229676067E-01 0.  0.
         14    1    1    2    0    0  0.62515890432E-02 -0.57890913722E-02  0.22792196426E-01  0.24332697393E-01  0.00000000000E+00 0.  1.
     999901    1    3    3    0    0  0.53990761005E-01  0.51829019924E-01 -0.12366765396E+00  0.89179310281E+00  0.88000000000E+00 0.  1.
        -11    1    4    4    0    0 -0.29087772983E-01 -0.34769821778E-01  0.58877927371E-01  0.74309558578E-01  0.51100000000E-03 0.  1.
         11    1    4    4    0    0 -0.31154577065E-01 -0.11270106774E-01  0.41997530160E-01  0.53494641221E-01  0.51100000000E-03 0. -1.
</event>
<event>
 7    1  0.1371601E+005  0.1043930E+01  0.7957747E-01            NaN
         13   -1    0    0    0    0  0.00000000000E+00  0.00000000000E+00  0.74505805969E-08  0.10566000000E+00  0.10566000000E+00 0. -1.
     999900   -1    0    0    0    0 -0.00000000000E+00 -0.00000000000E+00 -0.74505805969E-08  0.93827000000E+00  0.93827000000E+00 0. -1.
     999903    2    1    2    0    0 -0.50504677346E-01 -0.67500514486E-01  0.57362987308E-01  0.10382490643E+00  0.19546278227E-01 0.  0.
         14    1    1    2    0    0  0.41901445332E-01 -0.31724475938E-01 -0.74461616107E-02  0.53081247322E-01  0.00000000000E+00 0.  1.
     999901    1    1    2    0    0  0.86032320139E-02  0.99224990424E-01 -0.49916825698E-01  0.88702384625E+00  0.88000000000E+00 0. -1.
        -11    1    3    3    0    0 -0.20510263135E-01 -0.22658891154E-01  0.31852367777E-01  0.44146695190E-01  0.51100000000E-03 0. -1.
         11    1    3    3    0    0 -0.29994414212E-01 -0.44841623332E-01  0.25510619531E-01  0.59678211240E-01  0.51100000000E-03 0.  1.
</event>
<event>
 8    1  0.1118868E+005  0.1043930E+01  0.7957747E-01            NaN
         13   -1    0    0    0    0  0.00000000000E+00  0.00000000000E+00  0.74505805969E-08  0.10566000000E+00  0.10566000000E+00 0. -1.
     999900   -1    0    0    0    0 -0.00000000000E+00 -0.00000000000E+00 -0.74505805969E-08  0.93827000000E+00  0.93827000000E+00 0. -1.
     999902    2    1    2    0    0 -0.15688468639E-01  0.69617459800E-02  0.14755738441E-01  0.10212953855E+01  0.10210445332E+01 0.  0.
     999903    2    3    3    0    0  0.23400124905E-02 -0.29486831764E-01 -0.12441567846E+00  0.12943092933E+00  0.19953834607E-01 0.  0.
         14    1    1    2    0    0  0.15688468639E-01 -0.69617459800E-02 -0.14755738441E-01  0.22634614471E-01  0.00000000000E+00 0.  1.
     999901    1    3    3    0    0 -0.18028481130E-01  0.36448577744E-01  0.13917141690E+00  0.89186445620E+00  0.88000000000E+00 0.  1.
        -11    1    4    4    0    0  0.90176900597E-02 -0.24051108038E-01 -0.75260451355E-01  0.79524657755E-01  0.51100000000E-03 0.  1.
         11    1    4    4    0    0 -0.66776775692E-02 -0.54357237263E-02 -0.49155227100E-01  0.49906271574E-01  0.51100000000E-03 0. -1.
</event>
<event>
 8    1  0.1118868E+005  0.1043930E+01  0.7957747E-01            NaN
         13   -1    0    0    0    0  0.00000000000E+00  0.00000000000E+00  0.74505805969E-08  0.10566000000E+00  0.10566000000E+00 0.  1.
     999900   -1    0    0    0    0 -0.00000000000E+00 -0.00000000000E+00 -0.74505805969E-08  0.93827000000E+00  0.93827000000E+00 0. -1.
     999902    2    1    2    0    0  0.16905775921E-02 -0.21406783379E-01 -0.10490125131E-01  0.10200312312E+01  0.10197512252E+01 0.  0.
     999903    2    3    3    0    0  0.12388167012E+00  0.23167609533E-01  0.24109117571E-01  0.12979831377E+00  0.19569015884E-01 0.  0.
         14    1    1    2    0    0 -0.16905775921E-02  0.21406783379E-01  0.10490125131E-01  0.23898768849E-01  0.00000000000E+00 0.  1.
     999901    1    3    3    0    0 -0.12219109253E+00 -0.44574392912E-01 -0.34599242702E-01  0.89023291738E+00  0.88000000000E+00 0.  1.
        -11    1    4    4    0    0  0.78988934008E-01  0.17398188504E-01  0.62063663751E-02  0.81121691079E-01  0.51100000000E-03 0.  1.
         11    1    4    4    0    0  0.44892736116E-01  0.57694210294E-02  0.17902751196E-01  0.48676622689E-01  0.51100000000E-03 0. -1.
</event>
<event>
 8    1  0.1118868E+005  0.1043930E+01  0.7957747E-01            NaN
         13   -1    0    0    0    0  0.00000000000E+00  0.00000000000E+00  0.74505805969E-08  0.10566000000E+00  0.10566000000E+00 0.  1.
     999900   -1    0    0    0    0 -0.00000000000E+00 -0.00000000000E+00 -0.74505805969E-08  0.93827000000E+00  0.93827000000E+00 0.  1.
     999902    2    1    2    0    0 -0.18093682302E-01  0.71072018581E-02  0.14156592058E-01  0.10198820738E+01  0.10195985198E+01 0.  0.
     999903    2    3    3    0    0  0.71957179596E-01 -0.32745395985E-01  0.10137258769E+00  0.13010456384E+00  0.20017475927E-01 0.  0.
         14    1    1    2    0    0  0.18093682302E-01 -0.71072018581E-02 -0.14156592058E-01  0.24047926235E-01  0.00000000000E+00 0.  1.
     999901    1    3    3    0    0 -0.90050861899E-01  0.39852597843E-01 -0.87215995631E-01  0.88977750993E+00  0.88000000000E+00 0.  1.
        -11    1    4    4    0    0  0.12851656021E-01 -0.14886395108E-01  0.27754622021E-01  0.34019846947E-01  0.51100000000E-03 0.  1.
         11    1    4    4    0    0  0.59105523575E-01 -0.17859000877E-01  0.73617965667E-01  0.96084716888E-01  0.51100000000E-03 0. -1.
</event>
<event>
 8    1  0.1118868E+005  0.1043930E+01  0.7957747E-01            NaN
         13   -1    0    0    0    0  0.00000000000E+00  0.00000000000E+00  0.74505805969E-08  0.10566000000E+00  0.10566000000E+00 0. -1.
     999900   -1    0    0    0    0 -0.00000000000E+00 -0.00000000000E+00 -0.74505805969E-08  0.93827000000E+00  0.93827000000E+00 0.  1.
     999902    2    1    2    0    0 -0.23242667732E-02  0.22066694510E-01  0.58622912658E-02  0.10209798871E+01  0.10207219123E+01 0.  0.
     999903    2    3    3    0    0 -0.44562843965E-02 -0.12238094147E+00 -0.32440560789E-01  0.12837875922E+00  0.20778896261E-01 0.  0.
         14    1    1    2    0    0  0.23242667732E-02 -0.22066694510E-01 -0.58622912658E-02  0.22950112887E-01  0.00000000000E+00 0. -1.
     999901    1    3    3    0    0  0.21320176233E-02  0.14444763598E+00  0.38302852055E-01  0.89260112789E+00  0.88000000000E+00 0. -1.
        -11    1    4    4    0    0 -0.79002011028E-02 -0.16781376993E-01 -0.47278705389E-02  0.19147889494E-01  0.51100000000E-03 0.  1.
         11    1    4    4    0    0  0.34439167063E-02 -0.10559956447E+00 -0.27712690250E-01  0.10923086973E+00  0.51100000000E-03 0. -1.
</event>
<event>
 8    1  0.1118868E+005  0.1043930E+01  0.7957747E-01            NaN
         13   -1    0    0    0    0  0.00000000000E+00  0.00000000000E+00  0.74505805969E-08  0.10566000000E+00  0.10566000000E+00 0.  1.
     999900   -1    0    0    0    0 -0.00000000000E+00 -0.00000000000E+00 -0.74505805969E-08  0.93827000000E+00  0.93827000000E+00 0. -1.
     999902    2    1    2    0    0  0.14336680201E-01 -0.17399975537E-01  0.67920390420E-02  0.10203836342E+01  0.10201119201E+01 0.  0.
     999903    2    3    3    0    0 -0.68201210875E-01 -0.86479650853E-01 -0.67575020105E-01  0.13071236655E+00  0.19728260185E-01 0.  0.
         14    1    1    2    0    0 -0.14336680201E-01  0.17399975537E-01 -0.67920390420E-02  0.23546365797E-01  0.00000000000E+00 0.  1.
     999901    1    3    3    0    0  0.82537891076E-01  0.69079675316E-01  0.74367059147E-01  0.88967126766E+00  0.88000000000E+00 0.  1.
        -11    1    4    4    0    0 -0.22075516644E-01 -0.40845200742E-01 -0.21740085500E-01  0.51269399229E-01  0.51100000000E-03 0.  1.
         11    1    4    4    0    0 -0.46125694230E-01 -0.45634450111E-01 -0.45834934605E-01  0.79442967319E-01  0.51100000000E-03 0. -1.
</event>
<event>
 8    1  0.1118868E+005  0.1043930E+01  0.7957747E-01            NaN
         13   -1    0    0    0    0  0.00000000000E+00  0.00000000000E+00  0.74505805969E-08  0.10566000000E+00  0.10566000000E+00 0.  1.
     999900   -1    0    0    0    0 -0.00000000000E+00 -0.00000000000E+00 -0.74505805969E-08  0.93827000000E+00  0.93827000000E+00 0. -1.
     999902    2    1    2    0    0 -0.12131565731E-01  0.37149977409E-02 -0.19612198571E-01  0.10205716090E+01  0.10203042658E+01 0.  0.
     999903    2    3    3    0    0  0.65138595910E-01 -0.10043249732E+00  0.43762748929E-01  0.12881280613E+00  0.18650405712E-01 0.  0.
         14    1    1    2    0    0  0.12131565731E-01 -0.37149977409E-02  0.19612198571E-01  0.23358390957E-01  0.00000000000E+00 0. -1.
     999901    1    3    3    0    0 -0.77270161642E-01  0.10414749506E+00 -0.63374947500E-01  0.89175880292E+00  0.88000000000E+00 0. -1.
        -11    1    4    4    0    0  0.47950785076E-01 -0.57377326970E-01  0.26154451990E-01  0.79219643521E-01  0.51100000000E-03 0. -1.
         11    1    4    4    0    0  0.17187810834E-01 -0.43055170351E-01  0.17608296939E-01  0.49593162606E-01  0.51100000000E-03 0.  1.
</event>
<event>
 8    1  0.1118868E+005  0.1043930E+01  0.7957747E-01            NaN
         13   -1    0    0    0    0  0.00000000000E+00  0.00000000000E+00  0.74505805969E-08  0.10566000000E+00  0.10566000000E+00 0. -1.
     999900   -1    0    0    0    0 -0.00000000000E+00 -0.00000000000E+00 -0.74505805969E-08  0.93827000000E+00  0.93827000000E+00 0.  1.
     999902    2    1    2    0    0  0.27985459070E-02 -0.20059806434E-01  0.84669387331E-02  0.10219773978E+01  0.10217415939E+01 0.  0.
     999903    2    3    3    0    0 -0.26926874444E-01 -0.11556940387E+00 -0.58802371585E-01  0.13375960695E+00  0.18776843918E-01 0.  0.
         14    1    1    2    0    0 -0.27985459070E-02  0.20059806434E-01 -0.84669387331E-02  0.21952602235E-01  0.00000000000E+00 0.  1.
     999901    1    3    3    0    0  0.29725420351E-01  0.95509597437E-01  0.67269310318E-01  0.88821779082E+00  0.88000000000E+00 0. -1.
        -11    1    4    4    0    0 -0.26097556839E-01 -0.99678924374E-01 -0.56953060168E-01  0.11773224971E+00  0.51100000000E-03 0. -1.
         11    1    4    4    0    0 -0.82931760598E-03 -0.15890479498E-01 -0.18493114167E-02  0.16027357239E-01  0.51100000000E-03 0.  1.
</event>
<event>
 8    1  0.1118868E+005  0.1043930E+01  0.7957747E-01            NaN
         13   -1    0    0    0    0  0.00000000000E+00  0.00000000000E+00  0.74505805969E-08  0.10566000000E+00  0.10566000000E+00 0. -1.
     999900   -1    0    0    0    0 -0.00000000000E+00 -0.00000000000E+00 -0.74505805969E-08  0.93827000000E+00  0.93827000000E+00 0. -1.
     999902    2    1    2    0    0 -0.14232277084E-02 -0.39423026756E-02 -0.23088345208E-01  0.10204643014E+01  0.10201944674E+01 0.  0.
     999903    2    3    3    0    0  0.91727749998E-01 -0.68615643441E-01  0.56833290259E-01  0.12959550437E+00  0.21044838511E-01 0.  0.
         14    1    1    2    0    0  0.14232277084E-02  0.39423026756E-02  0.23088345208E-01  0.23465698625E-01  0.00000000000E+00 0. -1.
     999901    1    3    3    0    0 -0.93150977706E-01  0.64673340765E-01 -0.79921635467E-01  0.89086879700E+00  0.88000000000E+00 0. -1.
        -11    1    4    4    0    0  0.65596178822E-01 -0.36719165378E-01  0.34776986733E-01  0.82830282562E-01  0.51100000000E-03 0. -1.
         11    1    4    4    0    0  0.26131571176E-01 -0.31896478063E-01  0.22056303526E-01  0.46765221812E-01  0.51100000000E-03 0.  1.
</event>
<event>
 8    1  0.1118868E+005  0.1043930E+01  0.7957747E-01            NaN
         13   -1    0    0    0    0  0.00000000000E+00  0.00000000000E+00  0.74505805969E-08  0.10566000000E+00  0.10566000000E+00 0. -1.
     999900   -1    0    0    0    0 -0.00000000000E+00 -0.00000000000E+00 -0.74505805969E-08  0.93827000000E+00  0.93827000000E+00 0.  1.
     999902    2    1    2    0    0  0.55443639471E-02  0.20092152914E-02 -0.23113849266E-01  0.10200757143E+01  0.10197967621E+01 0.  0.
     999903    2    3    3    0    0  0.12666833738E+00 -0.10766801618E-01 -0.27810310880E-01  0.13167473486E+00  0.20100514861E-01 0.  0.
         14    1    1    2    0    0 -0.55443639471E-02 -0.20092152914E-02  0.23113849266E-01  0.23854285685E-01  0.00000000000E+00 0. -1.
     999901    1    3    3    0    0 -0.12112397343E+00  0.12776016910E-01  0.46964616135E-02  0.88840097946E+00  0.88000000000E+00 0. -1.
        -11    1    4    4    0    0  0.39079826352E-01 -0.12191020446E-01 -0.57885255682E-02  0.41347574977E-01  0.51100000000E-03 0.  1.
         11    1    4    4    0    0  0.87588511026E-01  0.14242188274E-02 -0.22021785311E-01  0.90327159882E-01  0.51100000000E-03 0. -1.
</event>
<event>
 8    1  0.1118868E+005  0.1043930E+01  0.7957747E-01            NaN
         13   -1    0    0    0    0  0.00000000000E+00  0.00000000000E+00  0.74505805969E-08  0.10566000000E+00  0.10566000000E+00 0.  1.
     999900   -1    0    0    0    0 -0.00000000000E+00 -0.00000000000E+00 -0.74505805969E-08  0.93827000000E+00  0.93827000000E+00 0.  1.
     999902    2    1    2    0    0 -0.97446034107E-02  0.21380569005E-01 -0.81072188151E-02  0.10190741551E+01  0.10187709854E+01 0.  0.
     999903    2    3    3    0    0 -0.10357017834E+00 -0.27181080049E-02 -0.77674525236E-01  0.13102933934E+00  0.20029626701E-01 0.  0.
         14    1    1    2    0    0  0.97446034107E-02 -0.21380569005E-01  0.81072188151E-02  0.24855844857E-01  0.00000000000E+00 0.  1.
     999901    1    3    3    0    0  0.93825574930E-01  0.24098677010E-01  0.69567306421E-01  0.88804481580E+00  0.88000000000E+00 0.  1.
        -11    1    4    4    0    0 -0.76817610036E-01  0.45874844715E-02 -0.49549995867E-01  0.91528429665E-01  0.51100000000E-03 0.  1.
         11    1    4    4    0    0 -0.26752568305E-01 -0.73055924764E-02 -0.28124529369E-01  0.39500909680E-01  0.51100000000E-03 0. -1.
</event>
<event>
 8    1  0.1118868E+005  0.1043930E+01  0.7957747E-01            NaN
         13   -1    0    0    0    0  0.00000000000E+00  0.00000000000E+00  0.74505805969E-08  0.10566000000E+00  0.10566000000E+00 0.  1.
     999900   -1    0    0    0    0 -0.00000000000E+00 -0.00000000000E+00 -0.74505805969E-08  0.93827000000E+00  0.93827000000E+00 0.  1.
     999902    2    1    2    0    0  0.21632780037E-02  0.48895300883E-02  0.23182131744E-01  0.10201392768E+01  0.10198618267E+01 0.  0.
     999903    2    3    3    0    0  0.58087363542E-01 -0.77823681478E-01 -0.81522655054E-01  0.12832535506E+00  0.19768314580E-01 0.  0.
         14    1    1    2    0    0 -0.21632780037E-02 -0.48895300883E-02 -0.23182131744E-01  0.23790723158E-01  0.00000000000E+00 0. -1.
     999901    1    3    3    0    0 -0.55924085538E-01  0.82713211566E-01  0.10470478680E+00  0.89181392178E+00  0.88000000000E+00 0. -1.
        -11    1    4    4    0    0  0.82602615809E-02 -0.73236168386E-02 -0.25951232908E-02  0.11351787123E-01  0.51100000000E-03 0. -1.
         11    1    4    4    0    0  0.49827101961E-01 -0.70500064639E-01 -0.78927531763E-01  0.11697356793E+00  0.51100000000E-03 0.  1.
</event>
<event>
 8    1  0.1118868E+005  0.1043930E+01  0.7957747E-01            NaN
         13   -1    0    0    0    0  0.00000000000E+00  0.00000000000E+00  0.74505805969E-08  0.10566000000E+00  0.10566000000E+00 0.  1.
     999900   -1    0    0    0    0 -0.00000000000E+00 -0.00000000000E+00 -0.74505805969E-08  0.93827000000E+00  0.93827000000E+00 0. -1.
     999902    2    1    2    0    0  0.22367339931E-02 -0.10550121428E-01  0.14681462739E-01  0.10257131564E+01  0.10255513765E+01 0.  0.
     999903    2    3    3    0    0 -0.30300294282E-02 -0.13517574100E+00 -0.30709781327E-02  0.13673934749E+00  0.20163239136E-01 0.  0.
         14    1    1    2    0    0 -0.22367339931E-02  0.10550121428E-01 -0.14681462739E-01  0.18216843559E-01  0.00000000000E+00 0. -1.
     999901    1    3    3    0    0  0.52667634213E-02  0.12462561957E+00  0.17752440872E-01  0.88897380895E+00  0.88000000000E+00 0.  1.
        -11    1    4    4    0    0  0.38994868994E-02 -0.49148787058E-01  0.71787783809E-02  0.49825748840E-01  0.51100000000E-03 0. -1.
         11    1    4    4    0    0 -0.69295163276E-02 -0.86026953937E-01 -0.10249756514E-01  0.86913598647E-01  0.51100000000E-03 0.  1.
</event>
<event>
 8    1  0.1118868E+005  0.1043930E+01  0.7957747E-01            NaN
         13   -1    0    0    0    0  0.00000000000E+00  0.00000000000E+00  0.74505805969E-08  0.10566000000E+00  0.10566000000E+00 0. -1.
     999900   -1    0    0    0    0 -0.00000000000E+00 -0.00000000000E+00 -0.74505805969E-08  0.93827000000E+00  0.93827000000E+00 0.  1.
     999902    2    1    2    0    0 -0.22466215668E-01 -0.75251025364E-02  0.30925200821E-03  0.10202349868E+01  0.10199597907E+01 0.  0.
     999903    2    3    3    0    0  0.77820717207E-01  0.75181052219E-01 -0.65832453628E-01  0.12823022101E+00  0.20020564165E-01 0.  0.
         14    1    1    2    0    0  0.22466215668E-01  0.75251025364E-02 -0.30925200821E-03  0.23695013219E-01  0.00000000000E+00 0. -1.
     999901    1    3    3    0    0 -0.10028693288E+00 -0.82706154755E-01  0.66141705636E-01  0.89200476577E+00  0.88000000000E+00 0.  1.
        -11    1    4    4    0    0  0.63533205534E-02  0.63619647656E-02 -0.13026448907E-01  0.15836311751E-01  0.51100000000E-03 0.  1.
         11    1    4    4    0    0  0.71467396654E-01  0.68819087453E-01 -0.52806004721E-01  0.11239390926E+00  0.51100000000E-03 0. -1.
</event>
<event>
 8    1  0.1118868E+005  0.1043930E+01  0.7957747E-01            NaN
         13   -1    0    0    0    0  0.00000000000E+00  0.00000000000E+00  0.74505805969E-08  0.10566000000E+00  0.10566000000E+00 0. -1.
     999900   -1    0    0    0    0 -0.00000000000E+00 -0.00000000000E+00 -0.74505805969E-08  0.93827000000E+00  0.93827000000E+00 0. -1.
     999902    2    1    2    0    0 -0.21258122102E-01 -0.56468886902E-02 -0.12489055756E-01  0.10186362929E+01  0.10183222110E+01 0.  0.
     999903    2    3    3    0    0  0.93329885395E-01 -0.84138375033E-01 -0.12560993072E-01  0.12774273577E+00  0.19253423953E-01 0.  0.
         14    1    1    2    0    0  0.21258122102E-01  0.56468886902E-02  0.12489055756E-01  0.25293707139E-01  0.00000000000E+00 0. -1.
     999901    1    3    3    0    0 -0.11458800750E+00  0.78491486343E-01  0.71937315930E-04  0.89089355709E+00  0.88000000000E+00 0.  1.
        -11    1    4    4    0    0  0.73479382519E-01 -0.75297088781E-01 -0.12942118134E-01  0.10600297532E+00  0.51100000000E-03 0.  1.
         11    1    4    4    0    0  0.19850502877E-01 -0.88412862522E-02  0.38112506189E-03  0.21739760448E-01  0.51100000000E-03 0. -1.
</event>
<event>
 8    1  0.1118868E+005  0.1043930E+01  0.7957747E-01            NaN
         13   -1    0    0    0    0  0.00000000000E+00  0.00000000000E+00  0.74505805969E-08  0.10566000000E+00  0.10566000000E+00 0. -1.
     999900   -1    0    0    0    0 -0.00000000000E+00 -0.00000000000E+00 -0.74505805969E-08  0.93827000000E+00  0.93827000000E+00 0.  1.
     999902    2    1    2    0    0  0.19921194705E-01  0.68308805777E-02 -0.11161775081E-01  0.10200951484E+01  0.10198166559E+01 0.  0.
     999903    2    3    3    0    0 -0.58945947269E-02  0.54578567020E-01 -0.11817823595E+00  0.13195168057E+00  0.20774607806E-01 0.  0.
         14    1    1    2    0    0 -0.19921194705E-01 -0.68308805777E-02  0.11161775081E-01  0.23834851602E-01  0.00000000000E+00 0.  1.
     999901    1    3    3    0    0  0.25815789432E-01 -0.47747686442E-01  0.10701646087E+00  0.88814346783E+00  0.88000000000E+00 0. -1.
        -11    1    4    4    0    0 -0.57574968350E-02  0.23884253749E-01 -0.31203100575E-01  0.39717766219E-01  0.51100000000E-03 0.  1.
         11    1    4    4    0    0 -0.13709789183E-03  0.30694313271E-01 -0.86975135372E-01  0.92233914353E-01  0.51100000000E-03 0. -1.
</event>
<event>
 8    1  0.1118868E+005  0.1043930E+01  0.7957747E-01            NaN
         13   -1    0    0    0    0  0.00000000000E+00  0.00000000000E+00  0.74505805969E-08  0.10566000000E+00  0.10566000000E+00 0. -1.
     999900   -1    0    0    0    0 -0.00000000000E+00 -0.00000000000E+00 -0.74505805969E-08  0.93827000000E+00  0.93827000000E+00 0. -1.
     999902    2    1    2    0    0 -0.54712857883E-02  0.16659453428E-02 -0.22837128293E-01  0.10203875963E+01  0.10201159748E+01 0.  0.
     999903    2    3    3    0    0 -0.91205367713E-01  0.92057561771E-01  0.17830943522E-03  0.13131465922E+00  0.21224847531E-01 0.  0.
         14    1    1    2    0    0  0.54712857883E-02 -0.16659453428E-02  0.22837128293E-01  0.23542403673E-01  0.00000000000E+00 0. -1.
     999901    1    3    3    0    0  0.85734081925E-01 -0.90391616428E-01 -0.23015437728E-01  0.88907293711E+00  0.88000000000E+00 0.  1.
        -11    1    4    4    0    0 -0.12736215235E-01  0.13943728635E-01 -0.75006835677E-02  0.20326340589E-01  0.51100000000E-03 0. -1.
         11    1    4    4    0    0 -0.78469152478E-01  0.78113833135E-01  0.76789930029E-02  0.11098831863E+00  0.51100000000E-03 0.  1.
</event>
<event>
 8    1  0.1118868E+005  0.1043930E+01  0.7957747E-01            NaN
         13   -1    0    0    0    0  0.00000000000E+00  0.00000000000E+00  0.74505805969E-08  0.10566000000E+00  0.10566000000E+00 0.  1.
     999900   -1    0    0    0    0 -0.00000000000E+00 -0.00000000000E+00 -0.74505805969E-08  0.93827000000E+00  0.93827000000E+00 0.  1.
     999902    2    1    2    0    0  0.64910049130E-02  0.10792049000E-01 -0.20327902523E-01  0.10200171355E+01  0.10197367953E+01 0.  0.
     999903    2    3    3    0    0 -0.10952273883E-01  0.42349882297E-01  0.11887044504E+00  0.12834659952E+00  0.20717192657E-01 0.  0.
         14    1    1    2    0    0 -0.64910049130E-02 -0.10792049000E-01  0.20327902523E-01  0.23912864475E-01  0.00000000000E+00 0.  1.
     999901    1    3    3    0    0  0.17443278796E-01 -0.31557833297E-01 -0.13919834756E+00  0.89167053601E+00  0.88000000000E+00 0.  1.
        -11    1    4    4    0    0  0.27356195045E-02  0.29005451328E-01  0.76459292787E-01  0.81823495374E-01  0.51100000000E-03 0. -1.
         11    1    4    4    0    0 -0.13687893388E-01  0.13344430969E-01  0.42411152249E-01  0.46523104146E-01  0.51100000000E-03 0.  1.
</event>
<event>
 8    1  0.1118868E+005  0.1043930E+01  0.7957747E-01            NaN
         13   -1    0    0    0    0  0.00000000000E+00  0.00000000000E+00  0.74505805969E-08  0.10566000000E+00  0.10566000000E+00 0.  1.
     999900   -1    0    0    0    0 -0.00000000000E+00 -0.00000000000E+00 -0.74505805969E-08  0.93827000000E+00  0.93827000000E+00 0. -1.
     999902    2    1    2    0    0  0.18023740075E-01 -0.70261168220E-02  0.14808708549E-01  0.10195677470E+01  0.10192766412E+01 0.  0.
     999903    2    3    3    0    0  0.12105528900E+00 -0.67621280273E-02 -0.46643854860E-01  0.13142812545E+00  0.19939749060E-01 0.  0.
         14    1    1    2    0    0 -0.18023740075E-01  0.70261168220E-02 -0.14808708549E-01  0.24362253032E-01  0.00000000000E+00 0. -1.
     999901    1    3    3    0    0 -0.10303154892E+00 -0.26398879468E-03  0.61452563409E-01  0.88813962152E+00  0.88000000000E+00 0. -1.
        -11    1    4    4    0    0  0.56218275965E-01 -0.12296878743E-01 -0.26063193807E-01  0.63176411514E-01  0.51100000000E-03 0.  1.
         11    1    4    4    0    0  0.64837013034E-01  0.55347507162E-02 -0.20580661053E-01  0.68251713935E-01  0.51100000000E-03 0. -1.
</event>
<event>
 8    1  0.1118868E+005  0.1043930E+01  0.7957747E-01            NaN
         13   -1    0    0    0    0  0.00000000000E+00  0.00000000000E+00  0.74505805969E-08  0.10566000000E+00  0.10566000000E+00 0.  1.
     999900   -1    0    0    0    0 -0.00000000000E+00 -0.00000000000E+00 -0.74505805969E-08  0.93827000000E+00  0.93827000000E+00 0. -1.
     999902    2    1    2    0    0 -0.40431295515E-03 -0.16436585412E-01  0.16071264634E-01  0.10209384721E+01  0.10206795547E+01 0.  0.
     999903    2    3    3    0    0  0.52541537911E-01 -0.51893452142E-01 -0.10312802122E+00  0.13061891020E+00  0.31182805536E-01 0.  0.
         14    1    1    2    0    0  0.40431295515E-03  0.16436585412E-01 -0.16071264634E-01  0.22991527916E-01  0.00000000000E+00 0. -1.
     999901    1    3    3    0    0 -0.52945850866E-01  0.35456866730E-01  0.11919928585E+00  0.89031956188E+00  0.88000000000E+00 0.  1.
        -11    1    4    4    0    0  0.49420787764E-01 -0.44731402201E-01 -0.10312011061E+00  0.12278978353E+00  0.51100000000E-03 0.  1.
         11    1    4    4    0    0  0.31207501467E-02 -0.71620499418E-02 -0.79106041331E-05  0.78291266706E-02  0.51100000000E-03 0. -1.
</event>
<event>
 8    1  0.1118868E+005  0.1043930E+01  0.7957747E-01            NaN
         13   -1    0    0    0    0  0.00000000000E+00  0.00000000000E+00  0.74505805969E-08  0.10566000000E+00  0.10566000000E+00 0.  1.
     999900   -1    0    0    0    0 -0.00000000000E+00 -0.00000000000E+00 -0.74505805969E-08  0.93827000000E+00  0.93827000000E+00 0. -1.
     999902    2    1    2    0    0 -0.13046330981E-01 -0.19525291717E-01  0.31401485929E-02  0.10202381385E+01  0.10199630164E+01 0.  0.
     999903    2    3    3    0    0  0.28309398762E-01 -0.12714545457E+00  0.15036676591E-01  0.13263804655E+00  0.19984020402E-01 0.  0.
         14    1    1    2    0    0  0.13046330981E-01  0.19525291717E-01 -0.31401485929E-02  0.23691861512E-01  0.00000000000E+00 0. -1.
     999901    1    3    3    0    0 -0.41355729744E-01  0.10762016286E+00 -0.11896527998E-01  0.88760009194E+00  0.88000000000E+00 0. -1.
        -11    1    4    4    0    0  0.71232244183E-02 -0.55077451877E-01  0.14962373331E-01  0.57518690598E-01  0.51100000000E-03 0.  1.
         11    1    4    4    0    0  0.21186174344E-01 -0.72068002697E-01  0.74303260087E-04  0.75119355948E-01  0.51100000000E-03 0. -1.
</event>
<event>
 8    1  0.1118868E+005  0.1043930E+01  0.7957747E-01            NaN
         13   -1    0    0    0    0  0.00000000000E+00  0.00000000000E+00  0.74505805969E-08  0.10566000000E+00  0.10566000000E+00 0. -1.
     999900   -1    0    0    0    0 -0.00000000000E+00 -0.00000000000E+00 -0.74505805969E-08  0.93827000000E+00  0.93827000000E+00 0. -1.
     999902    2    1    2    0    0 -0.91170909571E-02 -0.18641427848E-01  0.11001651597E-01  0.10204425455E+01  0.10201722052E+01 0.  0.
     999903    2    3    3    0    0 -0.40261954770E-01 -0.58373844501E-01  0.11113747449E+00  0.13332595201E+00  0.19893227966E-01 0.  0.
         14    1    1    2    0    0  0.91170909571E-02  0.18641427848E-01 -0.11001651597E-01  0.23487454472E-01  0.00000000000E+00 0. -1.
     999901    1    3    3    0    0  0.31144863813E-01  0.39732416653E-01 -0.10013582289E+00  0.88711659352E+00  0.88000000000E+00 0. -1.
        -11    1    4    4    0    0 -0.17328061209E-01 -0.10226764427E-01  0.26311629606E-01  0.33127200145E-01  0.51100000000E-03 0.  1.
         11    1    4    4    0    0 -0.22933893562E-01 -0.48147080074E-01  0.84825844882E-01  0.10019875186E+00  0.51100000000E-03 0. -1.
</event>
<event>
 8    1  0.1118868E+005  0.1043930E+01  0.7957747E-01            NaN
         13   -1    0    0    0    0  0.00000000000E+00  0.00000000000E+00  0.74505805969E-08  0.10566000000E+00  0.10566000000E+00 0. -1.
     999900   -1    0    0    0    0 -0.00000000000E+00 -0.00000000000E+00 -0.74505805969E-08  0.93827000000E+00  0.93827000000E+00 0. -1.
     999902    2    1    2    0    0  0.25350374242E-02 -0.57697300346E-02 -0.22580637620E-01  0.10204864210E+01  0.10202171015E+01 0.  0.
     999903    2    3    3    0    0 -0.35220730719E-01 -0.11323236374E+00 -0.55860743797E-01  0.13252173641E+00  0.19481269323E-01 0.  0.
         14    1    1    2    0    0 -0.25350374242E-02  0.57697300346E-02  0.22580637620E-01  0.23443578966E-01  0.00000000000E+00 0. -1.
     999901    1    3    3    0    0  0.37755768143E-01  0.10746263370E+00  0.33280106177E-01  0.88796468462E+00  0.88000000000E+00 0.  1.
        -11    1    4    4    0    0 -0.24923902254E-03 -0.28497178735E-01 -0.13441167132E-01  0.31513130768E-01  0.51100000000E-03 0.  1.
         11    1    4    4    0    0 -0.34971491696E-01 -0.84735185001E-01 -0.42419576665E-01  0.10100860564E+00  0.51100000000E-03 0. -1.
</event>
<event>
 8    1  0.1118868E+005  0.1043930E+01  0.7957747E-01            NaN
         13   -1    0    0    0    0  0.00000000000E+00  0.00000000000E+00  0.74505805969E-08  0.10566000000E+00  0.10566000000E+00 0. -1.
     999900   -1    0    0    0    0 -0.00000000000E+00 -0.00000000000E+00 -0.74505805969E-08  0.93827000000E+00  0.93827000000E+00 0. -1.
     999902    2    1    2    0    0 -0.16072403901E-01 -0.82040572483E-02  0.15656574689E-01  0.10200394777E+01  0.10197596673E+01 0.  0.
     999903    2    3    3    0    0 -0.87602435260E-01 -0.86349545135E-01 -0.42903695567E-01  0.13175316810E+00  0.19691104627E-01 0.  0.
         14    1    1    2    0    0  0.16072403901E-01  0.82040572483E-02 -0.15656574689E-01  0.23890522252E-01  0.00000000000E+00 0.  1.
     999901    1    3    3    0    0  0.71530031360E-01  0.78145487886E-01  0.58560270256E-01  0.88828630965E+00  0.88000000000E+00 0. -1.
        -11    1    4    4    0    0 -0.73695459731E-01 -0.73851565333E-01 -0.43502435023E-01  0.11303892012E+00  0.51100000000E-03 0. -1.
         11    1    4    4    0    0 -0.13906975530E-01 -0.12497979802E-01  0.59873945624E-03  0.18714247980E-01  0.51100000000E-03 0.  1.
</event>
<event>
 8    1  0.1118868E+005  0.1043930E+01  0.7957747E-01            NaN
         13   -1    0    0    0    0  0.00000000000E+00  0.00000000000E+00  0.74505805969E-08  0.10566000000E+00  0.10566000000E+00 0. -1.
     999900   -1    0    0    0    0 -0.00000000000E+00 -0.00000000000E+00 -0.74505805969E-08  0.93827000000E+00  0.93827000000E+00 0. -1.
     999902    2    1    2    0    0 -0.22734587389E-02  0.11898694142E-01  0.11416485133E-01  0.10272841696E+01  0.10271492985E+01 0.  0.
     999903    2    3    3    0    0  0.11449730877E-02 -0.10448689692E+00  0.85566734457E-01  0.13652294965E+00  0.19950617689E-01 0.  0.
         14    1    1    2    0    0  0.22734587389E-02 -0.11898694142E-01 -0.11416485133E-01  0.16645830401E-01  0.00000000000E+00 0.  1.
     999901    1    3    3    0    0 -0.34184318266E-02  0.11638559106E+00 -0.74150249324E-01  0.89076121994E+00  0.88000000000E+00 0.  1.
        -11    1    4    4    0    0  0.65428588827E-02 -0.72945222328E-01  0.50016559462E-01  0.88688961006E-01  0.51100000000E-03 0. -1.
         11    1    4    4    0    0 -0.53978857949E-02 -0.31541674588E-01  0.35550174995E-01  0.47833988649E-01  0.51100000000E-03 0.  1.
</event>
<event>
 8    1  0.1118868E+005  0.1043930E+01  0.7957747E-01            NaN
         13   -1    0    0    0    0  0.00000000000E+00  0.00000000000E+00  0.74505805969E-08  0.10566000000E+00  0.10566000000E+00 0. -1.
     999900   -1    0    0    0    0 -0.00000000000E+00 -0.00000000000E+00 -0.74505805969E-08  0.93827000000E+00  0.93827000000E+00 0.  1.
     999902    2    1    2    0    0 -0.34111718977E-02  0.23500774227E-01  0.28190726530E-02  0.10200162037E+01  0.10197358414E+01 0.  0.
     999903    2    3    3    0    0 -0.86304238752E-02  0.94815119828E-01  0.89407789682E-01  0.13288003467E+00  0.24473651007E-01 0.  0.
         14    1    1    2    0    0  0.34111718977E-02 -0.23500774227E-01 -0.28190726530E-02  0.23913796303E-01  0.00000000000E+00 0. -1.
     999901    1    3    3    0    0  0.52192519775E-02 -0.71314345601E-01 -0.86588717029E-01  0.88713616903E+00  0.88000000000E+00 0.  1.
        -11    1    4    4    0    0  0.50314790303E-02  0.67585044421E-01  0.59530358960E-01  0.90206312249E-01  0.51100000000E-03 0.  1.
         11    1    4    4    0    0 -0.13661902905E-01  0.27230075408E-01  0.29877430722E-01  0.42673722421E-01  0.51100000000E-03 0. -1.
</event>
<event>
 8    1  0.1568730E+005  0.1043930E+01  0.7957747E-01            NaN
         13   -1    0    0    0    0  0.00000000000E+00  0.00000000000E+00  0.74505805969E-08  0.10566000000E+00  0.10566000000E+00 0. -1.
     999900   -1    0    0    0    0 -0.00000000000E+00 -0.00000000000E+00 -0.74505805969E-08  0.93827000000E+00  0.93827000000E+00 0. -1.
     999902    2    1    2    0    0  0.17898822934E-01 -0.78386739718E-02  0.13799057909E-01  0.10200087402E+01  0.10197282007E+01 0.  0.
     999903    2    3    3    0    0  0.23260667163E-01 -0.11163630148E+00 -0.60892657891E-01  0.13074975133E+00  0.19592326110E-01 0.  0.
         14    1    1    2    0    0 -0.17898822934E-01  0.78386739718E-02 -0.13799057909E-01  0.23921259817E-01  0.00000000000E+00 0.  1.
     999901    1    3    3    0    0 -0.53618442294E-02  0.10379762751E+00  0.74691715800E-01  0.88925898885E+00  0.88000000000E+00 0.  1.
        -11    1    4    4    0    0  0.15821049557E-01 -0.52399972650E-01 -0.19533049340E-01  0.58119393324E-01  0.51100000000E-03 0.  1.
         11    1    4    4    0    0  0.74396176057E-02 -0.59236328830E-01 -0.41359608551E-01  0.72630358005E-01  0.51100000000E-03 0. -1.
</event>
<event>
 8    1  0.1118868E+005  0.1043930E+01  0.7957747E-01            NaN
         13   -1    0    0    0    0  0.00000000000E+00  0.00000000000E+00  0.74505805969E-08  0.10566000000E+00  0.10566000000E+00 0.  1.
     999900   -1    0    0    0    0 -0.00000000000E+00 -0.00000000000E+00 -0.74505805969E-08  0.93827000000E+00  0.93827000000E+00 0. -1.
     999902    2    1    2    0    0  0.18808501842E-01  0.85057664991E-02 -0.12946626605E-01  0.10195635693E+01  0.10192723625E+01 0.  0.
     999903    2    3    3    0    0 -0.10536858539E+00 -0.45621752613E-01 -0.53635368604E-01  0.12826939167E+00  0.19809113485E-01 0.  0.
         14    1    1    2    0    0 -0.18808501842E-01 -0.85057664991E-02  0.12946626605E-01  0.24366430714E-01  0.00000000000E+00 0.  1.
     999901    1    3    3    0    0  0.12417708723E+00  0.54127519112E-01  0.40688741999E-01  0.89129417761E+00  0.88000000000E+00 0. -1.
        -11    1    4    4    0    0 -0.41726539449E-01 -0.19094464065E-01 -0.32208724306E-01  0.56065726561E-01  0.51100000000E-03 0. -1.
         11    1    4    4    0    0 -0.63642045939E-01 -0.26527288549E-01 -0.21426644298E-01  0.72203665114E-01  0.51100000000E-03 0.  1.
</event>
<event>
 8    1  0.1118868E+005  0.1043930E+01  0.7957747E-01            NaN
         13   -1    0    0    0    0  0.00000000000E+00  0.00000000000E+00  0.74505805969E-08  0.10566000000E+00  0.10566000000E+00 0.  1.
     999900   -1    0    0    0    0 -0.00000000000E+00 -0.00000000000E+00 -0.74505805969E-08  0.93827000000E+00  0.93827000000E+00 0.  1.
     999902    2    1    2    0    0 -0.23687360005E-01 -0.27511130450E-02  0.57612854010E-03  0.10200764558E+01  0.10197975211E+01 0.  0.
     999903    2    3    3    0    0  0.55281471105E-01 -0.20684810703E-01 -0.11313817117E+00  0.12907217087E+00  0.19377230862E-01 0.  0.
         14    1    1    2    0    0  0.23687360005E-01  0.27511130450E-02 -0.57612854010E-03  0.23853544204E-01  0.00000000000E+00 0. -1.
     999901    1    3    3    0    0 -0.78968831110E-01  0.17933697658E-01  0.11371429971E+00  0.89100428493E+00  0.88000000000E+00 0. -1.
        -11    1    4    4    0    0  0.28965724555E-01 -0.74542107249E-02 -0.37973109792E-01  0.48340424541E-01  0.51100000000E-03 0.  1.
         11    1    4    4    0    0  0.26315746550E-01 -0.13230599978E-01 -0.75165061378E-01  0.80731746329E-01  0.51100000000E-03 0. -1.
</event>
<event>
 7    1  0.1118868E+005  0.1043930E+01  0.7957747E-01            NaN
         13   -1    0    0    0    0  0.00000000000E+00  0.00000000000E+00  0.74505805969E-08  0.10566000000E+00  0.10566000000E+00 0. -1.
     999900   -1    0    0    0    0 -0.00000000000E+00 -0.00000000000E+00 -0.74505805969E-08  0.93827000000E+00  0.93827000000E+00 0. -1.
     999903    2    1    2    0    0  0.41694831302E-01  0.65337176762E-01 -0.37276044528E-01  0.88148126933E-01  0.19317949208E-01 0.  0.
         14    1    1    2    0    0 -0.50399312535E-01  0.30367189697E-01 -0.33528520447E-01  0.67723102391E-01  0.00000000000E+00 0.  1.
     999901    1    1    2    0    0  0.87044812330E-02 -0.95704366459E-01  0.70804564975E-01  0.88805877068E+00  0.88000000000E+00 0.  1.
        -11    1    3    3    0    0  0.24901758430E-01  0.40093235598E-01 -0.32843133762E-01  0.57502153611E-01  0.51100000000E-03 0. -1.
         11    1    3    3    0    0  0.16793072872E-01  0.25243941164E-01 -0.44329107661E-02  0.30645973322E-01  0.51100000000E-03 0.  1.
</event>
<event>
 8    1  0.1118868E+005  0.1043930E+01  0.7957747E-01            NaN
         13   -1    0    0    0    0  0.00000000000E+00  0.00000000000E+00  0.74505805969E-08  0.10566000000E+00  0.10566000000E+00 0. -1.
     999900   -1    0    0    0    0 -0.00000000000E+00 -0.00000000000E+00 -0.74505805969E-08  0.93827000000E+00  0.93827000000E+00 0.  1.
     999902    2    1    2    0    0 -0.21006141092E-01  0.14380561149E-02  0.10611317873E-01  0.10203519162E+01  0.10200794610E+01 0.  0.
     999903    2    3    3    0    0  0.91416701293E-01  0.86599423998E-01 -0.17372219676E-01  0.12868245252E+00  0.20022638655E-01 0.  0.
         14    1    1    2    0    0  0.21006141092E-01 -0.14380561149E-02 -0.10611317873E-01  0.23578083806E-01  0.00000000000E+00 0. -1.
     999901    1    3    3    0    0 -0.11242284239E+00 -0.85161367883E-01  0.27983537548E-01  0.89166946367E+00  0.88000000000E+00 0. -1.
        -11    1    4    4    0    0  0.17611803582E-01  0.10611253214E-01 -0.89037408823E-02  0.22412318998E-01  0.51100000000E-03 0. -1.
         11    1    4    4    0    0  0.73804897711E-01  0.75988170784E-01 -0.84684787933E-02  0.10627013352E+00  0.51100000000E-03 0.  1.
</event>
<event>
 8    1  0.1118868E+005  0.1043930E+01  0.7957747E-01            NaN
         13   -1    0    0    0    0  0.00000000000E+00  0.00000000000E+00  0.74505805969E-08  0.10566000000E+00  0.10566000000E+00 0. -1.
     999900   -1    0    0    0    0 -0.00000000000E+00 -0.00000000000E+00 -0.74505805969E-08  0.93827000000E+00  0.93827000000E+00 0. -1.
     999902    2    1    2    0    0 -0.21497654775E-01  0.72791764219E-02  0.70505335909E-02  0.10201635195E+01  0.10198866412E+01 0.  0.
     999903    2    3    3    0    0  0.72662932713E-01 -0.93303008054E-01  0.46496877308E-01  0.12856999885E+00  0.19568645936E-01 0.  0.
         14    1    1    2    0    0  0.21497654775E-01 -0.72791764219E-02 -0.70505335909E-02  0.23766480474E-01  0.00000000000E+00 0.  1.
     999901    1    3    3    0    0 -0.94160587488E-01  0.10058218448E+00 -0.39446343717E-01  0.89159352067E+00  0.88000000000E+00 0. -1.
        -11    1    4    4    0    0  0.23480232895E-01 -0.44472646736E-01  0.15337670717E-01  0.52579871705E-01  0.51100000000E-03 0. -1.
         11    1    4    4    0    0  0.49182699818E-01 -0.48830361317E-01  0.31159206591E-01  0.75990127149E-01  0.51100000000E-03 0.  1.
</event>
<event>
 8    1  0.1118868E+005  0.1043930E+01  0.7957747E-01            NaN
         13   -1    0    0    0    0  0.00000000000E+00  0.00000000000E+00  0.74505805969E-08  0.10566000000E+00  0.10566000000E+00 0.  1.
     999900   -1    0    0    0    0 -0.00000000000E+00 -0.00000000000E+00 -0.74505805969E-08  0.93827000000E+00  0.93827000000E+00 0. -1.
     999902    2    1    2    0    0  0.19459392737E-01  0.17667805938E-02  0.65735243095E-02  0.10233144549E+01  0.10231067749E+01 0.  0.
     999903    2    3    3    0    0  0.51759271022E-02 -0.12959232580E+00  0.22630343248E-01  0.13330487421E+00  0.20906839171E-01 0.  0.
         14    1    1    2    0    0 -0.19459392737E-01 -0.17667805938E-02 -0.65735243095E-02  0.20615545135E-01  0.00000000000E+00 0. -1.
     999901    1    3    3    0    0  0.14283465635E-01  0.13135910640E+00 -0.16056818938E-01  0.89000958066E+00  0.88000000000E+00 0. -1.
        -11    1    4    4    0    0 -0.13448767887E-03 -0.10741334030E+00  0.25252475228E-01  0.11034306678E+00  0.51100000000E-03 0. -1.
         11    1    4    4    0    0  0.53104147811E-02 -0.22178985507E-01 -0.26221319803E-02  0.22961807428E-01  0.51100000000E-03 0.  1.
</event>
<event>
 8    1  0.1118868E+005  0.1043930E+01  0.7957747E-01            NaN
         13   -1    0    0    0    0  0.00000000000E+00  0.00000000000E+00  0.74505805969E-08  0.10566000000E+00  0.10566000000E+00 0. -1.
     999900   -1    0    0    0    0 -0.00000000000E+00 -0.00000000000E+00 -0.74505805969E-08  0.93827000000E+00  0.93827000000E+00 0.  1.
     999902    2    1    2    0    0 -0.34154961439E-02  0.12388363972E-01  0.19767388832E-01  0.10203527475E+01  0.10200803118E+01 0.  0.
     999903    2    3    3    0    0 -0.25535948332E-01 -0.81094919002E-01 -0.93275971757E-01  0.12793623038E+00  0.20947591525E-01 0.  0.
         14    1    1    2    0    0  0.34154961439E-02 -0.12388363972E-01 -0.19767388832E-01  0.23577252534E-01  0.00000000000E+00 0.  1.
     999901    1    3    3    0    0  0.22120452188E-01  0.93483282973E-01  0.11304336059E+00  0.89241651709E+00  0.88000000000E+00 0. -1.
        -11    1    4    4    0    0 -0.12482604466E-01 -0.51413897776E-01 -0.43340377019E-01  0.68394836793E-01  0.51100000000E-03 0. -1.
         11    1    4    4    0    0 -0.13053343866E-01 -0.29681021226E-01 -0.49935594738E-01  0.59541393584E-01  0.51100000000E-03 0.  1.
</event>
<event>
 7    1  0.1118868E+005  0.1043930E+01  0.7957747E-01            NaN
         13   -1    0    0    0    0  0.00000000000E+00  0.00000000000E+00  0.74505805969E-08  0.10566000000E+00  0.10566000000E+00 0. -1.
     999900   -1    0    0    0    0 -0.00000000000E+00 -0.00000000000E+00 -0.74505805969E-08  0.93827000000E+00  0.93827000000E+00 0. -1.
     999903    2    1    2    0    0 -0.17486617626E-01 -0.39431275718E-01 -0.10268498349E+00  0.11327358366E+00  0.20641986842E-01 0.  0.
         14    1    1    2    0    0 -0.27105748440E-01 -0.24784907586E-01  0.23600659615E-01  0.43657810032E-01  0.00000000000E+00 0. -1.
     999901    1    1    2    0    0  0.44592366066E-01  0.64216183304E-01  0.79084323872E-01  0.88699860631E+00  0.88000000000E+00 0.  1.
        -11    1    3    3    0    0 -0.20765184317E-01 -0.24929947901E-01 -0.62463372678E-01  0.70389127210E-01  0.51100000000E-03 0. -1.
         11    1    3    3    0    0  0.32785666905E-02 -0.14501327817E-01 -0.40221610808E-01  0.42884456450E-01  0.51100000000E-03 0.  1.
</event>
<event>
 8    1  0.1118868E+005  0.1043930E+01  0.7957747E-01            NaN
         13   -1    0    0    0    0  0.00000000000E+00  0.00000000000E+00  0.74505805969E-08  0.10566000000E+00  0.10566000000E+00 0.  1.
     999900   -1    0    0    0    0 -0.00000000000E+00 -0.00000000000E+00 -0.74505805969E-08  0.93827000000E+00  0.93827000000E+00 0.  1.
     999902    2    1    2    0    0  0.14039294654E-01 -0.16797861229E-01 -0.10608311656E-01  0.10196029325E+01  0.10193126771E+01 0.  0.
     999903    2    3    3    0    0 -0.71142713930E-01  0.79142219227E-01 -0.68771419036E-01  0.12839957711E+00  0.20788619869E-01 0.  0.
         14    1    1    2    0    0 -0.14039294654E-01  0.16797861229E-01  0.10608311656E-01  0.24327067486E-01  0.00000000000E+00 0. -1.
     999901    1    3    3    0    0  0.85182008585E-01 -0.95940080456E-01  0.58163107380E-01  0.89120335540E+00  0.88000000000E+00 0. -1.
        -11    1    4    4    0    0 -0.68427244091E-01  0.70197460293E-01 -0.57141351204E-01  0.11346967130E+00  0.51100000000E-03 0.  1.
         11    1    4    4    0    0 -0.27154698394E-02  0.89447589340E-02 -0.11630067832E-01  0.14929905814E-01  0.51100000000E-03 0. -1.
</event>
<event>
 8    1  0.1118868E+005  0.1043930E+01  0.7957747E-01            NaN
         13   -1    0    0    0    0  0.00000000000E+00  0.00000000000E+00  0.74505805969E-08  0.10566000000E+00  0.10566000000E+00 0. -1.
     999900   -1    0    0    0    0 -0.00000000000E+00 -0.00000000000E+00 -0.74505805969E-08  0.93827000000E+00  0.93827000000E+00 0.  1.
     999902    2    1    2    0    0 -0.13443345573E-01 -0.16718323513E-01 -0.16677262416E-01  0.10167572754E+01  0.10163941165E+01 0.  0.
     999903    2    3    3    0    0  0.44463194104E-01 -0.56338420610E-01  0.10164045485E+00  0.12607102218E+00  0.20300918809E-01 0.  0.
         14    1    1    2    0    0  0.13443345573E-01  0.16718323513E-01  0.16677262416E-01  0.27172724614E-01  0.00000000000E+00 0. -1.
     999901    1    3    3    0    0 -0.57906539677E-01  0.39620097097E-01 -0.11831771727E+00  0.89068625321E+00  0.88000000000E+00 0. -1.
        -11    1    4    4    0    0  0.35188643303E-01 -0.29854230953E-01  0.69172447126E-01  0.83154099633E-01  0.51100000000E-03 0. -1.
         11    1    4    4    0    0  0.92745508018E-02 -0.26484189657E-01  0.32468007724E-01  0.42916922547E-01  0.51100000000E-03 0.  1.
</event>
<event>
 8    1  0.1118868E+005  0.1043930E+01  0.7957747E-01            NaN
         13   -1    0    0    0    0  0.00000000000E+00  0.00000000000E+00  0.74505805969E-08  0.10566000000E+00  0.10566000000E+00 0.  1.
     999900   -1    0    0    0    0 -0.00000000000E+00 -0.00000000000E+00 -0.74505805969E-08  0.93827000000E+00  0.93827000000E+00 0.  1.
     999902    2    1    2    0    0  0.18904943258E-02 -0.23667005652E-01  0.25933749076E-02  0.10200463923E+01  0.10197667457E+01 0.  0.
     999903    2    3    3    0    0 -0.62244547607E-01 -0.53446133185E-01  0.10102247154E+00  0.13173992087E+00  0.20469346242E-01 0.  0.
         14    1    1    2    0    0 -0.18904943258E-02  0.23667005652E-01 -0.25933749076E-02  0.23883607742E-01  0.00000000000E+00 0.  1.
     999901    1    3    3    0    0  0.64135041932E-01  0.29779127532E-01 -0.98429096636E-01  0.88830647139E+00  0.88000000000E+00 0.  1.
        -11    1    4    4    0    0 -0.16982218713E-01 -0.45577910586E-02  0.26147286419E-01  0.31513662432E-01  0.51100000000E-03 0.  1.
         11    1    4    4    0    0 -0.45262328893E-01 -0.48888342126E-01  0.74875185125E-01  0.10022625844E+00  0.51100000000E-03 0. -1.
</event>
<event>
 8    1  0.1118868E+005  0.1043930E+01  0.7957747E-01            NaN
         13   -1    0    0    0    0  0.00000000000E+00  0.00000000000E+00  0.74505805969E-08  0.10566000000E+00  0.10566000000E+00 0. -1.
     999900   -1    0    0    0    0 -0.00000000000E+00 -0.00000000000E+00 -0.74505805969E-08  0.93827000000E+00  0.93827000000E+00 0.  1.
     999902    2    1    2    0    0 -0.15275936652E-01  0.12815369674E-01 -0.14411080042E-01  0.10193278219E+01  0.10190308834E+01 0.  0.
     999903    2    3    3    0    0  0.18926484048E-01 -0.71317586926E-01  0.10185967308E+00  0.12704588885E+00  0.17912422258E-01 0.  0.
         14    1    1    2    0    0  0.15275936652E-01 -0.12815369674E-01  0.14411080042E-01  0.24602178124E-01  0.00000000000E+00 0. -1.
     999901    1    3    3    0    0 -0.34202420699E-01  0.84132956600E-01 -0.11627075312E+00  0.89228193302E+00  0.88000000000E+00 0.  1.
        -11    1    4    4    0    0 -0.11585354655E-02 -0.24693245590E-01  0.27186194811E-01  0.36748454274E-01  0.51100000000E-03 0. -1.
         11    1    4    4    0    0  0.20085019513E-01 -0.46624341336E-01  0.74673478269E-01  0.90297434579E-01  0.51100000000E-03 0.  1.
</event>
<event>
 8    1  0.1118868E+005  0.1043930E+01  0.7957747E-01            NaN
         13   -1    0    0    0    0  0.00000000000E+00  0.00000000000E+00  0.74505805969E-08  0.10566000000E+00  0.10566000000E+00 0.  1.
     999900   -1    0    0    0    0 -0.00000000000E+00 -0.00000000000E+00 -0.74505805969E-08  0.93827000000E+00  0.93827000000E+00 0. -1.
     999902    2    1    2    0    0  0.30599873234E-02  0.19386740879E-01 -0.17483426229E-01  0.10176454145E+01  0.10173059078E+01 0.  0.
     999903    2    3    3    0    0 -0.12809636611E-01 -0.48206468396E-01  0.11326120908E+00  0.12528066473E+00  0.19472880794E-01 0.  0.
         14    1    1    2    0    0 -0.30599873234E-02 -0.19386740879E-01  0.17483426229E-01  0.26284585541E-01  0.00000000000E+00 0.  1.
     999901    1    3    3    0    0  0.15869623934E-01  0.67593209275E-01 -0.13074463531E+00  0.89236474973E+00  0.88000000000E+00 0. -1.
        -11    1    4    4    0    0 -0.11088000044E-01 -0.45575466538E-01  0.87115263671E-01  0.98941382548E-01  0.51100000000E-03 0. -1.
         11    1    4    4    0    0 -0.17216365668E-02 -0.26310018575E-02  0.26145945410E-01  0.26339282178E-01  0.51100000000E-03 0.  1.
</event>
<event>
 8    1  0.1118868E+005  0.1043930E+01  0.7957747E-01            NaN
         13   -1    0    0    0    0  0.00000000000E+00  0.00000000000E+00  0.74505805969E-08  0.10566000000E+00  0.10566000000E+00 0. -1.
     999900   -1    0    0    0    0 -0.00000000000E+00 -0.00000000000E+00 -0.74505805969E-08  0.93827000000E+00  0.93827000000E+00 0. -1.
     999902    2    1    2    0    0  0.29110529457E-02 -0.17329116267E-01 -0.15682484209E-01  0.10203776581E+01  0.10201058044E+01 0.  0.
     999903    2    3    3    0    0 -0.64357196088E-01  0.53633000888E-01  0.94818306372E-01  0.12809347456E+00  0.19976974999E-01 0.  0.
         14    1    1    2    0    0 -0.29110529457E-02  0.17329116267E-01  0.15682484209E-01  0.23552341939E-01  0.00000000000E+00 0. -1.
     999901    1    3    3    0    0  0.67268249033E-01 -0.70962117156E-01 -0.11050079058E+00  0.89228418350E+00  0.88000000000E+00 0. -1.
        -11    1    4    4    0    0 -0.37044650316E-01  0.32957082120E-01  0.41219482570E-01  0.64480867265E-01  0.51100000000E-03 0. -1.
         11    1    4    4    0    0 -0.27312545772E-01  0.20675918769E-01  0.53598823802E-01  0.63612607299E-01  0.51100000000E-03 0.  1.
</event>
<event>
 8    1  0.1118868E+005  0.1043930E+01  0.7957747E-01            NaN
         13   -1    0    0    0    0  0.00000000000E+00  0.00000000000E+00  0.74505805969E-08  0.10566000000E+00  0.10566000000E+00 0.  1.
     999900   -1    0    0    0    0 -0.00000000000E+00 -0.00000000000E+00 -0.74505805969E-08  0.93827000000E+00  0.93827000000E+00 0. -1.
     999902    2    1    2    0    0  0.18257974460E-01  0.10767969298E-01 -0.45330967203E-03  0.10227283896E+01  0.10225086066E+01 0.  0.
     999903    2    3    3    0    0  0.38541464329E-01 -0.10313631443E+00  0.71432875824E-01  0.13224917620E+00  0.16267914176E-01 0.  0.
         14    1    1    2    0    0 -0.18257974460E-01 -0.10767969298E-01  0.45330967203E-03  0.21201610407E-01  0.00000000000E+00 0.  1.
     999901    1    3    3    0    0 -0.20283489869E-01  0.11390428373E+00 -0.71886185496E-01  0.89047921339E+00  0.88000000000E+00 0. -1.
        -11    1    4    4    0    0  0.19908782323E-01 -0.65859054252E-01  0.52107865986E-01  0.86309127323E-01  0.51100000000E-03 0. -1.
         11    1    4    4    0    0  0.18632682005E-01 -0.37277260177E-01  0.19325009838E-01  0.45940048882E-01  0.51100000000E-03 0.  1.
</event>
<event>
 8    1  0.1118868E+005  0.1043930E+01  0.7957747E-01            NaN
         13   -1    0    0    0    0  0.00000000000E+00  0.00000000000E+00  0.74505805969E-08  0.10566000000E+00  0.10566000000E+00 0. -1.
     999900   -1    0    0    0    0 -0.00000000000E+00 -0.00000000000E+00 -0.74505805969E-08  0.93827000000E+00  0.93827000000E+00 0.  1.
     999902    2    1    2    0    0  0.15633108234E-01 -0.19947998551E-03  0.10826111504E-01  0.10249132033E+01  0.10247367642E+01 0.  0.
     999903    2    3    3    0    0  0.94470543771E-01 -0.73997178643E-01  0.62374281180E-01  0.13681486679E+00  0.20675849054E-01 0.  0.
         14    1    1    2    0    0 -0.15633108234E-01  0.19947998551E-03 -0.10826111504E-01  0.19016796671E-01  0.00000000000E+00 0.  1.
     999901    1    3    3    0    0 -0.78837435537E-01  0.73797698658E-01 -0.51548169676E-01  0.88809833654E+00  0.88000000000E+00 0. -1.
        -11    1    4    4    0    0  0.43143813066E-01 -0.37878065096E-01  0.40847346589E-01  0.70462069694E-01  0.51100000000E-03 0.  1.
         11    1    4    4    0    0  0.51326730706E-01 -0.36119113547E-01  0.21526934591E-01  0.66352797094E-01  0.51100000000E-03 0. -1.
</event>
<event>
 8    1  0.1118868E+005  0.1043930E+01  0.7957747E-01            NaN
         13   -1    0    0    0    0  0.00000000000E+00  0.00000000000E+00  0.74505805969E-08  0.10566000000E+00  0.10566000000E+00 0. -1.
     999900   -1    0    0    0    0 -0.00000000000E+00 -0.00000000000E+00 -0.74505805969E-08  0.93827000000E+00  0.93827000000E+00 0. -1.
     999902    2    1    2    0    0  0.23392756668E-02 -0.28245335099E-02  0.22894544495E-01  0.10207435736E+01  0.10204801971E+01 0.  0.
     999903    2    3    3    0    0 -0.42072063356E-01  0.12125675288E+00  0.15616239123E-01  0.13090004447E+00  0.20437614418E-01 0.  0.
         14    1    1    2    0    0 -0.23392756668E-02  0.28245335099E-02 -0.22894544495E-01  0.23186426370E-01  0.00000000000E+00 0.  1.
     999901    1    3    3    0    0  0.44411339023E-01 -0.12408128639E+00  0.72783053718E-02  0.88984352916E+00  0.88000000000E+00 0.  1.
        -11    1    4    4    0    0 -0.38969409915E-02  0.33454965266E-01  0.93173674188E-02  0.34949897091E-01  0.51100000000E-03 0. -1.
         11    1    4    4    0    0 -0.38175122365E-01  0.87801787613E-01  0.62988717040E-02  0.95950147375E-01  0.51100000000E-03 0.  1.
</event>
<event>
 8    1  0.1118868E+005  0.1043930E+01  0.7957747E-01            NaN
         13   -1    0    0    0    0  0.00000000000E+00  0.00000000000E+00  0.74505805969E-08  0.10566000000E+00  0.10566000000E+00 0.  1.
     999900   -1    0    0    0    0 -0.00000000000E+00 -0.00000000000E+00 -0.74505805969E-08  0.93827000000E+00  0.93827000000E+00 0.  1.
     999902    2    1    2    0    0 -0.22900555555E-01 -0.35075020365E-02 -0.14179559742E-02  0.10207190411E+01  0.10204551005E+01 0.  0.
     999903    2    3    3    0    0  0.77041771110E-02 -0.20483818431E-01  0.12689242546E+00  0.13072555853E+00  0.22550894671E-01 0.  0.
         14    1    1    2    0    0  0.22900555555E-01  0.35075020365E-02  0.14179559742E-02  0.23210958929E-01  0.00000000000E+00 0. -1.
     999901    1    3    3    0    0 -0.30604732666E-01  0.16976316395E-01 -0.12831038144E+00  0.88999348254E+00  0.88000000000E+00 0.  1.
        -11    1    4    4    0    0  0.58755075607E-03 -0.23510974269E-01  0.10065496546E+00  0.10336727877E+00  0.51100000000E-03 0. -1.
         11    1    4    4    0    0  0.71166263550E-02  0.30271558379E-02  0.26237460005E-01  0.27358279764E-01  0.51100000000E-03 0.  1.
</event>
<event>
 8    1  0.1118868E+005  0.1043930E+01  0.7957747E-01            NaN
         13   -1    0    0    0    0  0.00000000000E+00  0.00000000000E+00  0.74505805969E-08  0.10566000000E+00  0.10566000000E+00 0.  1.
     999900   -1    0    0    0    0 -0.00000000000E+00 -0.00000000000E+00 -0.74505805969E-08  0.93827000000E+00  0.93827000000E+00 0. -1.
     999902    2    1    2    0    0  0.16674356364E-01  0.15071547797E-01 -0.67400410915E-02  0.10204648372E+01  0.10201950157E+01 0.  0.
     999903    2    3    3    0    0 -0.18733193725E-01  0.10691382352E+00 -0.73280701828E-01  0.13248040163E+00  0.19987429768E-01 0.  0.
         14    1    1    2    0    0 -0.16674356364E-01 -0.15071547797E-01  0.67400410915E-02  0.23465162839E-01  0.00000000000E+00 0.  1.
     999901    1    3    3    0    0  0.35407550090E-01 -0.91842275724E-01  0.66540660736E-01  0.88798443553E+00  0.88000000000E+00 0.  1.
        -11    1    4    4    0    0 -0.11930857142E-01  0.42744256653E-01 -0.40580591883E-01  0.60137030086E-01  0.51100000000E-03 0.  1.
         11    1    4    4    0    0 -0.68023365835E-02  0.64169566868E-01 -0.32700109944E-01  0.72343371544E-01  0.51100000000E-03 0. -1.
</event>
<event>
 8    1  0.1118868E+005  0.1043930E+01  0.7957747E-01            NaN
         13   -1    0    0    0    0  0.00000000000E+00  0.00000000000E+00  0.74505805969E-08  0.10566000000E+00  0.10566000000E+00 0.  1.
     999900   -1    0    0    0    0 -0.00000000000E+00 -0.00000000000E+00 -0.74505805969E-08  0.93827000000E+00  0.93827000000E+00 0.  1.
     999902    2    1    2    0    0 -0.19367458725E-01  0.57408746902E-02 -0.81127409246E-02  0.10221613835E+01  0.10219295579E+01 0.  0.
     999903    2    3    3    0    0 -0.98321642736E-01 -0.82765289974E-01  0.29585774338E-01  0.13340479003E+00  0.20106747745E-01 0.  0.
         14    1    1    2    0    0  0.19367458725E-01 -0.57408746902E-02  0.81127409246E-02  0.21768616515E-01  0.00000000000E+00 0. -1.
     999901    1    3    3    0    0  0.78954184011E-01  0.88506164664E-01 -0.37698515262E-01  0.88875659345E+00  0.88000000000E+00 0.  1.
        -11    1    4    4    0    0 -0.86476732472E-01 -0.72855182793E-01  0.18969190576E-01  0.11465685427E+00  0.51100000000E-03 0. -1.
         11    1    4    4    0    0 -0.11844910264E-01 -0.99101071807E-02  0.10616583762E-01  0.18747935760E-01  0.51100000000E-03 0.  1.
</event>
<event>
 8    1  0.1118868E+005  0.1043930E+01  0.7957747E-01            NaN
         13   -1    0    0    0    0  0.00000000000E+00  0.00000000000E+00  0.74505805969E-08  0.10566000000E+00  0.10566000000E+00 0. -1.
     999900   -1    0    0    0    0 -0.00000000000E+00 -0.00000000000E+00 -0.74505805969E-08  0.93827000000E+00  0.93827000000E+00 0. -1.
     999902    2    1    2    0    0 -0.16822499677E-01  0.95540290550E-02  0.23141438506E-01  0.10137670734E+01  0.10133182506E+01 0.  0.
     999903    2    3    3    0    0 -0.59016782236E-02  0.89642775382E-01  0.88315260381E-01  0.12766262203E+00  0.20676142379E-01 0.  0.
         14    1    1    2    0    0  0.16822499677E-01 -0.95540290550E-02 -0.23141438506E-01  0.30162926627E-01  0.00000000000E+00 0.  1.
     999901    1    3    3    0    0 -0.10920821454E-01 -0.80088746327E-01 -0.65173821875E-01  0.88610445134E+00  0.88000000000E+00 0.  1.
        -11    1    4    4    0    0  0.48347076203E-02  0.53322961461E-01  0.43516256591E-01  0.68997379120E-01  0.51100000000E-03 0. -1.
         11    1    4    4    0    0 -0.10736385844E-01  0.36319813920E-01  0.44799003790E-01  0.58665242911E-01  0.51100000000E-03 0.  1.
</event>
<event>
 8    1  0.1118868E+005  0.1043930E+01  0.7957747E-01            NaN
         13   -1    0    0    0    0  0.00000000000E+00  0.00000000000E+00  0.74505805969E-08  0.10566000000E+00  0.10566000000E+00 0.  1.
     999900   -1    0    0    0    0 -0.00000000000E+00 -0.00000000000E+00 -0.74505805969E-08  0.93827000000E+00  0.93827000000E+00 0.  1.
     999902    2    1    2    0    0  0.11877953144E-01 -0.39711799841E-02  0.18450583039E-01  0.10216302230E+01  0.10213868182E+01 0.  0.
     999903    2    3    3    0    0  0.25805229758E-01  0.12644982351E+00 -0.16214680250E-01  0.13123408210E+00  0.17435615879E-01 0.  0.
         14    1    1    2    0    0 -0.11877953144E-01  0.39711799841E-02 -0.18450583039E-01  0.22299777036E-01  0.00000000000E+00 0. -1.
     999901    1    3    3    0    0 -0.13927276613E-01 -0.13042100349E+00  0.34665263289E-01  0.89039614086E+00  0.88000000000E+00 0. -1.
        -11    1    4    4    0    0  0.22546518745E-01  0.67452974638E-01 -0.98910924897E-02  0.71807688492E-01  0.51100000000E-03 0. -1.
         11    1    4    4    0    0  0.32587110130E-02  0.58996848871E-01 -0.63235877602E-02  0.59426393608E-01  0.51100000000E-03 0.  1.
</event>
<event>
 8    1  0.1118868E+005  0.1043930E+01  0.7957747E-01            NaN
         13   -1    0    0    0    0  0.00000000000E+00  0.00000000000E+00  0.74505805969E-08  0.10566000000E+00  0.10566000000E+00 0. -1.
     999900   -1    0    0    0    0 -0.00000000000E+00 -0.00000000000E+00 -0.74505805969E-08  0.93827000000E+00  0.93827000000E+00 0.  1.
     999902    2    1    2    0    0  0.65985382483E-02  0.21217201712E-01  0.12274340781E-02  0.10216765295E+01  0.10214341457E+01 0.  0.
     999903    2    3    3    0    0  0.57205456608E-01 -0.12558999291E-01 -0.11631997533E+00  0.13177806033E+00  0.20122817802E-01 0.  0.
         14    1    1    2    0    0 -0.65985382483E-02 -0.21217201712E-01 -0.12274340781E-02  0.22253470514E-01  0.00000000000E+00 0. -1.
     999901    1    3    3    0    0 -0.50606918360E-01  0.33776201003E-01  0.11754740941E+00  0.88989846915E+00  0.88000000000E+00 0. -1.
        -11    1    4    4    0    0  0.17408489517E-01 -0.53340016874E-02 -0.58075602769E-01  0.60864963972E-01  0.51100000000E-03 0.  1.
         11    1    4    4    0    0  0.39796967091E-01 -0.72249976032E-02 -0.58244372559E-01  0.70913096362E-01  0.51100000000E-03 0. -1.
</event>
<event>
 8    1  0.1118868E+005  0.1043930E+01  0.7957747E-01            NaN
         13   -1    0    0    0    0  0.00000000000E+00  0.00000000000E+00  0.74505805969E-08  0.10566000000E+00  0.10566000000E+00 0.  1.
     999900   -1    0    0    0    0 -0.00000000000E+00 -0.00000000000E+00 -0.74505805969E-08  0.93827000000E+00  0.93827000000E+00 0.  1.
     999902    2    1    2    0    0 -0.13220745171E-01  0.10437747682E-01 -0.17705394919E-01  0.10194920032E+01  0.10191990624E+01 0.  0.
     999903    2    3    3    0    0 -0.79336204437E-01 -0.53444091526E-02 -0.10425214126E+00  0.13263763535E+00  0.20035900545E-01 0.  0.
         14    1    1    2    0    0  0.13220745171E-01 -0.10437747682E-01  0.17705394919E-01  0.24437996824E-01  0.00000000000E+00 0.  1.
     999901    1    3    3    0    0  0.66115459266E-01  0.15782156835E-01  0.86546746340E-01  0.88685436783E+00  0.88000000000E+00 0. -1.
        -11    1    4    4    0    0 -0.62801938192E-01 -0.98588763804E-02 -0.71551155055E-01  0.95713686560E-01  0.51100000000E-03 0. -1.
         11    1    4    4    0    0 -0.16534266246E-01  0.45144672278E-02 -0.32700986203E-01  0.36923948791E-01  0.51100000000E-03 0.  1.
</event>
<event>
 8    1  0.1118868E+005  0.1043930E+01  0.7957747E-01            NaN
         13   -1    0    0    0    0  0.00000000000E+00  0.00000000000E+00  0.74505805969E-08  0.10566000000E+00  0.10566000000E+00 0. -1.
     999900   -1    0    0    0    0 -0.00000000000E+00 -0.00000000000E+00 -0.74505805969E-08  0.93827000000E+00  0.93827000000E+00 0. -1.
     999902    2    1    2    0    0  0.12088775878E-01 -0.17472464823E-01  0.88456992031E-02  0.10209153976E+01  0.10206559543E+01 0.  0.
     999903    2    3    3    0    0 -0.21365731661E-01  0.12448221781E+00  0.16667567812E-01  0.12887755220E+00  0.19475589971E-01 0.  0.
         14    1    1    2    0    0 -0.12088775878E-01  0.17472464823E-01 -0.88456992031E-02  0.23014602399E-01  0.00000000000E+00 0.  1.
     999901    1    3    3    0    0  0.33454507539E-01 -0.14195468263E+00 -0.78218686092E-02  0.89203784540E+00  0.88000000000E+00 0.  1.
        -11    1    4    4    0    0 -0.18502765406E-01  0.52845288358E-01  0.47055362926E-02  0.56190568800E-01  0.51100000000E-03 0. -1.
         11    1    4    4    0    0 -0.28629662550E-02  0.71636929451E-01  0.11962031520E-01  0.72686983402E-01  0.51100000000E-03 0.  1.
</event>
<event>
 8    1  0.1118868E+005  0.1043930E+01  0.7957747E-01            NaN
         13   -1    0    0    0    0  0.00000000000E+00  0.00000000000E+00  0.74505805969E-08  0.10566000000E+00  0.10566000000E+00 0. -1.
     999900   -1    0    0    0    0 -0.00000000000E+00 -0.00000000000E+00 -0.74505805969E-08  0.93827000000E+00  0.93827000000E+00 0. -1.
     999902    2    1    2    0    0 -0.12141760332E-01 -0.11471988486E-01  0.16405643264E-01  0.10205168841E+01  0.10202482721E+01 0.  0.
     999903    2    3    3    0    0 -0.66572520521E-01  0.38238099748E-01 -0.10212336794E+00  0.12951580275E+00  0.21239306061E-01 0.  0.
         14    1    1    2    0    0  0.12141760332E-01  0.11471988486E-01 -0.16405643264E-01  0.23413115869E-01  0.00000000000E+00 0.  1.
     999901    1    3    3    0    0  0.54430760189E-01 -0.49710088234E-01  0.11852901120E+00  0.89100108138E+00  0.88000000000E+00 0. -1.
        -11    1    4    4    0    0 -0.29527794852E-01  0.86890657301E-02 -0.52782330446E-01  0.61103404655E-01  0.51100000000E-03 0. -1.
         11    1    4    4    0    0 -0.37044725668E-01  0.29549034018E-01 -0.49341037492E-01  0.68412398094E-01  0.51100000000E-03 0.  1.
</event>
<event>
 8    1  0.1118868E+005  0.1043930E+01  0.7957747E-01            NaN
         13   -1    0    0    0    0  0.00000000000E+00  0.00000000000E+00  0.74505805969E-08  0.10566000000E+00  0.10566000000E+00 0.  1.
     999900   -1    0    0    0    0 -0.00000000000E+00 -0.00000000000E+00 -0.74505805969E-08  0.93827000000E+00  0.93827000000E+00 0.  1.
     999902    2    1    2    0    0  0.64434863532E-02 -0.17724884396E-01  0.15565549895E-01  0.10194764443E+01  0.10191831259E+01 0.  0.
     999903    2    3    3    0    0 -0.57665160448E-01 -0.46076782510E-01  0.10768855187E+00  0.13189523887E+00  0.18740043176E-01 0.  0.
         14    1    1    2    0    0 -0.64434863532E-02  0.17724884396E-01 -0.15565549895E-01  0.24453555708E-01  0.00000000000E+00 0. -1.
     999901    1    3    3    0    0  0.64108646801E-01  0.28351898114E-01 -0.92123001972E-01  0.88758120542E+00  0.88000000000E+00 0.  1.
        -11    1    4    4    0    0 -0.79960604084E-02 -0.16256780846E-01  0.22921466690E-01  0.29221133820E-01  0.51100000000E-03 0. -1.
         11    1    4    4    0    0 -0.49669100040E-01 -0.29820001664E-01  0.84767085177E-01  0.10267410505E+00  0.51100000000E-03 0.  1.
</event>
<event>
 8    1  0.1118868E+005  0.1043930E+01  0.7957747E-01            NaN
         13   -1    0    0    0    0  0.00000000000E+00  0.00000000000E+00  0.74505805969E-08  0.10566000000E+00  0.10566000000E+00 0.  1.
     999900   -1    0    0    0    0 -0.00000000000E+00 -0.00000000000E+00 -0.74505805969E-08  0.93827000000E+00  0.93827000000E+00 0.  1.
     999902    2    1    2    0    0 -0.71095316312E-02 -0.70467204778E-02  0.20497178096E-01  0.10211191250E+01  0.10208643061E+01 0.  0.
     999903    2    3    3    0    0  0.47973170803E-01  0.49618711101E-01  0.11079188938E+00  0.13297600018E+00  0.25383700716E-01 0.  0.
         14    1    1    2    0    0  0.71095316312E-02  0.70467204778E-02 -0.20497178096E-01  0.22810875025E-01  0.00000000000E+00 0. -1.
     999901    1    3    3    0    0 -0.55082702434E-01 -0.56665431579E-01 -0.90294711285E-01  0.88814312480E+00  0.88000000000E+00 0.  1.
        -11    1    4    4    0    0  0.38827251794E-01  0.35182168249E-01  0.61456658911E-01  0.80762135250E-01  0.51100000000E-03 0. -1.
         11    1    4    4    0    0  0.91459190084E-02  0.14436542852E-01  0.49335230469E-01  0.52213864926E-01  0.51100000000E-03 0.  1.
</event>
<event>
 8    1  0.1118868E+005  0.1043930E+01  0.7957747E-01            NaN
         13   -1    0    0    0    0  0.00000000000E+00  0.00000000000E+00  0.74505805969E-08  0.10566000000E+00  0.10566000000E+00 0. -1.
     999900   -1    0    0    0    0 -0.00000000000E+00 -0.00000000000E+00 -0.74505805969E-08  0.93827000000E+00  0.93827000000E+00 0.  1.
     999902    2    1    2    0    0  0.43942143711E-02  0.12088409472E-01  0.19784806974E-01  0.10203317511E+01  0.10200588243E+01 0.  0.
     999903    2    3    3    0    0  0.79944583151E-01 -0.95698026410E-01 -0.29409921536E-01  0.12918311295E+00  0.16555499192E-01 0.  0.
         14    1    1    2    0    0 -0.43942143711E-02 -0.12088409472E-01 -0.19784806974E-01  0.23598248886E-01  0.00000000000E+00 0.  1.
     999901    1    3    3    0    0 -0.75550368780E-01  0.10778643588E+00  0.49194728510E-01  0.89114863816E+00  0.88000000000E+00 0.  1.
        -11    1    4    4    0    0  0.35103970124E-01 -0.38558068935E-01 -0.42747086246E-02  0.52321579232E-01  0.51100000000E-03 0. -1.
         11    1    4    4    0    0  0.44840613027E-01 -0.57139957475E-01 -0.25135212912E-01  0.76861533721E-01  0.51100000000E-03 0.  1.
</event>
<event>
 8    1  0.1118868E+005  0.1043930E+01  0.7957747E-01            NaN
         13   -1    0    0    0    0  0.00000000000E+00  0.00000000000E+00  0.74505805969E-08  0.10566000000E+00  0.10566000000E+00 0. -1.
     999900   -1    0    0    0    0 -0.00000000000E+00 -0.00000000000E+00 -0.74505805969E-08  0.93827000000E+00  0.93827000000E+00 0.  1.
     999902    2    1    2    0    0 -0.76026977484E-04 -0.23975415770E-01 -0.35075209039E-02  0.10196992542E+01  0.10194113203E+01 0.  0.
     999903    2    3    3    0    0 -0.15182879382E-01 -0.12687390868E+00  0.30674466430E-01  0.13291589555E+00  0.19955046207E-01 0.  0.
         14    1    1    2    0    0  0.76026977484E-04  0.23975415770E-01  0.35075209039E-02  0.24230745848E-01  0.00000000000E+00 0.  1.
     999901    1    3    3    0    0  0.15106852404E-01  0.10289849291E+00 -0.34181987334E-01  0.88678335860E+00  0.88000000000E+00 0.  1.
        -11    1    4    4    0    0 -0.19228628685E-01 -0.10201211621E+00  0.28370739722E-01  0.10761678311E+00  0.51100000000E-03 0.  1.
         11    1    4    4    0    0  0.40457493026E-02 -0.24861792474E-01  0.23037267078E-02  0.25299112438E-01  0.51100000000E-03 0. -1.
</event>
<event>
 8    1  0.1118868E+005  0.1043930E+01  0.7957747E-01            NaN
         13   -1    0    0    0    0  0.00000000000E+00  0.00000000000E+00  0.74505805969E-08  0.10566000000E+00  0.10566000000E+00 0. -1.
     999900   -1    0    0    0    0 -0.00000000000E+00 -0.00000000000E+00 -0.74505805969E-08  0.93827000000E+00  0.93827000000E+00 0. -1.
     999902    2    1    2    0    0  0.13870442253E-01  0.45876125488E-02 -0.13763227215E-01  0.10238585830E+01  0.10236618271E+01 0.  0.
     999903    2    3    3    0    0 -0.26504812770E-01 -0.16606707771E-01  0.12624278432E+00  0.13162484473E+00  0.20237868310E-01 0.  0.
         14    1    1    2    0    0 -0.13870442253E-01 -0.45876125488E-02  0.13763227215E-01  0.20071417005E-01  0.00000000000E+00 0. -1.
     999901    1    3    3    0    0  0.40375255023E-01  0.21194320320E-01 -0.14000601154E+00  0.89223373827E+00  0.88000000000E+00 0. -1.
        -11    1    4    4    0    0 -0.46152130966E-02 -0.42726753839E-02  0.66675597975E-01  0.66973520388E-01  0.51100000000E-03 0.  1.
         11    1    4    4    0    0 -0.21889599673E-01 -0.12334032387E-01  0.59567186347E-01  0.64651324342E-01  0.51100000000E-03 0. -1.
</event>
<event>
 8    1  0.1118868E+005  0.1043930E+01  0.7957747E-01            NaN
         13   -1    0    0    0    0  0.00000000000E+00  0.00000000000E+00  0.74505805969E-08  0.10566000000E+00  0.10566000000E+00 0. -1.
     999900   -1    0    0    0    0 -0.00000000000E+00 -0.00000000000E+00 -0.74505805969E-08  0.93827000000E+00  0.93827000000E+00 0.  1.
     999902    2    1    2    0    0 -0.59484871957E-02  0.19423034840E-01 -0.13183392549E-01  0.10197134639E+01  0.10194258717E+01 0.  0.
     999903    2    3    3    0    0  0.97980777433E-01  0.49033576928E-01 -0.69482633655E-01  0.13131733557E+00  0.20294872006E-01 0.  0.
         14    1    1    2    0    0  0.59484871957E-02 -0.19423034840E-01  0.13183392549E-01  0.24216536115E-01  0.00000000000E+00 0. -1.
     999901    1    3    3    0    0 -0.10392926463E+00 -0.29610542088E-01  0.56299241106E-01  0.88839612831E+00  0.88000000000E+00 0. -1.
        -11    1    4    4    0    0  0.49245676870E-01  0.34780897596E-01 -0.32457669336E-01  0.68473417818E-01  0.51100000000E-03 0. -1.
         11    1    4    4    0    0  0.48735100563E-01  0.14252679332E-01 -0.37024964320E-01  0.62843917756E-01  0.51100000000E-03 0.  1.
</event>
<event>
 8    1  0.1118868E+005  0.1043930E+01  0.7957747E-01            NaN
         13   -1    0    0    0    0  0.00000000000E+00  0.00000000000E+00  0.74505805969E-08  0.10566000000E+00  0.10566000000E+00 0. -1.
     999900   -1    0    0    0    0 -0.00000000000E+00 -0.00000000000E+00 -0.74505805969E-08  0.93827000000E+00  0.93827000000E+00 0. -1.
     999902    2    1    2    0    0 -0.21989571560E-01 -0.49638037392E-03 -0.20356211645E-02  0.10218408306E+01  0.10216020515E+01 0.  0.
     999903    2    3    3    0    0 -0.53578153048E-01  0.21753516898E-01  0.11796085264E+00  0.13285711302E+00  0.19809486223E-01 0.  0.
         14    1    1    2    0    0  0.21989571560E-01  0.49638037392E-03  0.20356211645E-02  0.22089169392E-01  0.00000000000E+00 0. -1.
     999901    1    3    3    0    0  0.31588581488E-01 -0.22249897272E-01 -0.11999647380E+00  0.88898371759E+00  0.88000000000E+00 0. -1.
        -11    1    4    4    0    0 -0.22519767741E-01  0.16695302658E-01  0.40609408084E-01  0.49348335492E-01  0.51100000000E-03 0. -1.
         11    1    4    4    0    0 -0.31058385308E-01  0.50582142403E-02  0.77351444552E-01  0.83508777530E-01  0.51100000000E-03 0.  1.
</event>
<event>
 8    1  0.1118868E+005  0.1043930E+01  0.7957747E-01            NaN
         13   -1    0    0    0    0  0.00000000000E+00  0.00000000000E+00  0.74505805969E-08  0.10566000000E+00  0.10566000000E+00 0.  1.
     999900   -1    0    0    0    0 -0.00000000000E+00 -0.00000000000E+00 -0.74505805969E-08  0.93827000000E+00  0.93827000000E+00 0.  1.
     999902    2    1    2    0    0 -0.77483045400E-02 -0.94750024136E-02 -0.20843977479E-01  0.10197580474E+01  0.10194715258E+01 0.  0.
     999903    2    3    3    0    0 -0.52576227869E-01 -0.10304349640E+00 -0.61970251383E-01  0.13270902050E+00  0.19726889689E-01 0.  0.
         14    1    1    2    0    0  0.77483045400E-02  0.94750024136E-02  0.20843977479E-01  0.24171952571E-01  0.00000000000E+00 0. -1.
     999901    1    3    3    0    0  0.44827923329E-01  0.93568493989E-01  0.41126273904E-01  0.88704902693E+00  0.88000000000E+00 0.  1.
        -11    1    4    4    0    0 -0.17663811277E-01 -0.56145443523E-01 -0.29795456718E-01  0.65972353446E-01  0.51100000000E-03 0.  1.
         11    1    4    4    0    0 -0.34912416592E-01 -0.46898052879E-01 -0.32174794665E-01  0.66736667049E-01  0.51100000000E-03 0. -1.
</event>
<event>
 8    1  0.1118868E+005  0.1043930E+01  0.7957747E-01            NaN
         13   -1    0    0    0    0  0.00000000000E+00  0.00000000000E+00  0.74505805969E-08  0.10566000000E+00  0.10566000000E+00 0. -1.
     999900   -1    0    0    0    0 -0.00000000000E+00 -0.00000000000E+00 -0.74505805969E-08  0.93827000000E+00  0.93827000000E+00 0. -1.
     999902    2    1    2    0    0 -0.18895593345E-01  0.10532740745E-01 -0.12043062378E-01  0.10191708113E+01  0.10188700237E+01 0.  0.
     999903    2    3    3    0    0  0.28519263661E-01 -0.11547957955E+00  0.40877185355E-01  0.12735926943E+00  0.20013933520E-01 0.  0.
         14    1    1    2    0    0  0.18895593345E-01 -0.10532740745E-01  0.12043062378E-01  0.24759188737E-01  0.00000000000E+00 0. -1.
     999901    1    3    3    0    0 -0.47414857006E-01  0.12601232029E+00 -0.52920247732E-01  0.89181154183E+00  0.88000000000E+00 0.  1.
        -11    1    4    4    0    0  0.84765637483E-02 -0.14377983186E-01  0.63223611741E-03  0.16710457115E-01  0.51100000000E-03 0.  1.
         11    1    4    4    0    0  0.20042699912E-01 -0.10110159636E+00  0.40244949237E-01  0.11064881231E+00  0.51100000000E-03 0. -1.
</event>
<event>
 8    1  0.1118868E+005  0.1043930E+01  0.7957747E-01            NaN
         13   -1    0    0    0    0  0.00000000000E+00  0.00000000000E+00  0.74505805969E-08  0.10566000000E+00  0.10566000000E+00 0.  1.
     999900   -1    0    0    0    0 -0.00000000000E+00 -0.00000000000E+00 -0.74505805969E-08  0.93827000000E+00  0.93827000000E+00 0.  1.
     999902    2    1    2    0    0  0.12721264482E-01  0.18115602330E-01 -0.12764145141E-01  0.10183775242E+01  0.10180569006E+01 0.  0.
     999903    2    3    3    0    0 -0.45731399917E-01  0.95293556256E-01 -0.74635583187E-01  0.13090852453E+00  0.19858215294E-01 0.  0.
         14    1    1    2    0    0 -0.12721264482E-01 -0.18115602330E-01  0.12764145141E-01  0.25552475790E-01  0.00000000000E+00 0. -1.
     999901    1    3    3    0    0  0.58452664398E-01 -0.77177953926E-01  0.61871438046E-01  0.88746899968E+00  0.88000000000E+00 0. -1.
        -11    1    4    4    0    0 -0.33409623920E-01  0.59282727258E-01 -0.37356238939E-01  0.77629855277E-01  0.51100000000E-03 0.  1.
         11    1    4    4    0    0 -0.12321775997E-01  0.36010828998E-01 -0.37279344248E-01  0.53278669253E-01  0.51100000000E-03 0. -1.
</event>
<event>
 8    1  0.1118868E+005  0.1043930E+01  0.7957747E-01            NaN
         13   -1    0    0    0    0  0.00000000000E+00  0.00000000000E+00  0.74505805969E-08  0.10566000000E+00  0.10566000000E+00 0.  1.
     999900   -1    0    0    0    0 -0.00000000000E+00 -0.00000000000E+00 -0.74505805969E-08  0.93827000000E+00  0.93827000000E+00 0. -1.
     999902    2    1    2    0    0 -0.10562719418E-01 -0.15236717881E-01 -0.13943813976E-01  0.10207317552E+01  0.10204681071E+01 0.  0.
     999903    2    3    3    0    0  0.13980995189E-01 -0.13026128395E+00 -0.11290553199E-01  0.13290289528E+00  0.19293332018E-01 0.  0.
         14    1    1    2    0    0  0.10562719418E-01  0.15236717881E-01  0.13943813976E-01  0.23198244793E-01  0.00000000000E+00 0.  1.
     999901    1    3    3    0    0 -0.24543714608E-01  0.11502456607E+00 -0.26532607768E-02  0.88782885993E+00  0.88000000000E+00 0.  1.
        -11    1    4    4    0    0  0.16758731207E-01 -0.11105438690E+00 -0.47357615698E-02  0.11241272383E+00  0.51100000000E-03 0. -1.
         11    1    4    4    0    0 -0.27777360180E-02 -0.19206897052E-01 -0.65547916289E-02  0.20490171450E-01  0.51100000000E-03 0.  1.
</event>
<event>
 8    1  0.1118868E+005  0.1043930E+01  0.7957747E-01            NaN
         13   -1    0    0    0    0  0.00000000000E+00  0.00000000000E+00  0.74505805969E-08  0.10566000000E+00  0.10566000000E+00 0.  1.
     999900   -1    0    0    0    0 -0.00000000000E+00 -0.00000000000E+00 -0.74505805969E-08  0.93827000000E+00  0.93827000000E+00 0. -1.
     999902    2    1    2    0    0  0.84116145911E-02 -0.16130465075E-01  0.14969164206E-01  0.10203710730E+01  0.10200990656E+01 0.  0.
     999903    2    3    3    0    0 -0.88581344619E-01  0.90017521211E-01  0.15303445597E-01  0.12870121210E+00  0.19493532482E-01 0.  0.
         14    1    1    2    0    0 -0.84116145911E-02  0.16130465075E-01 -0.14969164206E-01  0.23558926983E-01  0.00000000000E+00 0. -1.
     999901    1    3    3    0    0  0.96992959210E-01 -0.10614798629E+00 -0.33428139097E-03  0.89166986092E+00  0.88000000000E+00 0.  1.
        -11    1    4    4    0    0 -0.35979435189E-01  0.49230984136E-01  0.33398126142E-02  0.61070656004E-01  0.51100000000E-03 0. -1.
         11    1    4    4    0    0 -0.52601909430E-01  0.40786537075E-01  0.11963632983E-01  0.67630556092E-01  0.51100000000E-03 0.  1.
</event>
<event>
 8    1  0.1118868E+005  0.1043930E+01  0.7957747E-01            NaN
         13   -1    0    0    0    0  0.00000000000E+00  0.00000000000E+00  0.74505805969E-08  0.10566000000E+00  0.10566000000E+00 0.  1.
     999900   -1    0    0    0    0 -0.00000000000E+00 -0.00000000000E+00 -0.74505805969E-08  0.93827000000E+00  0.93827000000E+00 0.  1.
     999902    2    1    2    0    0  0.37022122819E-02 -0.16364519616E-01  0.12623523197E-01  0.10229333999E+01  0.10227178904E+01 0.  0.
     999903    2    3    3    0    0 -0.41402389582E-01  0.11364905808E+00  0.47756350056E-01  0.13154556566E+00  0.19831808039E-01 0.  0.
         14    1    1    2    0    0 -0.37022122819E-02  0.16364519616E-01 -0.12623523197E-01  0.20996600105E-01  0.00000000000E+00 0.  1.
     999901    1    3    3    0    0  0.45104601864E-01 -0.13001357769E+00 -0.35132826859E-01  0.89138783423E+00  0.88000000000E+00 0.  1.
        -11    1    4    4    0    0 -0.35742871779E-01  0.75858316709E-01  0.38221465564E-01  0.92158443172E-01  0.51100000000E-03 0.  1.
         11    1    4    4    0    0 -0.56595178025E-02  0.37790741368E-01  0.95348844928E-02  0.39387122492E-01  0.51100000000E-03 0. -1.
</event>
<event>
 8    1  0.1118868E+005  0.1043930E+01  0.7957747E-01            NaN
         13   -1    0    0    0    0  0.00000000000E+00  0.00000000000E+00  0.74505805969E-08  0.10566000000E+00  0.10566000000E+00 0.  1.
     999900   -1    0    0    0    0 -0.00000000000E+00 -0.00000000000E+00 -0.74505805969E-08  0.93827000000E+00  0.93827000000E+00 0.  1.
     999902    2    1    2    0    0 -0.49070828694E-02 -0.22447085693E-01  0.11613068554E-01  0.10181848164E+01  0.10178592760E+01 0.  0.
     999903    2    3    3    0    0  0.38679080241E-02  0.12130334252E+00 -0.26255931328E-01  0.12567417374E+00  0.19369109300E-01 0.  0.
         14    1    1    2    0    0  0.49070828694E-02  0.22447085693E-01 -0.11613068554E-01  0.25745183620E-01  0.00000000000E+00 0. -1.
     999901    1    3    3    0    0 -0.87749908936E-02 -0.14375042822E+00  0.37868999883E-01  0.89251064264E+00  0.88000000000E+00 0.  1.
        -11    1    4    4    0    0 -0.29119319594E-02  0.81835359717E-01 -0.24943218452E-01  0.85603333554E-01  0.51100000000E-03 0. -1.
         11    1    4    4    0    0  0.67798399836E-02  0.39467982805E-01 -0.13127128759E-02  0.40070840183E-01  0.51100000000E-03 0.  1.
</event>
<event>
 8    1  0.1118868E+005  0.1043930E+01  0.7957747E-01            NaN
         13   -1    0    0    0    0  0.00000000000E+00  0.00000000000E+00  0.74505805969E-08  0.10566000000E+00  0.10566000000E+00 0.  1.
     999900   -1    0    0    0    0 -0.00000000000E+00 -0.00000000000E+00 -0.74505805969E-08  0.93827000000E+00  0.93827000000E+00 0. -1.
     999902    2    1    2    0    0  0.12350981744E-01  0.81573888137E-02  0.17938463187E-01  0.10206732117E+01  0.10204082158E+01 0.  0.
     999903    2    3    3    0    0 -0.10581628951E+00 -0.65121720698E-01 -0.27388916870E-01  0.12860376186E+00  0.18730968096E-01 0.  0.
         14    1    1    2    0    0 -0.12350981744E-01 -0.81573888137E-02 -0.17938463187E-01  0.23256788338E-01  0.00000000000E+00 0. -1.
     999901    1    3    3    0    0  0.11816727125E+00  0.73279109512E-01  0.45327380057E-01  0.89206944980E+00  0.88000000000E+00 0. -1.
        -11    1    4    4    0    0 -0.87045830539E-01 -0.44698536197E-01 -0.22939489554E-01  0.10050580607E+00  0.51100000000E-03 0.  1.
         11    1    4    4    0    0 -0.18770458968E-01 -0.20423184501E-01 -0.44494273161E-02  0.28097955788E-01  0.51100000000E-03 0. -1.
</event>
<event>
 8    1  0.1118868E+005  0.1043930E+01  0.7957747E-01            NaN
         13   -1    0    0    0    0  0.00000000000E+00  0.00000000000E+00  0.74505805969E-08  0.10566000000E+00  0.10566000000E+00 0.  1.
     999900   -1    0    0    0    0 -0.00000000000E+00 -0.00000000000E+00 -0.74505805969E-08  0.93827000000E+00  0.93827000000E+00 0. -1.
     999902    2    1    2    0    0  0.12096952052E-01 -0.12977551764E-01  0.15722266751E-01  0.10202246679E+01  0.10199492292E+01 0.  0.
     999903    2    3    3    0    0  0.12870393113E-01  0.98915781035E-01  0.82028168398E-01  0.13066455821E+00  0.19865236088E-01 0.  0.
         14    1    1    2    0    0 -0.12096952052E-01  0.12977551764E-01 -0.15722266751E-01  0.23705332112E-01  0.00000000000E+00 0. -1.
     999901    1    3    3    0    0 -0.77344106139E-03 -0.11189333280E+00 -0.66305901647E-01  0.88956010968E+00  0.88000000000E+00 0. -1.
        -11    1    4    4    0    0  0.13509347800E-02  0.41431784455E-01  0.45655656269E-01  0.61669424014E-01  0.51100000000E-03 0.  1.
         11    1    4    4    0    0  0.11519458333E-01  0.57483996581E-01  0.36372512129E-01  0.68995134196E-01  0.51100000000E-03 0. -1.
</event>
<event>
 8    1  0.1118868E+005  0.1043930E+01  0.7957747E-01            NaN
         13   -1    0    0    0    0  0.00000000000E+00  0.00000000000E+00  0.74505805969E-08  0.10566000000E+00  0.10566000000E+00 0. -1.
     999900   -1    0    0    0    0 -0.00000000000E+00 -0.00000000000E+00 -0.74505805969E-08  0.93827000000E+00  0.93827000000E+00 0. -1.
     999902    2    1    2    0    0 -0.21179448262E-01  0.94504406142E-02  0.22392460954E-02  0.10206299125E+01  0.10203639175E+01 0.  0.
     999903    2    3    3    0    0  0.47253761912E-01 -0.17830824730E-01  0.11765504987E+00  0.13004124227E+00  0.22741099489E-01 0.  0.
         14    1    1    2    0    0  0.21179448262E-01 -0.94504406142E-02 -0.22392460954E-02  0.23300087544E-01  0.00000000000E+00 0. -1.
     999901    1    3    3    0    0 -0.68433210174E-01  0.27281265344E-01 -0.11541580378E+00  0.89058867018E+00  0.88000000000E+00 0. -1.
        -11    1    4    4    0    0  0.10206724624E-01 -0.14794839873E-01  0.44125119445E-01  0.47648208796E-01  0.51100000000E-03 0. -1.
         11    1    4    4    0    0  0.37047037288E-01 -0.30359848567E-02  0.73529930429E-01  0.82393033479E-01  0.51100000000E-03 0.  1.
</event>
<event>
 8    1  0.1118868E+005  0.1043930E+01  0.7957747E-01            NaN
         13   -1    0    0    0    0  0.00000000000E+00  0.00000000000E+00  0.74505805969E-08  0.10566000000E+00  0.10566000000E+00 0.  1.
     999900   -1    0    0    0    0 -0.00000000000E+00 -0.00000000000E+00 -0.74505805969E-08  0.93827000000E+00  0.93827000000E+00 0.  1.
     999902    2    1    2    0    0  0.11729928593E-01  0.57769876043E-02 -0.19128656157E-01  0.10207595383E+01  0.10204965285E+01 0.  0.
     999903    2    3    3    0    0 -0.67671545959E-01 -0.10783499882E+00 -0.16547487298E-01  0.12990660986E+00  0.19851520005E-01 0.  0.
         14    1    1    2    0    0 -0.11729928593E-01 -0.57769876043E-02  0.19128656157E-01  0.23170461734E-01  0.00000000000E+00 0.  1.
     999901    1    3    3    0    0  0.79401474552E-01  0.11361198642E+00 -0.25811688587E-02  0.89085292841E+00  0.88000000000E+00 0.  1.
        -11    1    4    4    0    0 -0.48834073520E-01 -0.83684480248E-01 -0.45210489862E-02  0.96997731808E-01  0.51100000000E-03 0.  1.
         11    1    4    4    0    0 -0.18837472438E-01 -0.24150518570E-01 -0.12026438312E-01  0.32908878051E-01  0.51100000000E-03 0. -1.
</event>
<event>
 8    1  0.1118868E+005  0.1043930E+01  0.7957747E-01            NaN
         13   -1    0    0    0    0  0.00000000000E+00  0.00000000000E+00  0.74505805969E-08  0.10566000000E+00  0.10566000000E+00 0.  1.
     999900   -1    0    0    0    0 -0.00000000000E+00 -0.00000000000E+00 -0.74505805969E-08  0.93827000000E+00  0.93827000000E+00 0. -1.
     999902    2    1    2    0    0 -0.13987121037E-01  0.15064689312E-01 -0.12389977613E-01  0.10199280008E+01  0.10196455418E+01 0.  0.
     999903    2    3    3    0    0 -0.87048629658E-01  0.31062272409E-01 -0.93501069883E-01  0.13303853985E+00  0.20358642475E-01 0.  0.
         14    1    1    2    0    0  0.13987121037E-01 -0.15064689312E-01  0.12389977613E-01  0.24001999171E-01  0.00000000000E+00 0.  1.
     999901    1    3    3    0    0  0.73061508622E-01 -0.15997583097E-01  0.81111092271E-01  0.88688946098E+00  0.88000000000E+00 0.  1.
        -11    1    4    4    0    0 -0.58662487313E-01  0.13943969260E-01 -0.70061646004E-01  0.92437097846E-01  0.51100000000E-03 0.  1.
         11    1    4    4    0    0 -0.28386142345E-01  0.17118303149E-01 -0.23439423879E-01  0.40601442003E-01  0.51100000000E-03 0. -1.
</event>
<event>
 8    1  0.1118868E+005  0.1043930E+01  0.7957747E-01            NaN
         13   -1    0    0    0    0  0.00000000000E+00  0.00000000000E+00  0.74505805969E-08  0.10566000000E+00  0.10566000000E+00 0.  1.
     999900   -1    0    0    0    0 -0.00000000000E+00 -0.00000000000E+00 -0.74505805969E-08  0.93827000000E+00  0.93827000000E+00 0. -1.
     999902    2    1    2    0    0 -0.30066103631E-02 -0.94251237111E-02 -0.22312191462E-01  0.10195228996E+01  0.10192307080E+01 0.  0.
     999903    2    3    3    0    0 -0.12845438916E+00  0.64224129993E-02  0.26121385555E-02  0.13013574438E+00  0.19664974271E-01 0.  0.
         14    1    1    2    0    0  0.30066103631E-02  0.94251237111E-02  0.22312191462E-01  0.24407100415E-01  0.00000000000E+00 0.  1.
     999901    1    3    3    0    0  0.12544777880E+00 -0.15847536710E-01 -0.24924330017E-01  0.88938715521E+00  0.88000000000E+00 0.  1.
        -11    1    4    4    0    0 -0.71627989055E-01  0.99425192011E-02 -0.59371513649E-02  0.72559860746E-01  0.51100000000E-03 0.  1.
         11    1    4    4    0    0 -0.56826400105E-01 -0.35201062018E-02  0.85492899204E-02  0.57575883629E-01  0.51100000000E-03 0. -1.
</event>
<event>
 8    1  0.1118868E+005  0.1043930E+01  0.7957747E-01            NaN
         13   -1    0    0    0    0  0.00000000000E+00  0.00000000000E+00  0.74505805969E-08  0.10566000000E+00  0.10566000000E+00 0. -1.
     999900   -1    0    0    0    0 -0.00000000000E+00 -0.00000000000E+00 -0.74505805969E-08  0.93827000000E+00  0.93827000000E+00 0.  1.
     999902    2    1    2    0    0 -0.42473123320E-02 -0.21358809437E-01  0.70000648502E-02  0.10210555752E+01  0.10207993183E+01 0.  0.
     999903    2    3    3    0    0 -0.32533791138E-01  0.30532850290E-01  0.12211279237E+00  0.13159292321E+00  0.20358311958E-01 0.  0.
         14    1    1    2    0    0  0.42473123320E-02  0.21358809437E-01 -0.70000648502E-02  0.22874424813E-01  0.00000000000E+00 0. -1.
     999901    1    3    3    0    0  0.28286478806E-01 -0.51891659727E-01 -0.11511272752E+00  0.88946265198E+00  0.88000000000E+00 0.  1.
        -11    1    4    4    0    0 -0.13136795333E-01  0.18497484626E-01  0.85358252013E-01  0.88323409336E-01  0.51100000000E-03 0.  1.
         11    1    4    4    0    0 -0.19396995805E-01  0.12035365664E-01  0.36754540354E-01  0.43269513870E-01  0.51100000000E-03 0. -1.
</event>
<event>
 8    1  0.1118868E+005  0.1043930E+01  0.7957747E-01            NaN
         13   -1    0    0    0    0  0.00000000000E+00  0.00000000000E+00  0.74505805969E-08  0.10566000000E+00  0.10566000000E+00 0.  1.
     999900   -1    0    0    0    0 -0.00000000000E+00 -0.00000000000E+00 -0.74505805969E-08  0.93827000000E+00  0.93827000000E+00 0. -1.
     999902    2    1    2    0    0  0.13380451021E-01 -0.15514120231E-01  0.12935168270E-01  0.10197010303E+01  0.10194131391E+01 0.  0.
     999903    2    3    3    0    0 -0.95060879837E-01  0.78926889247E-01  0.26924807690E-01  0.12791947825E+00  0.19298262227E-01 0.  0.
         14    1    1    2    0    0 -0.13380451021E-01  0.15514120231E-01 -0.12935168270E-01  0.24228969731E-01  0.00000000000E+00 0.  1.
     999901    1    3    3    0    0  0.10844133086E+00 -0.94441009478E-01 -0.13989639420E-01  0.89178155202E+00  0.88000000000E+00 0. -1.
        -11    1    4    4    0    0 -0.52991870345E-01  0.35480217819E-01  0.21035995425E-01  0.67154734782E-01  0.51100000000E-03 0.  1.
         11    1    4    4    0    0 -0.42069009492E-01  0.43446671428E-01  0.58888122655E-02  0.60764743468E-01  0.51100000000E-03 0. -1.
</event>
<event>
 8    1  0.1118868E+005  0.1043930E+01  0.7957747E-01            NaN
         13   -1    0    0    0    0  0.00000000000E+00  0.00000000000E+00  0.74505805969E-08  0.10566000000E+00  0.10566000000E+00 0. -1.
     999900   -1    0    0    0    0 -0.00000000000E+00 -0.00000000000E+00 -0.74505805969E-08  0.93827000000E+00  0.93827000000E+00 0. -1.
     999902    2    1    2    0    0  0.16356843697E-01 -0.33582681783E-02 -0.16363131772E-01  0.10205510269E+01  0.10202832068E+01 0.  0.
     999903    2    3    3    0    0  0.61950139980E-02 -0.12246474034E+00 -0.44662417819E-01  0.13201826777E+00  0.19952459352E-01 0.  0.
         14    1    1    2    0    0 -0.16356843697E-01  0.33582681783E-02  0.16363131772E-01  0.23378973080E-01  0.00000000000E+00 0. -1.
     999901    1    3    3    0    0  0.10161829699E-01  0.11910647216E+00  0.28299286047E-01  0.88853275915E+00  0.88000000000E+00 0. -1.
        -11    1    4    4    0    0  0.31942842150E-02 -0.56105872008E-01 -0.31060784110E-01  0.64211414531E-01  0.51100000000E-03 0. -1.
         11    1    4    4    0    0  0.30007297829E-02 -0.66358868333E-01 -0.13601633708E-01  0.67806853239E-01  0.51100000000E-03 0.  1.
</event>
<event>
 8    1  0.1118868E+005  0.1043930E+01  0.7957747E-01            NaN
         13   -1    0    0    0    0  0.00000000000E+00  0.00000000000E+00  0.74505805969E-08  0.10566000000E+00  0.10566000000E+00 0.  1.
     999900   -1    0    0    0    0 -0.00000000000E+00 -0.00000000000E+00 -0.74505805969E-08  0.93827000000E+00  0.93827000000E+00 0. -1.
     999902    2    1    2    0    0  0.66736754689E-02  0.23947421517E-02  0.22603759934E-01  0.10202402829E+01  0.10199652112E+01 0.  0.
     999903    2    3    3    0    0  0.10981004946E+00  0.35623087671E-01  0.62305190062E-01  0.13270581135E+00  0.20041065833E-01 0.  0.
         14    1    1    2    0    0 -0.66736754689E-02 -0.23947421517E-02 -0.22603759934E-01  0.23689717124E-01  0.00000000000E+00 0. -1.
     999901    1    3    3    0    0 -0.10313637400E+00 -0.33228345519E-01 -0.39701430128E-01  0.88753447152E+00  0.88000000000E+00 0. -1.
        -11    1    4    4    0    0  0.60968301082E-01  0.17357808703E-01  0.23124571337E-01  0.67479138853E-01  0.51100000000E-03 0.  1.
         11    1    4    4    0    0  0.48841748382E-01  0.18265278968E-01  0.39180618725E-01  0.65226672501E-01  0.51100000000E-03 0. -1.
</event>
<event>
 8    1  0.1118868E+005  0.1043930E+01  0.7957747E-01            NaN
         13   -1    0    0    0    0  0.00000000000E+00  0.00000000000E+00  0.74505805969E-08  0.10566000000E+00  0.10566000000E+00 0.  1.
     999900   -1    0    0    0    0 -0.00000000000E+00 -0.00000000000E+00 -0.74505805969E-08  0.93827000000E+00  0.93827000000E+00 0. -1.
     999902    2    1    2    0    0 -0.17279051693E-01  0.12487549066E-01  0.11970173141E-01  0.10194802647E+01  0.10191870391E+01 0.  0.
     999903    2    3    3    0    0 -0.53339893883E-01  0.74209902794E-01 -0.91115192520E-01  0.13058396826E+00  0.19948446215E-01 0.  0.
         14    1    1    2    0    0  0.17279051693E-01 -0.12487549066E-01 -0.11970173141E-01  0.24449735257E-01  0.00000000000E+00 0.  1.
     999901    1    3    3    0    0  0.36060842190E-01 -0.61722353728E-01  0.10308536566E+00  0.88889629648E+00  0.88000000000E+00 0.  1.
        -11    1    4    4    0    0 -0.40354714587E-02  0.45711526548E-02 -0.15157531341E-01  0.16346019205E-01  0.51100000000E-03 0. -1.
         11    1    4    4    0    0 -0.49304422425E-01  0.69638750139E-01 -0.75957661178E-01  0.11423794905E+00  0.51100000000E-03 0.  1.
</event>
<event>
 8    1  0.1118868E+005  0.1043930E+01  0.7957747E-01            NaN
         13   -1    0    0    0    0  0.00000000000E+00  0.00000000000E+00  0.74505805969E-08  0.10566000000E+00  0.10566000000E+00 0. -1.
     999900   -1    0    0    0    0 -0.00000000000E+00 -0.00000000000E+00 -0.74505805969E-08  0.93827000000E+00  0.93827000000E+00 0.  1.
     999902    2    1    2    0    0 -0.13136401727E-01  0.56249313767E-02  0.19285448511E-01  0.10199272204E+01  0.10196447428E+01 0.  0.
     999903    2    3    3    0    0 -0.10781023729E-01 -0.10494581743E+00  0.75328371433E-01  0.13123590871E+00  0.20460819254E-01 0.  0.
         14    1    1    2    0    0  0.13136401727E-01 -0.56249313767E-02 -0.19285448511E-01  0.24002779580E-01  0.00000000000E+00 0.  1.
     999901    1    3    3    0    0 -0.23553779986E-02  0.11057074880E+00 -0.56042922922E-01  0.88869131171E+00  0.88000000000E+00 0. -1.
        -11    1    4    4    0    0 -0.12655127108E-01 -0.31940837609E-01  0.26373577761E-01  0.43315079063E-01  0.51100000000E-03 0.  1.
         11    1    4    4    0    0  0.18741033796E-02 -0.73004979817E-01  0.48954793672E-01  0.87920829648E-01  0.51100000000E-03 0. -1.
</event>
<event>
 8    1  0.1118868E+005  0.1043930E+01  0.7957747E-01            NaN
         13   -1    0    0    0    0  0.00000000000E+00  0.00000000000E+00  0.74505805969E-08  0.10566000000E+00  0.10566000000E+00 0. -1.
     999900   -1    0    0    0    0 -0.00000000000E+00 -0.00000000000E+00 -0.74505805969E-08  0.93827000000E+00  0.93827000000E+00 0.  1.
     999902    2    1    2    0    0 -0.18571267293E-01 -0.96451391461E-02  0.11218959400E-01  0.10201858275E+01  0.10199094749E+01 0.  0.
     999903    2    3    3    0    0  0.55287068662E-01 -0.11493275656E+00  0.22604305346E-01  0.13076457619E+00  0.17950522926E-01 0.  0.
         14    1    1    2    0    0  0.18571267293E-01  0.96451391461E-02 -0.11218959400E-01  0.23744172507E-01  0.00000000000E+00 0.  1.
     999901    1    3    3    0    0 -0.73858335955E-01  0.10528761742E+00 -0.11385345946E-01  0.88942125131E+00  0.88000000000E+00 0. -1.
        -11    1    4    4    0    0  0.28558293245E-01 -0.59840701355E-01  0.26547219913E-02  0.66361090419E-01  0.51100000000E-03 0.  1.
         11    1    4    4    0    0  0.26728775417E-01 -0.55092055207E-01  0.19949583355E-01  0.64403485769E-01  0.51100000000E-03 0. -1.
</event>
<event>
 8    1  0.1118868E+005  0.1043930E+01  0.7957747E-01            NaN
         13   -1    0    0    0    0  0.00000000000E+00  0.00000000000E+00  0.74505805969E-08  0.10566000000E+00  0.10566000000E+00 0.  1.
     999900   -1    0    0    0    0 -0.00000000000E+00 -0.00000000000E+00 -0.74505805969E-08  0.93827000000E+00  0.93827000000E+00 0.  1.
     999902    2    1    2    0    0  0.83669788254E-02  0.20765908460E-01 -0.58949909573E-02  0.10207787537E+01  0.10205161849E+01 0.  0.
     999903    2    3    3    0    0  0.52206063712E-01  0.31898722701E-01 -0.11594520828E+00  0.13277151537E+00  0.21023376827E-01 0.  0.
         14    1    1    2    0    0 -0.83669788254E-02 -0.20765908460E-01  0.58949909573E-02  0.23151246342E-01  0.00000000000E+00 0.  1.
     999901    1    3    3    0    0 -0.43839084886E-01 -0.11132814242E-01  0.11005021732E+00  0.88800723829E+00  0.88000000000E+00 0. -1.
        -11    1    4    4    0    0  0.35648927232E-01  0.11760969595E-01 -0.56224180307E-01  0.67606109124E-01  0.51100000000E-03 0. -1.
         11    1    4    4    0    0  0.16557136479E-01  0.20137753107E-01 -0.59721027970E-01  0.65165406248E-01  0.51100000000E-03 0.  1.
</event>
<event>
 8    1  0.1118868E+005  0.1043930E+01  0.7957747E-01            NaN
         13   -1    0    0    0    0  0.00000000000E+00  0.00000000000E+00  0.74505805969E-08  0.10566000000E+00  0.10566000000E+00 0. -1.
     999900   -1    0    0    0    0 -0.00000000000E+00 -0.00000000000E+00 -0.74505805969E-08  0.93827000000E+00  0.93827000000E+00 0. -1.
     999902    2    1    2    0    0 -0.15472063852E-01  0.88624120446E-02 -0.12820946417E-01  0.10219685844E+01  0.10217325892E+01 0.  0.
     999903    2    3    3    0    0 -0.56826783331E-02  0.13139570812E+00  0.11079554562E-02  0.13331552781E+00  0.21787093536E-01 0.  0.
         14    1    1    2    0    0  0.15472063852E-01 -0.88624120446E-02  0.12820946417E-01  0.21961415577E-01  0.00000000000E+00 0.  1.
     999901    1    3    3    0    0 -0.97893855193E-02 -0.12253329608E+00 -0.13928901873E-01  0.88865305661E+00  0.88000000000E+00 0. -1.
        -11    1    4    4    0    0 -0.61371177870E-02  0.70082098504E-01  0.10994864462E-01  0.71206129729E-01  0.51100000000E-03 0. -1.
         11    1    4    4    0    0  0.45443945394E-03  0.61313609618E-01 -0.98869090061E-02  0.62109398084E-01  0.51100000000E-03 0.  1.
</event>
<event>
 8    1  0.1118868E+005  0.1043930E+01  0.7957747E-01            NaN
         13   -1    0    0    0    0  0.00000000000E+00  0.00000000000E+00  0.74505805969E-08  0.10566000000E+00  0.10566000000E+00 0. -1.
     999900   -1    0    0    0    0 -0.00000000000E+00 -0.00000000000E+00 -0.74505805969E-08  0.93827000000E+00  0.93827000000E+00 0. -1.
     999902    2    1    2    0    0 -0.12628965350E-01 -0.78441755025E-02  0.19869170971E-01  0.10191145651E+01  0.10188123924E+01 0.  0.
     999903    2    3    3    0    0  0.29678582885E-01 -0.97176799461E-02 -0.12127590712E+00  0.12686158990E+00  0.20267356979E-01 0.  0.
         14    1    1    2    0    0  0.12628965350E-01  0.78441755025E-02 -0.19869170971E-01  0.24815434919E-01  0.00000000000E+00 0.  1.
     999901    1    3    3    0    0 -0.42307548235E-01  0.18735044436E-02  0.14114507809E+00  0.89225297518E+00  0.88000000000E+00 0.  1.
        -11    1    4    4    0    0  0.12959727645E-01 -0.21143146400E-02 -0.19989067037E-01  0.23921722117E-01  0.51100000000E-03 0.  1.
         11    1    4    4    0    0  0.16718855240E-01 -0.76033653061E-02 -0.10128684008E+00  0.10293986778E+00  0.51100000000E-03 0. -1.
</event>
<event>
 8    1  0.1328616E+005  0.1043930E+01  0.7957747E-01            NaN
         13   -1    0    0    0    0  0.00000000000E+00  0.00000000000E+00  0.74505805969E-08  0.10566000000E+00  0.10566000000E+00 0. -1.
     999900   -1    0    0    0    0 -0.00000000000E+00 -0.00000000000E+00 -0.74505805969E-08  0.93827000000E+00  0.93827000000E+00 0. -1.
     999902    2    1    2    0    0  0.11144969182E-01  0.16820924453E-01 -0.12651323642E-01  0.10201138326E+01  0.10198357817E+01 0.  0.
     999903    2    3    3    0    0  0.43602065555E-01  0.34008733460E-01  0.11579330206E+00  0.13003130515E+00  0.21031344358E-01 0.  0.
         14    1    1    2    0    0 -0.11144969182E-01 -0.16820924453E-01  0.12651323642E-01  0.23816167353E-01  0.00000000000E+00 0. -1.
     999901    1    3    3    0    0 -0.32457096373E-01 -0.17187809007E-01 -0.12844462570E+00  0.89008252750E+00  0.88000000000E+00 0. -1.
        -11    1    4    4    0    0  0.27014931561E-01  0.28347301332E-01  0.60892230675E-01  0.72398210597E-01  0.51100000000E-03 0. -1.
         11    1    4    4    0    0  0.16587133994E-01  0.56614321282E-02  0.54901071382E-01  0.57633094554E-01  0.51100000000E-03 0.  1.
</event>
<event>
 8    1  0.1118868E+005  0.1043930E+01  0.7957747E-01            NaN
         13   -1    0    0    0    0  0.00000000000E+00  0.00000000000E+00  0.74505805969E-08  0.10566000000E+00  0.10566000000E+00 0. -1.
     999900   -1    0    0    0    0 -0.00000000000E+00 -0.00000000000E+00 -0.74505805969E-08  0.93827000000E+00  0.93827000000E+00 0.  1.
     999902    2    1    2    0    0 -0.19167662347E-01 -0.10620156044E-01  0.71046114505E-02  0.10208938871E+01  0.10206339531E+01 0.  0.
     999903    2    3    3    0    0  0.53481956615E-01  0.11530453437E+00  0.82250694897E-02  0.12896549859E+00  0.20223568627E-01 0.  0.
         14    1    1    2    0    0  0.19167662347E-01  0.10620156044E-01 -0.71046114505E-02  0.23036112912E-01  0.00000000000E+00 0. -1.
     999901    1    3    3    0    0 -0.72649618962E-01 -0.12592469041E+00 -0.11204580392E-02  0.89192838850E+00  0.88000000000E+00 0. -1.
        -11    1    4    4    0    0  0.40882111530E-01  0.10400730344E+00  0.78630740656E-02  0.11203104600E+00  0.51100000000E-03 0. -1.
         11    1    4    4    0    0  0.12599845085E-01  0.11297230924E-01  0.36199542413E-03  0.16934452587E-01  0.51100000000E-03 0.  1.
</event>
<event>
 8    1  0.1118868E+005  0.1043930E+01  0.7957747E-01            NaN
         13   -1    0    0    0    0  0.00000000000E+00  0.00000000000E+00  0.74505805969E-08  0.10566000000E+00  0.10566000000E+00 0. -1.
     999900   -1    0    0    0    0 -0.00000000000E+00 -0.00000000000E+00 -0.74505805969E-08  0.93827000000E+00  0.93827000000E+00 0. -1.
     999902    2    1    2    0    0  0.79814065443E-02  0.18674405554E-01  0.11167514231E-01  0.10207535109E+01  0.10204903627E+01 0.  0.
     999903    2    3    3    0    0 -0.66302596785E-01 -0.79418356265E-01 -0.73782060738E-01  0.12814120235E+00  0.16524696708E-01 0.  0.
         14    1    1    2    0    0 -0.79814065443E-02 -0.18674405554E-01 -0.11167514231E-01  0.23176489107E-01  0.00000000000E+00 0. -1.
     999901    1    3    3    0    0  0.74284003329E-01  0.98092761819E-01  0.84949574969E-01  0.89261230854E+00  0.88000000000E+00 0.  1.
        -11    1    4    4    0    0 -0.24688164675E-01 -0.32633419324E-01 -0.38912035680E-01  0.56469931588E-01  0.51100000000E-03 0.  1.
         11    1    4    4    0    0 -0.41614432110E-01 -0.46784936941E-01 -0.34870025057E-01  0.71671270764E-01  0.51100000000E-03 0. -1.
</event>
<event>
 8    1  0.1187747E+005  0.1043930E+01  0.7957747E-01            NaN
         13   -1    0    0    0    0  0.00000000000E+00  0.00000000000E+00  0.74505805969E-08  0.10566000000E+00  0.10566000000E+00 0.  1.
     999900   -1    0    0    0    0 -0.00000000000E+00 -0.00000000000E+00 -0.74505805969E-08  0.93827000000E+00  0.93827000000E+00 0. -1.
     999902    2    1    2    0    0  0.10955493993E-01 -0.99740489849E-03  0.21442662271E-01  0.10198300948E+01  0.10195452991E+01 0.  0.
     999903    2    3    3    0    0  0.37218351289E-01 -0.10188634853E+00 -0.67437311979E-01  0.12923031575E+00  0.19663412064E-01 0.  0.
         14    1    1    2    0    0 -0.10955493993E-01  0.99740489849E-03 -0.21442662271E-01  0.24099905196E-01  0.00000000000E+00 0. -1.
     999901    1    3    3    0    0 -0.26262857296E-01  0.10088894363E+00  0.88879974250E-01  0.89059977905E+00  0.88000000000E+00 0.  1.
        -11    1    4    4    0    0  0.59698609443E-02 -0.44350318523E-01 -0.26532289057E-01  0.52027045624E-01  0.51100000000E-03 0. -1.
         11    1    4    4    0    0  0.31248490345E-01 -0.57536030006E-01 -0.40905022922E-01  0.77203270131E-01  0.51100000000E-03 0.  1.
</event>
<event>
 8    1  0.1118868E+005  0.1043930E+01  0.7957747E-01            NaN
         13   -1    0    0    0    0  0.00000000000E+00  0.00000000000E+00  0.74505805969E-08  0.10566000000E+00  0.10566000000E+00 0. -1.
     999900   -1    0    0    0    0 -0.00000000000E+00 -0.00000000000E+00 -0.74505805969E-08  0.93827000000E+00  0.93827000000E+00 0.  1.
     999902    2    1    2    0    0  0.20351162931E-01 -0.15851229552E-02 -0.13103029310E-01  0.10196736230E+01  0.10193850723E+01 0.  0.
     999903    2    3    3    0    0 -0.28898195758E-01 -0.80242995205E-01  0.93821485799E-01  0.12835694970E+00  0.19974767609E-01 0.  0.
         14    1    1    2    0    0 -0.20351162931E-01  0.15851229552E-02  0.13103029310E-01  0.24256376986E-01  0.00000000000E+00 0. -1.
     999901    1    3    3    0    0  0.49249358688E-01  0.78657872250E-01 -0.10692451511E+00  0.89131667331E+00  0.88000000000E+00 0.  1.
        -11    1    4    4    0    0 -0.30346448123E-02 -0.37456331043E-01  0.41418320361E-01  0.55927848044E-01  0.51100000000E-03 0.  1.
         11    1    4    4    0    0 -0.25863550945E-01 -0.42786664162E-01  0.52403165437E-01  0.72429101654E-01  0.51100000000E-03 0. -1.
</event>
<event>
 8    1  0.1253964E+005  0.1043930E+01  0.7957747E-01            NaN
         13   -1    0    0    0    0  0.00000000000E+00  0.00000000000E+00  0.74505805969E-08  0.10566000000E+00  0.10566000000E+00 0. -1.
     999900   -1    0    0    0    0 -0.00000000000E+00 -0.00000000000E+00 -0.74505805969E-08  0.93827000000E+00  0.93827000000E+00 0.  1.
     999902    2    1    2    0    0 -0.15517435027E-01 -0.15281907775E-01 -0.89965351059E-02  0.10203659354E+01  0.10200938080E+01 0.  0.
     999903    2    3    3    0    0  0.31739398164E-01 -0.94830128170E-03 -0.12578311797E+00  0.13127776967E+00  0.20104013834E-01 0.  0.
         14    1    1    2    0    0  0.15517435027E-01  0.15281907775E-01  0.89965351059E-02  0.23564064568E-01  0.00000000000E+00 0.  1.
     999901    1    3    3    0    0 -0.47256833192E-01 -0.14333606493E-01  0.11678658287E+00  0.88908816576E+00  0.88000000000E+00 0. -1.
        -11    1    4    4    0    0  0.16620078819E-01 -0.10507706853E-01 -0.63844225065E-01  0.66805577001E-01  0.51100000000E-03 0. -1.
         11    1    4    4    0    0  0.15119319346E-01  0.95594055713E-02 -0.61938892906E-01  0.64472192670E-01  0.51100000000E-03 0.  1.
</event>
<event>
 7    1  0.1118868E+005  0.1043930E+01  0.7957747E-01            NaN
         13   -1    0    0    0    0  0.00000000000E+00  0.00000000000E+00  0.74505805969E-08  0.10566000000E+00  0.10566000000E+00 0. -1.
     999900   -1    0    0    0    0 -0.00000000000E+00 -0.00000000000E+00 -0.74505805969E-08  0.93827000000E+00  0.93827000000E+00 0.  1.
     999903    2    1    2    0    0 -0.72108871500E-01  0.38168929393E-01  0.80703312070E-01  0.11636513696E+00  0.19268212202E-01 0.  0.
         14    1    1    2    0    0 -0.68797044617E-02 -0.39839303615E-01 -0.10562336352E-02  0.40442750593E-01  0.00000000000E+00 0.  1.
     999901    1    1    2    0    0  0.78988575962E-01  0.16703742221E-02 -0.79647078435E-01  0.88712211244E+00  0.88000000000E+00 0.  1.
        -11    1    3    3    0    0 -0.55677430866E-02  0.56597805087E-02  0.16631768878E-01  0.18436641112E-01  0.51100000000E-03 0. -1.
         11    1    3    3    0    0 -0.66541128414E-01  0.32509148885E-01  0.64071543192E-01  0.97928495852E-01  0.51100000000E-03 0.  1.
</event>
<event>
 8    1  0.1359373E+005  0.1043930E+01  0.7957747E-01            NaN
         13   -1    0    0    0    0  0.00000000000E+00  0.00000000000E+00  0.74505805969E-08  0.10566000000E+00  0.10566000000E+00 0.  1.
     999900   -1    0    0    0    0 -0.00000000000E+00 -0.00000000000E+00 -0.74505805969E-08  0.93827000000E+00  0.93827000000E+00 0. -1.
     999902    2    1    2    0    0  0.11195895725E-01  0.16873094616E-01 -0.11834985307E-01  0.10204754422E+01  0.10202058674E+01 0.  0.
     999903    2    3    3    0    0 -0.56221871474E-02  0.40553569333E-01  0.12168420881E+00  0.12993011043E+00  0.19964617431E-01 0.  0.
         14    1    1    2    0    0 -0.11195895725E-01 -0.16873094616E-01  0.11834985307E-01  0.23454557771E-01  0.00000000000E+00 0.  1.
     999901    1    3    3    0    0  0.16818082872E-01 -0.23680474717E-01 -0.13351919411E+00  0.89054533180E+00  0.88000000000E+00 0. -1.
        -11    1    4    4    0    0  0.49890696913E-03  0.88066502223E-02  0.56277597927E-01  0.56966965390E-01  0.51100000000E-03 0.  1.
         11    1    4    4    0    0 -0.61210941165E-02  0.31746919111E-01  0.65406610880E-01  0.72963145040E-01  0.51100000000E-03 0. -1.
</event>
<event>
 8    1  0.1118868E+005  0.1043930E+01  0.7957747E-01            NaN
         13   -1    0    0    0    0  0.00000000000E+00  0.00000000000E+00  0.74505805969E-08  0.10566000000E+00  0.10566000000E+00 0. -1.
     999900   -1    0    0    0    0 -0.00000000000E+00 -0.00000000000E+00 -0.74505805969E-08  0.93827000000E+00  0.93827000000E+00 0. -1.
     999902    2    1    2    0    0  0.19957156051E-01 -0.11679226301E-01  0.10679834402E-02  0.10207819333E+01  0.10205194375E+01 0.  0.
     999903    2    3    3    0    0  0.72519033206E-01  0.66122385258E-01  0.87288441100E-01  0.13159702055E+00  0.82051117469E-02 0.  0.
         14    1    1    2    0    0 -0.19957156051E-01  0.11679226301E-01 -0.10679834402E-02  0.23148066729E-01  0.00000000000E+00 0.  1.
     999901    1    3    3    0    0 -0.52561877155E-01 -0.77801611559E-01 -0.86220457660E-01  0.88918491272E+00  0.88000000000E+00 0. -1.
        -11    1    4    4    0    0  0.24658179166E-01  0.21448584754E-01  0.34182435880E-01  0.47294477811E-01  0.51100000000E-03 0. -1.
         11    1    4    4    0    0  0.47860854041E-01  0.44673800504E-01  0.53106005220E-01  0.84302542740E-01  0.51100000000E-03 0.  1.
</event>
<event>
 8    1  0.1118868E+005  0.1043930E+01  0.7957747E-01            NaN
         13   -1    0    0    0    0  0.00000000000E+00  0.00000000000E+00  0.74505805969E-08  0.10566000000E+00  0.10566000000E+00 0.  1.
     999900   -1    0    0    0    0 -0.00000000000E+00 -0.00000000000E+00 -0.74505805969E-08  0.93827000000E+00  0.93827000000E+00 0.  1.
     999902    2    1    2    0    0  0.16570141821E-02 -0.20296113795E-01  0.10684574539E-01  0.10209335206E+01  0.10206744904E+01 0.  0.
     999903    2    3    3    0    0  0.12815362914E+00  0.17532054167E-01  0.53668289365E-02  0.13106800139E+00  0.20476634255E-01 0.  0.
         14    1    1    2    0    0 -0.16570141821E-02  0.20296113795E-01 -0.10684574539E-01  0.22996479388E-01  0.00000000000E+00 0. -1.
     999901    1    3    3    0    0 -0.12649661496E+00 -0.37828167962E-01  0.53177456029E-02  0.88986551922E+00  0.88000000000E+00 0. -1.
        -11    1    4    4    0    0  0.81813645732E-01  0.20186568056E-01 -0.57295004294E-03  0.84270751453E-01  0.51100000000E-03 0.  1.
         11    1    4    4    0    0  0.46339983406E-01 -0.26545138892E-02  0.59397789794E-02  0.46797249934E-01  0.51100000000E-03 0. -1.
</event>
<event>
 8    1  0.1118868E+005  0.1043930E+01  0.7957747E-01            NaN
         13   -1    0    0    0    0  0.00000000000E+00  0.00000000000E+00  0.74505805969E-08  0.10566000000E+00  0.10566000000E+00 0.  1.
     999900   -1    0    0    0    0 -0.00000000000E+00 -0.00000000000E+00 -0.74505805969E-08  0.93827000000E+00  0.93827000000E+00 0.  1.
     999902    2    1    2    0    0 -0.28932792570E-02 -0.18820980012E-01  0.12035831818E-01  0.10214030916E+01  0.10211546474E+01 0.  0.
     999903    2    3    3    0    0 -0.17134335568E-01 -0.64008599986E-02 -0.12738106765E+00  0.13022738565E+00  0.19966950522E-01 0.  0.
         14    1    1    2    0    0  0.28932792570E-02  0.18820980012E-01 -0.12035831818E-01  0.22526908377E-01  0.00000000000E+00 0.  1.
     999901    1    3    3    0    0  0.14241056311E-01 -0.12420120014E-01  0.13941689947E+00  0.89117570598E+00  0.88000000000E+00 0. -1.
        -11    1    4    4    0    0 -0.72986784875E-02  0.71939019762E-02 -0.51333187682E-01  0.52348640974E-01  0.51100000000E-03 0. -1.
         11    1    4    4    0    0 -0.98356570809E-02 -0.13594761975E-01 -0.76047879966E-01  0.77878744672E-01  0.51100000000E-03 0.  1.
</event>
<event>
 8    1  0.1118868E+005  0.1043930E+01  0.7957747E-01            NaN
         13   -1    0    0    0    0  0.00000000000E+00  0.00000000000E+00  0.74505805969E-08  0.10566000000E+00  0.10566000000E+00 0. -1.
     999900   -1    0    0    0    0 -0.00000000000E+00 -0.00000000000E+00 -0.74505805969E-08  0.93827000000E+00  0.93827000000E+00 0.  1.
     999902    2    1    2    0    0  0.15649429722E-01 -0.14742017746E-01  0.90625964605E-02  0.10205984250E+01  0.10203317023E+01 0.  0.
     999903    2    3    3    0    0  0.35718480080E-01 -0.22914339833E-01  0.12423872759E+00  0.13282869425E+00  0.20182264330E-01 0.  0.
         14    1    1    2    0    0 -0.15649429722E-01  0.14742017746E-01 -0.90625964605E-02  0.23331575010E-01  0.00000000000E+00 0.  1.
     999901    1    3    3    0    0 -0.20069050358E-01  0.81723220875E-02 -0.11517613113E+00  0.88776973074E+00  0.88000000000E+00 0.  1.
        -11    1    4    4    0    0  0.36471658658E-02 -0.12171318358E-01  0.26300623478E-01  0.29213468226E-01  0.51100000000E-03 0.  1.
         11    1    4    4    0    0  0.32071314214E-01 -0.10743021475E-01  0.97938104116E-01  0.10361522603E+00  0.51100000000E-03 0. -1.
</event>
<event>
 8    1  0.1118868E+005  0.1043930E+01  0.7957747E-01            NaN
         13   -1    0    0    0    0  0.00000000000E+00  0.00000000000E+00  0.74505805969E-08  0.10566000000E+00  0.10566000000E+00 0.  1.
     999900   -1    0    0    0    0 -0.00000000000E+00 -0.00000000000E+00 -0.74505805969E-08  0.93827000000E+00  0.93827000000E+00 0.  1.
     999902    2    1    2    0    0  0.10383714344E-01  0.12762720936E-01 -0.17708540144E-01  0.10197576819E+01  0.10194711515E+01 0.  0.
     999903    2    3    3    0    0  0.95202721058E-01 -0.57427327421E-01  0.62891634749E-01  0.12924249673E+00  0.19667465731E-01 0.  0.
         14    1    1    2    0    0 -0.10383714344E-01 -0.12762720936E-01  0.17708540144E-01  0.24172318120E-01  0.00000000000E+00 0.  1.
     999901    1    3    3    0    0 -0.84819006714E-01  0.70190048357E-01 -0.80600174892E-01  0.89051518515E+00  0.88000000000E+00 0.  1.
        -11    1    4    4    0    0  0.12805433929E-01 -0.99818905710E-02  0.17512052452E-01  0.23886196423E-01  0.51100000000E-03 0. -1.
         11    1    4    4    0    0  0.82397287129E-01 -0.47445436850E-01  0.45379582297E-01  0.10535630031E+00  0.51100000000E-03 0.  1.
</event>
<event>
 8    1  0.1118868E+005  0.1043930E+01  0.7957747E-01            NaN
         13   -1    0    0    0    0  0.00000000000E+00  0.00000000000E+00  0.74505805969E-08  0.10566000000E+00  0.10566000000E+00 0.  1.
     999900   -1    0    0    0    0 -0.00000000000E+00 -0.00000000000E+00 -0.74505805969E-08  0.93827000000E+00  0.93827000000E+00 0. -1.
     999902    2    1    2    0    0  0.10680141433E-01  0.17868729641E-01 -0.10450415656E-01  0.10206369086E+01  0.10203710752E+01 0.  0.
     999903    2    3    3    0    0 -0.49203520633E-01  0.36264256961E-01 -0.11554493255E+00  0.13217233086E+00  0.19565552156E-01 0.  0.
         14    1    1    2    0    0 -0.10680141433E-01 -0.17868729641E-01  0.10450415656E-01  0.23293091409E-01  0.00000000000E+00 0.  1.
     999901    1    3    3    0    0  0.59883662067E-01 -0.18395527320E-01  0.10509451689E+00  0.88846457773E+00  0.88000000000E+00 0.  1.
        -11    1    4    4    0    0 -0.27562328995E-01  0.86264374203E-02 -0.57206945548E-01  0.64085826375E-01  0.51100000000E-03 0. -1.
         11    1    4    4    0    0 -0.21641191638E-01  0.27637819541E-01 -0.58337986998E-01  0.68086504482E-01  0.51100000000E-03 0.  1.
</event>
<event>
 8    1  0.1118868E+005  0.1043930E+01  0.7957747E-01            NaN
         13   -1    0    0    0    0  0.00000000000E+00  0.00000000000E+00  0.74505805969E-08  0.10566000000E+00  0.10566000000E+00 0. -1.
     999900   -1    0    0    0    0 -0.00000000000E+00 -0.00000000000E+00 -0.74505805969E-08  0.93827000000E+00  0.93827000000E+00 0. -1.
     999902    2    1    2    0    0  0.96704982293E-02 -0.13535182441E-01  0.16659953239E-01  0.10203869810E+01  0.10201153451E+01 0.  0.
     999903    2    3    3    0    0  0.66147664593E-01 -0.66055243783E-01  0.93595193738E-01  0.13366996959E+00  0.19203950573E-01 0.  0.
         14    1    1    2    0    0 -0.96704982293E-02  0.13535182441E-01 -0.16659953239E-01  0.23543018958E-01  0.00000000000E+00 0.  1.
     999901    1    3    3    0    0 -0.56477166364E-01  0.52520061342E-01 -0.76935240498E-01  0.88671701145E+00  0.88000000000E+00 0. -1.
        -11    1    4    4    0    0  0.25988179899E-01 -0.36082046355E-01  0.52937749789E-01  0.69137298453E-01  0.51100000000E-03 0.  1.
         11    1    4    4    0    0  0.40159484694E-01 -0.29973197428E-01  0.40657443949E-01  0.64532671139E-01  0.51100000000E-03 0. -1.
</event>
<event>
 8    1  0.1118868E+005  0.1043930E+01  0.7957747E-01            NaN
         13   -1    0    0    0    0  0.00000000000E+00  0.00000000000E+00  0.74505805969E-08  0.10566000000E+00  0.10566000000E+00 0. -1.
     999900   -1    0    0    0    0 -0.00000000000E+00 -0.00000000000E+00 -0.74505805969E-08  0.93827000000E+00  0.93827000000E+00 0.  1.
     999902    2    1    2    0    0  0.17779096764E-01  0.48529064787E-02 -0.86377380308E-02  0.10235766833E+01  0.10233743055E+01 0.  0.
     999903    2    3    3    0    0 -0.74379618287E-01 -0.72526508628E-01  0.77497836634E-01  0.13122017389E+00  0.20503591915E-01 0.  0.
         14    1    1    2    0    0 -0.17779096764E-01 -0.48529064787E-02  0.86377380308E-02  0.20353316716E-01  0.00000000000E+00 0. -1.
     999901    1    3    3    0    0  0.92158715052E-01  0.77379415106E-01 -0.86135574665E-01  0.89235650940E+00  0.88000000000E+00 0.  1.
        -11    1    4    4    0    0 -0.18712117386E-01 -0.12829072063E-01  0.26856482901E-01  0.35160492344E-01  0.51100000000E-03 0.  1.
         11    1    4    4    0    0 -0.55667500902E-01 -0.59697436565E-01  0.50641353733E-01  0.96059681542E-01  0.51100000000E-03 0. -1.
</event>
<event>
 8    1  0.1118868E+005  0.1043930E+01  0.7957747E-01            NaN
         13   -1    0    0    0    0  0.00000000000E+00  0.00000000000E+00  0.74505805969E-08  0.10566000000E+00  0.10566000000E+00 0. -1.
     999900   -1    0    0    0    0 -0.00000000000E+00 -0.00000000000E+00 -0.74505805969E-08  0.93827000000E+00  0.93827000000E+00 0. -1.
     999902    2    1    2    0    0 -0.24978326755E-01 -0.15864134298E-01  0.11338652720E-01  0.10122416329E+01  0.10117455069E+01 0.  0.
     999903    2    3    3    0    0  0.20364730481E-01  0.11103886176E+00 -0.37019127210E-01  0.12067063845E+00  0.21133767702E-01 0.  0.
         14    1    1    2    0    0  0.24978326755E-01  0.15864134298E-01 -0.11338652720E-01  0.31688367108E-01  0.00000000000E+00 0.  1.
     999901    1    3    3    0    0 -0.45343057236E-01 -0.12690299605E+00  0.48357779931E-01  0.89157099444E+00  0.88000000000E+00 0. -1.
        -11    1    4    4    0    0  0.62395781205E-02  0.34273519337E-01 -0.13914836283E-02  0.34868378376E-01  0.51100000000E-03 0.  1.
         11    1    4    4    0    0  0.14125152361E-01  0.76765342418E-01 -0.35627643582E-01  0.85802260075E-01  0.51100000000E-03 0. -1.
</event>
<event>
 8    1  0.1118868E+005  0.1043930E+01  0.7957747E-01            NaN
         13   -1    0    0    0    0  0.00000000000E+00  0.00000000000E+00  0.74505805969E-08  0.10566000000E+00  0.10566000000E+00 0. -1.
     999900   -1    0    0    0    0 -0.00000000000E+00 -0.00000000000E+00 -0.74505805969E-08  0.93827000000E+00  0.93827000000E+00 0.  1.
     999902    2    1    2    0    0  0.70040274270E-02 -0.20304032255E-01  0.81287374986E-02  0.10209651029E+01  0.10207067918E+01 0.  0.
     999903    2    3    3    0    0  0.32238402734E-02  0.35330732627E-02 -0.12850368031E+00  0.13009422840E+00  0.19708796421E-01 0.  0.
         14    1    1    2    0    0 -0.70040274270E-02  0.20304032255E-01 -0.81287374986E-02  0.22964897111E-01  0.00000000000E+00 0.  1.
     999901    1    3    3    0    0  0.37801871536E-02 -0.23837105518E-01  0.13663241781E+00  0.89087087449E+00  0.88000000000E+00 0. -1.
        -11    1    4    4    0    0  0.40868496032E-02 -0.69107518979E-02 -0.83362929004E-01  0.83750223191E-01  0.51100000000E-03 0.  1.
         11    1    4    4    0    0 -0.86300932975E-03  0.10443825161E-01 -0.45140751309E-01  0.46344005209E-01  0.51100000000E-03 0. -1.
</event>
<event>
 8    1  0.1118868E+005  0.1043930E+01  0.7957747E-01            NaN
         13   -1    0    0    0    0  0.00000000000E+00  0.00000000000E+00  0.74505805969E-08  0.10566000000E+00  0.10566000000E+00 0. -1.
     999900   -1    0    0    0    0 -0.00000000000E+00 -0.00000000000E+00 -0.74505805969E-08  0.93827000000E+00  0.93827000000E+00 0.  1.
     999902    2    1    2    0    0 -0.19880736306E-01  0.19286426526E-02  0.13396139957E-01  0.10198796382E+01  0.10195960261E+01 0.  0.
     999903    2    3    3    0    0 -0.93068455251E-01 -0.58491793114E-01 -0.67942381358E-01  0.13104724322E+00  0.21775801842E-01 0.  0.
         14    1    1    2    0    0  0.19880736306E-01 -0.19286426526E-02 -0.13396139957E-01  0.24050361833E-01  0.00000000000E+00 0.  1.
     999901    1    3    3    0    0  0.73187718945E-01  0.60420435767E-01  0.81338521315E-01  0.88883239495E+00  0.88000000000E+00 0. -1.
        -11    1    4    4    0    0 -0.11810272820E-01 -0.72426376656E-02 -0.89279674615E-03  0.13892319873E-01  0.51100000000E-03 0. -1.
         11    1    4    4    0    0 -0.81258182431E-01 -0.51249155448E-01 -0.67049584612E-01  0.11715492334E+00  0.51100000000E-03 0.  1.
</event>
<event>
 8    1  0.1118868E+005  0.1043930E+01  0.7957747E-01            NaN
         13   -1    0    0    0    0  0.00000000000E+00  0.00000000000E+00  0.74505805969E-08  0.10566000000E+00  0.10566000000E+00 0.  1.
     999900   -1    0    0    0    0 -0.00000000000E+00 -0.00000000000E+00 -0.74505805969E-08  0.93827000000E+00  0.93827000000E+00 0.  1.
     999902    2    1    2    0    0  0.18601715899E-01  0.10464343926E-02 -0.16483695356E-01  0.10190536845E+01  0.10187500090E+01 0.  0.
     999903    2    3    3    0    0 -0.12537739822E+00  0.63199364316E-02 -0.35765994175E-02  0.12724407017E+00  0.20465281523E-01 0.  0.
         14    1    1    2    0    0 -0.18601715899E-01 -0.10464343926E-02  0.16483695356E-01  0.24876315481E-01  0.00000000000E+00 0.  1.
     999901    1    3    3    0    0  0.14397911412E+00 -0.52735020390E-02 -0.12907095939E-01  0.89180961435E+00  0.88000000000E+00 0. -1.
        -11    1    4    4    0    0 -0.10376763658E+00  0.17238052188E-02 -0.99103070289E-02  0.10425530783E+00  0.51100000000E-03 0.  1.
         11    1    4    4    0    0 -0.21609761645E-01  0.45961312128E-02  0.63337076114E-02  0.22988762333E-01  0.51100000000E-03 0. -1.
</event>
<event>
 8    1  0.1118868E+005  0.1043930E+01  0.7957747E-01            NaN
         13   -1    0    0    0    0  0.00000000000E+00  0.00000000000E+00  0.74505805969E-08  0.10566000000E+00  0.10566000000E+00 0. -1.
     999900   -1    0    0    0    0 -0.00000000000E+00 -0.00000000000E+00 -0.74505805969E-08  0.93827000000E+00  0.93827000000E+00 0. -1.
     999902    2    1    2    0    0 -0.19615867476E-01  0.53163371985E-02  0.96984810625E-02  0.10214109806E+01  0.10211627124E+01 0.  0.
     999903    2    3    3    0    0 -0.18335070051E-01 -0.11869868696E+00  0.49951477574E-01  0.13180338715E+00  0.21246874460E-01 0.  0.
         14    1    1    2    0    0  0.19615867476E-01 -0.53163371985E-02 -0.96984810625E-02  0.22519019360E-01  0.00000000000E+00 0.  1.
     999901    1    3    3    0    0 -0.12807974251E-02  0.12401502416E+00 -0.40252996512E-01  0.88960759349E+00  0.88000000000E+00 0.  1.
        -11    1    4    4    0    0 -0.80654795081E-02 -0.41699043566E-01  0.28712296287E-01  0.51269086915E-01  0.51100000000E-03 0.  1.
         11    1    4    4    0    0 -0.10269590542E-01 -0.76999643392E-01  0.21239181288E-01  0.80534300240E-01  0.51100000000E-03 0. -1.
</event>
<event>
 8    1  0.1118868E+005  0.1043930E+01  0.7957747E-01            NaN
         13   -1    0    0    0    0  0.00000000000E+00  0.00000000000E+00  0.74505805969E-08  0.10566000000E+00  0.10566000000E+00 0. -1.
     999900   -1    0    0    0    0 -0.00000000000E+00 -0.00000000000E+00 -0.74505805969E-08  0.93827000000E+00  0.93827000000E+00 0. -1.
     999902    2    1    2    0    0  0.89662926864E-02  0.19654109856E-01  0.75151523900E-02  0.10210573973E+01  0.10208011817E+01 0.  0.
     999903    2    3    3    0    0 -0.95416391631E-01  0.89335604579E-01  0.36280488939E-02  0.13214437283E+00  0.19074446142E-01 0.  0.
         14    1    1    2    0    0 -0.89662926864E-02 -0.19654109856E-01 -0.75151523900E-02  0.22872602699E-01  0.00000000000E+00 0. -1.
     999901    1    3    3    0    0  0.10438268432E+00 -0.69681494723E-01  0.38871034961E-02  0.88891302447E+00  0.88000000000E+00 0.  1.
        -11    1    4    4    0    0 -0.57225050608E-01  0.40875481249E-01  0.40111357991E-02  0.70440483501E-01  0.51100000000E-03 0.  1.
         11    1    4    4    0    0 -0.38191341023E-01  0.48460123330E-01 -0.38308690522E-03  0.61703889334E-01  0.51100000000E-03 0. -1.
</event>
<event>
 8    1  0.1118868E+005  0.1043930E+01  0.7957747E-01            NaN
         13   -1    0    0    0    0  0.00000000000E+00  0.00000000000E+00  0.74505805969E-08  0.10566000000E+00  0.10566000000E+00 0. -1.
     999900   -1    0    0    0    0 -0.00000000000E+00 -0.00000000000E+00 -0.74505805969E-08  0.93827000000E+00  0.93827000000E+00 0. -1.
     999902    2    1    2    0    0  0.20861922714E-01 -0.10598080574E-01  0.85015726505E-02  0.10190338985E+01  0.10187297338E+01 0.  0.
     999903    2    3    3    0    0  0.75066907346E-01  0.22002312788E-01 -0.10156967316E+00  0.12992386868E+00  0.21087218906E-01 0.  0.
         14    1    1    2    0    0 -0.20861922714E-01  0.10598080574E-01 -0.85015726505E-02  0.24896101476E-01  0.00000000000E+00 0. -1.
     999901    1    3    3    0    0 -0.54204984632E-01 -0.32600393362E-01  0.11007124581E+00  0.88911002984E+00  0.88000000000E+00 0.  1.
        -11    1    4    4    0    0  0.48579667395E-01  0.23979232193E-01 -0.73049637573E-01  0.90947778045E-01  0.51100000000E-03 0. -1.
         11    1    4    4    0    0  0.26487239950E-01 -0.19769194044E-02 -0.28520035590E-01  0.38976090640E-01  0.51100000000E-03 0.  1.
</event>
<event>
 8    1  0.1118868E+005  0.1043930E+01  0.7957747E-01            NaN
         13   -1    0    0    0    0  0.00000000000E+00  0.00000000000E+00  0.74505805969E-08  0.10566000000E+00  0.10566000000E+00 0.  1.
     999900   -1    0    0    0    0 -0.00000000000E+00 -0.00000000000E+00 -0.74505805969E-08  0.93827000000E+00  0.93827000000E+00 0. -1.
     999902    2    1    2    0    0 -0.15316976505E-02  0.49006024690E-02  0.22957976683E-01  0.10204048922E+01  0.10201336743E+01 0.  0.
     999903    2    3    3    0    0  0.66910080509E-01  0.59655610110E-01 -0.90343582553E-01  0.12882223696E+00  0.19936276843E-01 0.  0.
         14    1    1    2    0    0  0.15316976505E-02 -0.49006024690E-02 -0.22957976683E-01  0.23525107771E-01  0.00000000000E+00 0. -1.
     999901    1    3    3    0    0 -0.68441778159E-01 -0.54755007641E-01  0.11330155924E+00  0.89158265527E+00  0.88000000000E+00 0.  1.
        -11    1    4    4    0    0  0.40708488331E-01  0.28136790188E-01 -0.38320085320E-01  0.62590335070E-01  0.51100000000E-03 0. -1.
         11    1    4    4    0    0  0.26201592178E-01  0.31518819923E-01 -0.52023497233E-01  0.66231901885E-01  0.51100000000E-03 0.  1.
</event>
<event>
 8    1  0.1118868E+005  0.1043930E+01  0.7957747E-01            NaN
         13   -1    0    0    0    0  0.00000000000E+00  0.00000000000E+00  0.74505805969E-08  0.10566000000E+00  0.10566000000E+00 0. -1.
     999900   -1    0    0    0    0 -0.00000000000E+00 -0.00000000000E+00 -0.74505805969E-08  0.93827000000E+00  0.93827000000E+00 0. -1.
     999902    2    1    2    0    0 -0.52274291606E-02  0.15521689229E-01  0.17108580436E-01  0.10202455668E+01  0.10199706193E+01 0.  0.
     999903    2    3    3    0    0  0.31813342948E-01  0.15706304607E-01 -0.12236277651E+00  0.12849206257E+00  0.16696834205E-01 0.  0.
         14    1    1    2    0    0  0.52274291606E-02 -0.15521689229E-01 -0.17108580436E-01  0.23684433214E-01  0.00000000000E+00 0.  1.
     999901    1    3    3    0    0 -0.37040772108E-01 -0.18461537763E-03  0.13947135695E+00  0.89175350422E+00  0.88000000000E+00 0.  1.
        -11    1    4    4    0    0  0.17934419076E-01  0.76079375210E-02 -0.39055302468E-01  0.43647472697E-01  0.51100000000E-03 0. -1.
         11    1    4    4    0    0  0.13878923871E-01  0.80983670856E-02 -0.83307474044E-01  0.84844589868E-01  0.51100000000E-03 0.  1.
</event>
<event>
 8    1  0.1118868E+005  0.1043930E+01  0.7957747E-01            NaN
         13   -1    0    0    0    0  0.00000000000E+00  0.00000000000E+00  0.74505805969E-08  0.10566000000E+00  0.10566000000E+00 0.  1.
     999900   -1    0    0    0    0 -0.00000000000E+00 -0.00000000000E+00 -0.74505805969E-08  0.93827000000E+00  0.93827000000E+00 0. -1.
     999902    2    1    2    0    0  0.54970344907E-02  0.20878796207E-01 -0.35126700633E-02  0.10220558058E+01  0.10218217016E+01 0.  0.
     999903    2    3    3    0    0  0.11107477435E+00  0.65692290483E-01 -0.30772033649E-01  0.13419434067E+00  0.20201992155E-01 0.  0.
         14    1    1    2    0    0 -0.54970344907E-02 -0.20878796207E-01  0.35126700633E-02  0.21874194162E-01  0.00000000000E+00 0. -1.
     999901    1    3    3    0    0 -0.10557773986E+00 -0.44813494275E-01  0.27259363586E-01  0.88786146517E+00  0.88000000000E+00 0.  1.
        -11    1    4    4    0    0  0.70598976737E-01  0.48972352881E-01 -0.27754064961E-01  0.90294275044E-01  0.51100000000E-03 0.  1.
         11    1    4    4    0    0  0.40475797617E-01  0.16719937602E-01 -0.30179686878E-02  0.43900065628E-01  0.51100000000E-03 0. -1.
</event>
<event>
 8    1  0.1872783E+005  0.1043930E+01  0.7957747E-01            NaN
         13   -1    0    0    0    0  0.00000000000E+00  0.00000000000E+00  0.74505805969E-08  0.10566000000E+00  0.10566000000E+00 0.  1.
     999900   -1    0    0    0    0 -0.00000000000E+00 -0.00000000000E+00 -0.74505805969E-08  0.93827000000E+00  0.93827000000E+00 0.  1.
     999902    2    1    2    0    0  0.11684752785E-02  0.14565311972E-01  0.15614674376E-01  0.10225446849E+01  0.10223210361E+01 0.  0.
     999903    2    3    3    0    0 -0.10320330708E+00  0.46782595373E-01 -0.64977687430E-01  0.13213660366E+00  0.19961170853E-01 0.  0.
         14    1    1    2    0    0 -0.11684752785E-02 -0.14565311972E-01 -0.15614674376E-01  0.21385315130E-01  0.00000000000E+00 0. -1.
     999901    1    3    3    0    0  0.10437178236E+00 -0.32217283401E-01  0.80592361806E-01  0.89040808121E+00  0.88000000000E+00 0.  1.
        -11    1    4    4    0    0 -0.46578269536E-01  0.26128436814E-01 -0.20420972595E-01  0.57179608656E-01  0.51100000000E-03 0.  1.
         11    1    4    4    0    0 -0.56625037541E-01  0.20654158559E-01 -0.44556714835E-01  0.74956995005E-01  0.51100000000E-03 0. -1.
</event>
<event>
 8    1  0.1118868E+005  0.1043930E+01  0.7957747E-01            NaN
         13   -1    0    0    0    0  0.00000000000E+00  0.00000000000E+00  0.74505805969E-08  0.10566000000E+00  0.10566000000E+00 0. -1.
     999900   -1    0    0    0    0 -0.00000000000E+00 -0.00000000000E+00 -0.74505805969E-08  0.93827000000E+00  0.93827000000E+00 0. -1.
     999902    2    1    2    0    0 -0.75497630168E-02  0.71226835946E-02 -0.21533554050E-01  0.10200254922E+01  0.10197453502E+01 0.  0.
     999903    2    3    3    0    0 -0.10213536829E+00  0.80681082642E-01 -0.15620728124E-02  0.13168088854E+00  0.19908434962E-01 0.  0.
         14    1    1    2    0    0  0.75497630168E-02 -0.71226835946E-02  0.21533554050E-01  0.23904507801E-01  0.00000000000E+00 0. -1.
     999901    1    3    3    0    0  0.94585605270E-01 -0.73558399048E-01 -0.19971481237E-01  0.88834460366E+00  0.88000000000E+00 0. -1.
        -11    1    4    4    0    0 -0.72671238421E-01  0.50224022420E-01  0.63573846387E-02  0.88567707332E-01  0.51100000000E-03 0. -1.
         11    1    4    4    0    0 -0.29464129866E-01  0.30457060223E-01 -0.79194574511E-02  0.43113181204E-01  0.51100000000E-03 0.  1.
</event>
<event>
 8    1  0.1118868E+005  0.1043930E+01  0.7957747E-01            NaN
         13   -1    0    0    0    0  0.00000000000E+00  0.00000000000E+00  0.74505805969E-08  0.10566000000E+00  0.10566000000E+00 0. -1.
     999900   -1    0    0    0    0 -0.00000000000E+00 -0.00000000000E+00 -0.74505805969E-08  0.93827000000E+00  0.93827000000E+00 0. -1.
     999902    2    1    2    0    0 -0.20471322481E-01 -0.61795849780E-02  0.86403291736E-02  0.10208666611E+01  0.10206061052E+01 0.  0.
     999903    2    3    3    0    0 -0.75923642839E-01 -0.10354698316E+00 -0.28069961152E-01  0.13300236092E+00  0.20379598284E-01 0.  0.
         14    1    1    2    0    0  0.20471322481E-01  0.61795849780E-02 -0.86403291736E-02  0.23063338936E-01  0.00000000000E+00 0. -1.
     999901    1    3    3    0    0  0.55452320358E-01  0.97367398184E-01  0.36710290326E-01  0.88786430015E+00  0.88000000000E+00 0. -1.
        -11    1    4    4    0    0 -0.65413704755E-01 -0.92866999044E-01 -0.30952402057E-01  0.11773506103E+00  0.51100000000E-03 0.  1.
         11    1    4    4    0    0 -0.10509938084E-01 -0.10679984119E-01  0.28824409049E-02  0.15267299888E-01  0.51100000000E-03 0. -1.
</event>
<event>
 8    1  0.1118868E+005  0.1043930E+01  0.7957747E-01            NaN
         13   -1    0    0    0    0  0.00000000000E+00  0.00000000000E+00  0.74505805969E-08  0.10566000000E+00  0.10566000000E+00 0. -1.
     999900   -1    0    0    0    0 -0.00000000000E+00 -0.00000000000E+00 -0.74505805969E-08  0.93827000000E+00  0.93827000000E+00 0.  1.
     999902    2    1    2    0    0  0.10293006534E-01 -0.19938871914E-01  0.33805294464E-03  0.10214885456E+01  0.10212420036E+01 0.  0.
     999903    2    3    3    0    0  0.71203726313E-01 -0.10403890927E+00 -0.41518423171E-01  0.13439503492E+00  0.21075594040E-01 0.  0.
         14    1    1    2    0    0 -0.10293006534E-01  0.19938871914E-01 -0.33805294464E-03  0.22441454421E-01  0.00000000000E+00 0. -1.
     999901    1    3    3    0    0 -0.60910719778E-01  0.84100037358E-01  0.41856476116E-01  0.88709351066E+00  0.88000000000E+00 0. -1.
        -11    1    4    4    0    0  0.63748467841E-01 -0.80711649166E-01 -0.28868148817E-01  0.10682634787E+00  0.51100000000E-03 0.  1.
         11    1    4    4    0    0  0.74552584716E-02 -0.23327260107E-01 -0.12650274354E-01  0.27568687041E-01  0.51100000000E-03 0. -1.
</event>
<event>
 8    1  0.1118868E+005  0.1043930E+01  0.7957747E-01            NaN
         13   -1    0    0    0    0  0.00000000000E+00  0.00000000000E+00  0.74505805969E-08  0.10566000000E+00  0.10566000000E+00 0. -1.
     999900   -1    0    0    0    0 -0.00000000000E+00 -0.00000000000E+00 -0.74505805969E-08  0.93827000000E+00  0.93827000000E+00 0. -1.
     999902    2    1    2    0    0  0.10446185779E-01 -0.13962521669E-01 -0.16168803801E-01  0.10201496504E+01  0.10198724451E+01 0.  0.
     999903    2    3    3    0    0  0.30126980000E-01 -0.99429809777E-01  0.77039995635E-01  0.13089160505E+00  0.20088039974E-01 0.  0.
         14    1    1    2    0    0 -0.10446185779E-01  0.13962521669E-01  0.16168803801E-01  0.23780349557E-01  0.00000000000E+00 0. -1.
     999901    1    3    3    0    0 -0.19680794221E-01  0.85467288108E-01 -0.93208799435E-01  0.88925804539E+00  0.88000000000E+00 0. -1.
        -11    1    4    4    0    0  0.41900289147E-02 -0.62327318130E-02  0.51804442378E-03  0.75453813147E-02  0.51100000000E-03 0.  1.
         11    1    4    4    0    0  0.25936951085E-01 -0.93197077964E-01  0.76521951211E-01  0.12334622374E+00  0.51100000000E-03 0. -1.
</event>
<event>
 8    1  0.1118868E+005  0.1043930E+01  0.7957747E-01            NaN
         13   -1    0    0    0    0  0.00000000000E+00  0.00000000000E+00  0.74505805969E-08  0.10566000000E+00  0.10566000000E+00 0.  1.
     999900   -1    0    0    0    0 -0.00000000000E+00 -0.00000000000E+00 -0.74505805969E-08  0.93827000000E+00  0.93827000000E+00 0. -1.
     999902    2    1    2    0    0  0.26093824087E-02  0.22942220661E-01 -0.91902737853E-02  0.10190781289E+01  0.10187750573E+01 0.  0.
     999903    2    3    3    0    0  0.74767922162E-01  0.57791627083E-01 -0.89407834719E-01  0.13180354170E+00  0.21173057191E-01 0.  0.
         14    1    1    2    0    0 -0.26093824087E-02 -0.22942220661E-01  0.91902737853E-02  0.24851871109E-01  0.00000000000E+00 0.  1.
     999901    1    3    3    0    0 -0.72158539754E-01 -0.34849406423E-01  0.80217560934E-01  0.88727458719E+00  0.88000000000E+00 0.  1.
        -11    1    4    4    0    0  0.60719494754E-01  0.36239083445E-01 -0.70661146215E-01  0.99966929119E-01  0.51100000000E-03 0.  1.
         11    1    4    4    0    0  0.14048427408E-01  0.21552543638E-01 -0.18746688504E-01  0.31836612584E-01  0.51100000000E-03 0. -1.
</event>
<event>
 8    1  0.1118868E+005  0.1043930E+01  0.7957747E-01            NaN
         13   -1    0    0    0    0  0.00000000000E+00  0.00000000000E+00  0.74505805969E-08  0.10566000000E+00  0.10566000000E+00 0. -1.
     999900   -1    0    0    0    0 -0.00000000000E+00 -0.00000000000E+00 -0.74505805969E-08  0.93827000000E+00  0.93827000000E+00 0. -1.
     999902    2    1    2    0    0  0.59251574167E-02  0.17382013900E-01  0.12701632460E-01  0.10216012435E+01  0.10213571988E+01 0.  0.
     999903    2    3    3    0    0 -0.19290957084E-01 -0.95333457266E-02 -0.12642844912E+00  0.12990764785E+00  0.20707933674E-01 0.  0.
         14    1    1    2    0    0 -0.59251574167E-02 -0.17382013900E-01 -0.12701632460E-01  0.22328756454E-01  0.00000000000E+00 0.  1.
     999901    1    3    3    0    0  0.25216114501E-01  0.26915359626E-01  0.13913008158E+00  0.89169359570E+00  0.88000000000E+00 0.  1.
        -11    1    4    4    0    0 -0.10325003389E-01  0.58481648334E-02 -0.57614831978E-01  0.58826326690E-01  0.51100000000E-03 0.  1.
         11    1    4    4    0    0 -0.89659536948E-02 -0.15381510560E-01 -0.68813617137E-01  0.71081321156E-01  0.51100000000E-03 0. -1.
</event>
<event>
 8    1  0.1118868E+005  0.1043930E+01  0.7957747E-01            NaN
         13   -1    0    0    0    0  0.00000000000E+00  0.00000000000E+00  0.74505805969E-08  0.10566000000E+00  0.10566000000E+00 0. -1.
     999900   -1    0    0    0    0 -0.00000000000E+00 -0.00000000000E+00 -0.74505805969E-08  0.93827000000E+00  0.93827000000E+00 0. -1.
     999902    2    1    2    0    0 -0.10324808659E-01  0.18622329007E-01  0.93413758876E-02  0.10206780299E+01  0.10204131450E+01 0.  0.
     999903    2    3    3    0    0 -0.43289761409E-01 -0.14487885322E-01  0.12372658636E+00  0.13204596271E+00  0.66306736944E-02 0.  0.
         14    1    1    2    0    0  0.10324808659E-01 -0.18622329007E-01 -0.93413758876E-02  0.23251970131E-01  0.00000000000E+00 0.  1.
     999901    1    3    3    0    0  0.32964952750E-01  0.33110214329E-01 -0.11438521047E+00  0.88863206716E+00  0.88000000000E+00 0. -1.
        -11    1    4    4    0    0 -0.22449292121E-01 -0.53942583005E-02  0.69735101942E-01  0.73459610012E-01  0.51100000000E-03 0.  1.
         11    1    4    4    0    0 -0.20840469289E-01 -0.90936270213E-02  0.53991484415E-01  0.58586352702E-01  0.51100000000E-03 0. -1.
</event>
<event>
 8    1  0.1136870E+005  0.1043930E+01  0.7957747E-01            NaN
         13   -1    0    0    0    0  0.00000000000E+00  0.00000000000E+00  0.74505805969E-08  0.10566000000E+00  0.10566000000E+00 0.  1.
     999900   -1    0    0    0    0 -0.00000000000E+00 -0.00000000000E+00 -0.74505805969E-08  0.93827000000E+00  0.93827000000E+00 0. -1.
     999902    2    1    2    0    0 -0.14126449296E-01 -0.21182799116E-01  0.90717364536E-03  0.10184527452E+01  0.10181340303E+01 0.  0.
     999903    2    3    3    0    0  0.53362247489E-01  0.89652834161E-01 -0.68363902327E-01  0.12624327217E+00  0.19457145136E-01 0.  0.
         14    1    1    2    0    0  0.14126449296E-01  0.21182799116E-01 -0.90717364536E-03  0.25477254800E-01  0.00000000000E+00 0.  1.
     999901    1    3    3    0    0 -0.67488696784E-01 -0.11083563328E+00  0.69271075973E-01  0.89220947303E+00  0.88000000000E+00 0.  1.
        -11    1    4    4    0    0  0.19255069478E-01  0.50869247550E-01 -0.37616462653E-01  0.66133935543E-01  0.51100000000E-03 0. -1.
         11    1    4    4    0    0  0.34107178011E-01  0.38783586611E-01 -0.30747439674E-01  0.60109336627E-01  0.51100000000E-03 0.  1.
</event>
<event>
 8    1  0.1118868E+005  0.1043930E+01  0.7957747E-01            NaN
         13   -1    0    0    0    0  0.00000000000E+00  0.00000000000E+00  0.74505805969E-08  0.10566000000E+00  0.10566000000E+00 0.  1.
     999900   -1    0    0    0    0 -0.00000000000E+00 -0.00000000000E+00 -0.74505805969E-08  0.93827000000E+00  0.93827000000E+00 0. -1.
     999902    2    1    2    0    0  0.66541667025E-02 -0.80429349025E-02 -0.20629097698E-01  0.10208101728E+01  0.10205483245E+01 0.  0.
     999903    2    3    3    0    0 -0.87549844836E-02 -0.37923626608E-01 -0.12521876301E+00  0.13397913156E+00  0.27492142086E-01 0.  0.
         14    1    1    2    0    0 -0.66541667025E-02  0.80429349025E-02  0.20629097698E-01  0.23119827166E-01  0.00000000000E+00 0.  1.
     999901    1    3    3    0    0  0.15409151186E-01  0.29880691706E-01  0.10458966531E+00  0.88683104127E+00  0.88000000000E+00 0.  1.
        -11    1    4    4    0    0 -0.47510416809E-02 -0.20431288027E-01 -0.10440677570E+00  0.10649434661E+00  0.51100000000E-03 0. -1.
         11    1    4    4    0    0 -0.40039428028E-02 -0.17492338581E-01 -0.20811987309E-01  0.27484784950E-01  0.51100000000E-03 0.  1.
</event>
<event>
 8    1  0.1118868E+005  0.1043930E+01  0.7957747E-01            NaN
         13   -1    0    0    0    0  0.00000000000E+00  0.00000000000E+00  0.74505805969E-08  0.10566000000E+00  0.10566000000E+00 0. -1.
     999900   -1    0    0    0    0 -0.00000000000E+00 -0.00000000000E+00 -0.74505805969E-08  0.93827000000E+00  0.93827000000E+00 0.  1.
     999902    2    1    2    0    0 -0.14917371816E-01  0.15783731935E-01 -0.59384417131E-02  0.10214151323E+01  0.10211669566E+01 0.  0.
     999903    2    3    3    0    0 -0.47403105392E-01 -0.16322153278E-01  0.11965315137E+00  0.13132560931E+00  0.20397841543E-01 0.  0.
         14    1    1    2    0    0  0.14917371816E-01 -0.15783731935E-01  0.59384417131E-02  0.22514867658E-01  0.00000000000E+00 0. -1.
     999901    1    3    3    0    0  0.32485733576E-01  0.32105885213E-01 -0.12559159309E+00  0.89008952303E+00  0.88000000000E+00 0.  1.
        -11    1    4    4    0    0 -0.25231847257E-01 -0.12105283810E-01  0.42113756869E-01  0.50566922496E-01  0.51100000000E-03 0. -1.
         11    1    4    4    0    0 -0.22171258135E-01 -0.42168694682E-02  0.77539394504E-01  0.80758686817E-01  0.51100000000E-03 0.  1.
</event>
<event>
 8    1  0.1118868E+005  0.1043930E+01  0.7957747E-01            NaN
         13   -1    0    0    0    0  0.00000000000E+00  0.00000000000E+00  0.74505805969E-08  0.10566000000E+00  0.10566000000E+00 0.  1.
     999900   -1    0    0    0    0 -0.00000000000E+00 -0.00000000000E+00 -0.74505805969E-08  0.93827000000E+00  0.93827000000E+00 0. -1.
     999902    2    1    2    0    0 -0.93419001645E-02  0.22029148491E-01  0.10636178539E-02  0.10199782618E+01  0.10196969985E+01 0.  0.
     999903    2    3    3    0    0 -0.60361967542E-01 -0.53497454004E-01 -0.99991620595E-01  0.12951800089E+00  0.16463403531E-01 0.  0.
         14    1    1    2    0    0  0.93419001645E-02 -0.22029148491E-01 -0.10636178539E-02  0.23951738243E-01  0.00000000000E+00 0. -1.
     999901    1    3    3    0    0  0.51020067378E-01  0.75526602494E-01  0.10105523845E+00  0.89046026086E+00  0.88000000000E+00 0.  1.
        -11    1    4    4    0    0 -0.41960886985E-01 -0.26777977223E-01 -0.63525772616E-01  0.80706635466E-01  0.51100000000E-03 0.  1.
         11    1    4    4    0    0 -0.18401080557E-01 -0.26719476781E-01 -0.36465847979E-01  0.48811365428E-01  0.51100000000E-03 0. -1.
</event>
<event>
 8    1  0.1118868E+005  0.1043930E+01  0.7957747E-01            NaN
         13   -1    0    0    0    0  0.00000000000E+00  0.00000000000E+00  0.74505805969E-08  0.10566000000E+00  0.10566000000E+00 0.  1.
     999900   -1    0    0    0    0 -0.00000000000E+00 -0.00000000000E+00 -0.74505805969E-08  0.93827000000E+00  0.93827000000E+00 0. -1.
     999902    2    1    2    0    0  0.33545300422E-02 -0.23337553844E-01 -0.98236336788E-03  0.10203321330E+01  0.10200592151E+01 0.  0.
     999903    2    3    3    0    0  0.65237210366E-02  0.21461502845E-01 -0.12673017623E+00  0.13025937655E+00  0.20095088256E-01 0.  0.
         14    1    1    2    0    0 -0.33545300422E-02  0.23337553844E-01  0.98236336788E-03  0.23597867043E-01  0.00000000000E+00 0. -1.
     999901    1    3    3    0    0 -0.31691909944E-02 -0.44799056689E-01  0.12574781286E+00  0.89007275640E+00  0.88000000000E+00 0.  1.
        -11    1    4    4    0    0  0.75344768312E-02  0.86624209233E-02 -0.22745194227E-01  0.25483540939E-01  0.51100000000E-03 0.  1.
         11    1    4    4    0    0 -0.10107557946E-02  0.12799081922E-01 -0.10398498200E+00  0.10477583561E+00  0.51100000000E-03 0. -1.
</event>
<event>
 8    1  0.1118868E+005  0.1043930E+01  0.7957747E-01            NaN
         13   -1    0    0    0    0  0.00000000000E+00  0.00000000000E+00  0.74505805969E-08  0.10566000000E+00  0.10566000000E+00 0. -1.
     999900   -1    0    0    0    0 -0.00000000000E+00 -0.00000000000E+00 -0.74505805969E-08  0.93827000000E+00  0.93827000000E+00 0.  1.
     999902    2    1    2    0    0  0.98949681098E-02 -0.71305045863E-02  0.20014380416E-01  0.10204922119E+01  0.10202230269E+01 0.  0.
     999903    2    3    3    0    0 -0.69050493961E-03 -0.88600101690E-01 -0.92291119230E-01  0.12955906468E+00  0.20431488815E-01 0.  0.
         14    1    1    2    0    0 -0.98949681098E-02  0.71305045863E-02 -0.20014380416E-01  0.23437788142E-01  0.00000000000E+00 0.  1.
     999901    1    3    3    0    0  0.10585473049E-01  0.81469597104E-01  0.11230549965E+00  0.89093314718E+00  0.88000000000E+00 0. -1.
        -11    1    4    4    0    0 -0.33209746839E-02 -0.19319192097E-01 -0.32735913158E-01  0.38159680127E-01  0.51100000000E-03 0. -1.
         11    1    4    4    0    0  0.26304697443E-02 -0.69280909593E-01 -0.59555206072E-01  0.91399384552E-01  0.51100000000E-03 0.  1.
</event>
<event>
 8    1  0.1118868E+005  0.1043930E+01  0.7957747E-01            NaN
         13   -1    0    0    0    0  0.00000000000E+00  0.00000000000E+00  0.74505805969E-08  0.10566000000E+00  0.10566000000E+00 0.  1.
     999900   -1    0    0    0    0 -0.00000000000E+00 -0.00000000000E+00 -0.74505805969E-08  0.93827000000E+00  0.93827000000E+00 0. -1.
     999902    2    1    2    0    0 -0.23401267443E-01  0.29082007228E-02  0.70409947838E-02  0.10193199907E+01  0.10190228608E+01 0.  0.
     999903    2    3    3    0    0 -0.36059613245E-01 -0.10439203914E+00 -0.65058248285E-01  0.12978535056E+00  0.20338830021E-01 0.  0.
         14    1    1    2    0    0  0.23401267443E-01 -0.29082007228E-02 -0.70409947838E-02  0.24610009284E-01  0.00000000000E+00 0. -1.
     999901    1    3    3    0    0  0.12658345801E-01  0.10730023986E+00  0.72099243069E-01  0.88953464016E+00  0.88000000000E+00 0. -1.
        -11    1    4    4    0    0 -0.25252646462E-01 -0.42767278750E-01 -0.26593632688E-01  0.56340205055E-01  0.51100000000E-03 0. -1.
         11    1    4    4    0    0 -0.10806966782E-01 -0.61624760387E-01 -0.38464615597E-01  0.73445145502E-01  0.51100000000E-03 0.  1.
</event>
<event>
 8    1  0.1118868E+005  0.1043930E+01  0.7957747E-01            NaN
         13   -1    0    0    0    0  0.00000000000E+00  0.00000000000E+00  0.74505805969E-08  0.10566000000E+00  0.10566000000E+00 0. -1.
     999900   -1    0    0    0    0 -0.00000000000E+00 -0.00000000000E+00 -0.74505805969E-08  0.93827000000E+00  0.93827000000E+00 0. -1.
     999902    2    1    2    0    0  0.98194325899E-02 -0.86541977037E-02 -0.19859788791E-01  0.10201449710E+01  0.10198676553E+01 0.  0.
     999903    2    3    3    0    0  0.41201628385E-01 -0.46930257566E-01 -0.11629340007E+00  0.13349434061E+00  0.19913834835E-01 0.  0.
         14    1    1    2    0    0 -0.98194325899E-02  0.86541977037E-02  0.19859788791E-01  0.23785029012E-01  0.00000000000E+00 0. -1.
     999901    1    3    3    0    0 -0.31382195795E-01  0.38276059862E-01  0.96433611277E-01  0.88665063038E+00  0.88000000000E+00 0.  1.
        -11    1    4    4    0    0  0.28722570929E-01 -0.38855429387E-01 -0.71507782377E-01  0.86303850059E-01  0.51100000000E-03 0. -1.
         11    1    4    4    0    0  0.12479057456E-01 -0.80748281787E-02 -0.44785617691E-01  0.47190490547E-01  0.51100000000E-03 0.  1.
</event>
<event>
 8    1  0.1118868E+005  0.1043930E+01  0.7957747E-01            NaN
         13   -1    0    0    0    0  0.00000000000E+00  0.00000000000E+00  0.74505805969E-08  0.10566000000E+00  0.10566000000E+00 0. -1.
     999900   -1    0    0    0    0 -0.00000000000E+00 -0.00000000000E+00 -0.74505805969E-08  0.93827000000E+00  0.93827000000E+00 0. -1.
     999902    2    1    2    0    0 -0.23776389055E-02  0.52445390438E-02 -0.23122556149E-01  0.10201012157E+01  0.10198228667E+01 0.  0.
     999903    2    3    3    0    0  0.87302442974E-01 -0.50632810530E-01 -0.82714893167E-01  0.13177917846E+00  0.18401094333E-01 0.  0.
         14    1    1    2    0    0  0.23776389055E-02 -0.52445390438E-02  0.23122556149E-01  0.23828784262E-01  0.00000000000E+00 0. -1.
     999901    1    3    3    0    0 -0.89680081880E-01  0.55877349574E-01  0.59592337017E-01  0.88832203728E+00  0.88000000000E+00 0.  1.
        -11    1    4    4    0    0  0.75607881467E-01 -0.36611016516E-01 -0.63826157163E-01  0.10550335411E+00  0.51100000000E-03 0. -1.
         11    1    4    4    0    0  0.11694561507E-01 -0.14021794014E-01 -0.18888736004E-01  0.26275824345E-01  0.51100000000E-03 0.  1.
</event>
<event>
 8    1  0.1118868E+005  0.1043930E+01  0.7957747E-01            NaN
         13   -1    0    0    0    0  0.00000000000E+00  0.00000000000E+00  0.74505805969E-08  0.10566000000E+00  0.10566000000E+00 0. -1.
     999900   -1    0    0    0    0 -0.00000000000E+00 -0.00000000000E+00 -0.74505805969E-08  0.93827000000E+00  0.93827000000E+00 0.  1.
     999902    2    1    2    0    0 -0.21909356995E-01 -0.44269695609E-03 -0.93055175744E-02  0.10201222584E+01  0.10198444065E+01 0.  0.
     999903    2    3    3    0    0  0.26523627161E-02  0.94503443016E-01  0.86124779601E-01  0.12954660790E+00  0.20661805056E-01 0.  0.
         14    1    1    2    0    0  0.21909356995E-01  0.44269695609E-03  0.93055175744E-02  0.23807741637E-01  0.00000000000E+00 0. -1.
     999901    1    3    3    0    0 -0.24561719711E-01 -0.94946139972E-01 -0.95430297176E-01  0.89057565046E+00  0.88000000000E+00 0.  1.
        -11    1    4    4    0    0 -0.39181745635E-02  0.14082584917E-01  0.22284292536E-01  0.26655620509E-01  0.51100000000E-03 0. -1.
         11    1    4    4    0    0  0.65705372797E-02  0.80420858099E-01  0.63840487065E-01  0.10289098740E+00  0.51100000000E-03 0.  1.
</event>
<event>
 8    1  0.1118868E+005  0.1043930E+01  0.7957747E-01            NaN
         13   -1    0    0    0    0  0.00000000000E+00  0.00000000000E+00  0.74505805969E-08  0.10566000000E+00  0.10566000000E+00 0. -1.
     999900   -1    0    0    0    0 -0.00000000000E+00 -0.00000000000E+00 -0.74505805969E-08  0.93827000000E+00  0.93827000000E+00 0. -1.
     999902    2    1    2    0    0  0.25055824870E-01 -0.24596714122E-02 -0.92936395450E-02  0.10170931582E+01  0.10167390404E+01 0.  0.
     999903    2    3    3    0    0 -0.72451260192E-01  0.10131241885E+00  0.23652933023E-02  0.12557074731E+00  0.15780578237E-01 0.  0.
         14    1    1    2    0    0 -0.25055824870E-01  0.24596714122E-02  0.92936395450E-02  0.26836841829E-01  0.00000000000E+00 0.  1.
     999901    1    3    3    0    0  0.97507085062E-01 -0.10377209027E+00 -0.11658932847E-01  0.89152241086E+00  0.88000000000E+00 0.  1.
        -11    1    4    4    0    0 -0.50053887845E-01  0.80890886390E-01  0.40249799775E-02  0.95211284910E-01  0.51100000000E-03 0.  1.
         11    1    4    4    0    0 -0.22397372347E-01  0.20421532465E-01 -0.16596866752E-02  0.30359462398E-01  0.51100000000E-03 0. -1.
</event>
<event>
 8    1  0.1118868E+005  0.1043930E+01  0.7957747E-01            NaN
         13   -1    0    0    0    0  0.00000000000E+00  0.00000000000E+00  0.74505805969E-08  0.10566000000E+00  0.10566000000E+00 0.  1.
     999900   -1    0    0    0    0 -0.00000000000E+00 -0.00000000000E+00 -0.74505805969E-08  0.93827000000E+00  0.93827000000E+00 0.  1.
     999902    2    1    2    0    0  0.15451883823E-01  0.18670746348E-01 -0.73674657352E-02  0.10185994447E+01  0.10182844355E+01 0.  0.
     999903    2    3    3    0    0  0.66567660738E-01  0.47906158662E-01 -0.10091760970E+00  0.13168391236E+00  0.20737293328E-01 0.  0.
         14    1    1    2    0    0 -0.15451883823E-01 -0.18670746348E-01  0.73674657352E-02  0.25330555348E-01  0.00000000000E+00 0. -1.
     999901    1    3    3    0    0 -0.51115776915E-01 -0.29235412314E-01  0.93550143960E-01  0.88691553229E+00  0.88000000000E+00 0. -1.
        -11    1    4    4    0    0  0.32623455064E-01  0.20523658127E-01 -0.63174714326E-01  0.74005513405E-01  0.51100000000E-03 0.  1.
         11    1    4    4    0    0  0.33944205674E-01  0.27382500535E-01 -0.37742895370E-01  0.57678398957E-01  0.51100000000E-03 0. -1.
</event>
<event>
 8    1  0.1118868E+005  0.1043930E+01  0.7957747E-01            NaN
         13   -1    0    0    0    0  0.00000000000E+00  0.00000000000E+00  0.74505805969E-08  0.10566000000E+00  0.10566000000E+00 0.  1.
     999900   -1    0    0    0    0 -0.00000000000E+00 -0.00000000000E+00 -0.74505805969E-08  0.93827000000E+00  0.93827000000E+00 0.  1.
     999902    2    1    2    0    0 -0.10856594425E-01 -0.18666179562E-01  0.95311728300E-02  0.10203262893E+01  0.10200532347E+01 0.  0.
     999903    2    3    3    0    0 -0.10826075979E+00  0.97581451059E-02 -0.70446368282E-01  0.13089280629E+00  0.18831421293E-01 0.  0.
         14    1    1    2    0    0  0.10856594425E-01  0.18666179562E-01 -0.95311728300E-02  0.23603710672E-01  0.00000000000E+00 0. -1.
     999901    1    3    3    0    0  0.97404165368E-01 -0.28424324668E-01  0.79977541112E-01  0.88943348304E+00  0.88000000000E+00 0. -1.
        -11    1    4    4    0    0 -0.65705061253E-01 -0.11967603029E-02 -0.35153533891E-01  0.74529318899E-01  0.51100000000E-03 0. -1.
         11    1    4    4    0    0 -0.42555698540E-01  0.10954905409E-01 -0.35292834391E-01  0.56363487393E-01  0.51100000000E-03 0.  1.
</event>
<event>
 8    1  0.1118868E+005  0.1043930E+01  0.7957747E-01            NaN
         13   -1    0    0    0    0  0.00000000000E+00  0.00000000000E+00  0.74505805969E-08  0.10566000000E+00  0.10566000000E+00 0. -1.
     999900   -1    0    0    0    0 -0.00000000000E+00 -0.00000000000E+00 -0.74505805969E-08  0.93827000000E+00  0.93827000000E+00 0. -1.
     999902    2    1    2    0    0 -0.30310929501E-01 -0.17284900683E-02 -0.50863784156E-02  0.10131467031E+01  0.10126789375E+01 0.  0.
     999903    2    3    3    0    0 -0.10320130026E+00  0.33781371680E-01 -0.63857835952E-01  0.12746727988E+00  0.19452372063E-01 0.  0.
         14    1    1    2    0    0  0.30310929501E-01  0.17284900683E-02  0.50863784156E-02  0.30783296940E-01  0.00000000000E+00 0.  1.
     999901    1    3    3    0    0  0.72890370757E-01 -0.35509861749E-01  0.58771457537E-01  0.88567942318E+00  0.88000000000E+00 0.  1.
        -11    1    4    4    0    0 -0.49334574027E-01  0.20825961659E-01 -0.41376007869E-01  0.67674633516E-01  0.51100000000E-03 0. -1.
         11    1    4    4    0    0 -0.53866726231E-01  0.12955410022E-01 -0.22481828084E-01  0.59792646359E-01  0.51100000000E-03 0.  1.
</event>
<event>
 8    1  0.1118868E+005  0.1043930E+01  0.7957747E-01            NaN
         13   -1    0    0    0    0  0.00000000000E+00  0.00000000000E+00  0.74505805969E-08  0.10566000000E+00  0.10566000000E+00 0.  1.
     999900   -1    0    0    0    0 -0.00000000000E+00 -0.00000000000E+00 -0.74505805969E-08  0.93827000000E+00  0.93827000000E+00 0. -1.
     999902    2    1    2    0    0  0.84204526177E-02  0.20049574598E-01  0.92580162424E-02  0.10202952728E+01  0.10200214916E+01 0.  0.
     999903    2    3    3    0    0  0.10878400959E+00  0.67767301362E-01  0.29663858403E-01  0.13307138710E+00  0.20041998220E-01 0.  0.
         14    1    1    2    0    0 -0.84204526177E-02 -0.20049574598E-01 -0.92580162424E-02  0.23634727174E-01  0.00000000000E+00 0. -1.
     999901    1    3    3    0    0 -0.10036355697E+00 -0.47717726764E-01 -0.20405842161E-01  0.88722388573E+00  0.88000000000E+00 0. -1.
        -11    1    4    4    0    0  0.24016951383E-01  0.99915291180E-02  0.13196230129E-01  0.29172696455E-01  0.51100000000E-03 0.  1.
         11    1    4    4    0    0  0.84767058204E-01  0.57775772244E-01  0.16467628274E-01  0.10389869064E+00  0.51100000000E-03 0. -1.
</event>
<event>
 8    1  0.1149142E+005  0.1043930E+01  0.7957747E-01            NaN
         13   -1    0    0    0    0  0.00000000000E+00  0.00000000000E+00  0.74505805969E-08  0.10566000000E+00  0.10566000000E+00 0. -1.
     999900   -1    0    0    0    0 -0.00000000000E+00 -0.00000000000E+00 -0.74505805969E-08  0.93827000000E+00  0.93827000000E+00 0.  1.
     999902    2    1    2    0    0 -0.64806607903E-03  0.22975958162E-01 -0.50554727718E-02  0.10203955051E+01  0.10201240682E+01 0.  0.
     999903    2    3    3    0    0  0.51437754637E-02  0.12557818312E-01 -0.12960452322E+00  0.13154537771E+00  0.17963761642E-01 0.  0.
         14    1    1    2    0    0  0.64806607903E-03 -0.22975958162E-01  0.50554727718E-02  0.23534494855E-01  0.00000000000E+00 0. -1.
     999901    1    3    3    0    0 -0.57918415427E-02  0.10418139850E-01  0.12454905045E+00  0.88885012743E+00  0.88000000000E+00 0. -1.
        -11    1    4    4    0    0  0.23667060998E-03  0.15633743906E-01 -0.73863728372E-01  0.75502195011E-01  0.51100000000E-03 0. -1.
         11    1    4    4    0    0  0.49071048537E-02 -0.30759255931E-02 -0.55740794848E-01  0.56043182703E-01  0.51100000000E-03 0.  1.
</event>
<event>
 8    1  0.1118868E+005  0.1043930E+01  0.7957747E-01            NaN
         13   -1    0    0    0    0  0.00000000000E+00  0.00000000000E+00  0.74505805969E-08  0.10566000000E+00  0.10566000000E+00 0.  1.
     999900   -1    0    0    0    0 -0.00000000000E+00 -0.00000000000E+00 -0.74505805969E-08  0.93827000000E+00  0.93827000000E+00 0. -1.
     999902    2    1    2    0    0  0.20139229481E-01 -0.14780272450E-01 -0.35280185133E-02  0.10187012083E+01  0.10183887567E+01 0.  0.
     999903    2    3    3    0    0  0.54161929496E-01 -0.43849242012E-01  0.10953190172E+00  0.13034030488E+00  0.11622691163E-01 0.  0.
         14    1    1    2    0    0 -0.20139229481E-01  0.14780272450E-01  0.35280185133E-02  0.25228791735E-01  0.00000000000E+00 0. -1.
     999901    1    3    3    0    0 -0.34022700015E-01  0.29068969562E-01 -0.11305992023E+00  0.88836090339E+00  0.88000000000E+00 0. -1.
        -11    1    4    4    0    0  0.24118368527E-01 -0.12388068669E-01  0.40351063072E-01  0.48617171429E-01  0.51100000000E-03 0. -1.
         11    1    4    4    0    0  0.30043560969E-01 -0.31461173343E-01  0.69180838645E-01  0.81723133447E-01  0.51100000000E-03 0.  1.
</event>
<event>
 7    1  0.1118868E+005  0.1043930E+01  0.7957747E-01            NaN
         13   -1    0    0    0    0  0.00000000000E+00  0.00000000000E+00  0.74505805969E-08  0.10566000000E+00  0.10566000000E+00 0.  1.
     999900   -1    0    0    0    0 -0.00000000000E+00 -0.00000000000E+00 -0.74505805969E-08  0.93827000000E+00  0.93827000000E+00 0. -1.
     999903    2    1    2    0    0 -0.38714953940E-01 -0.85952438592E-01 -0.59817333925E-01  0.11308419489E+00  0.17979219573E-01 0.  0.
         14    1    1    2    0    0 -0.86320808346E-02 -0.54688241288E-02  0.43509855252E-01  0.44693717242E-01  0.00000000000E+00 0.  1.
     999901    1    1    2    0    0  0.47347034775E-01  0.91421262721E-01  0.16307478673E-01  0.88615208787E+00  0.88000000000E+00 0. -1.
        -11    1    3    3    0    0 -0.23633014854E-01 -0.66300112691E-01 -0.50424096224E-01  0.86585650861E-01  0.51100000000E-03 0. -1.
         11    1    3    3    0    0 -0.15081939087E-01 -0.19652325901E-01 -0.93932377005E-02  0.26498544025E-01  0.51100000000E-03 0.  1.
</event>
<event>
 6    1  0.1118868E+005  0.1043930E+01  0.7957747E-01            NaN
         13   -1    0    0    0    0  0.00000000000E+00  0.00000000000E+00  0.74505805969E-08  0.10566000000E+00  0.10566000000E+00 0.  1.
     999900   -1    0    0    0    0 -0.00000000000E+00 -0.00000000000E+00 -0.74505805969E-08  0.93827000000E+00  0.93827000000E+00 0.  1.
         14    1    1    2    0    0 -0.13231226556E-01  0.28829035581E-01  0.27179777587E-01  0.41772227118E-01  0.00000000000E+00 0.  1.
     999901    1    1    2    0    0 -0.83227412069E-01  0.56382054676E-02  0.17643247500E-01  0.88412096212E+00  0.88000000000E+00 0. -1.
        -11    1    1    2    0    0  0.32082385419E-01 -0.25056780022E-01 -0.31859765972E-01  0.51695526770E-01  0.51100000000E-03 0.  1.
         11    1    1    2    0    0  0.64376253206E-01 -0.94104610268E-02 -0.12963259115E-01  0.66341283990E-01  0.51100000000E-03 0. -1.
</event>
<event>
 8    1  0.1118868E+005  0.1043930E+01  0.7957747E-01            NaN
         13   -1    0    0    0    0  0.00000000000E+00  0.00000000000E+00  0.74505805969E-08  0.10566000000E+00  0.10566000000E+00 0.  1.
     999900   -1    0    0    0    0 -0.00000000000E+00 -0.00000000000E+00 -0.74505805969E-08  0.93827000000E+00  0.93827000000E+00 0.  1.
     999902    2    1    2    0    0  0.23730412060E-01  0.61349126553E-02  0.72083646718E-04  0.10194192920E+01  0.10191245842E+01 0.  0.
     999903    2    3    3    0    0 -0.30892708593E-01 -0.40462288091E-01 -0.11664458625E+00  0.12881401163E+00  0.19888033806E-01 0.  0.
         14    1    1    2    0    0 -0.23730412060E-01 -0.61349126553E-02 -0.72083646718E-04  0.24510707984E-01  0.00000000000E+00 0.  1.
     999901    1    3    3    0    0  0.54623120654E-01  0.46597200746E-01  0.11671666989E+00  0.89060528039E+00  0.88000000000E+00 0. -1.
        -11    1    4    4    0    0 -0.13249426068E-01 -0.13145260216E-01 -0.66291792941E-01  0.68870952437E-01  0.51100000000E-03 0.  1.
         11    1    4    4    0    0 -0.17643282526E-01 -0.27317027875E-01 -0.50352793306E-01  0.59943059189E-01  0.51100000000E-03 0. -1.
</event>
<event>
 8    1  0.1118868E+005  0.1043930E+01  0.7957747E-01            NaN
         13   -1    0    0    0    0  0.00000000000E+00  0.00000000000E+00  0.74505805969E-08  0.10566000000E+00  0.10566000000E+00 0. -1.
     999900   -1    0    0    0    0 -0.00000000000E+00 -0.00000000000E+00 -0.74505805969E-08  0.93827000000E+00  0.93827000000E+00 0. -1.
     999902    2    1    2    0    0  0.14912110834E-01  0.13467318395E-01 -0.22277581539E-02  0.10237136052E+01  0.10235139680E+01 0.  0.
     999903    2    3    3    0    0  0.12560653805E+00  0.41585578499E-01 -0.22883206117E-01  0.13609288643E+00  0.22164608630E-01 0.  0.
         14    1    1    2    0    0 -0.14912110834E-01 -0.13467318395E-01  0.22277581539E-02  0.20216394848E-01  0.00000000000E+00 0. -1.
     999901    1    3    3    0    0 -0.11069442721E+00 -0.28118260104E-01  0.20655447963E-01  0.88762071872E+00  0.88000000000E+00 0.  1.
        -11    1    4    4    0    0  0.89579875808E-01  0.37775866672E-01 -0.22815004930E-01  0.99861683460E-01  0.51100000000E-03 0.  1.
         11    1    4    4    0    0  0.36026662242E-01  0.38097118268E-02 -0.68201187046E-04  0.36231202973E-01  0.51100000000E-03 0. -1.
</event>
<event>
 8    1  0.1118868E+005  0.1043930E+01  0.7957747E-01            NaN
         13   -1    0    0    0    0  0.00000000000E+00  0.00000000000E+00  0.74505805969E-08  0.10566000000E+00  0.10566000000E+00 0.  1.
     999900   -1    0    0    0    0 -0.00000000000E+00 -0.00000000000E+00 -0.74505805969E-08  0.93827000000E+00  0.93827000000E+00 0. -1.
     999902    2    1    2    0    0 -0.13223548714E-01 -0.15433867904E-01 -0.11679975093E-01  0.10204888324E+01  0.10202195689E+01 0.  0.
     999903    2    3    3    0    0  0.10801194050E+00 -0.69719261235E-01 -0.89505659527E-02  0.13051557583E+00  0.20660305607E-01 0.  0.
         14    1    1    2    0    0  0.13223548714E-01  0.15433867904E-01  0.11679975093E-01  0.23441167574E-01  0.00000000000E+00 0. -1.
     999901    1    3    3    0    0 -0.12123548921E+00  0.54285393330E-01 -0.27294091402E-02  0.88997325659E+00  0.88000000000E+00 0.  1.
        -11    1    4    4    0    0  0.45642675326E-01 -0.40396623623E-01 -0.88641444117E-02  0.61595252969E-01  0.51100000000E-03 0. -1.
         11    1    4    4    0    0  0.62369265170E-01 -0.29322637611E-01 -0.86421540950E-04  0.68920322866E-01  0.51100000000E-03 0.  1.
</event>
<event>
 8    1  0.1118868E+005  0.1043930E+01  0.7957747E-01            NaN
         13   -1    0    0    0    0  0.00000000000E+00  0.00000000000E+00  0.74505805969E-08  0.10566000000E+00  0.10566000000E+00 0.  1.
     999900   -1    0    0    0    0 -0.00000000000E+00 -0.00000000000E+00 -0.74505805969E-08  0.93827000000E+00  0.93827000000E+00 0.  1.
     999902    2    1    2    0    0  0.55268058228E-02  0.50751947687E-02 -0.22849681628E-01  0.10198798205E+01  0.10195962128E+01 0.  0.
     999903    2    3    3    0    0 -0.54189072439E-01 -0.44338970850E-01 -0.10992330724E+00  0.13219205884E+00  0.22118025217E-01 0.  0.
         14    1    1    2    0    0 -0.55268058228E-02 -0.50751947687E-02  0.22849681628E-01  0.24050179522E-01  0.00000000000E+00 0.  1.
     999901    1    3    3    0    0  0.59715878262E-01  0.49414165619E-01  0.87073625609E-01  0.88768776164E+00  0.88000000000E+00 0.  1.
        -11    1    4    4    0    0 -0.48564802498E-01 -0.46482264077E-01 -0.98244725212E-01  0.11904380735E+00  0.51100000000E-03 0.  1.
         11    1    4    4    0    0 -0.56242699411E-02  0.21432932268E-02 -0.11678582024E-01  0.13148251493E-01  0.51100000000E-03 0. -1.
</event>
<event>
 8    1  0.1299123E+005  0.1043930E+01  0.7957747E-01            NaN
         13   -1    0    0    0    0  0.00000000000E+00  0.00000000000E+00  0.74505805969E-08  0.10566000000E+00  0.10566000000E+00 0. -1.
     999900   -1    0    0    0    0 -0.00000000000E+00 -0.00000000000E+00 -0.74505805969E-08  0.93827000000E+00  0.93827000000E+00 0. -1.
     999902    2    1    2    0    0 -0.76002193987E-02  0.91222685955E-02 -0.20840722356E-01  0.10199442787E+01  0.10196622072E+01 0.  0.
     999903    2    3    3    0    0  0.48918711464E-01  0.20427872974E-01  0.11450268641E+00  0.12773351628E+00  0.19865740876E-01 0.  0.
         14    1    1    2    0    0  0.76002193987E-02 -0.91222685955E-02  0.20840722356E-01  0.23985721327E-01  0.00000000000E+00 0. -1.
     999901    1    3    3    0    0 -0.56518930863E-01 -0.11305604378E-01 -0.13534340877E+00  0.89221076239E+00  0.88000000000E+00 0. -1.
        -11    1    4    4    0    0  0.20399885689E-01  0.44696930695E-02  0.66153608228E-01  0.69373586435E-01  0.51100000000E-03 0.  1.
         11    1    4    4    0    0  0.28518825775E-01  0.15958179904E-01  0.48349078181E-01  0.58359929844E-01  0.51100000000E-03 0. -1.
</event>
<event>
 8    1  0.1118868E+005  0.1043930E+01  0.7957747E-01            NaN
         13   -1    0    0    0    0  0.00000000000E+00  0.00000000000E+00  0.74505805969E-08  0.10566000000E+00  0.10566000000E+00 0.  1.
     999900   -1    0    0    0    0 -0.00000000000E+00 -0.00000000000E+00 -0.74505805969E-08  0.93827000000E+00  0.93827000000E+00 0. -1.
     999902    2    1    2    0    0  0.33523758736E-02 -0.12333579270E-01 -0.19605574842E-01  0.10205262788E+01  0.10202578848E+01 0.  0.
     999903    2    3    3    0    0 -0.46109818629E-01 -0.11385763867E+00  0.43517836546E-01  0.13106677528E+00  0.13964964228E-01 0.  0.
         14    1    1    2    0    0 -0.33523758736E-02  0.12333579270E-01  0.19605574842E-01  0.23403721211E-01  0.00000000000E+00 0.  1.
     999901    1    3    3    0    0  0.49462194502E-01  0.10152405940E+00 -0.63123411388E-01  0.88945950351E+00  0.88000000000E+00 0. -1.
        -11    1    4    4    0    0 -0.37305691086E-01 -0.75364467126E-01  0.27921833495E-01  0.88608167791E-01  0.51100000000E-03 0.  1.
         11    1    4    4    0    0 -0.88041275429E-02 -0.38493171546E-01  0.15596003051E-01  0.42458607486E-01  0.51100000000E-03 0. -1.
</event>
<event>
 8    1  0.1118868E+005  0.1043930E+01  0.7957747E-01            NaN
         13   -1    0    0    0    0  0.00000000000E+00  0.00000000000E+00  0.74505805969E-08  0.10566000000E+00  0.10566000000E+00 0. -1.
     999900   -1    0    0    0    0 -0.00000000000E+00 -0.00000000000E+00 -0.74505805969E-08  0.93827000000E+00  0.93827000000E+00 0.  1.
     999902    2    1    2    0    0  0.17826896737E-01 -0.93115726292E-02 -0.12543595021E-01  0.10202267216E+01  0.10199513312E+01 0.  0.
     999903    2    3    3    0    0 -0.11239507905E+00 -0.31637697544E-01  0.49340087483E-01  0.12821449689E+00  0.19259160873E-01 0.  0.
         14    1    1    2    0    0 -0.17826896737E-01  0.93115726292E-02  0.12543595021E-01  0.23703278426E-01  0.00000000000E+00 0. -1.
     999901    1    3    3    0    0  0.13022197579E+00  0.22326124915E-01 -0.61883682504E-01  0.89201222469E+00  0.88000000000E+00 0.  1.
        -11    1    4    4    0    0 -0.10062883204E+00 -0.22788539136E-01  0.46673224256E-01  0.11324367681E+00  0.51100000000E-03 0.  1.
         11    1    4    4    0    0 -0.11766247014E-01 -0.88491584083E-02  0.26668632271E-02  0.14970820078E-01  0.51100000000E-03 0. -1.
</event>
<event>
 8    1  0.1118868E+005  0.1043930E+01  0.7957747E-01            NaN
         13   -1    0    0    0    0  0.00000000000E+00  0.00000000000E+00  0.74505805969E-08  0.10566000000E+00  0.10566000000E+00 0.  1.
     999900   -1    0    0    0    0 -0.00000000000E+00 -0.00000000000E+00 -0.74505805969E-08  0.93827000000E+00  0.93827000000E+00 0.  1.
     999902    2    1    2    0    0  0.11166690032E-01  0.95547617992E-02 -0.17239585780E-01  0.10212762639E+01  0.10210249828E+01 0.  0.
     999903    2    3    3    0    0 -0.51775403837E-01 -0.11643003611E+00 -0.17245904578E-01  0.13007826321E+00  0.19654200125E-01 0.  0.
         14    1    1    2    0    0 -0.11166690032E-01 -0.95547617992E-02  0.17239585780E-01  0.22653736054E-01  0.00000000000E+00 0.  1.
     999901    1    3    3    0    0  0.62942093869E-01  0.12598479791E+00  0.63187974329E-05  0.89119800074E+00  0.88000000000E+00 0. -1.
        -11    1    4    4    0    0 -0.16365864957E-01 -0.60616647037E-01 -0.67696140927E-02  0.63153054002E-01  0.51100000000E-03 0.  1.
         11    1    4    4    0    0 -0.35409538880E-01 -0.55813389074E-01 -0.10476290485E-01  0.66925209203E-01  0.51100000000E-03 0. -1.
</event>
<event>
 8    1  0.1118868E+005  0.1043930E+01  0.7957747E-01            NaN
         13   -1    0    0    0    0  0.00000000000E+00  0.00000000000E+00  0.74505805969E-08  0.10566000000E+00  0.10566000000E+00 0. -1.
     999900   -1    0    0    0    0 -0.00000000000E+00 -0.00000000000E+00 -0.74505805969E-08  0.93827000000E+00  0.93827000000E+00 0.  1.
     999902    2    1    2    0    0 -0.17249075851E-01  0.13264873620E-01  0.89983813047E-02  0.10203830606E+01  0.10201113331E+01 0.  0.
     999903    2    3    3    0    0  0.42663140758E-01 -0.10340336665E+00 -0.58934081146E-01  0.12807382526E+00  0.20427407643E-01 0.  0.
         14    1    1    2    0    0  0.17249075851E-01 -0.13264873620E-01 -0.89983813047E-02  0.23546939418E-01  0.00000000000E+00 0.  1.
     999901    1    3    3    0    0 -0.59912216609E-01  0.11666824027E+00  0.67932462450E-01  0.89230923532E+00  0.88000000000E+00 0. -1.
        -11    1    4    4    0    0  0.24210086227E-01 -0.34138787752E-01 -0.18358045851E-01  0.45704092517E-01  0.51100000000E-03 0.  1.
         11    1    4    4    0    0  0.18453054531E-01 -0.69264578895E-01 -0.40576035294E-01  0.82369732743E-01  0.51100000000E-03 0. -1.
</event>
<event>
 8    1  0.1118868E+005  0.1043930E+01  0.7957747E-01            NaN
         13   -1    0    0    0    0  0.00000000000E+00  0.00000000000E+00  0.74505805969E-08  0.10566000000E+00  0.10566000000E+00 0.  1.
     999900   -1    0    0    0    0 -0.00000000000E+00 -0.00000000000E+00 -0.74505805969E-08  0.93827000000E+00  0.93827000000E+00 0.  1.
     999902    2    1    2    0    0 -0.55751143067E-02  0.11018463527E-01 -0.20625004925E-01  0.10198908805E+01  0.10196075367E+01 0.  0.
     999903    2    3    3    0    0  0.11571917477E+00  0.55057374905E-01 -0.11665055814E-01  0.13043486081E+00  0.21329262696E-01 0.  0.
         14    1    1    2    0    0  0.55751143067E-02 -0.11018463527E-01  0.20625004925E-01  0.24039119497E-01  0.00000000000E+00 0.  1.
     999901    1    3    3    0    0 -0.12129428908E+00 -0.44038911378E-01 -0.89599491111E-02  0.88945601969E+00  0.88000000000E+00 0.  1.
        -11    1    4    4    0    0  0.61347122947E-01  0.40803052322E-01 -0.54483824074E-02  0.73880339500E-01  0.51100000000E-03 0.  1.
         11    1    4    4    0    0  0.54372051821E-01  0.14254322583E-01 -0.62166734063E-02  0.56554521312E-01  0.51100000000E-03 0. -1.
</event>
<event>
 8    1  0.1118868E+005  0.1043930E+01  0.7957747E-01            NaN
         13   -1    0    0    0    0  0.00000000000E+00  0.00000000000E+00  0.74505805969E-08  0.10566000000E+00  0.10566000000E+00 0.  1.
     999900   -1    0    0    0    0 -0.00000000000E+00 -0.00000000000E+00 -0.74505805969E-08  0.93827000000E+00  0.93827000000E+00 0.  1.
     999902    2    1    2    0    0 -0.11527486434E-01  0.83821255586E-02  0.18596250165E-01  0.10205000300E+01  0.10202310267E+01 0.  0.
     999903    2    3    3    0    0 -0.47943369063E-01  0.90032132753E-01  0.81230835728E-01  0.13375546056E+00  0.29794680591E-01 0.  0.
         14    1    1    2    0    0  0.11527486434E-01 -0.83821255586E-02 -0.18596250165E-01  0.23429969965E-01  0.00000000000E+00 0. -1.
     999901    1    3    3    0    0  0.36415882629E-01 -0.81650007194E-01 -0.62634585563E-01  0.88674456947E+00  0.88000000000E+00 0.  1.
        -11    1    4    4    0    0 -0.23521526620E-01  0.70734991984E-01  0.63536813490E-01  0.97948400166E-01  0.51100000000E-03 0. -1.
         11    1    4    4    0    0 -0.24421842443E-01  0.19297140769E-01  0.17694022238E-01  0.35807060395E-01  0.51100000000E-03 0.  1.
</event>
<event>
 8    1  0.1118868E+005  0.1043930E+01  0.7957747E-01            NaN
         13   -1    0    0    0    0  0.00000000000E+00  0.00000000000E+00  0.74505805969E-08  0.10566000000E+00  0.10566000000E+00 0.  1.
     999900   -1    0    0    0    0 -0.00000000000E+00 -0.00000000000E+00 -0.74505805969E-08  0.93827000000E+00  0.93827000000E+00 0.  1.
     999902    2    1    2    0    0 -0.19831582643E-01  0.81836937922E-02 -0.79461590638E-02  0.10210519328E+01  0.10207955934E+01 0.  0.
     999903    2    3    3    0    0 -0.60696619009E-03  0.11832603611E+00  0.54310280787E-01  0.13179562232E+00  0.20470960777E-01 0.  0.
         14    1    1    2    0    0  0.19831582643E-01 -0.81836937922E-02  0.79461590638E-02  0.22878067184E-01  0.00000000000E+00 0.  1.
     999901    1    3    3    0    0 -0.19224616453E-01 -0.11014234232E+00 -0.62256439850E-01  0.88925631049E+00  0.88000000000E+00 0.  1.
        -11    1    4    4    0    0  0.92120023631E-02  0.61158770515E-01  0.32078653903E-01  0.69674653610E-01  0.51100000000E-03 0.  1.
         11    1    4    4    0    0 -0.98189685532E-02  0.57167265594E-01  0.22231626884E-01  0.62120968713E-01  0.51100000000E-03 0. -1.
</event>
<event>
 8    1  0.1118868E+005  0.1043930E+01  0.7957747E-01            NaN
         13   -1    0    0    0    0  0.00000000000E+00  0.00000000000E+00  0.74505805969E-08  0.10566000000E+00  0.10566000000E+00 0.  1.
     999900   -1    0    0    0    0 -0.00000000000E+00 -0.00000000000E+00 -0.74505805969E-08  0.93827000000E+00  0.93827000000E+00 0. -1.
     999902    2    1    2    0    0  0.29015953227E-02  0.14734576640E-01 -0.17676251904E-01  0.10207356713E+01  0.10204721131E+01 0.  0.
     999903    2    3    3    0    0  0.14523316225E-01  0.96122069485E-01  0.85449777852E-01  0.13090761686E+00  0.19615317000E-01 0.  0.
         14    1    1    2    0    0 -0.29015953227E-02 -0.14734576640E-01  0.17676251904E-01  0.23194328736E-01  0.00000000000E+00 0.  1.
     999901    1    3    3    0    0 -0.11621720902E-01 -0.81387492846E-01 -0.10312602976E+00  0.88982805440E+00  0.88000000000E+00 0. -1.
        -11    1    4    4    0    0  0.71049509357E-02  0.65196225315E-01  0.45405243884E-01  0.79767947299E-01  0.51100000000E-03 0. -1.
         11    1    4    4    0    0  0.74183652893E-02  0.30925844170E-01  0.40044533968E-01  0.51139669562E-01  0.51100000000E-03 0.  1.
</event>
<event>
 8    1  0.1118868E+005  0.1043930E+01  0.7957747E-01            NaN
         13   -1    0    0    0    0  0.00000000000E+00  0.00000000000E+00  0.74505805969E-08  0.10566000000E+00  0.10566000000E+00 0.  1.
     999900   -1    0    0    0    0 -0.00000000000E+00 -0.00000000000E+00 -0.74505805969E-08  0.93827000000E+00  0.93827000000E+00 0.  1.
     999902    2    1    2    0    0  0.17790267104E-01  0.14976581258E-01  0.14690447449E-01  0.10164236219E+01  0.10160513660E+01 0.  0.
     999903    2    3    3    0    0  0.73928325742E-01  0.99512429689E-01 -0.31802052235E-01  0.12937269674E+00  0.18915684677E-01 0.  0.
         14    1    1    2    0    0 -0.17790267104E-01 -0.14976581258E-01 -0.14690447449E-01  0.27506378098E-01  0.00000000000E+00 0.  1.
     999901    1    3    3    0    0 -0.56138058638E-01 -0.84535848431E-01  0.46492499684E-01  0.88705092516E+00  0.88000000000E+00 0. -1.
        -11    1    4    4    0    0  0.55591535784E-01  0.68464166822E-01 -0.30391660943E-01  0.93282769927E-01  0.51100000000E-03 0.  1.
         11    1    4    4    0    0  0.18336789958E-01  0.31048262867E-01 -0.14103912921E-02  0.36089926816E-01  0.51100000000E-03 0. -1.
</event>
<event>
 8    1  0.1118868E+005  0.1043930E+01  0.7957747E-01            NaN
         13   -1    0    0    0    0  0.00000000000E+00  0.00000000000E+00  0.74505805969E-08  0.10566000000E+00  0.10566000000E+00 0. -1.
     999900   -1    0    0    0    0 -0.00000000000E+00 -0.00000000000E+00 -0.74505805969E-08  0.93827000000E+00  0.93827000000E+00 0. -1.
     999902    2    1    2    0    0 -0.13052871203E-01 -0.11942490758E-01 -0.16211569805E-01  0.10199338435E+01  0.10196515236E+01 0.  0.
     999903    2    3    3    0    0 -0.20840731227E-01 -0.27256891055E-01  0.12269810677E+00  0.12887207241E+00  0.19388436122E-01 0.  0.
         14    1    1    2    0    0  0.13052871203E-01  0.11942490758E-01  0.16211569805E-01  0.23996156519E-01  0.00000000000E+00 0. -1.
     999901    1    3    3    0    0  0.77878600248E-02  0.15314400297E-01 -0.13890967657E+00  0.89106177107E+00  0.88000000000E+00 0. -1.
        -11    1    4    4    0    0 -0.81909111104E-02 -0.65173587293E-02  0.70752346552E-01  0.71524280166E-01  0.51100000000E-03 0.  1.
         11    1    4    4    0    0 -0.12649820117E-01 -0.20739532326E-01  0.51945760213E-01  0.57347792244E-01  0.51100000000E-03 0. -1.
</event>
<event>
 8    1  0.1118868E+005  0.1043930E+01  0.7957747E-01            NaN
         13   -1    0    0    0    0  0.00000000000E+00  0.00000000000E+00  0.74505805969E-08  0.10566000000E+00  0.10566000000E+00 0.  1.
     999900   -1    0    0    0    0 -0.00000000000E+00 -0.00000000000E+00 -0.74505805969E-08  0.93827000000E+00  0.93827000000E+00 0.  1.
     999902    2    1    2    0    0 -0.11251085113E-01 -0.13967290225E-01 -0.16042713271E-01  0.10198667342E+01  0.10195828141E+01 0.  0.
     999903    2    3    3    0    0 -0.11840012149E+00 -0.38800416276E-01  0.37102055219E-01  0.13142879794E+00  0.19310757489E-01 0.  0.
         14    1    1    2    0    0  0.11251085113E-01  0.13967290225E-01  0.16042713271E-01  0.24063265812E-01  0.00000000000E+00 0.  1.
     999901    1    3    3    0    0  0.10714903638E+00  0.24833126051E-01 -0.53144768490E-01  0.88843793625E+00  0.88000000000E+00 0.  1.
        -11    1    4    4    0    0 -0.40675466817E-01 -0.38538416704E-02  0.12291457266E-01  0.42669505963E-01  0.51100000000E-03 0. -1.
         11    1    4    4    0    0 -0.77724654672E-01 -0.34946574606E-01  0.24810597954E-01  0.88759291977E-01  0.51100000000E-03 0.  1.
</event>
<event>
 8    1  0.1118868E+005  0.1043930E+01  0.7957747E-01            NaN
         13   -1    0    0    0    0  0.00000000000E+00  0.00000000000E+00  0.74505805969E-08  0.10566000000E+00  0.10566000000E+00 0. -1.
     999900   -1    0    0    0    0 -0.00000000000E+00 -0.00000000000E+00 -0.74505805969E-08  0.93827000000E+00  0.93827000000E+00 0. -1.
     999902    2    1    2    0    0 -0.18452722199E-01 -0.10463269228E-01  0.81677787338E-02  0.10211990614E+01  0.10209460453E+01 0.  0.
     999903    2    3    3    0    0  0.56705417188E-01 -0.72185571433E-02  0.11662433740E+00  0.13135519916E+00  0.19630088304E-01 0.  0.
         14    1    1    2    0    0  0.18452722199E-01  0.10463269228E-01 -0.81677787338E-02  0.22730938585E-01  0.00000000000E+00 0.  1.
     999901    1    3    3    0    0 -0.75158139387E-01 -0.32447120850E-02 -0.10845655867E+00  0.88984386225E+00  0.88000000000E+00 0. -1.
        -11    1    4    4    0    0  0.26560679226E-01 -0.91507807286E-02  0.39068259704E-01  0.48122723387E-01  0.51100000000E-03 0.  1.
         11    1    4    4    0    0  0.30144737962E-01  0.19322235854E-02  0.77556077697E-01  0.83232475775E-01  0.51100000000E-03 0. -1.
</event>
<event>
 8    1  0.1118868E+005  0.1043930E+01  0.7957747E-01            NaN
         13   -1    0    0    0    0  0.00000000000E+00  0.00000000000E+00  0.74505805969E-08  0.10566000000E+00  0.10566000000E+00 0.  1.
     999900   -1    0    0    0    0 -0.00000000000E+00 -0.00000000000E+00 -0.74505805969E-08  0.93827000000E+00  0.93827000000E+00 0.  1.
     999902    2    1    2    0    0  0.22216745134E-01 -0.23513689848E-02 -0.89853331168E-02  0.10198499478E+01  0.10195656267E+01 0.  0.
     999903    2    3    3    0    0  0.10343816360E+00  0.18719289583E-01  0.76756022164E-01  0.13171005376E+00  0.20154052490E-01 0.  0.
         14    1    1    2    0    0 -0.22216745134E-01  0.23513689848E-02  0.89853331168E-02  0.24080052153E-01  0.00000000000E+00 0.  1.
     999901    1    3    3    0    0 -0.81221418462E-01 -0.21070658567E-01 -0.85741355281E-01  0.88813989409E+00  0.88000000000E+00 0.  1.
        -11    1    4    4    0    0  0.60401445682E-01  0.20626981147E-01  0.48898604124E-01  0.80406104234E-01  0.51100000000E-03 0.  1.
         11    1    4    4    0    0  0.43036717913E-01 -0.19076915645E-02  0.27857418040E-01  0.51303949523E-01  0.51100000000E-03 0. -1.
</event>
<event>
 8    1  0.1118868E+005  0.1043930E+01  0.7957747E-01            NaN
         13   -1    0    0    0    0  0.00000000000E+00  0.00000000000E+00  0.74505805969E-08  0.10566000000E+00  0.10566000000E+00 0. -1.
     999900   -1    0    0    0    0 -0.00000000000E+00 -0.00000000000E+00 -0.74505805969E-08  0.93827000000E+00  0.93827000000E+00 0.  1.
     999902    2    1    2    0    0  0.19844007918E-01  0.20578663855E-01 -0.40613329300E-02  0.10150550891E+01  0.10146443088E+01 0.  0.
     999903    2    3    3    0    0  0.73344285606E-02  0.12583787273E+00  0.14663815051E-01  0.12849622368E+00  0.20181376896E-01 0.  0.
         14    1    1    2    0    0 -0.19844007918E-01 -0.20578663855E-01  0.40613329300E-02  0.28874910934E-01  0.00000000000E+00 0. -1.
     999901    1    3    3    0    0  0.12509579357E-01 -0.10525920887E+00 -0.18725147981E-01  0.88655886539E+00  0.88000000000E+00 0.  1.
        -11    1    4    4    0    0 -0.64892819314E-02  0.50359061623E-01  0.28680958986E-02  0.50858951647E-01  0.51100000000E-03 0. -1.
         11    1    4    4    0    0  0.13823710492E-01  0.75478811103E-01  0.11795719152E-01  0.77637272032E-01  0.51100000000E-03 0.  1.
</event>
<event>
 8    1  0.1118868E+005  0.1043930E+01  0.7957747E-01            NaN
         13   -1    0    0    0    0  0.00000000000E+00  0.00000000000E+00  0.74505805969E-08  0.10566000000E+00  0.10566000000E+00 0.  1.
     999900   -1    0    0    0    0 -0.00000000000E+00 -0.00000000000E+00 -0.74505805969E-08  0.93827000000E+00  0.93827000000E+00 0. -1.
     999902    2    1    2    0    0  0.16407411607E-01 -0.97699210120E-02 -0.58415478469E-02  0.10239605685E+01  0.10237658266E+01 0.  0.
     999903    2    3    3    0    0  0.98035021906E-01 -0.85774897878E-01 -0.31750711553E-01  0.13654234241E+00  0.25836117378E-01 0.  0.
         14    1    1    2    0    0 -0.16407411607E-01  0.97699210120E-02  0.58415478469E-02  0.19969431476E-01  0.00000000000E+00 0. -1.
     999901    1    3    3    0    0 -0.81627610299E-01  0.76004976866E-01  0.25909163706E-01  0.88741822611E+00  0.88000000000E+00 0.  1.
        -11    1    4    4    0    0  0.31508901521E-01 -0.28550701793E-01  0.18824942973E-02  0.42564754830E-01  0.51100000000E-03 0.  1.
         11    1    4    4    0    0  0.66526120386E-01 -0.57224196085E-01 -0.33633205850E-01  0.93977587583E-01  0.51100000000E-03 0. -1.
</event>
<event>
 8    1  0.1118868E+005  0.1043930E+01  0.7957747E-01            NaN
         13   -1    0    0    0    0  0.00000000000E+00  0.00000000000E+00  0.74505805969E-08  0.10566000000E+00  0.10566000000E+00 0. -1.
     999900   -1    0    0    0    0 -0.00000000000E+00 -0.00000000000E+00 -0.74505805969E-08  0.93827000000E+00  0.93827000000E+00 0.  1.
     999902    2    1    2    0    0 -0.19959842576E-01  0.69404877269E-02  0.10998100925E-01  0.10201072397E+01  0.10198290330E+01 0.  0.
     999903    2    3    3    0    0  0.57793800482E-01  0.48004415609E-01 -0.10238633189E+00  0.12848629735E+00  0.19524865112E-01 0.  0.
         14    1    1    2    0    0  0.19959842576E-01 -0.69404877269E-02 -0.10998100925E-01  0.23822760325E-01  0.00000000000E+00 0.  1.
     999901    1    3    3    0    0 -0.77753643058E-01 -0.41063927882E-01  0.11338443281E+00  0.89162094232E+00  0.88000000000E+00 0. -1.
        -11    1    4    4    0    0  0.43880237233E-01  0.36083946176E-01 -0.61762194076E-01  0.83918747187E-01  0.51100000000E-03 0. -1.
         11    1    4    4    0    0  0.13913563249E-01  0.11920469433E-01 -0.40624137813E-01  0.44567550167E-01  0.51100000000E-03 0.  1.
</event>
<event>
 8    1  0.1118868E+005  0.1043930E+01  0.7957747E-01            NaN
         13   -1    0    0    0    0  0.00000000000E+00  0.00000000000E+00  0.74505805969E-08  0.10566000000E+00  0.10566000000E+00 0.  1.
     999900   -1    0    0    0    0 -0.00000000000E+00 -0.00000000000E+00 -0.74505805969E-08  0.93827000000E+00  0.93827000000E+00 0. -1.
     999902    2    1    2    0    0 -0.17201600296E-01 -0.14790022997E-01  0.14435842514E-02  0.10211984411E+01  0.10209454111E+01 0.  0.
     999903    2    3    3    0    0  0.92896897705E-01  0.81926449417E-01  0.28325853195E-01  0.12867482146E+00  0.20324345018E-01 0.  0.
         14    1    1    2    0    0  0.17201600296E-01  0.14790022997E-01 -0.14435842514E-02  0.22731558866E-01  0.00000000000E+00 0.  1.
     999901    1    3    3    0    0 -0.11009849800E+00 -0.96716472414E-01 -0.26882268944E-01  0.89252361968E+00  0.88000000000E+00 0. -1.
        -11    1    4    4    0    0  0.26133852370E-01  0.11758303848E-01  0.65908475374E-02  0.29409800091E-01  0.51100000000E-03 0.  1.
         11    1    4    4    0    0  0.66763045335E-01  0.70168145569E-01  0.21735005657E-01  0.99265021366E-01  0.51100000000E-03 0. -1.
</event>
<event>
 8    1  0.1118868E+005  0.1043930E+01  0.7957747E-01            NaN
         13   -1    0    0    0    0  0.00000000000E+00  0.00000000000E+00  0.74505805969E-08  0.10566000000E+00  0.10566000000E+00 0.  1.
     999900   -1    0    0    0    0 -0.00000000000E+00 -0.00000000000E+00 -0.74505805969E-08  0.93827000000E+00  0.93827000000E+00 0.  1.
     999902    2    1    2    0    0  0.10916091881E-01  0.76518197331E-03 -0.22831406002E-01  0.10186116338E+01  0.10182969316E+01 0.  0.
     999903    2    3    3    0    0 -0.12010538032E+00  0.38666376427E-01 -0.84891478973E-02  0.12798891512E+00  0.19715621045E-01 0.  0.
         14    1    1    2    0    0 -0.10916091881E-01 -0.76518197331E-03  0.22831406002E-01  0.25318366168E-01  0.00000000000E+00 0.  1.
     999901    1    3    3    0    0  0.13102147220E+00 -0.37901194454E-01 -0.14342258105E-01  0.89062271871E+00  0.88000000000E+00 0. -1.
        -11    1    4    4    0    0 -0.53485329872E-01  0.11625213165E-01  0.45120485111E-02  0.54922179449E-01  0.51100000000E-03 0.  1.
         11    1    4    4    0    0 -0.66620050450E-01  0.27041163262E-01 -0.13001196408E-01  0.73066735671E-01  0.51100000000E-03 0. -1.
</event>
<event>
 8    1  0.1118868E+005  0.1043930E+01  0.7957747E-01            NaN
         13   -1    0    0    0    0  0.00000000000E+00  0.00000000000E+00  0.74505805969E-08  0.10566000000E+00  0.10566000000E+00 0. -1.
     999900   -1    0    0    0    0 -0.00000000000E+00 -0.00000000000E+00 -0.74505805969E-08  0.93827000000E+00  0.93827000000E+00 0.  1.
     999902    2    1    2    0    0 -0.15034987771E-01  0.17551312565E-01  0.87561827137E-02  0.10192162353E+01  0.10189165639E+01 0.  0.
     999903    2    3    3    0    0 -0.81464088165E-01 -0.92317413612E-01  0.35101885342E-01  0.12950950923E+00  0.19536327928E-01 0.  0.
         14    1    1    2    0    0  0.15034987771E-01 -0.17551312565E-01 -0.87561827137E-02  0.24713764702E-01  0.00000000000E+00 0.  1.
     999901    1    3    3    0    0  0.66429100393E-01  0.10986872618E+00 -0.26345702628E-01  0.88970672607E+00  0.88000000000E+00 0.  1.
        -11    1    4    4    0    0 -0.27451159767E-01 -0.23362005764E-01  0.28308077194E-02  0.36161085150E-01  0.51100000000E-03 0. -1.
         11    1    4    4    0    0 -0.54012928397E-01 -0.68955407848E-01  0.32271077623E-01  0.93348424076E-01  0.51100000000E-03 0.  1.
</event>
<event>
 8    1  0.1118868E+005  0.1043930E+01  0.7957747E-01            NaN
         13   -1    0    0    0    0  0.00000000000E+00  0.00000000000E+00  0.74505805969E-08  0.10566000000E+00  0.10566000000E+00 0.  1.
     999900   -1    0    0    0    0 -0.00000000000E+00 -0.00000000000E+00 -0.74505805969E-08  0.93827000000E+00  0.93827000000E+00 0. -1.
     999902    2    1    2    0    0  0.13586119137E-01 -0.17656771051E-01 -0.68679746455E-02  0.10206166289E+01  0.10203503270E+01 0.  0.
     999903    2    3    3    0    0 -0.10610600063E-01  0.10175651203E+00  0.74835660023E-01  0.12847286395E+00  0.20926733759E-01 0.  0.
         14    1    1    2    0    0 -0.13586119137E-01  0.17656771051E-01  0.68679746455E-02  0.23313371117E-01  0.00000000000E+00 0.  1.
     999901    1    3    3    0    0  0.24196719200E-01 -0.11941328308E+00 -0.81703634668E-01  0.89214376494E+00  0.88000000000E+00 0. -1.
        -11    1    4    4    0    0  0.34707927755E-02  0.51495124640E-01  0.30260428320E-01  0.59831002894E-01  0.51100000000E-03 0. -1.
         11    1    4    4    0    0 -0.14081392839E-01  0.50261387388E-01  0.44575231702E-01  0.68641861052E-01  0.51100000000E-03 0.  1.
</event>
<event>
 8    1  0.1118868E+005  0.1043930E+01  0.7957747E-01            NaN
         13   -1    0    0    0    0  0.00000000000E+00  0.00000000000E+00  0.74505805969E-08  0.10566000000E+00  0.10566000000E+00 0.  1.
     999900   -1    0    0    0    0 -0.00000000000E+00 -0.00000000000E+00 -0.74505805969E-08  0.93827000000E+00  0.93827000000E+00 0.  1.
     999902    2    1    2    0    0 -0.24187284619E-01  0.15461252201E-01 -0.30453291112E-02  0.10150622137E+01  0.10146516390E+01 0.  0.
     999903    2    3    3    0    0 -0.44255937481E-01  0.11913601694E+00  0.61319790066E-02  0.12870143463E+00  0.19351474790E-01 0.  0.
         14    1    1    2    0    0  0.24187284619E-01 -0.15461252201E-01  0.30453291112E-02  0.28867786306E-01  0.00000000000E+00 0. -1.
     999901    1    3    3    0    0  0.20068652862E-01 -0.10367476474E+00 -0.91773081177E-02  0.88636077906E+00  0.88000000000E+00 0. -1.
        -11    1    4    4    0    0 -0.11837668721E-01  0.43632501751E-01  0.10496558162E-01  0.46415131844E-01  0.51100000000E-03 0. -1.
         11    1    4    4    0    0 -0.32418268760E-01  0.75503515185E-01 -0.43645791555E-02  0.82286302790E-01  0.51100000000E-03 0.  1.
</event>
<event>
 8    1  0.1118868E+005  0.1043930E+01  0.7957747E-01            NaN
         13   -1    0    0    0    0  0.00000000000E+00  0.00000000000E+00  0.74505805969E-08  0.10566000000E+00  0.10566000000E+00 0. -1.
     999900   -1    0    0    0    0 -0.00000000000E+00 -0.00000000000E+00 -0.74505805969E-08  0.93827000000E+00  0.93827000000E+00 0.  1.
     999902    2    1    2    0    0  0.57455196970E-02  0.18197835473E-01  0.13808616729E-01  0.10203747435E+01  0.10201028218E+01 0.  0.
     999903    2    3    3    0    0  0.23864039013E-02 -0.53481572688E-01  0.11808445774E+00  0.13131756186E+00  0.20842009311E-01 0.  0.
         14    1    1    2    0    0 -0.57455196970E-02 -0.18197835473E-01 -0.13808616729E-01  0.23555256493E-01  0.00000000000E+00 0.  1.
     999901    1    3    3    0    0  0.33591157957E-02  0.71679408160E-01 -0.10427584102E+00  0.88905718164E+00  0.88000000000E+00 0.  1.
        -11    1    4    4    0    0  0.51975654534E-02 -0.23704434444E-01  0.75278349690E-01  0.79094917359E-01  0.51100000000E-03 0.  1.
         11    1    4    4    0    0 -0.28111615521E-02 -0.29777138243E-01  0.42806108055E-01  0.52222644504E-01  0.51100000000E-03 0. -1.
</event>
<event>
 8    1  0.1118868E+005  0.1043930E+01  0.7957747E-01            NaN
         13   -1    0    0    0    0  0.00000000000E+00  0.00000000000E+00  0.74505805969E-08  0.10566000000E+00  0.10566000000E+00 0. -1.
     999900   -1    0    0    0    0 -0.00000000000E+00 -0.00000000000E+00 -0.74505805969E-08  0.93827000000E+00  0.93827000000E+00 0. -1.
     999902    2    1    2    0    0 -0.10944164563E-02 -0.21829206819E-01 -0.10567713495E-01  0.10196526734E+01  0.10193636181E+01 0.  0.
     999903    2    3    3    0    0  0.16514799646E-01 -0.49798213638E-01  0.11743478268E+00  0.12977796939E+00  0.17285614479E-01 0.  0.
         14    1    1    2    0    0  0.10944164563E-02  0.21829206819E-01  0.10567713495E-01  0.24277326588E-01  0.00000000000E+00 0.  1.
     999901    1    3    3    0    0 -0.17609216102E-01  0.27969006819E-01 -0.12800249617E+00  0.88987470402E+00  0.88000000000E+00 0. -1.
        -11    1    4    4    0    0  0.16895872518E-01 -0.25274705560E-01  0.71657844216E-01  0.77842077362E-01  0.51100000000E-03 0.  1.
         11    1    4    4    0    0 -0.38107287222E-03 -0.24523508079E-01  0.45776938459E-01  0.51935892027E-01  0.51100000000E-03 0. -1.
</event>
<event>
 8    1  0.1118868E+005  0.1043930E+01  0.7957747E-01            NaN
         13   -1    0    0    0    0  0.00000000000E+00  0.00000000000E+00  0.74505805969E-08  0.10566000000E+00  0.10566000000E+00 0.  1.
     999900   -1    0    0    0    0 -0.00000000000E+00 -0.00000000000E+00 -0.74505805969E-08  0.93827000000E+00  0.93827000000E+00 0. -1.
     999902    2    1    2    0    0 -0.21415971654E-01  0.45757355172E-03 -0.91700458094E-02  0.10206288636E+01  0.10203628445E+01 0.  0.
     999903    2    3    3    0    0 -0.31505501145E-01 -0.11764491795E+00  0.44330176710E-01  0.13107151815E+00  0.19535991948E-01 0.  0.
         14    1    1    2    0    0  0.21415971654E-01 -0.45757355172E-03  0.91700458094E-02  0.23301136359E-01  0.00000000000E+00 0.  1.
     999901    1    3    3    0    0  0.10089529490E-01  0.11810249150E+00 -0.53500222519E-01  0.88955734549E+00  0.88000000000E+00 0. -1.
        -11    1    4    4    0    0 -0.26599599031E-01 -0.83057569183E-01  0.39712918294E-01  0.95830451672E-01  0.51100000000E-03 0.  1.
         11    1    4    4    0    0 -0.49059021137E-02 -0.34587348768E-01  0.46172584151E-02  0.35241066480E-01  0.51100000000E-03 0. -1.
</event>
<event>
 8    1  0.1118868E+005  0.1043930E+01  0.7957747E-01            NaN
         13   -1    0    0    0    0  0.00000000000E+00  0.00000000000E+00  0.74505805969E-08  0.10566000000E+00  0.10566000000E+00 0. -1.
     999900   -1    0    0    0    0 -0.00000000000E+00 -0.00000000000E+00 -0.74505805969E-08  0.93827000000E+00  0.93827000000E+00 0. -1.
     999902    2    1    2    0    0 -0.22067007112E-01  0.37079510536E-02  0.10118334797E-01  0.10193722639E+01  0.10190764103E+01 0.  0.
     999903    2    3    3    0    0  0.83492891992E-02  0.12255505137E+00  0.39237407005E-01  0.13038536595E+00  0.19269621146E-01 0.  0.
         14    1    1    2    0    0  0.22067007112E-01 -0.37079510536E-02 -0.10118334797E-01  0.24557736112E-01  0.00000000000E+00 0.  1.
     999901    1    3    3    0    0 -0.30416296311E-01 -0.11884710032E+00 -0.29119072207E-01  0.88898689794E+00  0.88000000000E+00 0. -1.
        -11    1    4    4    0    0  0.14153967319E-01  0.10184103843E+00  0.32157196943E-01  0.10773243864E+00  0.51100000000E-03 0.  1.
         11    1    4    4    0    0 -0.58046781202E-02  0.20714012945E-01  0.70802100613E-02  0.22652927314E-01  0.51100000000E-03 0. -1.
</event>
<event>
 8    1  0.1118868E+005  0.1043930E+01  0.7957747E-01            NaN
         13   -1    0    0    0    0  0.00000000000E+00  0.00000000000E+00  0.74505805969E-08  0.10566000000E+00  0.10566000000E+00 0. -1.
     999900   -1    0    0    0    0 -0.00000000000E+00 -0.00000000000E+00 -0.74505805969E-08  0.93827000000E+00  0.93827000000E+00 0.  1.
     999902    2    1    2    0    0 -0.10313025568E-01 -0.38144748908E-02 -0.13205381054E-01  0.10267459724E+01  0.10266021630E+01 0.  0.
     999903    2    3    3    0    0 -0.12784918070E+00  0.38742159618E-01  0.23658204516E-01  0.13714789528E+00  0.20086478116E-01 0.  0.
         14    1    1    2    0    0  0.10313025568E-01  0.38144748908E-02  0.13205381054E-01  0.17184027579E-01  0.00000000000E+00 0.  1.
     999901    1    3    3    0    0  0.11753615513E+00 -0.42556634509E-01 -0.36863585570E-01  0.88959807714E+00  0.88000000000E+00 0. -1.
        -11    1    4    4    0    0 -0.35366925058E-01  0.10109412840E-01 -0.24692663376E-02  0.36869743873E-01  0.51100000000E-03 0.  1.
         11    1    4    4    0    0 -0.92482255640E-01  0.28632746779E-01  0.26127470853E-01  0.10027815141E+00  0.51100000000E-03 0. -1.
</event>
<event>
 8    1  0.1118868E+005  0.1043930E+01  0.7957747E-01            NaN
         13   -1    0    0    0    0  0.00000000000E+00  0.00000000000E+00  0.74505805969E-08  0.10566000000E+00  0.10566000000E+00 0.  1.
     999900   -1    0    0    0    0 -0.00000000000E+00 -0.00000000000E+00 -0.74505805969E-08  0.93827000000E+00  0.93827000000E+00 0.  1.
     999902    2    1    2    0    0 -0.20368091840E-01  0.33094621193E-02 -0.42931963332E-02  0.10228529215E+01  0.10226357395E+01 0.  0.
     999903    2    3    3    0    0 -0.33339397364E-01  0.93465524932E-01 -0.88002508537E-01  0.13420022250E+00  0.20443542829E-01 0.  0.
         14    1    1    2    0    0  0.20368091840E-01 -0.33094621193E-02  0.42931963332E-02  0.21077078532E-01  0.00000000000E+00 0.  1.
     999901    1    3    3    0    0  0.12971305524E-01 -0.90156062813E-01  0.83709312204E-01  0.88865269897E+00  0.88000000000E+00 0. -1.
        -11    1    4    4    0    0 -0.16007613358E-01  0.71789151113E-01 -0.64509567576E-01  0.97834918780E-01  0.51100000000E-03 0. -1.
         11    1    4    4    0    0 -0.17331784006E-01  0.21676373820E-01 -0.23492940960E-01  0.36365303722E-01  0.51100000000E-03 0.  1.
</event>
<event>
 8    1  0.1118868E+005  0.1043930E+01  0.7957747E-01            NaN
         13   -1    0    0    0    0  0.00000000000E+00  0.00000000000E+00  0.74505805969E-08  0.10566000000E+00  0.10566000000E+00 0.  1.
     999900   -1    0    0    0    0 -0.00000000000E+00 -0.00000000000E+00 -0.74505805969E-08  0.93827000000E+00  0.93827000000E+00 0.  1.
     999902    2    1    2    0    0 -0.61339021661E-02  0.80008670058E-02 -0.21597251795E-01  0.10200955729E+01  0.10198170905E+01 0.  0.
     999903    2    3    3    0    0  0.71337237030E-02 -0.74984453939E-01  0.10100079756E+00  0.12763107779E+00  0.20370875366E-01 0.  0.
         14    1    1    2    0    0  0.61339021661E-02 -0.80008670058E-02  0.21597251795E-01  0.23834427070E-01  0.00000000000E+00 0.  1.
     999901    1    3    3    0    0 -0.13267625869E-01  0.82985320945E-01 -0.12259804935E+00  0.89246449514E+00  0.88000000000E+00 0.  1.
        -11    1    4    4    0    0  0.83822292444E-02 -0.27876981608E-01  0.25894359492E-01  0.38963660572E-01  0.51100000000E-03 0.  1.
         11    1    4    4    0    0 -0.12485055413E-02 -0.47107472331E-01  0.75106438066E-01  0.88667417214E-01  0.51100000000E-03 0. -1.
</event>
<event>
 8    1  0.1118868E+005  0.1043930E+01  0.7957747E-01            NaN
         13   -1    0    0    0    0  0.00000000000E+00  0.00000000000E+00  0.74505805969E-08  0.10566000000E+00  0.10566000000E+00 0. -1.
     999900   -1    0    0    0    0 -0.00000000000E+00 -0.00000000000E+00 -0.74505805969E-08  0.93827000000E+00  0.93827000000E+00 0. -1.
     999902    2    1    2    0    0  0.19779248793E-01 -0.15653133756E-01  0.58381203074E-02  0.10180394046E+01  0.10177101289E+01 0.  0.
     999903    2    3    3    0    0  0.11494086685E+00 -0.41256696297E-01 -0.43393395718E-01  0.13117130953E+00  0.20233827872E-01 0.  0.
         14    1    1    2    0    0 -0.19779248793E-01  0.15653133756E-01 -0.58381203074E-02  0.25890595357E-01  0.00000000000E+00 0.  1.
     999901    1    3    3    0    0 -0.95161618054E-01  0.25603562541E-01  0.49231516025E-01  0.88686809512E+00  0.88000000000E+00 0. -1.
        -11    1    4    4    0    0  0.63184517303E-01 -0.21288939985E-01 -0.34206068482E-01  0.74938764564E-01  0.51100000000E-03 0. -1.
         11    1    4    4    0    0  0.51756349544E-01 -0.19967756312E-01 -0.91873272359E-02  0.56232544963E-01  0.51100000000E-03 0.  1.
</event>
<event>
 8    1  0.1118868E+005  0.1043930E+01  0.7957747E-01            NaN
         13   -1    0    0    0    0  0.00000000000E+00  0.00000000000E+00  0.74505805969E-08  0.10566000000E+00  0.10566000000E+00 0.  1.
     999900   -1    0    0    0    0 -0.00000000000E+00 -0.00000000000E+00 -0.74505805969E-08  0.93827000000E+00  0.93827000000E+00 0.  1.
     999902    2    1    2    0    0 -0.17653638921E-01 -0.75864444418E-04 -0.15485666272E-01  0.10204467595E+01  0.10201765173E+01 0.  0.
     999903    2    3    3    0    0 -0.19690085618E-01  0.54616468495E-01 -0.11774430593E+00  0.13283635639E+00  0.20276042451E-01 0.  0.
         14    1    1    2    0    0  0.17653638921E-01  0.75864444418E-04  0.15485666272E-01  0.23483240459E-01  0.00000000000E+00 0.  1.
     999901    1    3    3    0    0  0.20364466972E-02 -0.54692332940E-01  0.10225863966E+00  0.88761040315E+00  0.88000000000E+00 0. -1.
        -11    1    4    4    0    0 -0.61842600288E-02  0.88246127397E-02 -0.41478021290E-01  0.42857977475E-01  0.51100000000E-03 0. -1.
         11    1    4    4    0    0 -0.13505825589E-01  0.45791855756E-01 -0.76266284641E-01  0.89978378916E-01  0.51100000000E-03 0.  1.
</event>
<event>
 8    1  0.1118868E+005  0.1043930E+01  0.7957747E-01            NaN
         13   -1    0    0    0    0  0.00000000000E+00  0.00000000000E+00  0.74505805969E-08  0.10566000000E+00  0.10566000000E+00 0. -1.
     999900   -1    0    0    0    0 -0.00000000000E+00 -0.00000000000E+00 -0.74505805969E-08  0.93827000000E+00  0.93827000000E+00 0.  1.
     999902    2    1    2    0    0 -0.10313493832E-01  0.38187741458E-02  0.21785489889E-01  0.10195259274E+01  0.10192338092E+01 0.  0.
     999903    2    3    3    0    0  0.98680012853E-01  0.63905367660E-01 -0.46924665114E-01  0.12811633094E+00  0.19754217391E-01 0.  0.
         14    1    1    2    0    0  0.10313493832E-01 -0.38187741458E-02 -0.21785489889E-01  0.24404072625E-01  0.00000000000E+00 0. -1.
     999901    1    3    3    0    0 -0.10899350668E+00 -0.60086593514E-01  0.68710155002E-01  0.89140959644E+00  0.88000000000E+00 0.  1.
        -11    1    4    4    0    0  0.61409948584E-01  0.48828907334E-01 -0.25144966166E-01  0.82389164464E-01  0.51100000000E-03 0.  1.
         11    1    4    4    0    0  0.37270064269E-01  0.15076460325E-01 -0.21779698947E-01  0.45727166474E-01  0.51100000000E-03 0. -1.
</event>
<event>
 8    1  0.1118868E+005  0.1043930E+01  0.7957747E-01            NaN
         13   -1    0    0    0    0  0.00000000000E+00  0.00000000000E+00  0.74505805969E-08  0.10566000000E+00  0.10566000000E+00 0.  1.
     999900   -1    0    0    0    0 -0.00000000000E+00 -0.00000000000E+00 -0.74505805969E-08  0.93827000000E+00  0.93827000000E+00 0. -1.
     999902    2    1    2    0    0  0.19151553304E-01  0.16479679789E-01 -0.12556527472E-02  0.10186329942E+01  0.10183188294E+01 0.  0.
     999903    2    3    3    0    0  0.93099114580E-01  0.89621768559E-01 -0.19964722717E-01  0.13231023340E+00  0.20196563419E-01 0.  0.
         14    1    1    2    0    0 -0.19151553304E-01 -0.16479679789E-01  0.12556527472E-02  0.25297005826E-01  0.00000000000E+00 0.  1.
     999901    1    3    3    0    0 -0.73947561276E-01 -0.73142088770E-01  0.18709069970E-01  0.88632276077E+00  0.88000000000E+00 0. -1.
        -11    1    4    4    0    0  0.48855879165E-01  0.39204878781E-01 -0.18098388118E-01  0.65205308240E-01  0.51100000000E-03 0.  1.
         11    1    4    4    0    0  0.44243235415E-01  0.50416889778E-01 -0.18663345992E-02  0.67104925160E-01  0.51100000000E-03 0. -1.
</event>
<event>
 8    1  0.1118868E+005  0.1043930E+01  0.7957747E-01            NaN
         13   -1    0    0    0    0  0.00000000000E+00  0.00000000000E+00  0.74505805969E-08  0.10566000000E+00  0.10566000000E+00 0. -1.
     999900   -1    0    0    0    0 -0.00000000000E+00 -0.00000000000E+00 -0.74505805969E-08  0.93827000000E+00  0.93827000000E+00 0.  1.
     999902    2    1    2    0    0  0.80066215956E-02 -0.16495883816E-01  0.17930475153E-01  0.10182839065E+01  0.10179608991E+01 0.  0.
     999903    2    3    3    0    0  0.39034748285E-01  0.94574194810E-01 -0.71022667813E-01  0.12631307254E+00  0.21042410810E-01 0.  0.
         14    1    1    2    0    0 -0.80066215956E-02  0.16495883816E-01 -0.17930475153E-01  0.25646093493E-01  0.00000000000E+00 0.  1.
     999901    1    3    3    0    0 -0.31028126690E-01 -0.11107007863E+00  0.88953142966E-01  0.89197083397E+00  0.88000000000E+00 0.  1.
        -11    1    4    4    0    0  0.16521235243E-01  0.56224698370E-01 -0.30120850373E-01  0.65891537158E-01  0.51100000000E-03 0.  1.
         11    1    4    4    0    0  0.22513513042E-01  0.38349496439E-01 -0.40901817439E-01  0.60421535378E-01  0.51100000000E-03 0. -1.
</event>
<event>
 8    1  0.1118868E+005  0.1043930E+01  0.7957747E-01            NaN
         13   -1    0    0    0    0  0.00000000000E+00  0.00000000000E+00  0.74505805969E-08  0.10566000000E+00  0.10566000000E+00 0.  1.
     999900   -1    0    0    0    0 -0.00000000000E+00 -0.00000000000E+00 -0.74505805969E-08  0.93827000000E+00  0.93827000000E+00 0.  1.
     999902    2    1    2    0    0 -0.17362469979E-01  0.93010579218E-02 -0.13201138245E-01  0.10202185029E+01  0.10199429193E+01 0.  0.
     999903    2    3    3    0    0  0.51644275567E-01 -0.93861960895E-02  0.11509216103E+00  0.12804681820E+00  0.19863288859E-01 0.  0.
         14    1    1    2    0    0  0.17362469979E-01 -0.93010579218E-02  0.13201138245E-01  0.23711497068E-01  0.00000000000E+00 0.  1.
     999901    1    3    3    0    0 -0.69006745546E-01  0.18687254011E-01 -0.12829329928E+00  0.89217168473E+00  0.88000000000E+00 0.  1.
        -11    1    4    4    0    0  0.19863385064E-01 -0.90920011563E-02  0.66353765593E-01  0.69859157457E-01  0.51100000000E-03 0. -1.
         11    1    4    4    0    0  0.31780890503E-01 -0.29419493321E-03  0.48738395442E-01  0.58187660745E-01  0.51100000000E-03 0.  1.
</event>
<event>
 8    1  0.1118868E+005  0.1043930E+01  0.7957747E-01            NaN
         13   -1    0    0    0    0  0.00000000000E+00  0.00000000000E+00  0.74505805969E-08  0.10566000000E+00  0.10566000000E+00 0. -1.
     999900   -1    0    0    0    0 -0.00000000000E+00 -0.00000000000E+00 -0.74505805969E-08  0.93827000000E+00  0.93827000000E+00 0.  1.
     999902    2    1    2    0    0  0.31888672348E-02 -0.18074694701E-01  0.11079930040E-01  0.10224910562E+01  0.10222662724E+01 0.  0.
     999903    2    3    3    0    0  0.53884748154E-02  0.59758284553E-01 -0.11398023447E+00  0.13024509475E+00  0.19292553547E-01 0.  0.
         14    1    1    2    0    0 -0.31888672348E-02  0.18074694701E-01 -0.11079930040E-01  0.21438943828E-01  0.00000000000E+00 0.  1.
     999901    1    3    3    0    0 -0.21996075806E-02 -0.77832979254E-01  0.12506016451E+00  0.89224596143E+00  0.88000000000E+00 0. -1.
        -11    1    4    4    0    0 -0.51018117508E-02  0.39720067024E-01 -0.66047654749E-01  0.77241608129E-01  0.51100000000E-03 0. -1.
         11    1    4    4    0    0  0.10490286566E-01  0.20038217529E-01 -0.47932579720E-01  0.53003486617E-01  0.51100000000E-03 0.  1.
</event>
<event>
 8    1  0.1118868E+005  0.1043930E+01  0.7957747E-01            NaN
         13   -1    0    0    0    0  0.00000000000E+00  0.00000000000E+00  0.74505805969E-08  0.10566000000E+00  0.10566000000E+00 0.  1.
     999900   -1    0    0    0    0 -0.00000000000E+00 -0.00000000000E+00 -0.74505805969E-08  0.93827000000E+00  0.93827000000E+00 0. -1.
     999902    2    1    2    0    0 -0.85825765146E-02  0.19604961673E-01  0.10665764158E-01  0.10200182107E+01  0.10197378960E+01 0.  0.
     999903    2    3    3    0    0  0.12610294062E+00  0.14321205999E-02 -0.22231195218E-01  0.12897800364E+00  0.15397947311E-01 0.  0.
         14    1    1    2    0    0  0.85825765146E-02 -0.19604961673E-01 -0.10665764158E-01  0.23911789287E-01  0.00000000000E+00 0. -1.
     999901    1    3    3    0    0 -0.13468551713E+00  0.18172841073E-01  0.32896959376E-01  0.89104020707E+00  0.88000000000E+00 0.  1.
        -11    1    4    4    0    0  0.68432201574E-01  0.81028221884E-02 -0.98137650241E-02  0.69607420902E-01  0.51100000000E-03 0.  1.
         11    1    4    4    0    0  0.57670739043E-01 -0.66707015885E-02 -0.12417430194E-01  0.59370582741E-01  0.51100000000E-03 0. -1.
</event>
<event>
 8    1  0.1118868E+005  0.1043930E+01  0.7957747E-01            NaN
         13   -1    0    0    0    0  0.00000000000E+00  0.00000000000E+00  0.74505805969E-08  0.10566000000E+00  0.10566000000E+00 0.  1.
     999900   -1    0    0    0    0 -0.00000000000E+00 -0.00000000000E+00 -0.74505805969E-08  0.93827000000E+00  0.93827000000E+00 0. -1.
     999902    2    1    2    0    0  0.63279901599E-02  0.22407532020E-01 -0.21245547592E-03  0.10206451103E+01  0.10203794662E+01 0.  0.
     999903    2    3    3    0    0  0.36639761211E-01 -0.38104760693E-01 -0.11752347837E+00  0.13028427496E+00  0.19177576554E-01 0.  0.
         14    1    1    2    0    0 -0.63279901599E-02 -0.22407532020E-01  0.21245547592E-03  0.23284889693E-01  0.00000000000E+00 0.  1.
     999901    1    3    3    0    0 -0.30311771051E-01  0.60512292713E-01  0.11731102290E+00  0.89036083535E+00  0.88000000000E+00 0.  1.
        -11    1    4    4    0    0  0.70618853513E-02 -0.20174292765E-01 -0.38928369868E-01  0.44413414807E-01  0.51100000000E-03 0. -1.
         11    1    4    4    0    0  0.29577875860E-01 -0.17930467928E-01 -0.78595108506E-01  0.85870860148E-01  0.51100000000E-03 0.  1.
</event>
<event>
 8    1  0.1487081E+005  0.1043930E+01  0.7957747E-01            NaN
         13   -1    0    0    0    0  0.00000000000E+00  0.00000000000E+00  0.74505805969E-08  0.10566000000E+00  0.10566000000E+00 0.  1.
     999900   -1    0    0    0    0 -0.00000000000E+00 -0.00000000000E+00 -0.74505805969E-08  0.93827000000E+00  0.93827000000E+00 0. -1.
     999902    2    1    2    0    0 -0.12452824852E-03  0.20417555416E-01  0.25289928674E-02  0.10233560388E+01  0.10231492043E+01 0.  0.
     999903    2    3    3    0    0  0.59685761847E-02 -0.65967336448E-02 -0.13106268304E+00  0.13284290937E+00  0.19765396223E-01 0.  0.
         14    1    1    2    0    0  0.12452824852E-03 -0.20417555416E-01 -0.25289928674E-02  0.20573961246E-01  0.00000000000E+00 0. -1.
     999901    1    3    3    0    0 -0.60931044333E-02  0.27014289061E-01  0.13359167591E+00  0.89051312938E+00  0.88000000000E+00 0.  1.
        -11    1    4    4    0    0  0.12710069961E-01 -0.76316505372E-02 -0.90426924055E-01  0.91635569968E-01  0.51100000000E-03 0.  1.
         11    1    4    4    0    0 -0.67414937764E-02  0.10349168923E-02 -0.40635758984E-01  0.41207339401E-01  0.51100000000E-03 0. -1.
</event>
<event>
 8    1  0.1118868E+005  0.1043930E+01  0.7957747E-01            NaN
         13   -1    0    0    0    0  0.00000000000E+00  0.00000000000E+00  0.74505805969E-08  0.10566000000E+00  0.10566000000E+00 0. -1.
     999900   -1    0    0    0    0 -0.00000000000E+00 -0.00000000000E+00 -0.74505805969E-08  0.93827000000E+00  0.93827000000E+00 0.  1.
     999902    2    1    2    0    0 -0.58352130585E-02 -0.17162925863E-01  0.12545222774E-01  0.10218846297E+01  0.10216468069E+01 0.  0.
     999903    2    3    3    0    0  0.90294000765E-01 -0.93080432359E-01  0.23949499309E-01  0.13332717461E+00  0.19636280428E-01 0.  0.
         14    1    1    2    0    0  0.58352130585E-02  0.17162925863E-01 -0.12545222774E-01  0.22045370264E-01  0.00000000000E+00 0.  1.
     999901    1    3    3    0    0 -0.96129213823E-01  0.75917506496E-01 -0.11404276535E-01  0.88855745513E+00  0.88000000000E+00 0.  1.
        -11    1    4    4    0    0  0.13263744294E-01 -0.25215732213E-01  0.53161600877E-02  0.28987630859E-01  0.51100000000E-03 0. -1.
         11    1    4    4    0    0  0.77030256471E-01 -0.67864700147E-01  0.18633339221E-01  0.10433954375E+00  0.51100000000E-03 0.  1.
</event>
<event>
 8    1  0.1118868E+005  0.1043930E+01  0.7957747E-01            NaN
         13   -1    0    0    0    0  0.00000000000E+00  0.00000000000E+00  0.74505805969E-08  0.10566000000E+00  0.10566000000E+00 0. -1.
     999900   -1    0    0    0    0 -0.00000000000E+00 -0.00000000000E+00 -0.74505805969E-08  0.93827000000E+00  0.93827000000E+00 0. -1.
     999902    2    1    2    0    0  0.60361359461E-02 -0.21081785299E-01  0.74286017755E-02  0.10207770146E+01  0.10205144060E+01 0.  0.
     999903    2    3    3    0    0  0.12674638149E+00 -0.32411055904E-01 -0.11015993716E-01  0.13227292409E+00  0.16113738349E-01 0.  0.
         14    1    1    2    0    0 -0.60361359461E-02  0.21081785299E-01 -0.74286017755E-02  0.23152985399E-01  0.00000000000E+00 0. -1.
     999901    1    3    3    0    0 -0.12071024555E+00  0.11329270605E-01  0.18444595491E-01  0.88850409051E+00  0.88000000000E+00 0.  1.
        -11    1    4    4    0    0  0.76851342092E-01 -0.13781163583E-01 -0.12035814172E-01  0.79001083505E-01  0.51100000000E-03 0. -1.
         11    1    4    4    0    0  0.49895039400E-01 -0.18629892321E-01  0.10198204562E-02  0.53271840585E-01  0.51100000000E-03 0.  1.
</event>
<event>
 7    1  0.1118868E+005  0.1043930E+01  0.7957747E-01            NaN
         13   -1    0    0    0    0  0.00000000000E+00  0.00000000000E+00  0.74505805969E-08  0.10566000000E+00  0.10566000000E+00 0.  1.
     999900   -1    0    0    0    0 -0.00000000000E+00 -0.00000000000E+00 -0.74505805969E-08  0.93827000000E+00  0.93827000000E+00 0.  1.
     999903    2    1    2    0    0 -0.54743863546E-01 -0.28925293026E-01 -0.73262854771E-01  0.98091003535E-01  0.20514285577E-01 0.  0.
         14    1    1    2    0    0 -0.39844913454E-01  0.28312072860E-01  0.34674137222E-01  0.59929011254E-01  0.00000000000E+00 0.  1.
     999901    1    1    2    0    0  0.94588777000E-01  0.61322016594E-03  0.38588717549E-01  0.88590998521E+00  0.88000000000E+00 0. -1.
        -11    1    3    3    0    0 -0.34314470088E-01 -0.14642779426E-01 -0.28872297211E-01  0.47178008796E-01  0.51100000000E-03 0. -1.
         11    1    3    3    0    0 -0.20429393458E-01 -0.14282513600E-01 -0.44390557560E-01  0.50912994739E-01  0.51100000000E-03 0.  1.
</event>
<event>
 8    1  0.1118868E+005  0.1043930E+01  0.7957747E-01            NaN
         13   -1    0    0    0    0  0.00000000000E+00  0.00000000000E+00  0.74505805969E-08  0.10566000000E+00  0.10566000000E+00 0. -1.
     999900   -1    0    0    0    0 -0.00000000000E+00 -0.00000000000E+00 -0.74505805969E-08  0.93827000000E+00  0.93827000000E+00 0. -1.
     999902    2    1    2    0    0 -0.99884017054E-02  0.17737910915E-01  0.12531659614E-01  0.10200251021E+01  0.10197449508E+01 0.  0.
     999903    2    3    3    0    0  0.16789167496E-01  0.12477150300E+00  0.37467867408E-01  0.13278497533E+00  0.19447480025E-01 0.  0.
         14    1    1    2    0    0  0.99884017054E-02 -0.17737910915E-01 -0.12531659614E-01  0.23904897928E-01  0.00000000000E+00 0.  1.
     999901    1    3    3    0    0 -0.26777569201E-01 -0.10703359208E+00 -0.24936207794E-01  0.88724012674E+00  0.88000000000E+00 0. -1.
        -11    1    4    4    0    0  0.76422062422E-02  0.12972979721E-01  0.65594410142E-02  0.16431339158E-01  0.51100000000E-03 0. -1.
         11    1    4    4    0    0  0.91469612536E-02  0.11179852328E+00  0.30908426394E-01  0.11635363617E+00  0.51100000000E-03 0.  1.
</event>
<event>
 8    1  0.1118868E+005  0.1043930E+01  0.7957747E-01            NaN
         13   -1    0    0    0    0  0.00000000000E+00  0.00000000000E+00  0.74505805969E-08  0.10566000000E+00  0.10566000000E+00 0.  1.
     999900   -1    0    0    0    0 -0.00000000000E+00 -0.00000000000E+00 -0.74505805969E-08  0.93827000000E+00  0.93827000000E+00 0.  1.
     999902    2    1    2    0    0 -0.17678789859E-01 -0.73716027312E-02  0.15168476630E-01  0.10194971774E+01  0.10192043622E+01 0.  0.
     999903    2    3    3    0    0  0.45891220464E-01  0.10659948628E-01  0.12031775165E+00  0.13077750668E+00  0.20168199537E-01 0.  0.
         14    1    1    2    0    0  0.17678789859E-01  0.73716027312E-02 -0.15168476630E-01  0.24432822616E-01  0.00000000000E+00 0. -1.
     999901    1    3    3    0    0 -0.63570010323E-01 -0.18031551359E-01 -0.10514927502E+00  0.88871967070E+00  0.88000000000E+00 0.  1.
        -11    1    4    4    0    0  0.18784135373E-01  0.69936076049E-03  0.72628519949E-01  0.75023302235E-01  0.51100000000E-03 0.  1.
         11    1    4    4    0    0  0.27107085091E-01  0.99605878673E-02  0.47689231696E-01  0.55754204447E-01  0.51100000000E-03 0. -1.
</event>
<event>
 8    1  0.1118868E+005  0.1043930E+01  0.7957747E-01            NaN
         13   -1    0    0    0    0  0.00000000000E+00  0.00000000000E+00  0.74505805969E-08  0.10566000000E+00  0.10566000000E+00 0. -1.
     999900   -1    0    0    0    0 -0.00000000000E+00 -0.00000000000E+00 -0.74505805969E-08  0.93827000000E+00  0.93827000000E+00 0.  1.
     999902    2    1    2    0    0 -0.27124298392E-02 -0.87898171820E-05 -0.19147068476E-01  0.10245917585E+01  0.10244092464E+01 0.  0.
     999903    2    3    3    0    0 -0.21327658888E-04 -0.46074737939E-01 -0.12715066883E+00  0.13678880103E+00  0.20518322840E-01 0.  0.
         14    1    1    2    0    0  0.27124298392E-02  0.87898171820E-05  0.19147068476E-01  0.19338241495E-01  0.00000000000E+00 0. -1.
     999901    1    3    3    0    0 -0.26911021803E-02  0.46065948122E-01  0.10800360036E+00  0.88780295747E+00  0.88000000000E+00 0. -1.
        -11    1    4    4    0    0 -0.85803872224E-02 -0.33126222698E-01 -0.76395267344E-01  0.83710618614E-01  0.51100000000E-03 0. -1.
         11    1    4    4    0    0  0.85590595635E-02 -0.12948515241E-01 -0.50755401489E-01  0.53078182419E-01  0.51100000000E-03 0.  1.
</event>
<event>
 8    1  0.1118868E+005  0.1043930E+01  0.7957747E-01            NaN
         13   -1    0    0    0    0  0.00000000000E+00  0.00000000000E+00  0.74505805969E-08  0.10566000000E+00  0.10566000000E+00 0.  1.
     999900   -1    0    0    0    0 -0.00000000000E+00 -0.00000000000E+00 -0.74505805969E-08  0.93827000000E+00  0.93827000000E+00 0. -1.
     999902    2    1    2    0    0 -0.13772003375E-01  0.19140630182E-01 -0.67866154705E-02  0.10193924787E+01  0.10190971179E+01 0.  0.
     999903    2    3    3    0    0  0.61584807961E-01  0.76051124824E-01  0.81908272680E-01  0.12990710133E+00  0.24298717749E-01 0.  0.
         14    1    1    2    0    0  0.13772003375E-01 -0.19140630182E-01  0.67866154705E-02  0.24537521274E-01  0.00000000000E+00 0. -1.
     999901    1    3    3    0    0 -0.75356811335E-01 -0.56910494642E-01 -0.88694888151E-01  0.88948537739E+00  0.88000000000E+00 0. -1.
        -11    1    4    4    0    0  0.52853738516E-02  0.21295149719E-01  0.13595101613E-01  0.25816786926E-01  0.51100000000E-03 0. -1.
         11    1    4    4    0    0  0.56299434109E-01  0.54755975105E-01  0.68313171067E-01  0.10409031440E+00  0.51100000000E-03 0.  1.
</event>
<event>
 8    1  0.1118868E+005  0.1043930E+01  0.7957747E-01            NaN
         13   -1    0    0    0    0  0.00000000000E+00  0.00000000000E+00  0.74505805969E-08  0.10566000000E+00  0.10566000000E+00 0. -1.
     999900   -1    0    0    0    0 -0.00000000000E+00 -0.00000000000E+00 -0.74505805969E-08  0.93827000000E+00  0.93827000000E+00 0.  1.
     999902    2    1    2    0    0 -0.19633554859E-01 -0.55731047144E-02 -0.11963425121E-01  0.10202728761E+01  0.10199985697E+01 0.  0.
     999903    2    3    3    0    0 -0.42580911697E-01 -0.81428607779E-01 -0.94222709845E-01  0.13289064249E+00  0.18391617789E-01 0.  0.
         14    1    1    2    0    0  0.19633554859E-01  0.55731047144E-02  0.11963425121E-01  0.23657123941E-01  0.00000000000E+00 0. -1.
     999901    1    3    3    0    0  0.22947356839E-01  0.75855503064E-01  0.82259284725E-01  0.88738223357E+00  0.88000000000E+00 0. -1.
        -11    1    4    4    0    0 -0.18700559236E-01 -0.19002941066E-01 -0.30946394795E-01  0.40850497631E-01  0.51100000000E-03 0. -1.
         11    1    4    4    0    0 -0.23880352461E-01 -0.62425666713E-01 -0.63276315051E-01  0.92040144859E-01  0.51100000000E-03 0.  1.
</event>
<event>
 8    1  0.1118868E+005  0.1043930E+01  0.7957747E-01            NaN
         13   -1    0    0    0    0  0.00000000000E+00  0.00000000000E+00  0.74505805969E-08  0.10566000000E+00  0.10566000000E+00 0.  1.
     999900   -1    0    0    0    0 -0.00000000000E+00 -0.00000000000E+00 -0.74505805969E-08  0.93827000000E+00  0.93827000000E+00 0. -1.
     999902    2    1    2    0    0  0.10174660392E-01 -0.78743718315E-02  0.19944539043E-01  0.10201957614E+01  0.10199196426E+01 0.  0.
     999903    2    3    3    0    0  0.76354374530E-01 -0.97480319879E-02  0.10721672146E+00  0.13340395999E+00  0.19395271151E-01 0.  0.
         14    1    1    2    0    0 -0.10174660392E-01  0.78743718315E-02 -0.19944539043E-01  0.23734238633E-01  0.00000000000E+00 0. -1.
     999901    1    3    3    0    0 -0.66179714139E-01  0.18736601563E-02 -0.87272182416E-01  0.88679180138E+00  0.88000000000E+00 0. -1.
        -11    1    4    4    0    0  0.14844328001E-01 -0.29214637521E-03  0.35294747037E-01  0.38293859987E-01  0.51100000000E-03 0.  1.
         11    1    4    4    0    0  0.61510046529E-01 -0.94558856127E-02  0.71921974422E-01  0.95110100003E-01  0.51100000000E-03 0. -1.
</event>
<event>
 8    1  0.1118868E+005  0.1043930E+01  0.7957747E-01            NaN
         13   -1    0    0    0    0  0.00000000000E+00  0.00000000000E+00  0.74505805969E-08  0.10566000000E+00  0.10566000000E+00 0.  1.
     999900   -1    0    0    0    0 -0.00000000000E+00 -0.00000000000E+00 -0.74505805969E-08  0.93827000000E+00  0.93827000000E+00 0. -1.
     999902    2    1    2    0    0  0.11718619564E-01 -0.94241371574E-02  0.18140752602E-01  0.10203667381E+01  0.10200946294E+01 0.  0.
     999903    2    3    3    0    0 -0.17020473562E-01  0.30360767460E-02  0.13006715747E+00  0.13272451711E+00  0.19985437393E-01 0.  0.
         14    1    1    2    0    0 -0.11718619564E-01  0.94241371574E-02 -0.18140752602E-01  0.23563261884E-01  0.00000000000E+00 0. -1.
     999901    1    3    3    0    0  0.28739093126E-01 -0.12460213903E-01 -0.11192640487E+00  0.88764222101E+00  0.88000000000E+00 0. -1.
        -11    1    4    4    0    0 -0.14220306961E-01 -0.15005991430E-02  0.39716882416E-01  0.42215646361E-01  0.51100000000E-03 0. -1.
         11    1    4    4    0    0 -0.28001666016E-02  0.45366758890E-02  0.90350275054E-01  0.90508870750E-01  0.51100000000E-03 0.  1.
</event>
<event>
 8    1  0.1118868E+005  0.1043930E+01  0.7957747E-01            NaN
         13   -1    0    0    0    0  0.00000000000E+00  0.00000000000E+00  0.74505805969E-08  0.10566000000E+00  0.10566000000E+00 0.  1.
     999900   -1    0    0    0    0 -0.00000000000E+00 -0.00000000000E+00 -0.74505805969E-08  0.93827000000E+00  0.93827000000E+00 0. -1.
     999902    2    1    2    0    0 -0.23044927111E-01  0.54130992434E-02  0.23176068316E-04  0.10202578466E+01  0.10199831875E+01 0.  0.
     999903    2    3    3    0    0  0.21647793857E-01  0.79663418969E-01 -0.99239781970E-01  0.13044680817E+00  0.18786913969E-01 0.  0.
         14    1    1    2    0    0  0.23044927111E-01 -0.54130992434E-02 -0.23176068316E-04  0.23672153389E-01  0.00000000000E+00 0.  1.
     999901    1    3    3    0    0 -0.44692720968E-01 -0.74250319725E-01  0.99262958038E-01  0.88981103844E+00  0.88000000000E+00 0.  1.
        -11    1    4    4    0    0  0.16200613165E-01  0.47325133615E-01 -0.46250270529E-01  0.68128384566E-01  0.51100000000E-03 0. -1.
         11    1    4    4    0    0  0.54471806920E-02  0.32338285353E-01 -0.52989511441E-01  0.62318423607E-01  0.51100000000E-03 0.  1.
</event>
<event>
 8    1  0.1118868E+005  0.1043930E+01  0.7957747E-01            NaN
         13   -1    0    0    0    0  0.00000000000E+00  0.00000000000E+00  0.74505805969E-08  0.10566000000E+00  0.10566000000E+00 0.  1.
     999900   -1    0    0    0    0 -0.00000000000E+00 -0.00000000000E+00 -0.74505805969E-08  0.93827000000E+00  0.93827000000E+00 0. -1.
     999902    2    1    2    0    0 -0.96783732788E-02 -0.44756466853E-02  0.21434131825E-01  0.10199899848E+01  0.10197090000E+01 0.  0.
     999903    2    3    3    0    0  0.10476883694E+00 -0.71549342293E-01 -0.14855243831E-01  0.12930824398E+00  0.20102888236E-01 0.  0.
         14    1    1    2    0    0  0.96783732788E-02  0.44756466853E-02 -0.21434131825E-01  0.23940015239E-01  0.00000000000E+00 0. -1.
     999901    1    3    3    0    0 -0.11444721022E+00  0.67073695607E-01  0.36289375656E-01  0.89068174078E+00  0.88000000000E+00 0.  1.
        -11    1    4    4    0    0  0.55958006082E-01 -0.26673156464E-01 -0.10330744863E-01  0.62846965963E-01  0.51100000000E-03 0. -1.
         11    1    4    4    0    0  0.48810830862E-01 -0.44876185829E-01 -0.45244989688E-02  0.66461278019E-01  0.51100000000E-03 0.  1.
</event>
<event>
 8    1  0.1118868E+005  0.1043930E+01  0.7957747E-01            NaN
         13   -1    0    0    0    0  0.00000000000E+00  0.00000000000E+00  0.74505805969E-08  0.10566000000E+00  0.10566000000E+00 0.  1.
     999900   -1    0    0    0    0 -0.00000000000E+00 -0.00000000000E+00 -0.74505805969E-08  0.93827000000E+00  0.93827000000E+00 0. -1.
     999902    2    1    2    0    0  0.84901598888E-02 -0.44571536491E-02  0.20761854412E-01  0.10210607273E+01  0.10208045872E+01 0.  0.
     999903    2    3    3    0    0 -0.82958830063E-01  0.91454845802E-01  0.38801950328E-01  0.13095541083E+00  0.19939206891E-01 0.  0.
         14    1    1    2    0    0 -0.84901598888E-02  0.44571536491E-02 -0.20761854412E-01  0.22869272665E-01  0.00000000000E+00 0. -1.
     999901    1    3    3    0    0  0.91448989952E-01 -0.95911999452E-01 -0.18040095916E-01  0.89010531650E+00  0.88000000000E+00 0. -1.
        -11    1    4    4    0    0 -0.44756519920E-01  0.51104001117E-01  0.31593830295E-01  0.74921266936E-01  0.51100000000E-03 0.  1.
         11    1    4    4    0    0 -0.38202310143E-01  0.40350844685E-01  0.72081200328E-02  0.56034143899E-01  0.51100000000E-03 0. -1.
</event>
<event>
 8    1  0.1118868E+005  0.1043930E+01  0.7957747E-01            NaN
         13   -1    0    0    0    0  0.00000000000E+00  0.00000000000E+00  0.74505805969E-08  0.10566000000E+00  0.10566000000E+00 0.  1.
     999900   -1    0    0    0    0 -0.00000000000E+00 -0.00000000000E+00 -0.74505805969E-08  0.93827000000E+00  0.93827000000E+00 0.  1.
     999902    2    1    2    0    0 -0.58977891947E-02  0.22247604204E-01 -0.37970440307E-02  0.10206028194E+01  0.10203361984E+01 0.  0.
     999903    2    3    3    0    0 -0.57692603170E-02  0.11196874624E+00 -0.64634793123E-01  0.13395117895E+00  0.34568444586E-01 0.  0.
         14    1    1    2    0    0  0.58977891947E-02 -0.22247604204E-01  0.37970440307E-02  0.23327180574E-01  0.00000000000E+00 0. -1.
     999901    1    3    3    0    0 -0.12852887767E-03 -0.89721142033E-01  0.60837749093E-01  0.88665164048E+00  0.88000000000E+00 0. -1.
        -11    1    4    4    0    0 -0.19662494946E-01  0.76469454410E-01 -0.47575410031E-01  0.92183902748E-01  0.51100000000E-03 0.  1.
         11    1    4    4    0    0  0.13893234629E-01  0.35499291827E-01 -0.17059383092E-01  0.41767276200E-01  0.51100000000E-03 0. -1.
</event>
<event>
 8    1  0.1118868E+005  0.1043930E+01  0.7957747E-01            NaN
         13   -1    0    0    0    0  0.00000000000E+00  0.00000000000E+00  0.74505805969E-08  0.10566000000E+00  0.10566000000E+00 0.  1.
     999900   -1    0    0    0    0 -0.00000000000E+00 -0.00000000000E+00 -0.74505805969E-08  0.93827000000E+00  0.93827000000E+00 0.  1.
     999902    2    1    2    0    0 -0.93631116293E-02  0.11390444456E-01 -0.18545081387E-01  0.10202375935E+01  0.10199624586E+01 0.  0.
     999903    2    3    3    0    0 -0.12481424701E+00 -0.25948648637E-01  0.22431717911E-01  0.13096695376E+00  0.19930689542E-01 0.  0.
         14    1    1    2    0    0  0.93631116293E-02 -0.11390444456E-01  0.18545081387E-01  0.23692406546E-01  0.00000000000E+00 0.  1.
     999901    1    3    3    0    0  0.11545113539E+00  0.37339093093E-01 -0.40976799298E-01  0.88927063969E+00  0.88000000000E+00 0.  1.
        -11    1    4    4    0    0 -0.54569849698E-01 -0.17592101982E-02  0.12482755968E-01  0.56009317387E-01  0.51100000000E-03 0. -1.
         11    1    4    4    0    0 -0.70244397317E-01 -0.24189438439E-01  0.99489619428E-02  0.74957636376E-01  0.51100000000E-03 0.  1.
</event>
<event>
 8    1  0.1118868E+005  0.1043930E+01  0.7957747E-01            NaN
         13   -1    0    0    0    0  0.00000000000E+00  0.00000000000E+00  0.74505805969E-08  0.10566000000E+00  0.10566000000E+00 0. -1.
     999900   -1    0    0    0    0 -0.00000000000E+00 -0.00000000000E+00 -0.74505805969E-08  0.93827000000E+00  0.93827000000E+00 0. -1.
     999902    2    1    2    0    0  0.91859066714E-03  0.24265818350E-01  0.33776997367E-02  0.10194130140E+01  0.10191181533E+01 0.  0.
     999903    2    3    3    0    0 -0.12424383286E+00  0.21083029858E-02 -0.31451198415E-01  0.12959862888E+00  0.19122023406E-01 0.  0.
         14    1    1    2    0    0 -0.91859066714E-03 -0.24265818350E-01 -0.33776997367E-02  0.24516986041E-01  0.00000000000E+00 0. -1.
     999901    1    3    3    0    0  0.12516242353E+00  0.22157515365E-01  0.34828898152E-01  0.88981438508E+00  0.88000000000E+00 0.  1.
        -11    1    4    4    0    0 -0.13054086419E-01 -0.56549715154E-02 -0.27107917980E-02  0.14491286632E-01  0.51100000000E-03 0.  1.
         11    1    4    4    0    0 -0.11118974644E+00  0.77632745012E-02 -0.28740406617E-01  0.11510734225E+00  0.51100000000E-03 0. -1.
</event>
<event>
 8    1  0.1118868E+005  0.1043930E+01  0.7957747E-01            NaN
         13   -1    0    0    0    0  0.00000000000E+00  0.00000000000E+00  0.74505805969E-08  0.10566000000E+00  0.10566000000E+00 0.  1.
     999900   -1    0    0    0    0 -0.00000000000E+00 -0.00000000000E+00 -0.74505805969E-08  0.93827000000E+00  0.93827000000E+00 0. -1.
     999902    2    1    2    0    0  0.91008167881E-02 -0.87795343560E-02  0.19495623623E-01  0.10206924349E+01  0.10204278820E+01 0.  0.
     999903    2    3    3    0    0  0.56683236582E-01 -0.11244927753E+00  0.37833062058E-01  0.13314087926E+00  0.20912288716E-01 0.  0.
         14    1    1    2    0    0 -0.91008167881E-02  0.87795343560E-02 -0.19495623623E-01  0.23237565065E-01  0.00000000000E+00 0. -1.
     999901    1    3    3    0    0 -0.47582419794E-01  0.10366974318E+00 -0.18337438435E-01  0.88755155567E+00  0.88000000000E+00 0.  1.
        -11    1    4    4    0    0  0.31624961598E-01 -0.73487447040E-01  0.33067044250E-01  0.86569241679E-01  0.51100000000E-03 0. -1.
         11    1    4    4    0    0  0.25058274983E-01 -0.38961830495E-01  0.47660178075E-02  0.46571637585E-01  0.51100000000E-03 0.  1.
</event>
<event>
 8    1  0.1205078E+005  0.1043930E+01  0.7957747E-01            NaN
         13   -1    0    0    0    0  0.00000000000E+00  0.00000000000E+00  0.74505805969E-08  0.10566000000E+00  0.10566000000E+00 0. -1.
     999900   -1    0    0    0    0 -0.00000000000E+00 -0.00000000000E+00 -0.74505805969E-08  0.93827000000E+00  0.93827000000E+00 0. -1.
     999902    2    1    2    0    0 -0.13705355271E-02  0.85045782423E-02 -0.21966325393E-01  0.10203349651E+01  0.10200621135E+01 0.  0.
     999903    2    3    3    0    0 -0.90575243832E-01  0.69205787209E-01 -0.65014599479E-01  0.13270031583E+00  0.19727136081E-01 0.  0.
         14    1    1    2    0    0  0.13705355271E-02 -0.85045782423E-02  0.21966325393E-01  0.23595034859E-01  0.00000000000E+00 0. -1.
     999901    1    3    3    0    0  0.89204708305E-01 -0.60701208966E-01  0.43048274086E-01  0.88763464931E+00  0.88000000000E+00 0.  1.
        -11    1    4    4    0    0 -0.13194824939E-01  0.18788963576E-01 -0.17256491180E-01  0.28725879730E-01  0.51100000000E-03 0.  1.
         11    1    4    4    0    0 -0.77380418893E-01  0.50416823633E-01 -0.47758108299E-01  0.10397443610E+00  0.51100000000E-03 0. -1.
</event>
<event>
 8    1  0.1118868E+005  0.1043930E+01  0.7957747E-01            NaN
         13   -1    0    0    0    0  0.00000000000E+00  0.00000000000E+00  0.74505805969E-08  0.10566000000E+00  0.10566000000E+00 0.  1.
     999900   -1    0    0    0    0 -0.00000000000E+00 -0.00000000000E+00 -0.74505805969E-08  0.93827000000E+00  0.93827000000E+00 0. -1.
     999902    2    1    2    0    0  0.42215836129E-02 -0.20780612189E-01 -0.86439964522E-02  0.10210307798E+01  0.10207739608E+01 0.  0.
     999903    2    3    3    0    0  0.97876905357E-01  0.76763131194E-01  0.31308234943E-01  0.12980562196E+00  0.19920517190E-01 0.  0.
         14    1    1    2    0    0 -0.42215836129E-02  0.20780612189E-01  0.86439964522E-02  0.22899220201E-01  0.00000000000E+00 0.  1.
     999901    1    3    3    0    0 -0.93655321744E-01 -0.97543743384E-01 -0.39952231395E-01  0.89122515783E+00  0.88000000000E+00 0.  1.
        -11    1    4    4    0    0  0.48489922801E-01  0.32064251440E-01  0.56006797097E-02  0.58403917402E-01  0.51100000000E-03 0.  1.
         11    1    4    4    0    0  0.49386982556E-01  0.44698879754E-01  0.25707555233E-01  0.71401704562E-01  0.51100000000E-03 0. -1.
</event>
<event>
 8    1  0.1118868E+005  0.1043930E+01  0.7957747E-01            NaN
         13   -1    0    0    0    0  0.00000000000E+00  0.00000000000E+00  0.74505805969E-08  0.10566000000E+00  0.10566000000E+00 0. -1.
     999900   -1    0    0    0    0 -0.00000000000E+00 -0.00000000000E+00 -0.74505805969E-08  0.93827000000E+00  0.93827000000E+00 0. -1.
     999902    2    1    2    0    0 -0.22026531017E-01  0.34984617949E-02 -0.88529282465E-02  0.10199345496E+01  0.10196522465E+01 0.  0.
     999903    2    3    3    0    0  0.44623647885E-01  0.97260878050E-01  0.69548817458E-01  0.12899096504E+00  0.18726524062E-01 0.  0.
         14    1    1    2    0    0  0.22026531017E-01 -0.34984617949E-02  0.88529282465E-02  0.23995450446E-01  0.00000000000E+00 0. -1.
     999901    1    3    3    0    0 -0.66650178903E-01 -0.93762416255E-01 -0.78401745705E-01  0.89094358451E+00  0.88000000000E+00 0.  1.
        -11    1    4    4    0    0  0.14161214875E-01  0.31531150591E-01  0.33227164082E-01  0.47948503817E-01  0.51100000000E-03 0. -1.
         11    1    4    4    0    0  0.30462433010E-01  0.65729727459E-01  0.36321653376E-01  0.81042461227E-01  0.51100000000E-03 0.  1.
</event>
<event>
 8    1  0.1118868E+005  0.1043930E+01  0.7957747E-01            NaN
         13   -1    0    0    0    0  0.00000000000E+00  0.00000000000E+00  0.74505805969E-08  0.10566000000E+00  0.10566000000E+00 0.  1.
     999900   -1    0    0    0    0 -0.00000000000E+00 -0.00000000000E+00 -0.74505805969E-08  0.93827000000E+00  0.93827000000E+00 0.  1.
     999902    2    1    2    0    0 -0.12562362133E-01 -0.15710173103E-01  0.97701518739E-03  0.10237910566E+01  0.10235929614E+01 0.  0.
     999903    2    3    3    0    0  0.64015529041E-01  0.16124657389E-01  0.11339835957E+00  0.13277131021E+00  0.20274129489E-01 0.  0.
         14    1    1    2    0    0  0.12562362133E-01  0.15710173103E-01 -0.97701518739E-03  0.20138943368E-01  0.00000000000E+00 0.  1.
     999901    1    3    3    0    0 -0.76577891174E-01 -0.31834830493E-01 -0.11242134438E+00  0.89101974643E+00  0.88000000000E+00 0.  1.
        -11    1    4    4    0    0  0.99160381694E-02  0.10654428551E-01  0.27216295884E-01  0.30867985736E-01  0.51100000000E-03 0.  1.
         11    1    4    4    0    0  0.54099490872E-01  0.54702288387E-02  0.86182063684E-01  0.10190332447E+00  0.51100000000E-03 0. -1.
</event>
<event>
 8    1  0.1118868E+005  0.1043930E+01  0.7957747E-01            NaN
         13   -1    0    0    0    0  0.00000000000E+00  0.00000000000E+00  0.74505805969E-08  0.10566000000E+00  0.10566000000E+00 0. -1.
     999900   -1    0    0    0    0 -0.00000000000E+00 -0.00000000000E+00 -0.74505805969E-08  0.93827000000E+00  0.93827000000E+00 0.  1.
     999902    2    1    2    0    0  0.22456919490E-01 -0.32172754675E-02 -0.61274854630E-02  0.10204308474E+01  0.10201602346E+01 0.  0.
     999903    2    3    3    0    0  0.18894277092E-01 -0.92156580923E-01  0.88782066928E-01  0.13086313463E+00  0.19826131345E-01 0.  0.
         14    1    1    2    0    0 -0.22456919490E-01  0.32172754675E-02  0.61274854630E-02  0.23499152591E-01  0.00000000000E+00 0. -1.
     999901    1    3    3    0    0  0.35626423973E-02  0.88939305456E-01 -0.94909552391E-01  0.88956771277E+00  0.88000000000E+00 0.  1.
        -11    1    4    4    0    0  0.19421017589E-02 -0.56080116830E-01  0.55599787988E-01  0.78995878425E-01  0.51100000000E-03 0.  1.
         11    1    4    4    0    0  0.16952175333E-01 -0.36076464094E-01  0.33182278939E-01  0.51867256209E-01  0.51100000000E-03 0. -1.
</event>
<event>
 7    1  0.1118868E+005  0.1043930E+01  0.7957747E-01            NaN
         13   -1    0    0    0    0  0.00000000000E+00  0.00000000000E+00  0.74505805969E-08  0.10566000000E+00  0.10566000000E+00 0. -1.
     999900   -1    0    0    0    0 -0.00000000000E+00 -0.00000000000E+00 -0.74505805969E-08  0.93827000000E+00  0.93827000000E+00 0. -1.
     999902    2    1    2    0    0  0.75159829442E-02  0.10534445046E-01 -0.21392398116E-01  0.10189280155E+01  0.10186212257E+01 0.  0.
         14    1    1    2    0    0 -0.75159829442E-02 -0.10534445046E-01  0.21392398116E-01  0.25001984505E-01  0.00000000000E+00 0. -1.
     999901    1    3    3    0    0  0.10473247549E-02  0.30060039583E-01 -0.14123288216E+00  0.89176870873E+00  0.88000000000E+00 0. -1.
        -11    1    3    3    0    0  0.21112576193E-01 -0.13094929422E-01  0.54659090741E-01  0.60042446417E-01  0.51100000000E-03 0.  1.
         11    1    3    3    0    0 -0.14643918003E-01 -0.64306651143E-02  0.65181393307E-01  0.67116860346E-01  0.51100000000E-03 0. -1.
</event>
<event>
 8    1  0.1118868E+005  0.1043930E+01  0.7957747E-01            NaN
         13   -1    0    0    0    0  0.00000000000E+00  0.00000000000E+00  0.74505805969E-08  0.10566000000E+00  0.10566000000E+00 0.  1.
     999900   -1    0    0    0    0 -0.00000000000E+00 -0.00000000000E+00 -0.74505805969E-08  0.93827000000E+00  0.93827000000E+00 0.  1.
     999902    2    1    2    0    0 -0.19983632406E-01  0.11521584422E-01 -0.31888202967E-02  0.10206435008E+01  0.10203778195E+01 0.  0.
     999903    2    3    3    0    0 -0.53099023085E-02  0.11489756299E+00  0.62240132563E-01  0.13205875007E+00  0.18331239010E-01 0.  0.
         14    1    1    2    0    0  0.19983632406E-01 -0.11521584422E-01  0.31888202967E-02  0.23286499235E-01  0.00000000000E+00 0.  1.
     999901    1    3    3    0    0 -0.14673730098E-01 -0.10337597857E+00 -0.65428952859E-01  0.88858475070E+00  0.88000000000E+00 0.  1.
        -11    1    4    4    0    0  0.19182445645E-02  0.47478550426E-01  0.16660297591E-01  0.50355923679E-01  0.51100000000E-03 0. -1.
         11    1    4    4    0    0 -0.72281468730E-02  0.67419012566E-01  0.45579834972E-01  0.81702826387E-01  0.51100000000E-03 0.  1.
</event>
<event>
 8    1  0.1118868E+005  0.1043930E+01  0.7957747E-01            NaN
         13   -1    0    0    0    0  0.00000000000E+00  0.00000000000E+00  0.74505805969E-08  0.10566000000E+00  0.10566000000E+00 0.  1.
     999900   -1    0    0    0    0 -0.00000000000E+00 -0.00000000000E+00 -0.74505805969E-08  0.93827000000E+00  0.93827000000E+00 0.  1.
     999902    2    1    2    0    0 -0.21740397636E-01 -0.10154454511E-01  0.37201204458E-02  0.10196483787E+01  0.10193592199E+01 0.  0.
     999903    2    3    3    0    0 -0.12964016899E+00  0.17319339708E-01  0.84266754988E-02  0.13262001295E+00  0.20261441972E-01 0.  0.
         14    1    1    2    0    0  0.21740397636E-01  0.10154454511E-01 -0.37201204458E-02  0.24281621279E-01  0.00000000000E+00 0.  1.
     999901    1    3    3    0    0  0.10789977135E+00 -0.27473794219E-01 -0.47065550530E-02  0.88702836577E+00  0.88000000000E+00 0. -1.
        -11    1    4    4    0    0 -0.73717158522E-01  0.19337802744E-01  0.14673508477E-02  0.76227188817E-01  0.51100000000E-03 0.  1.
         11    1    4    4    0    0 -0.55923010467E-01 -0.20184630363E-02  0.69593246511E-02  0.56392824130E-01  0.51100000000E-03 0. -1.
</event>
<event>
 8    1  0.1118868E+005  0.1043930E+01  0.7957747E-01            NaN
         13   -1    0    0    0    0  0.00000000000E+00  0.00000000000E+00  0.74505805969E-08  0.10566000000E+00  0.10566000000E+00 0.  1.
     999900   -1    0    0    0    0 -0.00000000000E+00 -0.00000000000E+00 -0.74505805969E-08  0.93827000000E+00  0.93827000000E+00 0.  1.
     999902    2    1    2    0    0 -0.93432559304E-02 -0.49275861941E-02 -0.18879267022E-01  0.10222965939E+01  0.10220676698E+01 0.  0.
     999903    2    3    3    0    0 -0.60540811477E-01 -0.50473666836E-01 -0.10886388601E+00  0.13505769324E+00  0.13283596207E-01 0.  0.
         14    1    1    2    0    0  0.93432559304E-02  0.49275861941E-02  0.18879267022E-01  0.21633406120E-01  0.00000000000E+00 0.  1.
     999901    1    3    3    0    0  0.51197555547E-01  0.45546080642E-01  0.89984618986E-01  0.88723890064E+00  0.88000000000E+00 0.  1.
        -11    1    4    4    0    0 -0.25948006447E-01 -0.13597630715E-01 -0.42663887182E-01  0.51755801511E-01  0.51100000000E-03 0.  1.
         11    1    4    4    0    0 -0.34592805031E-01 -0.36876036121E-01 -0.66199998826E-01  0.83301891728E-01  0.51100000000E-03 0. -1.
</event>
<event>
 8    1  0.1118868E+005  0.1043930E+01  0.7957747E-01            NaN
         13   -1    0    0    0    0  0.00000000000E+00  0.00000000000E+00  0.74505805969E-08  0.10566000000E+00  0.10566000000E+00 0. -1.
     999900   -1    0    0    0    0 -0.00000000000E+00 -0.00000000000E+00 -0.74505805969E-08  0.93827000000E+00  0.93827000000E+00 0.  1.
     999902    2    1    2    0    0  0.45440621912E-02 -0.79513593519E-02  0.20355377971E-01  0.10216092915E+01  0.10213654245E+01 0.  0.
     999903    2    3    3    0    0 -0.83988532655E-01 -0.16036327487E-01  0.10051801598E+00  0.13350488568E+00  0.20210035822E-01 0.  0.
         14    1    1    2    0    0 -0.45440621912E-02  0.79513593519E-02 -0.20355377971E-01  0.22320708525E-01  0.00000000000E+00 0.  1.
     999901    1    3    3    0    0  0.88532594847E-01  0.80849681349E-02 -0.80162638005E-01  0.88810440579E+00  0.88000000000E+00 0.  1.
        -11    1    4    4    0    0 -0.59347645436E-01 -0.12320087222E-01  0.84065267909E-01  0.10363955788E+00  0.51100000000E-03 0.  1.
         11    1    4    4    0    0 -0.24640887219E-01 -0.37162402643E-02  0.16452748066E-01  0.29865327799E-01  0.51100000000E-03 0. -1.
</event>
<event>
 8    1  0.1118868E+005  0.1043930E+01  0.7957747E-01            NaN
         13   -1    0    0    0    0  0.00000000000E+00  0.00000000000E+00  0.74505805969E-08  0.10566000000E+00  0.10566000000E+00 0. -1.
     999900   -1    0    0    0    0 -0.00000000000E+00 -0.00000000000E+00 -0.74505805969E-08  0.93827000000E+00  0.93827000000E+00 0. -1.
     999902    2    1    2    0    0 -0.80203290719E-03  0.18997604442E-01 -0.12671736762E-01  0.10210799421E+01  0.10208242371E+01 0.  0.
     999903    2    3    3    0    0  0.75591498507E-01  0.26552014468E-01 -0.10428529793E+00  0.13299994274E+00  0.19861452275E-01 0.  0.
         14    1    1    2    0    0  0.80203290719E-03 -0.18997604442E-01  0.12671736762E-01  0.22850057853E-01  0.00000000000E+00 0. -1.
     999901    1    3    3    0    0 -0.76393531414E-01 -0.75544100255E-02  0.91613561167E-01  0.88807999940E+00  0.88000000000E+00 0.  1.
        -11    1    4    4    0    0  0.59902926064E-01  0.17417315940E-01 -0.91679850305E-01  0.11089264862E+00  0.51100000000E-03 0.  1.
         11    1    4    4    0    0  0.15688572442E-01  0.91346985280E-02 -0.12605447624E-01  0.22107294119E-01  0.51100000000E-03 0. -1.
</event>
<event>
 8    1  0.1118868E+005  0.1043930E+01  0.7957747E-01            NaN
         13   -1    0    0    0    0  0.00000000000E+00  0.00000000000E+00  0.74505805969E-08  0.10566000000E+00  0.10566000000E+00 0.  1.
     999900   -1    0    0    0    0 -0.00000000000E+00 -0.00000000000E+00 -0.74505805969E-08  0.93827000000E+00  0.93827000000E+00 0.  1.
     999902    2    1    2    0    0 -0.22825837636E-01  0.44336629522E-02 -0.70717351117E-02  0.10196259742E+01  0.10193362751E+01 0.  0.
     999903    2    3    3    0    0 -0.13129164722E+00 -0.46722599940E-02  0.14938156484E-02  0.13287848011E+00  0.19877936146E-01 0.  0.
         14    1    1    2    0    0  0.22825837636E-01 -0.44336629522E-02  0.70717351117E-02  0.24304025767E-01  0.00000000000E+00 0.  1.
     999901    1    3    3    0    0  0.10846580959E+00  0.91059229463E-02 -0.85655507600E-02  0.88674749413E+00  0.88000000000E+00 0. -1.
        -11    1    4    4    0    0 -0.44017756342E-01 -0.74919254021E-02  0.78012999566E-02  0.45330047669E-01  0.51100000000E-03 0.  1.
         11    1    4    4    0    0 -0.87273890882E-01  0.28196654080E-02 -0.63074843082E-02  0.87548432436E-01  0.51100000000E-03 0. -1.
</event>
<event>
 8    1  0.1118868E+005  0.1043930E+01  0.7957747E-01            NaN
         13   -1    0    0    0    0  0.00000000000E+00  0.00000000000E+00  0.74505805969E-08  0.10566000000E+00  0.10566000000E+00 0. -1.
     999900   -1    0    0    0    0 -0.00000000000E+00 -0.00000000000E+00 -0.74505805969E-08  0.93827000000E+00  0.93827000000E+00 0. -1.
     999902    2    1    2    0    0  0.15650254008E-01 -0.75461391469E-02  0.16343289785E-01  0.10200767447E+01  0.10197978169E+01 0.  0.
     999903    2    3    3    0    0  0.19372245480E-01  0.10451386493E-01  0.12931675993E+00  0.13266434391E+00  0.19811319310E-01 0.  0.
         14    1    1    2    0    0 -0.15650254008E-01  0.75461391469E-02 -0.16343289785E-01  0.23853255282E-01  0.00000000000E+00 0.  1.
     999901    1    3    3    0    0 -0.37219914718E-02 -0.17997525640E-01 -0.11297347014E+00  0.88741240081E+00  0.88000000000E+00 0. -1.
        -11    1    4    4    0    0  0.26076164145E-02  0.23181618594E-02  0.77784184891E-01  0.77864074372E-01  0.51100000000E-03 0.  1.
         11    1    4    4    0    0  0.16764629065E-01  0.81332246334E-02  0.51532575037E-01  0.54800269539E-01  0.51100000000E-03 0. -1.
</event>
<event>
 8    1  0.1118868E+005  0.1043930E+01  0.7957747E-01            NaN
         13   -1    0    0    0    0  0.00000000000E+00  0.00000000000E+00  0.74505805969E-08  0.10566000000E+00  0.10566000000E+00 0. -1.
     999900   -1    0    0    0    0 -0.00000000000E+00 -0.00000000000E+00 -0.74505805969E-08  0.93827000000E+00  0.93827000000E+00 0.  1.
     999902    2    1    2    0    0  0.14472273429E-01  0.82187804710E-02  0.15497501413E-01  0.10211886808E+01  0.10209354309E+01 0.  0.
     999903    2    3    3    0    0  0.12984674947E+00 -0.21080404644E-01 -0.20151323882E-02  0.13300153589E+00  0.19513738289E-01 0.  0.
         14    1    1    2    0    0 -0.14472273429E-01 -0.82187804710E-02 -0.15497501413E-01  0.22741319238E-01  0.00000000000E+00 0.  1.
     999901    1    3    3    0    0 -0.11537447605E+00  0.29299185115E-01  0.17512633801E-01  0.88818714487E+00  0.88000000000E+00 0.  1.
        -11    1    4    4    0    0  0.64133834252E-01 -0.14992712566E-01 -0.96384100077E-02  0.66566434443E-01  0.51100000000E-03 0. -1.
         11    1    4    4    0    0  0.65712915222E-01 -0.60876920772E-02  0.76232776195E-02  0.66435101449E-01  0.51100000000E-03 0.  1.
</event>
<event>
 8    1  0.1118868E+005  0.1043930E+01  0.7957747E-01            NaN
         13   -1    0    0    0    0  0.00000000000E+00  0.00000000000E+00  0.74505805969E-08  0.10566000000E+00  0.10566000000E+00 0.  1.
     999900   -1    0    0    0    0 -0.00000000000E+00 -0.00000000000E+00 -0.74505805969E-08  0.93827000000E+00  0.93827000000E+00 0. -1.
     999902    2    1    2    0    0 -0.21576876006E-01 -0.84171270807E-02 -0.41726923029E-02  0.10203965989E+01  0.10201251875E+01 0.  0.
     999903    2    3    3    0    0  0.43153835901E-01 -0.62812999077E-01 -0.10431310392E+00  0.13069042381E+00  0.19774650909E-01 0.  0.
         14    1    1    2    0    0  0.21576876006E-01  0.84171270807E-02  0.41726923029E-02  0.23533401104E-01  0.00000000000E+00 0.  1.
     999901    1    3    3    0    0 -0.64730711908E-01  0.54395871996E-01  0.10014041162E+00  0.88970617509E+00  0.88000000000E+00 0.  1.
        -11    1    4    4    0    0  0.37426885243E-01 -0.45385092821E-01 -0.89514222955E-01  0.10711505787E+00  0.51100000000E-03 0. -1.
         11    1    4    4    0    0  0.57269506581E-02 -0.17427906256E-01 -0.14798880967E-01  0.23575365940E-01  0.51100000000E-03 0.  1.
</event>
<event>
 8    1  0.1118868E+005  0.1043930E+01  0.7957747E-01            NaN
         13   -1    0    0    0    0  0.00000000000E+00  0.00000000000E+00  0.74505805969E-08  0.10566000000E+00  0.10566000000E+00 0. -1.
     999900   -1    0    0    0    0 -0.00000000000E+00 -0.00000000000E+00 -0.74505805969E-08  0.93827000000E+00  0.93827000000E+00 0.  1.
     999902    2    1    2    0    0  0.18777675681E-01 -0.39489027236E-02  0.14611406648E-01  0.10198117882E+01  0.10195265544E+01 0.  0.
     999903    2    3    3    0    0 -0.10115919807E+00 -0.67383702058E-01 -0.34973979581E-01  0.12803404795E+00  0.19894510075E-01 0.  0.
         14    1    1    2    0    0 -0.18777675681E-01  0.39489027236E-02 -0.14611406648E-01  0.24118211810E-01  0.00000000000E+00 0.  1.
     999901    1    3    3    0    0  0.11993687375E+00  0.63434799335E-01  0.49585386229E-01  0.89177774024E+00  0.88000000000E+00 0. -1.
        -11    1    4    4    0    0 -0.21107191005E-01 -0.24519991491E-01 -0.93294090620E-02  0.33675547349E-01  0.51100000000E-03 0. -1.
         11    1    4    4    0    0 -0.80052007063E-01 -0.42863710568E-01 -0.25644570519E-01  0.94358500606E-01  0.51100000000E-03 0.  1.
</event>
<event>
 8    1  0.1118868E+005  0.1043930E+01  0.7957747E-01            NaN
         13   -1    0    0    0    0  0.00000000000E+00  0.00000000000E+00  0.74505805969E-08  0.10566000000E+00  0.10566000000E+00 0.  1.
     999900   -1    0    0    0    0 -0.00000000000E+00 -0.00000000000E+00 -0.74505805969E-08  0.93827000000E+00  0.93827000000E+00 0. -1.
     999902    2    1    2    0    0 -0.57867527382E-02  0.11879350135E-01  0.23940215822E-01  0.10165851760E+01  0.10162173393E+01 0.  0.
     999903    2    3    3    0    0  0.49384767540E-02 -0.76747481083E-01  0.10122398002E+00  0.12869862582E+00  0.20061848153E-01 0.  0.
         14    1    1    2    0    0  0.57867527382E-02 -0.11879350135E-01 -0.23940215822E-01  0.27344824016E-01  0.00000000000E+00 0. -1.
     999901    1    3    3    0    0 -0.10725229492E-01  0.88626831217E-01 -0.77283764196E-01  0.88788655017E+00  0.88000000000E+00 0. -1.
        -11    1    4    4    0    0  0.85135126739E-02 -0.31083911498E-01  0.54143629551E-01  0.63011770282E-01  0.51100000000E-03 0.  1.
         11    1    4    4    0    0 -0.35750359199E-02 -0.45663569584E-01  0.47080350467E-01  0.65686855535E-01  0.51100000000E-03 0. -1.
</event>
<event>
 8    1  0.1118868E+005  0.1043930E+01  0.7957747E-01            NaN
         13   -1    0    0    0    0  0.00000000000E+00  0.00000000000E+00  0.74505805969E-08  0.10566000000E+00  0.10566000000E+00 0. -1.
     999900   -1    0    0    0    0 -0.00000000000E+00 -0.00000000000E+00 -0.74505805969E-08  0.93827000000E+00  0.93827000000E+00 0. -1.
     999902    2    1    2    0    0 -0.23449254830E-01 -0.65385619598E-02  0.15719734501E-02  0.10195355038E+01  0.10192436176E+01 0.  0.
     999903    2    3    3    0    0  0.92901086265E-01 -0.28808300115E-02 -0.85149732943E-01  0.12764345022E+00  0.20086372298E-01 0.  0.
         14    1    1    2    0    0  0.23449254830E-01  0.65385619598E-02 -0.15719734501E-02  0.24394496206E-01  0.00000000000E+00 0.  1.
     999901    1    3    3    0    0 -0.11635034109E+00 -0.36577319484E-02  0.86721706393E-01  0.89189205358E+00  0.88000000000E+00 0.  1.
        -11    1    4    4    0    0  0.82366179595E-01 -0.56159385018E-02 -0.66359333952E-01  0.10592237077E+00  0.51100000000E-03 0. -1.
         11    1    4    4    0    0  0.10534906670E-01  0.27351084903E-02 -0.18790398991E-01  0.21721079445E-01  0.51100000000E-03 0.  1.
</event>
<event>
 8    1  0.1118868E+005  0.1043930E+01  0.7957747E-01            NaN
         13   -1    0    0    0    0  0.00000000000E+00  0.00000000000E+00  0.74505805969E-08  0.10566000000E+00  0.10566000000E+00 0. -1.
     999900   -1    0    0    0    0 -0.00000000000E+00 -0.00000000000E+00 -0.74505805969E-08  0.93827000000E+00  0.93827000000E+00 0.  1.
     999902    2    1    2    0    0 -0.17239104303E-01  0.11144718229E-01  0.11503391169E-01  0.10203987555E+01  0.10201273943E+01 0.  0.
     999903    2    3    3    0    0  0.12505850532E+00 -0.18724202997E-01 -0.21777503957E-02  0.12836291772E+00  0.21956104365E-01 0.  0.
         14    1    1    2    0    0  0.17239104303E-01 -0.11144718229E-01 -0.11503391169E-01  0.23531244547E-01  0.00000000000E+00 0.  1.
     999901    1    3    3    0    0 -0.14229760962E+00  0.29868921226E-01  0.13681141564E-01  0.89203583773E+00  0.88000000000E+00 0. -1.
        -11    1    4    4    0    0  0.69286126588E-01 -0.37059670040E-02 -0.98925535893E-02  0.70088695712E-01  0.51100000000E-03 0.  1.
         11    1    4    4    0    0  0.55772378732E-01 -0.15018235993E-01  0.77148031937E-02  0.58274222011E-01  0.51100000000E-03 0. -1.
</event>
<event>
 8    1  0.1118868E+005  0.1043930E+01  0.7957747E-01            NaN
         13   -1    0    0    0    0  0.00000000000E+00  0.00000000000E+00  0.74505805969E-08  0.10566000000E+00  0.10566000000E+00 0.  1.
     999900   -1    0    0    0    0 -0.00000000000E+00 -0.00000000000E+00 -0.74505805969E-08  0.93827000000E+00  0.93827000000E+00 0. -1.
     999902    2    1    2    0    0  0.68383546532E-02  0.16391066024E-01  0.16251731010E-01  0.10198561781E+01  0.10195720059E+01 0.  0.
     999903    2    3    3    0    0  0.54760702394E-01  0.26982609339E-01  0.11618008903E+00  0.13284185526E+00  0.20551148069E-01 0.  0.
         14    1    1    2    0    0 -0.68383546532E-02 -0.16391066024E-01 -0.16251731010E-01  0.24073821894E-01  0.00000000000E+00 0. -1.
     999901    1    3    3    0    0 -0.47922347741E-01 -0.10591543315E-01 -0.99928358023E-01  0.88701432285E+00  0.88000000000E+00 0. -1.
        -11    1    4    4    0    0  0.18751113709E-01  0.10054488588E-01  0.22048496301E-01  0.30644645801E-01  0.51100000000E-03 0. -1.
         11    1    4    4    0    0  0.36009588685E-01  0.16928120751E-01  0.94131592732E-01  0.10219720946E+00  0.51100000000E-03 0.  1.
</event>
<event>
 8    1  0.1118868E+005  0.1043930E+01  0.7957747E-01            NaN
         13   -1    0    0    0    0  0.00000000000E+00  0.00000000000E+00  0.74505805969E-08  0.10566000000E+00  0.10566000000E+00 0. -1.
     999900   -1    0    0    0    0 -0.00000000000E+00 -0.00000000000E+00 -0.74505805969E-08  0.93827000000E+00  0.93827000000E+00 0.  1.
     999902    2    1    2    0    0 -0.54724137709E-02 -0.99195572629E-02  0.22389609777E-01  0.10188373805E+01  0.10185283346E+01 0.  0.
     999903    2    3    3    0    0  0.26940271807E-01 -0.82242120938E-01 -0.92431972724E-01  0.12784628556E+00  0.17648185420E-01 0.  0.
         14    1    1    2    0    0  0.54724137709E-02  0.99195572629E-02 -0.22389609777E-01  0.25092619527E-01  0.00000000000E+00 0.  1.
     999901    1    3    3    0    0 -0.32412685578E-01  0.72322563676E-01  0.11482158250E+00  0.89099109491E+00  0.88000000000E+00 0. -1.
        -11    1    4    4    0    0  0.65153510366E-02 -0.44893499755E-01 -0.41714663682E-01  0.61629947319E-01  0.51100000000E-03 0. -1.
         11    1    4    4    0    0  0.20424920770E-01 -0.37348621184E-01 -0.50717309042E-01  0.66216338243E-01  0.51100000000E-03 0.  1.
</event>
<event>
 8    1  0.1118868E+005  0.1043930E+01  0.7957747E-01            NaN
         13   -1    0    0    0    0  0.00000000000E+00  0.00000000000E+00  0.74505805969E-08  0.10566000000E+00  0.10566000000E+00 0. -1.
     999900   -1    0    0    0    0 -0.00000000000E+00 -0.00000000000E+00 -0.74505805969E-08  0.93827000000E+00  0.93827000000E+00 0.  1.
     999902    2    1    2    0    0  0.14669022915E-01  0.66503489246E-02 -0.16391459165E-01  0.10209498497E+01  0.10206911914E+01 0.  0.
     999903    2    3    3    0    0 -0.11721622570E+00  0.51682857314E-01  0.47315778538E-02  0.12973280077E+00  0.19936159569E-01 0.  0.
         14    1    1    2    0    0 -0.14669022915E-01 -0.66503489246E-02  0.16391459165E-01  0.22980150297E-01  0.00000000000E+00 0. -1.
     999901    1    3    3    0    0  0.13188524862E+00 -0.45032508389E-01 -0.21123037019E-01  0.89121704893E+00  0.88000000000E+00 0. -1.
        -11    1    4    4    0    0 -0.82583399063E-01  0.38905151546E-01  0.12093214329E-01  0.92087651568E-01  0.51100000000E-03 0. -1.
         11    1    4    4    0    0 -0.34632826641E-01  0.12777705768E-01 -0.73616364755E-02  0.37645149202E-01  0.51100000000E-03 0.  1.
</event>
<event>
 8    1  0.1118868E+005  0.1043930E+01  0.7957747E-01            NaN
         13   -1    0    0    0    0  0.00000000000E+00  0.00000000000E+00  0.74505805969E-08  0.10566000000E+00  0.10566000000E+00 0.  1.
     999900   -1    0    0    0    0 -0.00000000000E+00 -0.00000000000E+00 -0.74505805969E-08  0.93827000000E+00  0.93827000000E+00 0. -1.
     999902    2    1    2    0    0 -0.63103078665E-02  0.22267040307E-01  0.59021304118E-02  0.10200453561E+01  0.10197656850E+01 0.  0.
     999903    2    3    3    0    0  0.94710173705E-01 -0.75943085817E-01 -0.35191800122E-01  0.12789117792E+00  0.19501828309E-01 0.  0.
         14    1    1    2    0    0  0.63103078665E-02 -0.22267040307E-01 -0.59021304118E-02  0.23884643870E-01  0.00000000000E+00 0. -1.
     999901    1    3    3    0    0 -0.10102048157E+00  0.98210126124E-01  0.41093930534E-01  0.89215417821E+00  0.88000000000E+00 0.  1.
        -11    1    4    4    0    0  0.41900849730E-01 -0.23075462096E-01 -0.87944092030E-02  0.48639088327E-01  0.51100000000E-03 0.  1.
         11    1    4    4    0    0  0.52809323975E-01 -0.52867623721E-01 -0.26397390919E-01  0.79252089593E-01  0.51100000000E-03 0. -1.
</event>
<event>
 8    1  0.1118868E+005  0.1043930E+01  0.7957747E-01            NaN
         13   -1    0    0    0    0  0.00000000000E+00  0.00000000000E+00  0.74505805969E-08  0.10566000000E+00  0.10566000000E+00 0.  1.
     999900   -1    0    0    0    0 -0.00000000000E+00 -0.00000000000E+00 -0.74505805969E-08  0.93827000000E+00  0.93827000000E+00 0. -1.
     999902    2    1    2    0    0  0.16913234255E-01 -0.11215514007E-01  0.49432972781E-02  0.10230426489E+01  0.10228293993E+01 0.  0.
     999903    2    3    3    0    0 -0.91128518010E-01  0.20308314246E-01  0.90721180371E-01  0.13173764096E+00  0.20190073177E-01 0.  0.
         14    1    1    2    0    0 -0.16913234255E-01  0.11215514007E-01 -0.49432972781E-02  0.20887351086E-01  0.00000000000E+00 0. -1.
     999901    1    3    3    0    0  0.10804175226E+00 -0.31523828253E-01 -0.85777883093E-01  0.89130500796E+00  0.88000000000E+00 0.  1.
        -11    1    4    4    0    0 -0.37722165625E-01  0.10070524018E-01  0.24698867556E-01  0.46202515223E-01  0.51100000000E-03 0. -1.
         11    1    4    4    0    0 -0.53406352385E-01  0.10237790229E-01  0.66022312816E-01  0.85535125734E-01  0.51100000000E-03 0.  1.
</event>
<event>
 8    1  0.1118868E+005  0.1043930E+01  0.7957747E-01            NaN
         13   -1    0    0    0    0  0.00000000000E+00  0.00000000000E+00  0.74505805969E-08  0.10566000000E+00  0.10566000000E+00 0.  1.
     999900   -1    0    0    0    0 -0.00000000000E+00 -0.00000000000E+00 -0.74505805969E-08  0.93827000000E+00  0.93827000000E+00 0.  1.
     999902    2    1    2    0    0 -0.76193195567E-03  0.72871939536E-03  0.24330645754E-01  0.10195765219E+01  0.10192856283E+01 0.  0.
     999903    2    3    3    0    0  0.11117620717E+00  0.22271859969E-01 -0.56749229764E-01  0.12852758941E+00  0.21039994593E-01 0.  0.
         14    1    1    2    0    0  0.76193195567E-03 -0.72871939536E-03 -0.24330645754E-01  0.24353478090E-01  0.00000000000E+00 0. -1.
     999901    1    3    3    0    0 -0.11193813913E+00 -0.21543140574E-01  0.81079875519E-01  0.89104893250E+00  0.88000000000E+00 0. -1.
        -11    1    4    4    0    0  0.16032262807E-01  0.11908477875E-03 -0.16071070586E-01  0.22706564308E-01  0.51100000000E-03 0.  1.
         11    1    4    4    0    0  0.95143944366E-01  0.22152775190E-01 -0.40678159178E-01  0.10582102510E+00  0.51100000000E-03 0. -1.
</event>
<event>
 8    1  0.1118868E+005  0.1043930E+01  0.7957747E-01            NaN
         13   -1    0    0    0    0  0.00000000000E+00  0.00000000000E+00  0.74505805969E-08  0.10566000000E+00  0.10566000000E+00 0. -1.
     999900   -1    0    0    0    0 -0.00000000000E+00 -0.00000000000E+00 -0.74505805969E-08  0.93827000000E+00  0.93827000000E+00 0. -1.
     999902    2    1    2    0    0  0.11639111758E-01 -0.66564615561E-02  0.19382922932E-01  0.10203614807E+01  0.10200892491E+01 0.  0.
     999903    2    3    3    0    0 -0.11050031268E+00 -0.21498316699E-01 -0.58319535571E-01  0.12841081401E+00  0.20388040660E-01 0.  0.
         14    1    1    2    0    0 -0.11639111758E-01  0.66564615561E-02 -0.19382922932E-01  0.23568519350E-01  0.00000000000E+00 0.  1.
     999901    1    3    3    0    0  0.12213942444E+00  0.14841855143E-01  0.77702458503E-01  0.89195066664E+00  0.88000000000E+00 0.  1.
        -11    1    4    4    0    0 -0.55368743813E-01 -0.17991022042E-01 -0.21711553244E-01  0.62137165455E-01  0.51100000000E-03 0. -1.
         11    1    4    4    0    0 -0.55131568866E-01 -0.35072946569E-02 -0.36607982327E-01  0.66273648552E-01  0.51100000000E-03 0.  1.
</event>
<event>
 8    1  0.1118868E+005  0.1043930E+01  0.7957747E-01            NaN
         13   -1    0    0    0    0  0.00000000000E+00  0.00000000000E+00  0.74505805969E-08  0.10566000000E+00  0.10566000000E+00 0. -1.
     999900   -1    0    0    0    0 -0.00000000000E+00 -0.00000000000E+00 -0.74505805969E-08  0.93827000000E+00  0.93827000000E+00 0. -1.
     999902    2    1    2    0    0 -0.16522459479E-01 -0.16334805276E-01 -0.59551068058E-02  0.10199449874E+01  0.10196629328E+01 0.  0.
     999903    2    3    3    0    0  0.85401027054E-01 -0.24826146168E-01  0.90913474866E-01  0.12874129462E+00  0.19984695946E-01 0.  0.
         14    1    1    2    0    0  0.16522459479E-01  0.16334805276E-01  0.59551068058E-02  0.23985012564E-01  0.00000000000E+00 0.  1.
     999901    1    3    3    0    0 -0.10192348653E+00  0.84913408922E-02 -0.96868581672E-01  0.89120369282E+00  0.88000000000E+00 0. -1.
        -11    1    4    4    0    0  0.31423538929E-01 -0.18115328528E-01  0.29977629650E-01  0.47058722113E-01  0.51100000000E-03 0.  1.
         11    1    4    4    0    0  0.53977488125E-01 -0.67108176404E-02  0.60935845216E-01  0.81682572504E-01  0.51100000000E-03 0. -1.
</event>
<event>
 8    1  0.1118868E+005  0.1043930E+01  0.7957747E-01            NaN
         13   -1    0    0    0    0  0.00000000000E+00  0.00000000000E+00  0.74505805969E-08  0.10566000000E+00  0.10566000000E+00 0.  1.
     999900   -1    0    0    0    0 -0.00000000000E+00 -0.00000000000E+00 -0.74505805969E-08  0.93827000000E+00  0.93827000000E+00 0. -1.
     999902    2    1    2    0    0 -0.36791595308E-02 -0.10718982860E-01  0.25362102058E-01  0.10161510686E+01  0.10157712957E+01 0.  0.
     999903    2    3    3    0    0 -0.96860033952E-01  0.71389422917E-01  0.39287932257E-01  0.12732127928E+00  0.13742294361E-01 0.  0.
         14    1    1    2    0    0  0.36791595308E-02  0.10718982860E-01 -0.25362102058E-01  0.27778931390E-01  0.00000000000E+00 0. -1.
     999901    1    3    3    0    0  0.93180874421E-01 -0.82108405777E-01 -0.13925830199E-01  0.88882978933E+00  0.88000000000E+00 0.  1.
        -11    1    4    4    0    0 -0.45798281558E-01  0.30956256278E-01  0.11277371869E-01  0.56419966623E-01  0.51100000000E-03 0. -1.
         11    1    4    4    0    0 -0.51061752394E-01  0.40433166639E-01  0.28010560388E-01  0.70901312655E-01  0.51100000000E-03 0.  1.
</event>
<event>
 8    1  0.1118868E+005  0.1043930E+01  0.7957747E-01            NaN
         13   -1    0    0    0    0  0.00000000000E+00  0.00000000000E+00  0.74505805969E-08  0.10566000000E+00  0.10566000000E+00 0.  1.
     999900   -1    0    0    0    0 -0.00000000000E+00 -0.00000000000E+00 -0.74505805969E-08  0.93827000000E+00  0.93827000000E+00 0. -1.
     999902    2    1    2    0    0 -0.12895661749E-01 -0.95516552100E-02  0.17166089178E-01  0.10204309186E+01  0.10201603074E+01 0.  0.
     999903    2    3    3    0    0 -0.15195869447E-01 -0.12284109447E+00  0.43578117504E-01  0.13277254780E+00  0.20215048490E-01 0.  0.
         14    1    1    2    0    0  0.12895661749E-01  0.95516552100E-02 -0.17166089178E-01  0.23499081404E-01  0.00000000000E+00 0. -1.
     999901    1    3    3    0    0  0.23002076981E-02  0.11328943926E+00 -0.26412028326E-01  0.88765837080E+00  0.88000000000E+00 0. -1.
        -11    1    4    4    0    0 -0.11061797839E-01 -0.33869008842E-01  0.61569832310E-02  0.36161342548E-01  0.51100000000E-03 0. -1.
         11    1    4    4    0    0 -0.41340716074E-02 -0.88972085628E-01  0.37421134273E-01  0.96611205252E-01  0.51100000000E-03 0.  1.
</event>
<event>
 8    1  0.1118868E+005  0.1043930E+01  0.7957747E-01            NaN
         13   -1    0    0    0    0  0.00000000000E+00  0.00000000000E+00  0.74505805969E-08  0.10566000000E+00  0.10566000000E+00 0. -1.
     999900   -1    0    0    0    0 -0.00000000000E+00 -0.00000000000E+00 -0.74505805969E-08  0.93827000000E+00  0.93827000000E+00 0. -1.
     999902    2    1    2    0    0 -0.23027266536E-01 -0.34607293952E-03 -0.13154012520E-02  0.10208625977E+01  0.10206019490E+01 0.  0.
     999903    2    3    3    0    0  0.11713277074E+00 -0.45794206668E-01 -0.17493951692E-01  0.12846576081E+00  0.19499179728E-01 0.  0.
         14    1    1    2    0    0  0.23027266536E-01  0.34607293952E-03  0.13154012520E-02  0.23067402347E-01  0.00000000000E+00 0. -1.
     999901    1    3    3    0    0 -0.14016003727E+00  0.45448133728E-01  0.16178550440E-01  0.89239683684E+00  0.88000000000E+00 0. -1.
        -11    1    4    4    0    0  0.99436758971E-01 -0.45196579356E-01 -0.11817532573E-01  0.10986498540E+00  0.51100000000E-03 0. -1.
         11    1    4    4    0    0  0.17696011768E-01 -0.59762731206E-03 -0.56764191184E-02  0.18600775411E-01  0.51100000000E-03 0.  1.
</event>
<event>
 8    1  0.1118868E+005  0.1043930E+01  0.7957747E-01            NaN
         13   -1    0    0    0    0  0.00000000000E+00  0.00000000000E+00  0.74505805969E-08  0.10566000000E+00  0.10566000000E+00 0.  1.
     999900   -1    0    0    0    0 -0.00000000000E+00 -0.00000000000E+00 -0.74505805969E-08  0.93827000000E+00  0.93827000000E+00 0. -1.
     999902    2    1    2    0    0  0.18587327666E-01  0.16677516665E-01  0.37126226634E-02  0.10186829828E+01  0.10183700739E+01 0.  0.
     999903    2    3    3    0    0  0.90565951744E-01 -0.11093116616E-01 -0.90141617723E-01  0.13033578216E+00  0.23165837216E-01 0.  0.
         14    1    1    2    0    0 -0.18587327666E-01 -0.16677516665E-01 -0.37126226634E-02  0.25247017228E-01  0.00000000000E+00 0.  1.
     999901    1    3    3    0    0 -0.71978624079E-01  0.27770633281E-01  0.93854240386E-01  0.88834720061E+00  0.88000000000E+00 0.  1.
        -11    1    4    4    0    0  0.53693011055E-01 -0.16483002883E-01 -0.46275937405E-01  0.72776042239E-01  0.51100000000E-03 0. -1.
         11    1    4    4    0    0  0.36872940689E-01  0.53898862673E-02 -0.43865680318E-01  0.57559739921E-01  0.51100000000E-03 0.  1.
</event>
<event>
 8    1  0.1430616E+005  0.1043930E+01  0.7957747E-01            NaN
         13   -1    0    0    0    0  0.00000000000E+00  0.00000000000E+00  0.74505805969E-08  0.10566000000E+00  0.10566000000E+00 0.  1.
     999900   -1    0    0    0    0 -0.00000000000E+00 -0.00000000000E+00 -0.74505805969E-08  0.93827000000E+00  0.93827000000E+00 0.  1.
     999902    2    1    2    0    0  0.10800424882E-01  0.19205529833E-01 -0.87702839004E-02  0.10202146161E+01  0.10199389411E+01 0.  0.
     999903    2    3    3    0    0 -0.22157561377E-01  0.12055944623E+00  0.45304786985E-01  0.13213637714E+00  0.19543818423E-01 0.  0.
         14    1    1    2    0    0 -0.10800424882E-01 -0.19205529833E-01  0.87702839004E-02  0.23715383899E-01  0.00000000000E+00 0. -1.
     999901    1    3    3    0    0  0.32957986259E-01 -0.10135391640E+00 -0.54075070885E-01  0.88807823896E+00  0.88000000000E+00 0. -1.
        -11    1    4    4    0    0 -0.18531880273E-01  0.79069284607E-01  0.38705806940E-01  0.89965454296E-01  0.51100000000E-03 0.  1.
         11    1    4    4    0    0 -0.36256811035E-02  0.41490161621E-01  0.65989800455E-02  0.42170922843E-01  0.51100000000E-03 0. -1.
</event>
<event>
 7    1  0.1118868E+005  0.1043930E+01  0.7957747E-01            NaN
         13   -1    0    0    0    0  0.00000000000E+00  0.00000000000E+00  0.74505805969E-08  0.10566000000E+00  0.10566000000E+00 0. -1.
     999900   -1    0    0    0    0 -0.00000000000E+00 -0.00000000000E+00 -0.74505805969E-08  0.93827000000E+00  0.93827000000E+00 0.  1.
     999902    2    1    2    0    0  0.22836903257E-01  0.48031045693E-02  0.20122883140E-02  0.10205068647E+01  0.10202380201E+01 0.  0.
         14    1    1    2    0    0 -0.22836903257E-01 -0.48031045693E-02 -0.20122883140E-02  0.23423135318E-01  0.00000000000E+00 0.  1.
     999901    1    3    3    0    0  0.55330102482E-01 -0.86725990925E-01 -0.47092567307E-01  0.88724321786E+00  0.88000000000E+00 0.  1.
        -11    1    3    3    0    0  0.19978497163E-01  0.55006477445E-02  0.18935555994E-01  0.28075146951E-01  0.51100000000E-03 0. -1.
         11    1    3    3    0    0 -0.52471696389E-01  0.86028447750E-01  0.30169299627E-01  0.10518849987E+00  0.51100000000E-03 0.  1.
</event>
<event>
 8    1  0.1118868E+005  0.1043930E+01  0.7957747E-01            NaN
         13   -1    0    0    0    0  0.00000000000E+00  0.00000000000E+00  0.74505805969E-08  0.10566000000E+00  0.10566000000E+00 0. -1.
     999900   -1    0    0    0    0 -0.00000000000E+00 -0.00000000000E+00 -0.74505805969E-08  0.93827000000E+00  0.93827000000E+00 0.  1.
     999902    2    1    2    0    0  0.22632574955E-01 -0.40933319121E-02 -0.71464414473E-02  0.10198455560E+01  0.10195611300E+01 0.  0.
     999903    2    3    3    0    0 -0.57977933692E-01 -0.10192241135E+00  0.49667357694E-01  0.12894915878E+00  0.20283500646E-01 0.  0.
         14    1    1    2    0    0 -0.22632574955E-01  0.40933319121E-02  0.71464414473E-02  0.24084443955E-01  0.00000000000E+00 0.  1.
     999901    1    3    3    0    0  0.80610508647E-01  0.97829079440E-01 -0.56813799141E-01  0.89089639727E+00  0.88000000000E+00 0.  1.
        -11    1    4    4    0    0 -0.73696379936E-02 -0.30933958895E-01  0.12413431086E-01  0.34140529718E-01  0.51100000000E-03 0. -1.
         11    1    4    4    0    0 -0.50608295698E-01 -0.70988452457E-01  0.37253926608E-01  0.94808629061E-01  0.51100000000E-03 0.  1.
</event>
<event>
 8    1  0.1118868E+005  0.1043930E+01  0.7957747E-01            NaN
         13   -1    0    0    0    0  0.00000000000E+00  0.00000000000E+00  0.74505805969E-08  0.10566000000E+00  0.10566000000E+00 0.  1.
     999900   -1    0    0    0    0 -0.00000000000E+00 -0.00000000000E+00 -0.74505805969E-08  0.93827000000E+00  0.93827000000E+00 0.  1.
     999902    2    1    2    0    0  0.87152241315E-02  0.19398510009E-01 -0.91909224518E-02  0.10207625578E+01  0.10204996174E+01 0.  0.
     999903    2    3    3    0    0 -0.60026724615E-01 -0.10615611748E+00 -0.36589491954E-01  0.12877595387E+00  0.19290578685E-01 0.  0.
         14    1    1    2    0    0 -0.87152241315E-02 -0.19398510009E-01  0.91909224518E-02  0.23167442192E-01  0.00000000000E+00 0.  1.
     999901    1    3    3    0    0  0.68741948746E-01  0.12555462749E+00  0.27398569502E-01  0.89198660394E+00  0.88000000000E+00 0. -1.
        -11    1    4    4    0    0 -0.44056347576E-01 -0.84699060832E-01 -0.35943753851E-01  0.10201523038E+00  0.51100000000E-03 0. -1.
         11    1    4    4    0    0 -0.15970377038E-01 -0.21457056649E-01 -0.64573810299E-03  0.26760723486E-01  0.51100000000E-03 0.  1.
</event>
<event>
 8    1  0.1118868E+005  0.1043930E+01  0.7957747E-01            NaN
         13   -1    0    0    0    0  0.00000000000E+00  0.00000000000E+00  0.74505805969E-08  0.10566000000E+00  0.10566000000E+00 0.  1.
     999900   -1    0    0    0    0 -0.00000000000E+00 -0.00000000000E+00 -0.74505805969E-08  0.93827000000E+00  0.93827000000E+00 0. -1.
     999902    2    1    2    0    0 -0.17571639088E-01 -0.16072307668E-01  0.85181505402E-04  0.10201163730E+01  0.10198383821E+01 0.  0.
     999903    2    3    3    0    0 -0.43619954602E-01  0.11699281986E+00 -0.26583404492E-01  0.12933241696E+00  0.20740692946E-01 0.  0.
         14    1    1    2    0    0  0.17571639088E-01  0.16072307668E-01 -0.85181505402E-04  0.23813626979E-01  0.00000000000E+00 0.  1.
     999901    1    3    3    0    0  0.26048315514E-01 -0.13306512752E+00  0.26668585997E-01  0.89078395607E+00  0.88000000000E+00 0. -1.
        -11    1    4    4    0    0 -0.18054735105E-01  0.77054112949E-01 -0.17188986462E-01  0.80987851920E-01  0.51100000000E-03 0.  1.
         11    1    4    4    0    0 -0.25565219497E-01  0.39938706907E-01 -0.93944180300E-02  0.48344565035E-01  0.51100000000E-03 0. -1.
</event>
<event>
 8    1  0.1118868E+005  0.1043930E+01  0.7957747E-01            NaN
         13   -1    0    0    0    0  0.00000000000E+00  0.00000000000E+00  0.74505805969E-08  0.10566000000E+00  0.10566000000E+00 0. -1.
     999900   -1    0    0    0    0 -0.00000000000E+00 -0.00000000000E+00 -0.74505805969E-08  0.93827000000E+00  0.93827000000E+00 0. -1.
     999902    2    1    2    0    0  0.12888464098E-01  0.17861371298E-01 -0.78932590873E-02  0.10205324653E+01  0.10202642148E+01 0.  0.
     999903    2    3    3    0    0 -0.12748302421E+00 -0.42344673853E-02 -0.28126511915E-02  0.12911887251E+00  0.19847419360E-01 0.  0.
         14    1    1    2    0    0 -0.12888464098E-01 -0.17861371298E-01  0.78932590873E-02  0.23397534709E-01  0.00000000000E+00 0.  1.
     999901    1    3    3    0    0  0.14037148831E+00  0.22095838684E-01 -0.50806078958E-02  0.89141359278E+00  0.88000000000E+00 0. -1.
        -11    1    4    4    0    0 -0.13614917696E-01 -0.60344095968E-02 -0.31715618497E-02  0.15234828802E-01  0.51100000000E-03 0. -1.
         11    1    4    4    0    0 -0.11386810652E+00  0.17999422114E-02  0.35891065820E-03  0.11388404371E+00  0.51100000000E-03 0.  1.
</event>
<event>
 8    1  0.1118868E+005  0.1043930E+01  0.7957747E-01            NaN
         13   -1    0    0    0    0  0.00000000000E+00  0.00000000000E+00  0.74505805969E-08  0.10566000000E+00  0.10566000000E+00 0.  1.
     999900   -1    0    0    0    0 -0.00000000000E+00 -0.00000000000E+00 -0.74505805969E-08  0.93827000000E+00  0.93827000000E+00 0.  1.
     999902    2    1    2    0    0 -0.20512075639E-01 -0.11876345742E-01 -0.17015958746E-01  0.10147523427E+01  0.10143327764E+01 0.  0.
     999903    2    3    3    0    0 -0.86295517360E-01  0.78414494237E-01 -0.43457018481E-01  0.12729584986E+00  0.26832288644E-01 0.  0.
         14    1    1    2    0    0  0.20512075639E-01  0.11876345742E-01  0.17015958746E-01  0.29177657330E-01  0.00000000000E+00 0. -1.
     999901    1    3    3    0    0  0.65783441721E-01 -0.90290839979E-01  0.26441059735E-01  0.88745649281E+00  0.88000000000E+00 0.  1.
        -11    1    4    4    0    0 -0.10842951796E-01  0.15488220483E-01 -0.17279463005E-01  0.25618265752E-01  0.51100000000E-03 0. -1.
         11    1    4    4    0    0 -0.75452565563E-01  0.62926273754E-01 -0.26177555475E-01  0.10167758411E+00  0.51100000000E-03 0.  1.
</event>
<event>
 8    1  0.1118868E+005  0.1043930E+01  0.7957747E-01            NaN
         13   -1    0    0    0    0  0.00000000000E+00  0.00000000000E+00  0.74505805969E-08  0.10566000000E+00  0.10566000000E+00 0.  1.
     999900   -1    0    0    0    0 -0.00000000000E+00 -0.00000000000E+00 -0.74505805969E-08  0.93827000000E+00  0.93827000000E+00 0. -1.
     999902    2    1    2    0    0  0.17068792720E-01  0.15901980942E-01 -0.16452987812E-02  0.10205436003E+01  0.10202756081E+01 0.  0.
     999903    2    3    3    0    0 -0.67918498706E-01 -0.35726623914E-02 -0.10866009050E+00  0.12978310102E+00  0.20271942635E-01 0.  0.
         14    1    1    2    0    0 -0.17068792720E-01 -0.15901980942E-01  0.16452987812E-02  0.23386399699E-01  0.00000000000E+00 0.  1.
     999901    1    3    3    0    0  0.84987291426E-01  0.19474643333E-01  0.10701479172E+00  0.89076049928E+00  0.88000000000E+00 0.  1.
        -11    1    4    4    0    0 -0.32441221630E-01  0.79086668157E-04 -0.33758595935E-01  0.46822462943E-01  0.51100000000E-03 0. -1.
         11    1    4    4    0    0 -0.35477277076E-01 -0.36517490596E-02 -0.74901494570E-01  0.82960638074E-01  0.51100000000E-03 0.  1.
</event>
<event>
 8    1  0.1118868E+005  0.1043930E+01  0.7957747E-01            NaN
         13   -1    0    0    0    0  0.00000000000E+00  0.00000000000E+00  0.74505805969E-08  0.10566000000E+00  0.10566000000E+00 0. -1.
     999900   -1    0    0    0    0 -0.00000000000E+00 -0.00000000000E+00 -0.74505805969E-08  0.93827000000E+00  0.93827000000E+00 0.  1.
     999902    2    1    2    0    0 -0.17177262922E-01  0.11934531659E-01 -0.10529476535E-01  0.10205128848E+01  0.10202441800E+01 0.  0.
     999903    2    3    3    0    0  0.10019589833E+00  0.28889832200E-01 -0.75316176345E-01  0.13019762735E+00  0.20125985735E-01 0.  0.
         14    1    1    2    0    0  0.17177262922E-01 -0.11934531659E-01  0.10529476535E-01  0.23417115183E-01  0.00000000000E+00 0.  1.
     999901    1    3    3    0    0 -0.11737316126E+00 -0.16955300542E-01  0.64786699810E-01  0.89031525746E+00  0.88000000000E+00 0. -1.
        -11    1    4    4    0    0  0.46274462134E-01  0.40342936202E-02 -0.27682630915E-01  0.54075785211E-01  0.51100000000E-03 0.  1.
         11    1    4    4    0    0  0.53921436200E-01  0.24855538580E-01 -0.47633545429E-01  0.76121842142E-01  0.51100000000E-03 0. -1.
</event>
<event>
 8    1  0.1118868E+005  0.1043930E+01  0.7957747E-01            NaN
         13   -1    0    0    0    0  0.00000000000E+00  0.00000000000E+00  0.74505805969E-08  0.10566000000E+00  0.10566000000E+00 0. -1.
     999900   -1    0    0    0    0 -0.00000000000E+00 -0.00000000000E+00 -0.74505805969E-08  0.93827000000E+00  0.93827000000E+00 0. -1.
     999902    2    1    2    0    0  0.35202924643E-02 -0.14190119621E-01 -0.18425165476E-01  0.10204089737E+01  0.10201378510E+01 0.  0.
     999903    2    3    3    0    0 -0.79822995335E-02  0.87505811963E-01 -0.95245679391E-01  0.13115323803E+00  0.20210100676E-01 0.  0.
         14    1    1    2    0    0 -0.35202924643E-02  0.14190119621E-01  0.18425165476E-01  0.23521026268E-01  0.00000000000E+00 0. -1.
     999901    1    3    3    0    0  0.11502591998E-01 -0.10169593158E+00  0.76820513916E-01  0.88925573570E+00  0.88000000000E+00 0.  1.
        -11    1    4    4    0    0 -0.25071938066E-02  0.62566625090E-01 -0.54233173978E-01  0.82839404130E-01  0.51100000000E-03 0. -1.
         11    1    4    4    0    0 -0.54751057269E-02  0.24939186873E-01 -0.41012505414E-01  0.48313833898E-01  0.51100000000E-03 0.  1.
</event>
<event>
 8    1  0.1118868E+005  0.1043930E+01  0.7957747E-01            NaN
         13   -1    0    0    0    0  0.00000000000E+00  0.00000000000E+00  0.74505805969E-08  0.10566000000E+00  0.10566000000E+00 0.  1.
     999900   -1    0    0    0    0 -0.00000000000E+00 -0.00000000000E+00 -0.74505805969E-08  0.93827000000E+00  0.93827000000E+00 0. -1.
     999902    2    1    2    0    0 -0.14935362095E-01  0.94682423397E-02 -0.15466590226E-01  0.10204368506E+01  0.10201663776E+01 0.  0.
     999903    2    3    3    0    0  0.25579197401E-01  0.12742138789E+00 -0.77736304193E-02  0.13160978326E+00  0.19240589591E-01 0.  0.
         14    1    1    2    0    0  0.14935362095E-01 -0.94682423397E-02  0.15466590226E-01  0.23493149365E-01  0.00000000000E+00 0.  1.
     999901    1    3    3    0    0 -0.40514559496E-01 -0.11795314555E+00 -0.76929598062E-02  0.88882706738E+00  0.88000000000E+00 0.  1.
        -11    1    4    4    0    0  0.62435049548E-02  0.88019277140E-02 -0.34681307535E-02  0.11346556197E-01  0.51100000000E-03 0.  1.
         11    1    4    4    0    0  0.19335692446E-01  0.11861946017E+00 -0.43054996659E-02  0.12026322706E+00  0.51100000000E-03 0. -1.
</event>
<event>
 8    1  0.1118868E+005  0.1043930E+01  0.7957747E-01            NaN
         13   -1    0    0    0    0  0.00000000000E+00  0.00000000000E+00  0.74505805969E-08  0.10566000000E+00  0.10566000000E+00 0. -1.
     999900   -1    0    0    0    0 -0.00000000000E+00 -0.00000000000E+00 -0.74505805969E-08  0.93827000000E+00  0.93827000000E+00 0. -1.
     999902    2    1    2    0    0 -0.17797868579E-01  0.16044993428E-01 -0.26071187784E-02  0.10198259960E+01  0.10195411022E+01 0.  0.
     999903    2    3    3    0    0 -0.64643918314E-01  0.47202693382E-01 -0.10313398057E+00  0.13231768361E+00  0.21550429444E-01 0.  0.
         14    1    1    2    0    0  0.17797868579E-01 -0.16044993428E-01  0.26071187784E-02  0.24104003991E-01  0.00000000000E+00 0.  1.
     999901    1    3    3    0    0  0.46846049735E-01 -0.31157699954E-01  0.10052686179E+00  0.88750831240E+00  0.88000000000E+00 0.  1.
        -11    1    4    4    0    0 -0.31657585447E-01  0.30769439317E-01 -0.69982312239E-01  0.82745067887E-01  0.51100000000E-03 0. -1.
         11    1    4    4    0    0 -0.32986332867E-01  0.16433254065E-01 -0.33151668331E-01  0.49572615720E-01  0.51100000000E-03 0.  1.
</event>
<event>
 8    1  0.1118868E+005  0.1043930E+01  0.7957747E-01            NaN
         13   -1    0    0    0    0  0.00000000000E+00  0.00000000000E+00  0.74505805969E-08  0.10566000000E+00  0.10566000000E+00 0.  1.
     999900   -1    0    0    0    0 -0.00000000000E+00 -0.00000000000E+00 -0.74505805969E-08  0.93827000000E+00  0.93827000000E+00 0.  1.
     999902    2    1    2    0    0  0.76160642535E-02  0.98391360534E-02 -0.17181219546E-01  0.10227166236E+01  0.10224965941E+01 0.  0.
     999903    2    3    3    0    0  0.60571255736E-01  0.11647620775E+00 -0.22432135705E-01  0.13468324051E+00  0.20019754515E-01 0.  0.
         14    1    1    2    0    0 -0.76160642535E-02 -0.98391360534E-02  0.17181219546E-01  0.21213376395E-01  0.00000000000E+00 0.  1.
     999901    1    3    3    0    0 -0.52955191482E-01 -0.10663707169E+00  0.52509161595E-02  0.88803338309E+00  0.88000000000E+00 0.  1.
        -11    1    4    4    0    0  0.50549858040E-01  0.10252922340E+00 -0.25763383018E-01  0.11718166591E+00  0.51100000000E-03 0. -1.
         11    1    4    4    0    0  0.10021397696E-01  0.13946984343E-01  0.33312473123E-02  0.17501574606E-01  0.51100000000E-03 0.  1.
</event>
<event>
 8    1  0.1118868E+005  0.1043930E+01  0.7957747E-01            NaN
         13   -1    0    0    0    0  0.00000000000E+00  0.00000000000E+00  0.74505805969E-08  0.10566000000E+00  0.10566000000E+00 0. -1.
     999900   -1    0    0    0    0 -0.00000000000E+00 -0.00000000000E+00 -0.74505805969E-08  0.93827000000E+00  0.93827000000E+00 0. -1.
     999902    2    1    2    0    0 -0.92488658911E-02 -0.83491898026E-02  0.20334131986E-01  0.10200819935E+01  0.10198031899E+01 0.  0.
     999903    2    3    3    0    0  0.93504655788E-01  0.19531474082E-01 -0.83645348502E-01  0.12758697950E+00  0.12541685658E-01 0.  0.
         14    1    1    2    0    0  0.92488658911E-02  0.83491898026E-02 -0.20334131986E-01  0.23848006505E-01  0.00000000000E+00 0.  1.
     999901    1    3    3    0    0 -0.10275352168E+00 -0.27880663885E-01  0.10397948049E+00  0.89249501399E+00  0.88000000000E+00 0.  1.
        -11    1    4    4    0    0  0.44300538436E-01  0.37972115787E-02 -0.42958991487E-01  0.61827927283E-01  0.51100000000E-03 0.  1.
         11    1    4    4    0    0  0.49204117352E-01  0.15734262504E-01 -0.40686357015E-01  0.65759052221E-01  0.51100000000E-03 0. -1.
</event>
<event>
 8    1  0.1118868E+005  0.1043930E+01  0.7957747E-01            NaN
         13   -1    0    0    0    0  0.00000000000E+00  0.00000000000E+00  0.74505805969E-08  0.10566000000E+00  0.10566000000E+00 0.  1.
     999900   -1    0    0    0    0 -0.00000000000E+00 -0.00000000000E+00 -0.74505805969E-08  0.93827000000E+00  0.93827000000E+00 0.  1.
     999902    2    1    2    0    0  0.20078088890E-02  0.15205442755E-01 -0.15683985407E-01  0.10219931774E+01  0.10217577162E+01 0.  0.
     999903    2    3    3    0    0  0.75064342830E-01 -0.58127986341E-01 -0.90443977224E-01  0.13277773372E+00  0.20887680442E-01 0.  0.
         14    1    1    2    0    0 -0.20078088890E-02 -0.15205442755E-01  0.15683985407E-01  0.21936822563E-01  0.00000000000E+00 0.  1.
     999901    1    3    3    0    0 -0.73056533941E-01  0.73333429096E-01  0.74759991817E-01  0.88921544372E+00  0.88000000000E+00 0.  1.
        -11    1    4    4    0    0  0.47227067633E-01 -0.25045528941E-01 -0.56714297861E-01  0.77938739662E-01  0.51100000000E-03 0.  1.
         11    1    4    4    0    0  0.27837275197E-01 -0.33082457401E-01 -0.33729679363E-01  0.54838994055E-01  0.51100000000E-03 0. -1.
</event>
<event>
 8    1  0.1118868E+005  0.1043930E+01  0.7957747E-01            NaN
         13   -1    0    0    0    0  0.00000000000E+00  0.00000000000E+00  0.74505805969E-08  0.10566000000E+00  0.10566000000E+00 0. -1.
     999900   -1    0    0    0    0 -0.00000000000E+00 -0.00000000000E+00 -0.74505805969E-08  0.93827000000E+00  0.93827000000E+00 0.  1.
     999902    2    1    2    0    0  0.60027210383E-02  0.68145829555E-02  0.20494619264E-01  0.10215134744E+01  0.10212674859E+01 0.  0.
     999903    2    3    3    0    0 -0.10599402619E+00 -0.69530462849E-01 -0.24193900635E-01  0.13001535258E+00  0.15793296902E-01 0.  0.
         14    1    1    2    0    0 -0.60027210383E-02 -0.68145829555E-02 -0.20494619264E-01  0.22416525589E-01  0.00000000000E+00 0.  1.
     999901    1    3    3    0    0  0.11199674723E+00  0.76345045804E-01  0.44688519899E-01  0.89149812183E+00  0.88000000000E+00 0. -1.
        -11    1    4    4    0    0 -0.93796169457E-01 -0.54901540193E-01 -0.21058875693E-01  0.11070518455E+00  0.51100000000E-03 0. -1.
         11    1    4    4    0    0 -0.12197856737E-01 -0.14628922655E-01 -0.31350249415E-02  0.19310168031E-01  0.51100000000E-03 0.  1.
</event>
<event>
 8    1  0.1118868E+005  0.1043930E+01  0.7957747E-01            NaN
         13   -1    0    0    0    0  0.00000000000E+00  0.00000000000E+00  0.74505805969E-08  0.10566000000E+00  0.10566000000E+00 0.  1.
     999900   -1    0    0    0    0 -0.00000000000E+00 -0.00000000000E+00 -0.74505805969E-08  0.93827000000E+00  0.93827000000E+00 0.  1.
     999902    2    1    2    0    0  0.21870793809E-01  0.10052233175E-01  0.41613430374E-02  0.10195026426E+01  0.10192099600E+01 0.  0.
     999903    2    3    3    0    0  0.49696837371E-01  0.11912445285E+00  0.20852909003E-01  0.13217539396E+00  0.19366983303E-01 0.  0.
         14    1    1    2    0    0 -0.21870793809E-01 -0.10052233175E-01 -0.41613430374E-02  0.24427357399E-01  0.00000000000E+00 0. -1.
     999901    1    3    3    0    0 -0.27826043563E-01 -0.10907221968E+00 -0.16691565966E-01  0.88732724864E+00  0.88000000000E+00 0.  1.
        -11    1    4    4    0    0  0.39333608882E-01  0.97895542083E-01  0.94114271524E-02  0.10592216968E+00  0.51100000000E-03 0.  1.
         11    1    4    4    0    0  0.10363228489E-01  0.21228910771E-01  0.11441481851E-01  0.26253224282E-01  0.51100000000E-03 0. -1.
</event>
<event>
 8    1  0.1118868E+005  0.1043930E+01  0.7957747E-01            NaN
         13   -1    0    0    0    0  0.00000000000E+00  0.00000000000E+00  0.74505805969E-08  0.10566000000E+00  0.10566000000E+00 0. -1.
     999900   -1    0    0    0    0 -0.00000000000E+00 -0.00000000000E+00 -0.74505805969E-08  0.93827000000E+00  0.93827000000E+00 0.  1.
     999902    2    1    2    0    0  0.18673898039E-01 -0.12656690719E-01  0.64234660524E-02  0.10204743567E+01  0.10202047566E+01 0.  0.
     999903    2    3    3    0    0  0.54236619249E-01 -0.10324591145E+00  0.61535938136E-01  0.13339572507E+00  0.20159828538E-01 0.  0.
         14    1    1    2    0    0 -0.18673898039E-01  0.12656690719E-01 -0.64234660524E-02  0.23455643330E-01  0.00000000000E+00 0. -1.
     999901    1    3    3    0    0 -0.35562721210E-01  0.90589220734E-01 -0.55112472083E-01  0.88707863159E+00  0.88000000000E+00 0.  1.
        -11    1    4    4    0    0  0.47104059526E-01 -0.74326462881E-01  0.51504377375E-01  0.10196164729E+00  0.51100000000E-03 0.  1.
         11    1    4    4    0    0  0.71325597231E-02 -0.28919448572E-01  0.10031560760E-01  0.31434077785E-01  0.51100000000E-03 0. -1.
</event>
<event>
 8    1  0.1118868E+005  0.1043930E+01  0.7957747E-01            NaN
         13   -1    0    0    0    0  0.00000000000E+00  0.00000000000E+00  0.74505805969E-08  0.10566000000E+00  0.10566000000E+00 0.  1.
     999900   -1    0    0    0    0 -0.00000000000E+00 -0.00000000000E+00 -0.74505805969E-08  0.93827000000E+00  0.93827000000E+00 0.  1.
     999902    2    1    2    0    0  0.18199838753E-01  0.69536310378E-02 -0.60918270918E-02  0.10235168309E+01  0.10233132490E+01 0.  0.
     999903    2    3    3    0    0 -0.49674115953E-01  0.26322037793E-01  0.11816638878E+00  0.13198886549E+00  0.17245222670E-01 0.  0.
         14    1    1    2    0    0 -0.18199838753E-01 -0.69536310378E-02  0.60918270918E-02  0.20413169097E-01  0.00000000000E+00 0.  1.
     999901    1    3    3    0    0  0.67873954706E-01 -0.19368406755E-01 -0.12425821588E+00  0.89152796542E+00  0.88000000000E+00 0. -1.
        -11    1    4    4    0    0 -0.23462448077E-01  0.17811347225E-01  0.44837223977E-01  0.53650427162E-01  0.51100000000E-03 0. -1.
         11    1    4    4    0    0 -0.26211667876E-01  0.85106905670E-02  0.73329164807E-01  0.78338438324E-01  0.51100000000E-03 0.  1.
</event>
<event>
 8    1  0.1118868E+005  0.1043930E+01  0.7957747E-01            NaN
         13   -1    0    0    0    0  0.00000000000E+00  0.00000000000E+00  0.74505805969E-08  0.10566000000E+00  0.10566000000E+00 0.  1.
     999900   -1    0    0    0    0 -0.00000000000E+00 -0.00000000000E+00 -0.74505805969E-08  0.93827000000E+00  0.93827000000E+00 0.  1.
     999902    2    1    2    0    0 -0.11814458861E-01  0.20229170776E-01  0.10725104260E-02  0.10204789645E+01  0.10202094716E+01 0.  0.
     999903    2    3    3    0    0  0.99587155630E-01  0.74776926544E-01  0.35671728112E-01  0.13110677960E+00  0.20182298196E-01 0.  0.
         14    1    1    2    0    0  0.11814458861E-01 -0.20229170776E-01 -0.10725104260E-02  0.23451035523E-01  0.00000000000E+00 0. -1.
     999901    1    3    3    0    0 -0.11140161449E+00 -0.54547755767E-01 -0.34599217686E-01  0.88937218488E+00  0.88000000000E+00 0. -1.
        -11    1    4    4    0    0  0.78820395234E-01  0.48134924180E-01  0.25083646375E-01  0.95703061953E-01  0.51100000000E-03 0. -1.
         11    1    4    4    0    0  0.20766760396E-01  0.26642002364E-01  0.10588081737E-01  0.35403717646E-01  0.51100000000E-03 0.  1.
</event>
<event>
 8    1  0.1118868E+005  0.1043930E+01  0.7957747E-01            NaN
         13   -1    0    0    0    0  0.00000000000E+00  0.00000000000E+00  0.74505805969E-08  0.10566000000E+00  0.10566000000E+00 0.  1.
     999900   -1    0    0    0    0 -0.00000000000E+00 -0.00000000000E+00 -0.74505805969E-08  0.93827000000E+00  0.93827000000E+00 0. -1.
     999902    2    1    2    0    0 -0.16304374557E-01 -0.94136089624E-03 -0.45057654582E-02  0.10269883144E+01  0.10268485658E+01 0.  0.
     999903    2    3    3    0    0  0.91958779783E-01 -0.86881673293E-01 -0.44970148900E-01  0.13527983385E+00  0.16537134608E-01 0.  0.
         14    1    1    2    0    0  0.16304374557E-01  0.94136089624E-03  0.45057654582E-02  0.16941685642E-01  0.00000000000E+00 0. -1.
     999901    1    3    3    0    0 -0.10826315434E+00  0.85940312397E-01  0.40464383442E-01  0.89170848051E+00  0.88000000000E+00 0.  1.
        -11    1    4    4    0    0  0.70516076826E-01 -0.74976309378E-01 -0.38666931460E-01  0.10995161103E+00  0.51100000000E-03 0.  1.
         11    1    4    4    0    0  0.21442702957E-01 -0.11905363915E-01 -0.63032174398E-02  0.25328222818E-01  0.51100000000E-03 0. -1.
</event>
<event>
 8    1  0.1118868E+005  0.1043930E+01  0.7957747E-01            NaN
         13   -1    0    0    0    0  0.00000000000E+00  0.00000000000E+00  0.74505805969E-08  0.10566000000E+00  0.10566000000E+00 0.  1.
     999900   -1    0    0    0    0 -0.00000000000E+00 -0.00000000000E+00 -0.74505805969E-08  0.93827000000E+00  0.93827000000E+00 0. -1.
     999902    2    1    2    0    0  0.36031923310E-02  0.19232540734E-01  0.13425880068E-01  0.10201996845E+01  0.10199236581E+01 0.  0.
     999903    2    3    3    0    0  0.34344644313E-01 -0.17849078833E-01 -0.12092106574E+00  0.12870140339E+00  0.21071376004E-01 0.  0.
         14    1    1    2    0    0 -0.36031923310E-02 -0.19232540734E-01 -0.13425880068E-01  0.23730315499E-01  0.00000000000E+00 0. -1.
     999901    1    3    3    0    0 -0.30741451982E-01  0.37081619567E-01  0.13434694581E+00  0.89149828111E+00  0.88000000000E+00 0.  1.
        -11    1    4    4    0    0  0.47137519209E-02  0.19758815667E-02 -0.39275906872E-01  0.39610371706E-01  0.51100000000E-03 0. -1.
         11    1    4    4    0    0  0.29630892392E-01 -0.19824960399E-01 -0.81645158867E-01  0.89091031682E-01  0.51100000000E-03 0.  1.
</event>
<event>
 8    1  0.1118868E+005  0.1043930E+01  0.7957747E-01            NaN
         13   -1    0    0    0    0  0.00000000000E+00  0.00000000000E+00  0.74505805969E-08  0.10566000000E+00  0.10566000000E+00 0. -1.
     999900   -1    0    0    0    0 -0.00000000000E+00 -0.00000000000E+00 -0.74505805969E-08  0.93827000000E+00  0.93827000000E+00 0.  1.
     999902    2    1    2    0    0  0.33437726198E-02 -0.20484232662E-01 -0.10870366719E-01  0.10205003292E+01  0.10202313328E+01 0.  0.
     999903    2    3    3    0    0 -0.35145103148E-01  0.76198644170E-01  0.91302915486E-01  0.12849788980E+00  0.33676010124E-01 0.  0.
         14    1    1    2    0    0 -0.33437726198E-02  0.20484232662E-01  0.10870366719E-01  0.23429670840E-01  0.00000000000E+00 0.  1.
     999901    1    3    3    0    0  0.38488875768E-01 -0.96682876832E-01 -0.10217328220E+00  0.89200243936E+00  0.88000000000E+00 0. -1.
        -11    1    4    4    0    0 -0.38523858607E-01  0.52127581776E-01  0.56159292686E-01  0.85764210133E-01  0.51100000000E-03 0. -1.
         11    1    4    4    0    0  0.33787554591E-02  0.24071062394E-01  0.35143622800E-01  0.42733679666E-01  0.51100000000E-03 0.  1.
</event>
<event>
 8    1  0.1118868E+005  0.1043930E+01  0.7957747E-01            NaN
         13   -1    0    0    0    0  0.00000000000E+00  0.00000000000E+00  0.74505805969E-08  0.10566000000E+00  0.10566000000E+00 0.  1.
     999900   -1    0    0    0    0 -0.00000000000E+00 -0.00000000000E+00 -0.74505805969E-08  0.93827000000E+00  0.93827000000E+00 0. -1.
     999902    2    1    2    0    0 -0.19523770964E-01  0.81636522236E-02  0.89366871543E-02  0.10209585563E+01  0.10207000962E+01 0.  0.
     999903    2    3    3    0    0 -0.35502648784E-01  0.74065935908E-01 -0.10035043220E+00  0.13160929416E+00  0.22463217365E-01 0.  0.
         14    1    1    2    0    0  0.19523770964E-01 -0.81636522236E-02 -0.89366871543E-02  0.22971443742E-01  0.00000000000E+00 0. -1.
     999901    1    3    3    0    0  0.15978877820E-01 -0.65902283684E-01  0.10928711936E+00  0.88934926209E+00  0.88000000000E+00 0.  1.
        -11    1    4    4    0    0 -0.22128470935E-01  0.33051585845E-01 -0.63194709749E-01  0.74672009576E-01  0.51100000000E-03 0. -1.
         11    1    4    4    0    0 -0.13374177850E-01  0.41014350062E-01 -0.37155722453E-01  0.56937284588E-01  0.51100000000E-03 0.  1.
</event>
<event>
 8    1  0.1118868E+005  0.1043930E+01  0.7957747E-01            NaN
         13   -1    0    0    0    0  0.00000000000E+00  0.00000000000E+00  0.74505805969E-08  0.10566000000E+00  0.10566000000E+00 0.  1.
     999900   -1    0    0    0    0 -0.00000000000E+00 -0.00000000000E+00 -0.74505805969E-08  0.93827000000E+00  0.93827000000E+00 0.  1.
     999902    2    1    2    0    0  0.56901038194E-02  0.66961041855E-03  0.23243246754E-01  0.10199910322E+01  0.10197100723E+01 0.  0.
     999903    2    3    3    0    0  0.40097968416E-01  0.70223235150E-01  0.10403036539E+00  0.13289004224E+00  0.17271264500E-01 0.  0.
         14    1    1    2    0    0 -0.56901038194E-02 -0.66961041855E-03 -0.23243246754E-01  0.23938967799E-01  0.00000000000E+00 0. -1.
     999901    1    3    3    0    0 -0.34407864597E-01 -0.69553624732E-01 -0.80787118631E-01  0.88710098996E+00  0.88000000000E+00 0.  1.
        -11    1    4    4    0    0  0.60778316488E-02  0.24888079966E-01  0.38479200852E-01  0.46230580584E-01  0.51100000000E-03 0. -1.
         11    1    4    4    0    0  0.34020136767E-01  0.45335155184E-01  0.65551164533E-01  0.86659461652E-01  0.51100000000E-03 0.  1.
</event>
<event>
 8    1  0.1118868E+005  0.1043930E+01  0.7957747E-01            NaN
         13   -1    0    0    0    0  0.00000000000E+00  0.00000000000E+00  0.74505805969E-08  0.10566000000E+00  0.10566000000E+00 0.  1.
     999900   -1    0    0    0    0 -0.00000000000E+00 -0.00000000000E+00 -0.74505805969E-08  0.93827000000E+00  0.93827000000E+00 0. -1.
     999902    2    1    2    0    0 -0.20296130149E-01 -0.63118323182E-02  0.34614508554E-02  0.10223950570E+01  0.10221682341E+01 0.  0.
     999903    2    3    3    0    0 -0.95359874995E-01 -0.13129652676E-01 -0.91281512754E-01  0.13410609639E+00  0.19652912743E-01 0.  0.
         14    1    1    2    0    0  0.20296130149E-01  0.63118323182E-02 -0.34614508554E-02  0.21534942959E-01  0.00000000000E+00 0. -1.
     999901    1    3    3    0    0  0.75063744847E-01  0.68178203582E-02  0.94742963609E-01  0.88828896065E+00  0.88000000000E+00 0.  1.
        -11    1    4    4    0    0 -0.12956327821E-01 -0.85837200846E-02 -0.17415478516E-01  0.23347520084E-01  0.51100000000E-03 0. -1.
         11    1    4    4    0    0 -0.82403547174E-01 -0.45459325918E-02 -0.73866034237E-01  0.11075857630E+00  0.51100000000E-03 0.  1.
</event>
<event>
 8    1  0.1118868E+005  0.1043930E+01  0.7957747E-01            NaN
         13   -1    0    0    0    0  0.00000000000E+00  0.00000000000E+00  0.74505805969E-08  0.10566000000E+00  0.10566000000E+00 0.  1.
     999900   -1    0    0    0    0 -0.00000000000E+00 -0.00000000000E+00 -0.74505805969E-08  0.93827000000E+00  0.93827000000E+00 0.  1.
     999902    2    1    2    0    0  0.13837368500E-01  0.16879367686E-01 -0.10522377112E-01  0.10196997247E+01  0.10194118021E+01 0.  0.
     999903    2    3    3    0    0 -0.11891983492E+00 -0.33920708960E-01  0.23656885172E-01  0.12763843488E+00  0.20961398052E-01 0.  0.
         14    1    1    2    0    0 -0.13837368500E-01 -0.16879367686E-01  0.10522377112E-01  0.24230275289E-01  0.00000000000E+00 0.  1.
     999901    1    3    3    0    0  0.13275720342E+00  0.50800076645E-01 -0.34179262284E-01  0.89206128983E+00  0.88000000000E+00 0.  1.
        -11    1    4    4    0    0 -0.81613304590E-01 -0.23082066765E-01  0.61943386531E-02  0.85042014584E-01  0.51100000000E-03 0.  1.
         11    1    4    4    0    0 -0.37306530331E-01 -0.10838642195E-01  0.17462546519E-01  0.42596420295E-01  0.51100000000E-03 0. -1.
</event>
<event>
 8    1  0.1118868E+005  0.1043930E+01  0.7957747E-01            NaN
         13   -1    0    0    0    0  0.00000000000E+00  0.00000000000E+00  0.74505805969E-08  0.10566000000E+00  0.10566000000E+00 0. -1.
     999900   -1    0    0    0    0 -0.00000000000E+00 -0.00000000000E+00 -0.74505805969E-08  0.93827000000E+00  0.93827000000E+00 0.  1.
     999902    2    1    2    0    0  0.15785429557E-01 -0.62329348564E-02 -0.14636775501E-01  0.10215187426E+01  0.10212728709E+01 0.  0.
     999903    2    3    3    0    0 -0.53963779702E-01  0.11663457714E+00 -0.63327316678E-02  0.13021052715E+00  0.19974077871E-01 0.  0.
         14    1    1    2    0    0 -0.15785429557E-01  0.62329348564E-02  0.14636775501E-01  0.22411257445E-01  0.00000000000E+00 0. -1.
     999901    1    3    3    0    0  0.69749209258E-01 -0.12286751200E+00 -0.83040438331E-02  0.89130821540E+00  0.88000000000E+00 0. -1.
        -11    1    4    4    0    0 -0.98187659279E-02  0.98576880300E-02  0.31621963251E-02  0.14277352144E-01  0.51100000000E-03 0. -1.
         11    1    4    4    0    0 -0.44145013774E-01  0.10677688911E+00 -0.94949279930E-02  0.11593317501E+00  0.51100000000E-03 0.  1.
</event>
<event>
 8    1  0.1118868E+005  0.1043930E+01  0.7957747E-01            NaN
         13   -1    0    0    0    0  0.00000000000E+00  0.00000000000E+00  0.74505805969E-08  0.10566000000E+00  0.10566000000E+00 0.  1.
     999900   -1    0    0    0    0 -0.00000000000E+00 -0.00000000000E+00 -0.74505805969E-08  0.93827000000E+00  0.93827000000E+00 0. -1.
     999902    2    1    2    0    0 -0.21418891496E-01 -0.89721532503E-02 -0.14713812416E-02  0.10206612783E+01  0.10203960072E+01 0.  0.
     999903    2    3    3    0    0  0.86660558791E-01  0.32846320004E-01  0.87027561037E-01  0.12866239093E+00  0.19780830928E-01 0.  0.
         14    1    1    2    0    0  0.21418891496E-01  0.89721532503E-02  0.14713812416E-02  0.23268721702E-01  0.00000000000E+00 0.  1.
     999901    1    3    3    0    0 -0.10807945029E+00 -0.41818473255E-01 -0.88498942279E-01  0.89199888737E+00  0.88000000000E+00 0. -1.
        -11    1    4    4    0    0  0.77344408142E-01  0.30073120985E-01  0.67994991633E-01  0.10728527431E+00  0.51100000000E-03 0.  1.
         11    1    4    4    0    0  0.93161506494E-02  0.27731990198E-02  0.19032569404E-01  0.21377116616E-01  0.51100000000E-03 0. -1.
</event>
<event>
 8    1  0.1118868E+005  0.1043930E+01  0.7957747E-01            NaN
         13   -1    0    0    0    0  0.00000000000E+00  0.00000000000E+00  0.74505805969E-08  0.10566000000E+00  0.10566000000E+00 0. -1.
     999900   -1    0    0    0    0 -0.00000000000E+00 -0.00000000000E+00 -0.74505805969E-08  0.93827000000E+00  0.93827000000E+00 0.  1.
     999902    2    1    2    0    0 -0.10729791026E-01 -0.18587143574E-01 -0.10890698893E-01  0.10198630591E+01  0.10195790512E+01 0.  0.
     999903    2    3    3    0    0 -0.61198249962E-01 -0.18916143724E-01 -0.11419890115E+00  0.13238361808E+00  0.19518888796E-01 0.  0.
         14    1    1    2    0    0  0.10729791026E-01  0.18587143574E-01  0.10890698893E-01  0.24066940895E-01  0.00000000000E+00 0. -1.
     999901    1    3    3    0    0  0.50468458936E-01  0.32900015043E-03  0.10330820226E+00  0.88747944103E+00  0.88000000000E+00 0. -1.
        -11    1    4    4    0    0 -0.33287629630E-01 -0.53874053227E-02 -0.76207847491E-01  0.83336591979E-01  0.51100000000E-03 0.  1.
         11    1    4    4    0    0 -0.27910620332E-01 -0.13528738402E-01 -0.37991053660E-01  0.49047026100E-01  0.51100000000E-03 0. -1.
</event>
<event>
 8    1  0.1118868E+005  0.1043930E+01  0.7957747E-01            NaN
         13   -1    0    0    0    0  0.00000000000E+00  0.00000000000E+00  0.74505805969E-08  0.10566000000E+00  0.10566000000E+00 0.  1.
     999900   -1    0    0    0    0 -0.00000000000E+00 -0.00000000000E+00 -0.74505805969E-08  0.93827000000E+00  0.93827000000E+00 0. -1.
     999902    2    1    2    0    0 -0.44134228410E-02 -0.14747112412E-01 -0.18213903215E-01  0.10200825285E+01  0.10198037375E+01 0.  0.
     999903    2    3    3    0    0  0.49628915630E-01 -0.21446177453E-01 -0.11934149127E+00  0.13261859073E+00  0.20550700063E-01 0.  0.
         14    1    1    2    0    0  0.44134228410E-02  0.14747112412E-01  0.18213903215E-01  0.23847471480E-01  0.00000000000E+00 0.  1.
     999901    1    3    3    0    0 -0.54042338471E-01  0.66990650413E-02  0.10112758806E+00  0.88746393779E+00  0.88000000000E+00 0.  1.
        -11    1    4    4    0    0  0.39556779683E-01 -0.19153059159E-01 -0.11081933626E+00  0.11921730119E+00  0.51100000000E-03 0.  1.
         11    1    4    4    0    0  0.10072135947E-01 -0.22931182936E-02 -0.85221550124E-02  0.13401289531E-01  0.51100000000E-03 0. -1.
</event>
<event>
 8    1  0.1118868E+005  0.1043930E+01  0.7957747E-01            NaN
         13   -1    0    0    0    0  0.00000000000E+00  0.00000000000E+00  0.74505805969E-08  0.10566000000E+00  0.10566000000E+00 0. -1.
     999900   -1    0    0    0    0 -0.00000000000E+00 -0.00000000000E+00 -0.74505805969E-08  0.93827000000E+00  0.93827000000E+00 0.  1.
     999902    2    1    2    0    0  0.21971096099E-01  0.32232724431E-02  0.85736888065E-02  0.10201260783E+01  0.10198483166E+01 0.  0.
     999903    2    3    3    0    0  0.57408325470E-01  0.57650595910E-01  0.10333032242E+00  0.13265948716E+00  0.17380361279E-01 0.  0.
         14    1    1    2    0    0 -0.21971096099E-01 -0.32232724431E-02 -0.85736888065E-02  0.23803921710E-01  0.00000000000E+00 0.  1.
     999901    1    3    3    0    0 -0.35437229372E-01 -0.54427323467E-01 -0.94756633616E-01  0.88746659113E+00  0.88000000000E+00 0.  1.
        -11    1    4    4    0    0  0.84513068457E-02  0.10257889419E-01  0.81394771303E-02  0.15593623430E-01  0.51100000000E-03 0.  1.
         11    1    4    4    0    0  0.48957018625E-01  0.47392706492E-01  0.95190845293E-01  0.11706586373E+00  0.51100000000E-03 0. -1.
</event>
<event>
 7    1  0.1118868E+005  0.1043930E+01  0.7957747E-01            NaN
         13   -1    0    0    0    0  0.00000000000E+00  0.00000000000E+00  0.74505805969E-08  0.10566000000E+00  0.10566000000E+00 0.  1.
     999900   -1    0    0    0    0 -0.00000000000E+00 -0.00000000000E+00 -0.74505805969E-08  0.93827000000E+00  0.93827000000E+00 0.  1.
     999903    2    1    2    0    0 -0.41000405696E-01  0.95353880174E-01  0.36017639822E-01  0.11136729500E+00  0.18221094539E-01 0.  0.
         14    1    1    2    0    0  0.26675547322E-02  0.21334842518E-01  0.35131290031E-01  0.41188577213E-01  0.00000000000E+00 0.  1.
     999901    1    1    2    0    0  0.38332850964E-01 -0.11668872269E+00 -0.71148929853E-01  0.89137412779E+00  0.88000000000E+00 0.  1.
        -11    1    3    3    0    0 -0.28205265728E-01  0.46921102192E-01  0.24407193936E-01  0.59942464768E-01  0.51100000000E-03 0.  1.
         11    1    3    3    0    0 -0.12795139968E-01  0.48432777982E-01  0.11610445886E-01  0.51424830233E-01  0.51100000000E-03 0. -1.
</event>
<event>
 8    1  0.1118868E+005  0.1043930E+01  0.7957747E-01            NaN
         13   -1    0    0    0    0  0.00000000000E+00  0.00000000000E+00  0.74505805969E-08  0.10566000000E+00  0.10566000000E+00 0.  1.
     999900   -1    0    0    0    0 -0.00000000000E+00 -0.00000000000E+00 -0.74505805969E-08  0.93827000000E+00  0.93827000000E+00 0. -1.
     999902    2    1    2    0    0  0.84211525328E-02  0.17679838463E-01 -0.14171053901E-01  0.10197574688E+01  0.10194709333E+01 0.  0.
     999903    2    3    3    0    0  0.83176606350E-02  0.11246717819E+00 -0.68313996501E-01  0.13301279935E+00  0.17537189781E-01 0.  0.
         14    1    1    2    0    0 -0.84211525328E-02 -0.17679838463E-01  0.14171053901E-01  0.24172531243E-01  0.00000000000E+00 0.  1.
     999901    1    3    3    0    0  0.10349189784E-03 -0.94787339726E-01  0.54142942600E-01  0.88674466940E+00  0.88000000000E+00 0.  1.
        -11    1    4    4    0    0  0.13293767981E-01  0.74613349173E-01 -0.42106758058E-01  0.86701305279E-01  0.51100000000E-03 0. -1.
         11    1    4    4    0    0 -0.49761073461E-02  0.37853829016E-01 -0.26207238444E-01  0.46311494074E-01  0.51100000000E-03 0.  1.
</event>
<event>
 8    1  0.1118868E+005  0.1043930E+01  0.7957747E-01            NaN
         13   -1    0    0    0    0  0.00000000000E+00  0.00000000000E+00  0.74505805969E-08  0.10566000000E+00  0.10566000000E+00 0. -1.
     999900   -1    0    0    0    0 -0.00000000000E+00 -0.00000000000E+00 -0.74505805969E-08  0.93827000000E+00  0.93827000000E+00 0. -1.
     999902    2    1    2    0    0  0.15865191810E-01 -0.10891607441E-01  0.13663716845E-01  0.10203285470E+01  0.10200555452E+01 0.  0.
     999903    2    3    3    0    0 -0.37272044325E-01  0.14114635887E-01 -0.12053295394E+00  0.12822001972E+00  0.17993116401E-01 0.  0.
         14    1    1    2    0    0 -0.15865191810E-01  0.10891607441E-01 -0.13663716845E-01  0.23601452960E-01  0.00000000000E+00 0.  1.
     999901    1    3    3    0    0  0.53137236135E-01 -0.25006243328E-01  0.13419667078E+00  0.89210852732E+00  0.88000000000E+00 0.  1.
        -11    1    4    4    0    0 -0.16144897356E-01  0.13388864376E-01 -0.77241985523E-01  0.80040644977E-01  0.51100000000E-03 0. -1.
         11    1    4    4    0    0 -0.21127146969E-01  0.72577151117E-03 -0.43290968413E-01  0.48179374742E-01  0.51100000000E-03 0.  1.
</event>
<event>
 8    1  0.1118868E+005  0.1043930E+01  0.7957747E-01            NaN
         13   -1    0    0    0    0  0.00000000000E+00  0.00000000000E+00  0.74505805969E-08  0.10566000000E+00  0.10566000000E+00 0.  1.
     999900   -1    0    0    0    0 -0.00000000000E+00 -0.00000000000E+00 -0.74505805969E-08  0.93827000000E+00  0.93827000000E+00 0.  1.
     999902    2    1    2    0    0  0.21374774646E-01 -0.10051752128E-01  0.80732102362E-02  0.10189681204E+01  0.10186623262E+01 0.  0.
     999903    2    3    3    0    0 -0.48725232734E-01  0.92148395460E-01  0.71527375887E-01  0.12802181875E+00  0.20197660353E-01 0.  0.
         14    1    1    2    0    0 -0.21374774646E-01  0.10051752128E-01 -0.80732102362E-02  0.24961879648E-01  0.00000000000E+00 0.  1.
     999901    1    3    3    0    0  0.70100007380E-01 -0.10220014759E+00 -0.63454165651E-01  0.89094630160E+00  0.88000000000E+00 0. -1.
        -11    1    4    4    0    0 -0.11727513523E-01  0.27653818554E-01  0.31692747455E-01  0.43668748737E-01  0.51100000000E-03 0. -1.
         11    1    4    4    0    0 -0.36997719211E-01  0.64494576907E-01  0.39834628432E-01  0.84353070012E-01  0.51100000000E-03 0.  1.
</event>
<event>
 8    1  0.1118868E+005  0.1043930E+01  0.7957747E-01            NaN
         13   -1    0    0    0    0  0.00000000000E+00  0.00000000000E+00  0.74505805969E-08  0.10566000000E+00  0.10566000000E+00 0.  1.
     999900   -1    0    0    0    0 -0.00000000000E+00 -0.00000000000E+00 -0.74505805969E-08  0.93827000000E+00  0.93827000000E+00 0.  1.
     999902    2    1    2    0    0 -0.79448019968E-02  0.19008938592E-01  0.10266463747E-01  0.10209113140E+01  0.10206517777E+01 0.  0.
     999903    2    3    3    0    0  0.36890970936E-01  0.12467521367E+00 -0.20160403502E-01  0.13293529946E+00  0.18986820026E-01 0.  0.
         14    1    1    2    0    0  0.79448019968E-02 -0.19008938592E-01 -0.10266463747E-01  0.23018685953E-01  0.00000000000E+00 0.  1.
     999901    1    3    3    0    0 -0.44835772933E-01 -0.10566627508E+00  0.30426867248E-01  0.88797601458E+00  0.88000000000E+00 0. -1.
        -11    1    4    4    0    0  0.96298616014E-02  0.55800912928E-01 -0.19835734328E-02  0.56662790283E-01  0.51100000000E-03 0. -1.
         11    1    4    4    0    0  0.27261109335E-01  0.68874300739E-01 -0.18176830069E-01  0.76272509182E-01  0.51100000000E-03 0.  1.
</event>
<event>
 8    1  0.1118868E+005  0.1043930E+01  0.7957747E-01            NaN
         13   -1    0    0    0    0  0.00000000000E+00  0.00000000000E+00  0.74505805969E-08  0.10566000000E+00  0.10566000000E+00 0. -1.
     999900   -1    0    0    0    0 -0.00000000000E+00 -0.00000000000E+00 -0.74505805969E-08  0.93827000000E+00  0.93827000000E+00 0.  1.
     999902    2    1    2    0    0 -0.16574992439E-01 -0.10571381893E-01 -0.13609128049E-01  0.10200199005E+01  0.10197396259E+01 0.  0.
     999903    2    3    3    0    0 -0.90746482422E-01 -0.92909889816E-01  0.17151606823E-01  0.13253623162E+00  0.20112269311E-01 0.  0.
         14    1    1    2    0    0  0.16574992439E-01  0.10571381893E-01  0.13609128049E-01  0.23910099450E-01  0.00000000000E+00 0. -1.
     999901    1    3    3    0    0  0.74171489984E-01  0.82338507924E-01 -0.30760734872E-01  0.88748366893E+00  0.88000000000E+00 0. -1.
        -11    1    4    4    0    0 -0.66084508358E-01 -0.63372968683E-01  0.32489317718E-02  0.91619387049E-01  0.51100000000E-03 0. -1.
         11    1    4    4    0    0 -0.24661974064E-01 -0.29536921133E-01  0.13902675051E-01  0.40916844567E-01  0.51100000000E-03 0.  1.
</event>
<event>
 8    1  0.1118868E+005  0.1043930E+01  0.7957747E-01            NaN
         13   -1    0    0    0    0  0.00000000000E+00  0.00000000000E+00  0.74505805969E-08  0.10566000000E+00  0.10566000000E+00 0. -1.
     999900   -1    0    0    0    0 -0.00000000000E+00 -0.00000000000E+00 -0.74505805969E-08  0.93827000000E+00  0.93827000000E+00 0.  1.
     999902    2    1    2    0    0 -0.93793473950E-02 -0.18688065412E-01  0.11736715597E-01  0.10199515422E+01  0.10196696435E+01 0.  0.
     999903    2    3    3    0    0 -0.59019217394E-01  0.11246126820E+00  0.78690484544E-02  0.12884031273E+00  0.20176704244E-01 0.  0.
         14    1    1    2    0    0  0.93793473950E-02  0.18688065412E-01 -0.11736715597E-01  0.23978457819E-01  0.00000000000E+00 0.  1.
     999901    1    3    3    0    0  0.49639869999E-01 -0.13114933361E+00  0.38676671422E-02  0.89111122945E+00  0.88000000000E+00 0. -1.
        -11    1    4    4    0    0 -0.20050309736E-01  0.20477350336E-01  0.30406706257E-02  0.28824357688E-01  0.51100000000E-03 0.  1.
         11    1    4    4    0    0 -0.38968907658E-01  0.91983917865E-01  0.48283778287E-02  0.10001595504E+00  0.51100000000E-03 0. -1.
</event>
<event>
 8    1  0.1118868E+005  0.1043930E+01  0.7957747E-01            NaN
         13   -1    0    0    0    0  0.00000000000E+00  0.00000000000E+00  0.74505805969E-08  0.10566000000E+00  0.10566000000E+00 0.  1.
     999900   -1    0    0    0    0 -0.00000000000E+00 -0.00000000000E+00 -0.74505805969E-08  0.93827000000E+00  0.93827000000E+00 0. -1.
     999902    2    1    2    0    0  0.47356616059E-02  0.14557221335E-02 -0.18989802615E-01  0.10243045517E+01  0.10241165248E+01 0.  0.
     999903    2    3    3    0    0  0.55949796987E-01  0.16257513201E-01 -0.12197798181E+00  0.13669622268E+00  0.20311147937E-01 0.  0.
         14    1    1    2    0    0 -0.47356616059E-02 -0.14557221335E-02  0.18989802615E-01  0.19625448304E-01  0.00000000000E+00 0.  1.
     999901    1    3    3    0    0 -0.51214135381E-01 -0.14801791068E-01  0.10298817920E+00  0.88760832901E+00  0.88000000000E+00 0.  1.
        -11    1    4    4    0    0  0.22900940859E-01 -0.14507644771E-02 -0.33588287963E-01  0.40681593124E-01  0.51100000000E-03 0. -1.
         11    1    4    4    0    0  0.33048856128E-01  0.17708277678E-01 -0.88389693847E-01  0.96014629558E-01  0.51100000000E-03 0.  1.
</event>
<event>
 8    1  0.1118868E+005  0.1043930E+01  0.7957747E-01            NaN
         13   -1    0    0    0    0  0.00000000000E+00  0.00000000000E+00  0.74505805969E-08  0.10566000000E+00  0.10566000000E+00 0. -1.
     999900   -1    0    0    0    0 -0.00000000000E+00 -0.00000000000E+00 -0.74505805969E-08  0.93827000000E+00  0.93827000000E+00 0. -1.
     999902    2    1    2    0    0  0.17791435686E-01 -0.11038861119E-01 -0.59805832111E-02  0.10221548074E+01  0.10219228401E+01 0.  0.
     999903    2    3    3    0    0 -0.20307419328E-02 -0.36800744116E-01 -0.12667364406E+00  0.13332219755E+00  0.19239999453E-01 0.  0.
         14    1    1    2    0    0 -0.17791435686E-01  0.11038861119E-01  0.59805832111E-02  0.21775192631E-01  0.00000000000E+00 0. -1.
     999901    1    3    3    0    0  0.19822177619E-01  0.25761882997E-01  0.12069306085E+00  0.88883260982E+00  0.88000000000E+00 0.  1.
        -11    1    4    4    0    0 -0.42101242349E-02 -0.15863116865E-02 -0.55457435665E-02  0.71594639147E-02  0.51100000000E-03 0. -1.
         11    1    4    4    0    0  0.21793823021E-02 -0.35214432429E-01 -0.12112790050E+00  0.12616273363E+00  0.51100000000E-03 0.  1.
</event>
<event>
 8    1  0.1118868E+005  0.1043930E+01  0.7957747E-01            NaN
         13   -1    0    0    0    0  0.00000000000E+00  0.00000000000E+00  0.74505805969E-08  0.10566000000E+00  0.10566000000E+00 0. -1.
     999900   -1    0    0    0    0 -0.00000000000E+00 -0.00000000000E+00 -0.74505805969E-08  0.93827000000E+00  0.93827000000E+00 0.  1.
     999902    2    1    2    0    0  0.39039691775E-02 -0.67719881275E-02 -0.22337336874E-01  0.10202644677E+01  0.10199899640E+01 0.  0.
     999903    2    3    3    0    0  0.10027379827E+00 -0.59682993682E-01 -0.60136783276E-01  0.13261841406E+00  0.18823301789E-01 0.  0.
         14    1    1    2    0    0 -0.39039691775E-02  0.67719881275E-02  0.22337336874E-01  0.23665532260E-01  0.00000000000E+00 0. -1.
     999901    1    3    3    0    0 -0.96369829092E-01  0.52911005555E-01  0.37799446403E-01  0.88764605368E+00  0.88000000000E+00 0. -1.
        -11    1    4    4    0    0  0.76267913561E-01 -0.39934307277E-01 -0.51628313213E-01  0.10038569312E+00  0.51100000000E-03 0. -1.
         11    1    4    4    0    0  0.24005884708E-01 -0.19748686406E-01 -0.85084700637E-02  0.32232720940E-01  0.51100000000E-03 0.  1.
</event>
<event>
 8    1  0.1118868E+005  0.1043930E+01  0.7957747E-01            NaN
         13   -1    0    0    0    0  0.00000000000E+00  0.00000000000E+00  0.74505805969E-08  0.10566000000E+00  0.10566000000E+00 0. -1.
     999900   -1    0    0    0    0 -0.00000000000E+00 -0.00000000000E+00 -0.74505805969E-08  0.93827000000E+00  0.93827000000E+00 0.  1.
     999902    2    1    2    0    0  0.19731638078E-01  0.62924996216E-02 -0.61112026099E-02  0.10223364850E+01  0.10221084134E+01 0.  0.
     999903    2    3    3    0    0 -0.68446013078E-01 -0.84511113059E-01  0.68936174288E-01  0.13011862875E+00  0.18753039337E-01 0.  0.
         14    1    1    2    0    0 -0.19731638078E-01 -0.62924996216E-02  0.61112026099E-02  0.21593515000E-01  0.00000000000E+00 0. -1.
     999901    1    3    3    0    0  0.88177651156E-01  0.90803612681E-01 -0.75047376898E-01  0.89221785625E+00  0.88000000000E+00 0.  1.
        -11    1    4    4    0    0 -0.38310480384E-01 -0.56484949681E-01  0.34614095041E-01  0.76528681841E-01  0.51100000000E-03 0. -1.
         11    1    4    4    0    0 -0.30135532694E-01 -0.28026163378E-01  0.34322079247E-01  0.53589946905E-01  0.51100000000E-03 0.  1.
</event>
<event>
 8    1  0.1118868E+005  0.1043930E+01  0.7957747E-01            NaN
         13   -1    0    0    0    0  0.00000000000E+00  0.00000000000E+00  0.74505805969E-08  0.10566000000E+00  0.10566000000E+00 0. -1.
     999900   -1    0    0    0    0 -0.00000000000E+00 -0.00000000000E+00 -0.74505805969E-08  0.93827000000E+00  0.93827000000E+00 0.  1.
     999902    2    1    2    0    0  0.68691497557E-02  0.22373463907E-01 -0.33947396303E-02  0.10202808697E+01  0.10200067508E+01 0.  0.
     999903    2    3    3    0    0  0.11030221977E+00  0.57636704833E-01  0.40722344422E-01  0.13242490548E+00  0.19735167242E-01 0.  0.
         14    1    1    2    0    0 -0.68691497557E-02 -0.22373463907E-01  0.33947396303E-02  0.23649130274E-01  0.00000000000E+00 0. -1.
     999901    1    3    3    0    0 -0.10343307002E+00 -0.35263240926E-01 -0.44117084052E-01  0.88785596424E+00  0.88000000000E+00 0. -1.
        -11    1    4    4    0    0  0.21811340959E-01  0.11474705505E-01  0.16671491338E-01  0.29759086097E-01  0.51100000000E-03 0.  1.
         11    1    4    4    0    0  0.88490878815E-01  0.46161999327E-01  0.24050853084E-01  0.10266581939E+00  0.51100000000E-03 0. -1.
</event>
<event>
 8    1  0.1118868E+005  0.1043930E+01  0.7957747E-01            NaN
         13   -1    0    0    0    0  0.00000000000E+00  0.00000000000E+00  0.74505805969E-08  0.10566000000E+00  0.10566000000E+00 0.  1.
     999900   -1    0    0    0    0 -0.00000000000E+00 -0.00000000000E+00 -0.74505805969E-08  0.93827000000E+00  0.93827000000E+00 0. -1.
     999902    2    1    2    0    0  0.90043119365E-02  0.66079078117E-02 -0.20367602563E-01  0.10207011104E+01  0.10204367572E+01 0.  0.
     999903    2    3    3    0    0 -0.69951153930E-01 -0.56614566597E-01 -0.94188600743E-01  0.13183633628E+00  0.20271999543E-01 0.  0.
         14    1    1    2    0    0 -0.90043119365E-02 -0.66079078117E-02  0.20367602563E-01  0.23228889626E-01  0.00000000000E+00 0.  1.
     999901    1    3    3    0    0  0.78955465867E-01  0.63222474409E-01  0.73820998181E-01  0.88886477410E+00  0.88000000000E+00 0.  1.
        -11    1    4    4    0    0 -0.66274014037E-01 -0.55661802541E-01 -0.82633586212E-01  0.11966224087E+00  0.51100000000E-03 0. -1.
         11    1    4    4    0    0 -0.36771398931E-02 -0.95276405680E-03 -0.11555014532E-01  0.12174095407E-01  0.51100000000E-03 0.  1.
</event>
<event>
 8    1  0.1118868E+005  0.1043930E+01  0.7957747E-01            NaN
         13   -1    0    0    0    0  0.00000000000E+00  0.00000000000E+00  0.74505805969E-08  0.10566000000E+00  0.10566000000E+00 0.  1.
     999900   -1    0    0    0    0 -0.00000000000E+00 -0.00000000000E+00 -0.74505805969E-08  0.93827000000E+00  0.93827000000E+00 0. -1.
     999902    2    1    2    0    0 -0.13901213394E-01  0.17962389301E-01 -0.62623619275E-02  0.10203692627E+01  0.10200972130E+01 0.  0.
     999903    2    3    3    0    0  0.62698132699E-01 -0.24546162109E-01  0.10780275513E+00  0.12869371205E+00  0.20175916126E-01 0.  0.
         14    1    1    2    0    0  0.13901213394E-01 -0.17962389301E-01  0.62623619275E-02  0.23560737258E-01  0.00000000000E+00 0. -1.
     999901    1    3    3    0    0 -0.76599346093E-01  0.42508551411E-01 -0.11406511705E+00  0.89167555069E+00  0.88000000000E+00 0.  1.
        -11    1    4    4    0    0  0.13880865242E-01 -0.13336271283E-01  0.21132254259E-01  0.28589645725E-01  0.51100000000E-03 0. -1.
         11    1    4    4    0    0  0.48817267457E-01 -0.11209890826E-01  0.86670500867E-01  0.10010406633E+00  0.51100000000E-03 0.  1.
</event>
<event>
 8    1  0.1198842E+005  0.1043930E+01  0.7957747E-01            NaN
         13   -1    0    0    0    0  0.00000000000E+00  0.00000000000E+00  0.74505805969E-08  0.10566000000E+00  0.10566000000E+00 0.  1.
     999900   -1    0    0    0    0 -0.00000000000E+00 -0.00000000000E+00 -0.74505805969E-08  0.93827000000E+00  0.93827000000E+00 0.  1.
     999902    2    1    2    0    0  0.31939210970E-02  0.22231637685E-01  0.67100862489E-02  0.10204891787E+01  0.10202199232E+01 0.  0.
     999903    2    3    3    0    0  0.11568312363E+00 -0.37645422498E-01  0.42816405578E-01  0.13057752616E+00  0.20432396376E-01 0.  0.
         14    1    1    2    0    0 -0.31939210970E-02 -0.22231637685E-01 -0.67100862489E-02  0.23440821308E-01  0.00000000000E+00 0. -1.
     999901    1    3    3    0    0 -0.11248920254E+00  0.59877060183E-01 -0.36106319329E-01  0.88991165254E+00  0.88000000000E+00 0.  1.
        -11    1    4    4    0    0  0.66514514698E-01 -0.31866160532E-01  0.23129701401E-01  0.77297328935E-01  0.51100000000E-03 0.  1.
         11    1    4    4    0    0  0.49168608936E-01 -0.57792619654E-02  0.19686704177E-01  0.53280197221E-01  0.51100000000E-03 0. -1.
</event>
<event>
 8    1  0.1118868E+005  0.1043930E+01  0.7957747E-01            NaN
         13   -1    0    0    0    0  0.00000000000E+00  0.00000000000E+00  0.74505805969E-08  0.10566000000E+00  0.10566000000E+00 0. -1.
     999900   -1    0    0    0    0 -0.00000000000E+00 -0.00000000000E+00 -0.74505805969E-08  0.93827000000E+00  0.93827000000E+00 0. -1.
     999902    2    1    2    0    0  0.17414566500E-01 -0.65226589712E-02  0.14921343054E-01  0.10200876284E+01  0.10198089580E+01 0.  0.
     999903    2    3    3    0    0  0.10158534912E+00  0.75241682283E-01  0.32733435810E-01  0.13211949899E+00  0.20079598685E-01 0.  0.
         14    1    1    2    0    0 -0.17414566500E-01  0.65226589712E-02 -0.14921343054E-01  0.23842371631E-01  0.00000000000E+00 0.  1.
     999901    1    3    3    0    0 -0.84170782625E-01 -0.81764341254E-01 -0.17812092756E-01  0.88796812938E+00  0.88000000000E+00 0. -1.
        -11    1    4    4    0    0  0.49121324551E-01  0.43260677068E-01  0.25504403771E-01  0.70250455078E-01  0.51100000000E-03 0. -1.
         11    1    4    4    0    0  0.52464024574E-01  0.31981005215E-01  0.72290320385E-02  0.61869043910E-01  0.51100000000E-03 0.  1.
</event>
<event>
 8    1  0.1118868E+005  0.1043930E+01  0.7957747E-01            NaN
         13   -1    0    0    0    0  0.00000000000E+00  0.00000000000E+00  0.74505805969E-08  0.10566000000E+00  0.10566000000E+00 0.  1.
     999900   -1    0    0    0    0 -0.00000000000E+00 -0.00000000000E+00 -0.74505805969E-08  0.93827000000E+00  0.93827000000E+00 0.  1.
     999902    2    1    2    0    0 -0.10236469321E-01 -0.20116709077E-01  0.61745003580E-02  0.10205293217E+01  0.10202609984E+01 0.  0.
     999903    2    3    3    0    0 -0.10595722094E-01 -0.10865285485E+00 -0.72965323218E-01  0.13255303273E+00  0.18128869228E-01 0.  0.
         14    1    1    2    0    0  0.10236469321E-01  0.20116709077E-01 -0.61745003580E-02  0.23400678257E-01  0.00000000000E+00 0.  1.
     999901    1    3    3    0    0  0.35925277367E-03  0.88536145776E-01  0.79139823576E-01  0.88797628901E+00  0.88000000000E+00 0.  1.
        -11    1    4    4    0    0 -0.93677323319E-02 -0.68567119295E-01 -0.55914470654E-01  0.88971306650E-01  0.51100000000E-03 0.  1.
         11    1    4    4    0    0 -0.12279897622E-02 -0.40085735558E-01 -0.17050852565E-01  0.43581726081E-01  0.51100000000E-03 0. -1.
</event>
<event>
 8    1  0.1118868E+005  0.1043930E+01  0.7957747E-01            NaN
         13   -1    0    0    0    0  0.00000000000E+00  0.00000000000E+00  0.74505805969E-08  0.10566000000E+00  0.10566000000E+00 0.  1.
     999900   -1    0    0    0    0 -0.00000000000E+00 -0.00000000000E+00 -0.74505805969E-08  0.93827000000E+00  0.93827000000E+00 0. -1.
     999902    2    1    2    0    0 -0.20715831315E-01  0.87853360456E-02  0.99591730524E-02  0.10193228278E+01  0.10190257673E+01 0.  0.
     999903    2    3    3    0    0 -0.10846304316E+00  0.33771056688E-01  0.65820028738E-01  0.13284423548E+00  0.20263235536E-01 0.  0.
         14    1    1    2    0    0  0.20715831315E-01 -0.87853360456E-02 -0.99591730524E-02  0.24607172214E-01  0.00000000000E+00 0. -1.
     999901    1    3    3    0    0  0.87747211849E-01 -0.24985720642E-01 -0.55860855686E-01  0.88647859231E+00  0.88000000000E+00 0. -1.
        -11    1    4    4    0    0 -0.63807026497E-01  0.93825676264E-02  0.35823087843E-01  0.73776174672E-01  0.51100000000E-03 0.  1.
         11    1    4    4    0    0 -0.44656016666E-01  0.24388489061E-01  0.29996940895E-01  0.59068060805E-01  0.51100000000E-03 0. -1.
</event>
<event>
 8    1  0.1118868E+005  0.1043930E+01  0.7957747E-01            NaN
         13   -1    0    0    0    0  0.00000000000E+00  0.00000000000E+00  0.74505805969E-08  0.10566000000E+00  0.10566000000E+00 0. -1.
     999900   -1    0    0    0    0 -0.00000000000E+00 -0.00000000000E+00 -0.74505805969E-08  0.93827000000E+00  0.93827000000E+00 0. -1.
     999902    2    1    2    0    0  0.40873876941E-02 -0.23300466770E-01 -0.14402072799E-02  0.10202299433E+01  0.10199546287E+01 0.  0.
     999903    2    3    3    0    0 -0.64904194402E-02 -0.12963929958E+00 -0.23898942257E-01  0.13348069345E+00  0.19936462599E-01 0.  0.
         14    1    1    2    0    0 -0.40873876941E-02  0.23300466770E-01  0.14402072799E-02  0.23700056685E-01  0.00000000000E+00 0. -1.
     999901    1    3    3    0    0  0.10577807134E-01  0.10633883281E+00  0.22458734977E-01  0.88674924987E+00  0.88000000000E+00 0.  1.
        -11    1    4    4    0    0 -0.14751347586E-02 -0.87309182302E-01 -0.25019562347E-01  0.90836715913E-01  0.51100000000E-03 0. -1.
         11    1    4    4    0    0 -0.50152846816E-02 -0.42330117281E-01  0.11206200903E-02  0.42643977533E-01  0.51100000000E-03 0.  1.
</event>
<event>
 8    1  0.1118868E+005  0.1043930E+01  0.7957747E-01            NaN
         13   -1    0    0    0    0  0.00000000000E+00  0.00000000000E+00  0.74505805969E-08  0.10566000000E+00  0.10566000000E+00 0.  1.
     999900   -1    0    0    0    0 -0.00000000000E+00 -0.00000000000E+00 -0.74505805969E-08  0.93827000000E+00  0.93827000000E+00 0. -1.
     999902    2    1    2    0    0  0.13069361108E-01 -0.18856003751E-01 -0.58499580922E-02  0.10202534486E+01  0.10199786862E+01 0.  0.
     999903    2    3    3    0    0  0.30462602807E-01 -0.96557728921E-01  0.82668517022E-01  0.13223565406E+00  0.20020472393E-01 0.  0.
         14    1    1    2    0    0 -0.13069361108E-01  0.18856003751E-01  0.58499580922E-02  0.23676551415E-01  0.00000000000E+00 0.  1.
     999901    1    3    3    0    0 -0.17393241699E-01  0.77701725170E-01 -0.88518475114E-01  0.88801779452E+00  0.88000000000E+00 0. -1.
        -11    1    4    4    0    0  0.13589787423E-01 -0.19038366910E-01  0.13700110236E-01  0.27112651628E-01  0.51100000000E-03 0. -1.
         11    1    4    4    0    0  0.16872815384E-01 -0.77519362010E-01  0.68968406786E-01  0.10512300244E+00  0.51100000000E-03 0.  1.
</event>
<event>
 8    1  0.1118868E+005  0.1043930E+01  0.7957747E-01            NaN
         13   -1    0    0    0    0  0.00000000000E+00  0.00000000000E+00  0.74505805969E-08  0.10566000000E+00  0.10566000000E+00 0. -1.
     999900   -1    0    0    0    0 -0.00000000000E+00 -0.00000000000E+00 -0.74505805969E-08  0.93827000000E+00  0.93827000000E+00 0.  1.
     999902    2    1    2    0    0 -0.11897126878E-01  0.21571806440E-01 -0.14759882687E-01  0.10152117376E+01  0.10148054658E+01 0.  0.
     999903    2    3    3    0    0  0.67353548057E-01 -0.99977147226E-01 -0.14028776527E-01  0.12332870030E+00  0.21936985772E-01 0.  0.
         14    1    1    2    0    0  0.11897126878E-01 -0.21571806440E-01  0.14759882687E-01  0.28718262447E-01  0.00000000000E+00 0. -1.
     999901    1    3    3    0    0 -0.79250674935E-01  0.12154895367E+00 -0.73110616028E-03  0.89188303725E+00  0.88000000000E+00 0. -1.
        -11    1    4    4    0    0  0.54351030114E-01 -0.76372071930E-01 -0.19694553166E-01  0.95785512426E-01  0.51100000000E-03 0.  1.
         11    1    4    4    0    0  0.13002517942E-01 -0.23605075296E-01  0.56657766396E-02  0.27543187879E-01  0.51100000000E-03 0. -1.
</event>
<event>
 8    1  0.1118868E+005  0.1043930E+01  0.7957747E-01            NaN
         13   -1    0    0    0    0  0.00000000000E+00  0.00000000000E+00  0.74505805969E-08  0.10566000000E+00  0.10566000000E+00 0.  1.
     999900   -1    0    0    0    0 -0.00000000000E+00 -0.00000000000E+00 -0.74505805969E-08  0.93827000000E+00  0.93827000000E+00 0.  1.
     999902    2    1    2    0    0 -0.69498903019E-02  0.74330966572E-02 -0.20750390490E-01  0.10208187342E+01  0.10205570819E+01 0.  0.
     999903    2    3    3    0    0  0.82389940059E-01 -0.16054207984E-01  0.95187925714E-01  0.12842030753E+00  0.19626369189E-01 0.  0.
         14    1    1    2    0    0  0.69498903019E-02 -0.74330966572E-02  0.20750390490E-01  0.23111265794E-01  0.00000000000E+00 0.  1.
     999901    1    3    3    0    0 -0.89339830361E-01  0.23487304641E-01 -0.11593831620E+00  0.89239842668E+00  0.88000000000E+00 0. -1.
        -11    1    4    4    0    0  0.39174114150E-01 -0.19267028331E-02  0.56138395870E-01  0.68484334085E-01  0.51100000000E-03 0. -1.
         11    1    4    4    0    0  0.43215825909E-01 -0.14127505151E-01  0.39049529845E-01  0.59935973446E-01  0.51100000000E-03 0.  1.
</event>
<event>
 8    1  0.1118868E+005  0.1043930E+01  0.7957747E-01            NaN
         13   -1    0    0    0    0  0.00000000000E+00  0.00000000000E+00  0.74505805969E-08  0.10566000000E+00  0.10566000000E+00 0.  1.
     999900   -1    0    0    0    0 -0.00000000000E+00 -0.00000000000E+00 -0.74505805969E-08  0.93827000000E+00  0.93827000000E+00 0. -1.
     999902    2    1    2    0    0  0.93099358476E-02 -0.18695919910E-01 -0.11091282368E-01  0.10202819795E+01  0.10200078867E+01 0.  0.
     999903    2    3    3    0    0  0.19400131027E-01 -0.47481304188E-01 -0.12105002251E+00  0.13291433594E+00  0.19551813656E-01 0.  0.
         14    1    1    2    0    0 -0.93099358476E-02  0.18695919910E-01  0.11091282368E-01  0.23648020453E-01  0.00000000000E+00 0.  1.
     999901    1    3    3    0    0 -0.10090195179E-01  0.28785384278E-01  0.10995874014E+00  0.88736764361E+00  0.88000000000E+00 0.  1.
        -11    1    4    4    0    0  0.14721671561E-01 -0.14490638360E-01 -0.58481386998E-01  0.62024510960E-01  0.51100000000E-03 0.  1.
         11    1    4    4    0    0  0.46784594657E-02 -0.32990665828E-01 -0.62568635513E-01  0.70889824980E-01  0.51100000000E-03 0. -1.
</event>
<event>
 8    1  0.1118868E+005  0.1043930E+01  0.7957747E-01            NaN
         13   -1    0    0    0    0  0.00000000000E+00  0.00000000000E+00  0.74505805969E-08  0.10566000000E+00  0.10566000000E+00 0.  1.
     999900   -1    0    0    0    0 -0.00000000000E+00 -0.00000000000E+00 -0.74505805969E-08  0.93827000000E+00  0.93827000000E+00 0. -1.
     999902    2    1    2    0    0 -0.16214424211E-01 -0.13741475477E-01 -0.40730381803E-02  0.10222891742E+01  0.10220600914E+01 0.  0.
     999903    2    3    3    0    0  0.97843870985E-01  0.14617050839E-01  0.83335315862E-01  0.13018283466E+00  0.14687215707E-01 0.  0.
         14    1    1    2    0    0  0.16214424211E-01  0.13741475477E-01  0.40730381803E-02  0.21640825788E-01  0.00000000000E+00 0.  1.
     999901    1    3    3    0    0 -0.11405829520E+00 -0.28358526315E-01 -0.87408354042E-01  0.89210633955E+00  0.88000000000E+00 0. -1.
        -11    1    4    4    0    0  0.83600561171E-01  0.13640630355E-01  0.64121525109E-01  0.10624006649E+00  0.51100000000E-03 0.  1.
         11    1    4    4    0    0  0.14243309813E-01  0.97642048379E-03  0.19213790753E-01  0.23942768167E-01  0.51100000000E-03 0. -1.
</event>
<event>
 8    1  0.1118868E+005  0.1043930E+01  0.7957747E-01            NaN
         13   -1    0    0    0    0  0.00000000000E+00  0.00000000000E+00  0.74505805969E-08  0.10566000000E+00  0.10566000000E+00 0.  1.
     999900   -1    0    0    0    0 -0.00000000000E+00 -0.00000000000E+00 -0.74505805969E-08  0.93827000000E+00  0.93827000000E+00 0.  1.
     999902    2    1    2    0    0 -0.38394205096E-02  0.22747184530E-01  0.27421554820E-02  0.10206986640E+01  0.10204342545E+01 0.  0.
     999903    2    3    3    0    0 -0.40973856356E-01  0.20116736819E-01 -0.12138621631E+00  0.13120794556E+00  0.19934178274E-01 0.  0.
         14    1    1    2    0    0  0.38394205096E-02 -0.22747184530E-01 -0.27421554820E-02  0.23231335962E-01  0.00000000000E+00 0.  1.
     999901    1    3    3    0    0  0.37134435847E-01  0.26304477108E-02  0.12412837179E+00  0.88949071848E+00  0.88000000000E+00 0. -1.
        -11    1    4    4    0    0 -0.84504232197E-02  0.21728665125E-02 -0.49755282140E-01  0.50517128019E-01  0.51100000000E-03 0. -1.
         11    1    4    4    0    0 -0.32523433137E-01  0.17943870306E-01 -0.71630934166E-01  0.80690817539E-01  0.51100000000E-03 0.  1.
</event>
<event>
 8    1  0.1118868E+005  0.1043930E+01  0.7957747E-01            NaN
         13   -1    0    0    0    0  0.00000000000E+00  0.00000000000E+00  0.74505805969E-08  0.10566000000E+00  0.10566000000E+00 0.  1.
     999900   -1    0    0    0    0 -0.00000000000E+00 -0.00000000000E+00 -0.74505805969E-08  0.93827000000E+00  0.93827000000E+00 0.  1.
     999902    2    1    2    0    0  0.48980247936E-02  0.23162607261E-01  0.32943717547E-02  0.10200270732E+01  0.10197469687E+01 0.  0.
     999903    2    3    3    0    0  0.31079746323E-01 -0.52729267041E-01 -0.11175751940E+00  0.12891428758E+00  0.19565892893E-01 0.  0.
         14    1    1    2    0    0 -0.48980247936E-02 -0.23162607261E-01 -0.32943717547E-02  0.23902926751E-01  0.00000000000E+00 0. -1.
     999901    1    3    3    0    0 -0.26181721529E-01  0.75891874303E-01  0.11505189116E+00  0.89111278567E+00  0.88000000000E+00 0. -1.
        -11    1    4    4    0    0  0.20031314934E-01 -0.15843281946E-01 -0.49685229486E-01  0.55867220361E-01  0.51100000000E-03 0. -1.
         11    1    4    4    0    0  0.11048431389E-01 -0.36885985095E-01 -0.62072289916E-01  0.73047067217E-01  0.51100000000E-03 0.  1.
</event>
<event>
 8    1  0.1118868E+005  0.1043930E+01  0.7957747E-01            NaN
         13   -1    0    0    0    0  0.00000000000E+00  0.00000000000E+00  0.74505805969E-08  0.10566000000E+00  0.10566000000E+00 0.  1.
     999900   -1    0    0    0    0 -0.00000000000E+00 -0.00000000000E+00 -0.74505805969E-08  0.93827000000E+00  0.93827000000E+00 0.  1.
     999902    2    1    2    0    0  0.16429992755E-02  0.19628040653E-01 -0.15261938146E-01  0.10190124122E+01  0.10187077157E+01 0.  0.
     999903    2    3    3    0    0 -0.65225763732E-01 -0.36673046800E-01  0.10075706643E+00  0.12710341832E+00  0.20099251166E-01 0.  0.
         14    1    1    2    0    0 -0.16429992755E-02 -0.19628040653E-01  0.15261938146E-01  0.24917587814E-01  0.00000000000E+00 0.  1.
     999901    1    3    3    0    0  0.66868763007E-01  0.56301087453E-01 -0.11601900458E+00  0.89190899386E+00  0.88000000000E+00 0.  1.
        -11    1    4    4    0    0 -0.77660600360E-02 -0.92998311106E-02  0.27519445597E-01  0.30072903986E-01  0.51100000000E-03 0. -1.
         11    1    4    4    0    0 -0.57459703696E-01 -0.27373215689E-01  0.73237620832E-01  0.97030514335E-01  0.51100000000E-03 0.  1.
</event>
<event>
 8    1  0.1118868E+005  0.1043930E+01  0.7957747E-01            NaN
         13   -1    0    0    0    0  0.00000000000E+00  0.00000000000E+00  0.74505805969E-08  0.10566000000E+00  0.10566000000E+00 0. -1.
     999900   -1    0    0    0    0 -0.00000000000E+00 -0.00000000000E+00 -0.74505805969E-08  0.93827000000E+00  0.93827000000E+00 0.  1.
     999902    2    1    2    0    0  0.98903158031E-03  0.19172955992E-02 -0.22586339969E-01  0.10212408625E+01  0.10209887866E+01 0.  0.
     999903    2    3    3    0    0 -0.17595254673E-01 -0.10392408089E+00 -0.78891780286E-01  0.13291768075E+00  0.18258950792E-01 0.  0.
         14    1    1    2    0    0 -0.98903158031E-03 -0.19172955992E-02  0.22586339969E-01  0.22689137469E-01  0.00000000000E+00 0. -1.
     999901    1    3    3    0    0  0.18584286253E-01  0.10584137649E+00  0.56305440316E-01  0.88832318178E+00  0.88000000000E+00 0. -1.
        -11    1    4    4    0    0 -0.10877383273E-02 -0.67437046381E-02 -0.11911776308E-01  0.13740897450E-01  0.51100000000E-03 0.  1.
         11    1    4    4    0    0 -0.16507516346E-01 -0.97180376255E-01 -0.66980003977E-01  0.11917678330E+00  0.51100000000E-03 0. -1.
</event>
<event>
 8    1  0.1118868E+005  0.1043930E+01  0.7957747E-01            NaN
         13   -1    0    0    0    0  0.00000000000E+00  0.00000000000E+00  0.74505805969E-08  0.10566000000E+00  0.10566000000E+00 0. -1.
     999900   -1    0    0    0    0 -0.00000000000E+00 -0.00000000000E+00 -0.74505805969E-08  0.93827000000E+00  0.93827000000E+00 0.  1.
     999902    2    1    2    0    0 -0.27983779740E-02  0.19083756797E-01 -0.14091612436E-01  0.10200428856E+01  0.10197631560E+01 0.  0.
     999903    2    3    3    0    0  0.51674255381E-01  0.78675479168E-01 -0.91701326061E-01  0.13294553537E+00  0.20132622320E-01 0.  0.
         14    1    1    2    0    0  0.27983779740E-02 -0.19083756797E-01  0.14091612436E-01  0.23887114389E-01  0.00000000000E+00 0. -1.
     999901    1    3    3    0    0 -0.54472633355E-01 -0.59591722371E-01  0.77609713625E-01  0.88709735024E+00  0.88000000000E+00 0. -1.
        -11    1    4    4    0    0  0.30509018832E-01  0.47830816355E-01 -0.41291906140E-01  0.70170291840E-01  0.51100000000E-03 0. -1.
         11    1    4    4    0    0  0.21165236550E-01  0.30844662813E-01 -0.50409419921E-01  0.62775243528E-01  0.51100000000E-03 0.  1.
</event>
<event>
 8    1  0.1118868E+005  0.1043930E+01  0.7957747E-01            NaN
         13   -1    0    0    0    0  0.00000000000E+00  0.00000000000E+00  0.74505805969E-08  0.10566000000E+00  0.10566000000E+00 0. -1.
     999900   -1    0    0    0    0 -0.00000000000E+00 -0.00000000000E+00 -0.74505805969E-08  0.93827000000E+00  0.93827000000E+00 0. -1.
     999902    2    1    2    0    0 -0.23646423206E-02  0.19755215818E-01 -0.11968331370E-01  0.10207114505E+01  0.10204473353E+01 0.  0.
     999903    2    3    3    0    0 -0.53033154704E-01  0.11791966604E+00 -0.27602031945E-01  0.13366693638E+00  0.19682849794E-01 0.  0.
         14    1    1    2    0    0  0.23646423206E-02 -0.19755215818E-01  0.11968331370E-01  0.23218549505E-01  0.00000000000E+00 0. -1.
     999901    1    3    3    0    0  0.50668512383E-01 -0.98164450221E-01  0.15633700575E-01  0.88704451412E+00  0.88000000000E+00 0.  1.
        -11    1    4    4    0    0 -0.14218230955E-01  0.22665291416E-01  0.13963640178E-02  0.26797098349E-01  0.51100000000E-03 0.  1.
         11    1    4    4    0    0 -0.38814923749E-01  0.95254374623E-01 -0.28998395962E-01  0.10686983803E+00  0.51100000000E-03 0. -1.
</event>
<event>
 8    1  0.1118868E+005  0.1043930E+01  0.7957747E-01            NaN
         13   -1    0    0    0    0  0.00000000000E+00  0.00000000000E+00  0.74505805969E-08  0.10566000000E+00  0.10566000000E+00 0.  1.
     999900   -1    0    0    0    0 -0.00000000000E+00 -0.00000000000E+00 -0.74505805969E-08  0.93827000000E+00  0.93827000000E+00 0. -1.
     999902    2    1    2    0    0  0.17254192925E-01  0.14537182583E-01 -0.74804587884E-02  0.10201603952E+01  0.10198834432E+01 0.  0.
     999903    2    3    3    0    0  0.92100382312E-01 -0.23240343544E-01  0.88036671150E-01  0.13103013717E+00  0.19895913895E-01 0.  0.
         14    1    1    2    0    0 -0.17254192925E-01 -0.14537182583E-01  0.74804587884E-02  0.23769604848E-01  0.00000000000E+00 0. -1.
     999901    1    3    3    0    0 -0.74846189387E-01  0.37777526127E-01 -0.95517129939E-01  0.88913025798E+00  0.88000000000E+00 0. -1.
        -11    1    4    4    0    0  0.24891816821E-01 -0.45540613941E-02  0.35968837709E-01  0.43981364542E-01  0.51100000000E-03 0.  1.
         11    1    4    4    0    0  0.67208565491E-01 -0.18686282150E-01  0.52067833442E-01  0.87048772629E-01  0.51100000000E-03 0. -1.
</event>
<event>
 8    1  0.1118868E+005  0.1043930E+01  0.7957747E-01            NaN
         13   -1    0    0    0    0  0.00000000000E+00  0.00000000000E+00  0.74505805969E-08  0.10566000000E+00  0.10566000000E+00 0.  1.
     999900   -1    0    0    0    0 -0.00000000000E+00 -0.00000000000E+00 -0.74505805969E-08  0.93827000000E+00  0.93827000000E+00 0. -1.
     999902    2    1    2    0    0  0.16301854249E-01 -0.38725972870E-02  0.16561984060E-01  0.10203705692E+01  0.10200985500E+01 0.  0.
     999903    2    3    3    0    0  0.11879445700E+00  0.46560275390E-01 -0.27006104181E-01  0.13191888987E+00  0.19831328344E-01 0.  0.
         14    1    1    2    0    0 -0.16301854249E-01  0.38725972870E-02 -0.16561984060E-01  0.23559430759E-01  0.00000000000E+00 0. -1.
     999901    1    3    3    0    0 -0.10249260275E+00 -0.50432872677E-01  0.43568088241E-01  0.88845167937E+00  0.88000000000E+00 0.  1.
        -11    1    4    4    0    0  0.20578661121E-01  0.16189625104E-01 -0.31101029554E-02  0.26372696410E-01  0.51100000000E-03 0. -1.
         11    1    4    4    0    0  0.98215795876E-01  0.30370650287E-01 -0.23896001225E-01  0.10554619346E+00  0.51100000000E-03 0.  1.
</event>
<event>
 8    1  0.1118868E+005  0.1043930E+01  0.7957747E-01            NaN
         13   -1    0    0    0    0  0.00000000000E+00  0.00000000000E+00  0.74505805969E-08  0.10566000000E+00  0.10566000000E+00 0. -1.
     999900   -1    0    0    0    0 -0.00000000000E+00 -0.00000000000E+00 -0.74505805969E-08  0.93827000000E+00  0.93827000000E+00 0. -1.
     999902    2    1    2    0    0 -0.28564159664E-02 -0.22959352161E-01  0.39468204458E-02  0.10204594151E+01  0.10201894675E+01 0.  0.
     999903    2    3    3    0    0  0.61169023046E-01  0.15562066038E-01 -0.11130483281E+00  0.12980454363E+00  0.21831776359E-01 0.  0.
         14    1    1    2    0    0  0.28564159664E-02  0.22959352161E-01 -0.39468204458E-02  0.23470584899E-01  0.00000000000E+00 0. -1.
     999901    1    3    3    0    0 -0.64025439012E-01 -0.38521418200E-01  0.11525165326E+00  0.89065487147E+00  0.88000000000E+00 0.  1.
        -11    1    4    4    0    0  0.33465028623E-01 -0.23453967911E-02 -0.61658947237E-01  0.70196124696E-01  0.51100000000E-03 0. -1.
         11    1    4    4    0    0  0.27703994422E-01  0.17907462829E-01 -0.49645885576E-01  0.59608418932E-01  0.51100000000E-03 0.  1.
</event>
<event>
 8    1  0.1118868E+005  0.1043930E+01  0.7957747E-01            NaN
         13   -1    0    0    0    0  0.00000000000E+00  0.00000000000E+00  0.74505805969E-08  0.10566000000E+00  0.10566000000E+00 0.  1.
     999900   -1    0    0    0    0 -0.00000000000E+00 -0.00000000000E+00 -0.74505805969E-08  0.93827000000E+00  0.93827000000E+00 0. -1.
     999902    2    1    2    0    0 -0.19672564707E-01 -0.10094777232E-01 -0.86873545358E-02  0.10201732229E+01  0.10198965733E+01 0.  0.
     999903    2    3    3    0    0  0.83408175815E-02 -0.25774574413E-01  0.12501131560E+00  0.12949598617E+00  0.20186220088E-01 0.  0.
         14    1    1    2    0    0  0.19672564707E-01  0.10094777232E-01  0.86873545358E-02  0.23756777104E-01  0.00000000000E+00 0.  1.
     999901    1    3    3    0    0 -0.28013382289E-01  0.15679797181E-01 -0.13369867014E+00  0.89067723673E+00  0.88000000000E+00 0. -1.
        -11    1    4    4    0    0  0.14697896732E-02 -0.19840307432E-01  0.48179773307E-01  0.52128205010E-01  0.51100000000E-03 0. -1.
         11    1    4    4    0    0  0.68710279083E-02 -0.59342669811E-02  0.76831542294E-01  0.77367781159E-01  0.51100000000E-03 0.  1.
</event>
<event>
 8    1  0.1118868E+005  0.1043930E+01  0.7957747E-01            NaN
         13   -1    0    0    0    0  0.00000000000E+00  0.00000000000E+00  0.74505805969E-08  0.10566000000E+00  0.10566000000E+00 0.  1.
     999900   -1    0    0    0    0 -0.00000000000E+00 -0.00000000000E+00 -0.74505805969E-08  0.93827000000E+00  0.93827000000E+00 0.  1.
     999902    2    1    2    0    0 -0.15938996305E-01 -0.70713621893E-02 -0.17122460456E-01  0.10194916200E+01  0.10191986699E+01 0.  0.
     999903    2    3    3    0    0 -0.25570447476E-01  0.31069811544E-01 -0.12437666575E+00  0.13210727340E+00  0.19068186317E-01 0.  0.
         14    1    1    2    0    0  0.15938996305E-01  0.70713621893E-02  0.17122460456E-01  0.24438380030E-01  0.00000000000E+00 0.  1.
     999901    1    3    3    0    0  0.96314511707E-02 -0.38141173734E-01  0.10725420529E+00  0.88738434657E+00  0.88000000000E+00 0. -1.
        -11    1    4    4    0    0 -0.62209023409E-02  0.21126935135E-01 -0.74533697019E-01  0.77721169101E-01  0.51100000000E-03 0. -1.
         11    1    4    4    0    0 -0.19349545135E-01  0.99428764099E-02 -0.49842968727E-01  0.54386104299E-01  0.51100000000E-03 0.  1.
</event>
<event>
 8    1  0.1118868E+005  0.1043930E+01  0.7957747E-01            NaN
         13   -1    0    0    0    0  0.00000000000E+00  0.00000000000E+00  0.74505805969E-08  0.10566000000E+00  0.10566000000E+00 0. -1.
     999900   -1    0    0    0    0 -0.00000000000E+00 -0.00000000000E+00 -0.74505805969E-08  0.93827000000E+00  0.93827000000E+00 0. -1.
     999902    2    1    2    0    0  0.64836867656E-02 -0.60181619099E-02 -0.21968048676E-01  0.10202476937E+01  0.10199727962E+01 0.  0.
     999903    2    3    3    0    0 -0.79773576339E-01 -0.80225794345E-01  0.59201484975E-01  0.12921706501E+00  0.19804860688E-01 0.  0.
         14    1    1    2    0    0 -0.64836867656E-02  0.60181619099E-02  0.21968048676E-01  0.23682306253E-01  0.00000000000E+00 0. -1.
     999901    1    3    3    0    0  0.86257263105E-01  0.74207632435E-01 -0.81169533651E-01  0.89103062873E+00  0.88000000000E+00 0. -1.
        -11    1    4    4    0    0 -0.12492394430E-01 -0.23079722041E-01  0.95267564351E-02  0.27924070213E-01  0.51100000000E-03 0.  1.
         11    1    4    4    0    0 -0.67281181909E-01 -0.57146072304E-01  0.49674728540E-01  0.10129299480E+00  0.51100000000E-03 0. -1.
</event>
<event>
 8    1  0.1118868E+005  0.1043930E+01  0.7957747E-01            NaN
         13   -1    0    0    0    0  0.00000000000E+00  0.00000000000E+00  0.74505805969E-08  0.10566000000E+00  0.10566000000E+00 0.  1.
     999900   -1    0    0    0    0 -0.00000000000E+00 -0.00000000000E+00 -0.74505805969E-08  0.93827000000E+00  0.93827000000E+00 0.  1.
     999902    2    1    2    0    0  0.54438337631E-02 -0.19726773541E-01 -0.10288422070E-01  0.10210251414E+01  0.10207681944E+01 0.  0.
     999903    2    3    3    0    0  0.13057318878E-01 -0.13110781416E+00  0.11093852644E-01  0.13371408934E+00  0.19915612271E-01 0.  0.
         14    1    1    2    0    0 -0.54438337631E-02  0.19726773541E-01  0.10288422070E-01  0.22904858635E-01  0.00000000000E+00 0.  1.
     999901    1    3    3    0    0 -0.76134851150E-02  0.11138104062E+00 -0.21382274714E-01  0.88731105202E+00  0.88000000000E+00 0. -1.
        -11    1    4    4    0    0 -0.22309524858E-02 -0.17347577879E-01  0.70323768269E-02  0.18858182630E-01  0.51100000000E-03 0.  1.
         11    1    4    4    0    0  0.15288271364E-01 -0.11376023628E+00  0.40614758173E-02  0.11485590672E+00  0.51100000000E-03 0. -1.
</event>
<event>
 8    1  0.1118868E+005  0.1043930E+01  0.7957747E-01            NaN
         13   -1    0    0    0    0  0.00000000000E+00  0.00000000000E+00  0.74505805969E-08  0.10566000000E+00  0.10566000000E+00 0. -1.
     999900   -1    0    0    0    0 -0.00000000000E+00 -0.00000000000E+00 -0.74505805969E-08  0.93827000000E+00  0.93827000000E+00 0.  1.
     999902    2    1    2    0    0  0.22011753977E-01  0.13269139063E-01 -0.14722585745E-01  0.10143100423E+01  0.10138774679E+01 0.  0.
     999903    2    3    3    0    0  0.11482248133E+00 -0.36855212387E-01 -0.37014117364E-01  0.12773055114E+00  0.20063397291E-01 0.  0.
         14    1    1    2    0    0 -0.22011753977E-01 -0.13269139063E-01  0.14722585745E-01  0.29619957725E-01  0.00000000000E+00 0.  1.
     999901    1    3    3    0    0 -0.92810727354E-01  0.50124351450E-01  0.22291531619E-01  0.88657949114E+00  0.88000000000E+00 0. -1.
        -11    1    4    4    0    0  0.36603536321E-01 -0.87919749923E-02 -0.20967404703E-01  0.43093049051E-01  0.51100000000E-03 0.  1.
         11    1    4    4    0    0  0.78218945010E-01 -0.28063237394E-01 -0.16046712661E-01  0.84637502088E-01  0.51100000000E-03 0. -1.
</event>
<event>
 8    1  0.1269483E+005  0.1043930E+01  0.7957747E-01            NaN
         13   -1    0    0    0    0  0.00000000000E+00  0.00000000000E+00  0.74505805969E-08  0.10566000000E+00  0.10566000000E+00 0. -1.
     999900   -1    0    0    0    0 -0.00000000000E+00 -0.00000000000E+00 -0.74505805969E-08  0.93827000000E+00  0.93827000000E+00 0.  1.
     999902    2    1    2    0    0  0.20013890905E-01  0.59904024232E-03  0.12431334409E-01  0.10203619548E+01  0.10200897343E+01 0.  0.
     999903    2    3    3    0    0 -0.69641701217E-01 -0.10493144415E+00 -0.19683440876E-01  0.12895510768E+00  0.19529655185E-01 0.  0.
         14    1    1    2    0    0 -0.20013890905E-01 -0.59904024232E-03 -0.12431334409E-01  0.23568045179E-01  0.00000000000E+00 0.  1.
     999901    1    3    3    0    0  0.89655592122E-01  0.10553048440E+00  0.32114775286E-01  0.89140684714E+00  0.88000000000E+00 0.  1.
        -11    1    4    4    0    0 -0.43666476811E-01 -0.48188496359E-01 -0.10572435376E-01  0.65885733579E-01  0.51100000000E-03 0.  1.
         11    1    4    4    0    0 -0.25975224405E-01 -0.56742947796E-01 -0.91110055005E-02  0.63069374103E-01  0.51100000000E-03 0. -1.
</event>
<event>
 8    1  0.1118868E+005  0.1043930E+01  0.7957747E-01            NaN
         13   -1    0    0    0    0  0.00000000000E+00  0.00000000000E+00  0.74505805969E-08  0.10566000000E+00  0.10566000000E+00 0. -1.
     999900   -1    0    0    0    0 -0.00000000000E+00 -0.00000000000E+00 -0.74505805969E-08  0.93827000000E+00  0.93827000000E+00 0. -1.
     999902    2    1    2    0    0 -0.21115059990E-01 -0.98662189672E-02  0.50640202525E-02  0.10200797938E+01  0.10198009381E+01 0.  0.
     999903    2    3    3    0    0  0.70745228099E-01 -0.99898144807E-01 -0.37930703294E-01  0.12969077406E+00  0.19910599944E-01 0.  0.
         14    1    1    2    0    0  0.21115059990E-01  0.98662189672E-02 -0.50640202525E-02  0.23850206209E-01  0.00000000000E+00 0. -1.
     999901    1    3    3    0    0 -0.91860288089E-01  0.90031925840E-01  0.42994723546E-01  0.89038901973E+00  0.88000000000E+00 0. -1.
        -11    1    4    4    0    0  0.60759337507E-01 -0.73713666002E-01 -0.33945187515E-01  0.10138016831E+00  0.51100000000E-03 0. -1.
         11    1    4    4    0    0  0.99858905915E-02 -0.26184478805E-01 -0.39855157786E-02  0.28310605755E-01  0.51100000000E-03 0.  1.
</event>
<event>
 8    1  0.1118868E+005  0.1043930E+01  0.7957747E-01            NaN
         13   -1    0    0    0    0  0.00000000000E+00  0.00000000000E+00  0.74505805969E-08  0.10566000000E+00  0.10566000000E+00 0.  1.
     999900   -1    0    0    0    0 -0.00000000000E+00 -0.00000000000E+00 -0.74505805969E-08  0.93827000000E+00  0.93827000000E+00 0.  1.
     999902    2    1    2    0    0  0.12555170463E-01 -0.16875062287E-01  0.10842860771E-01  0.10202663641E+01  0.10199919049E+01 0.  0.
     999903    2    3    3    0    0  0.10543836187E+00  0.34747529011E-01  0.68541845265E-01  0.13199762553E+00  0.20018732912E-01 0.  0.
         14    1    1    2    0    0 -0.12555170463E-01  0.16875062287E-01 -0.10842860771E-01  0.23663635863E-01  0.00000000000E+00 0. -1.
     999901    1    3    3    0    0 -0.92883191403E-01 -0.51622591298E-01 -0.57698984493E-01  0.88826873861E+00  0.88000000000E+00 0.  1.
        -11    1    4    4    0    0  0.31271076678E-01  0.74014664742E-02  0.10094343824E-01  0.33687072310E-01  0.51100000000E-03 0.  1.
         11    1    4    4    0    0  0.74167285188E-01  0.27346062536E-01  0.58447501441E-01  0.98310553218E-01  0.51100000000E-03 0. -1.
</event>
<event>
 8    1  0.1118868E+005  0.1043930E+01  0.7957747E-01            NaN
         13   -1    0    0    0    0  0.00000000000E+00  0.00000000000E+00  0.74505805969E-08  0.10566000000E+00  0.10566000000E+00 0.  1.
     999900   -1    0    0    0    0 -0.00000000000E+00 -0.00000000000E+00 -0.74505805969E-08  0.93827000000E+00  0.93827000000E+00 0. -1.
     999902    2    1    2    0    0 -0.45040492052E-02  0.13873701472E-01 -0.18923449404E-01  0.10200372607E+01  0.10197573978E+01 0.  0.
     999903    2    3    3    0    0  0.36115161296E-01 -0.34670774000E-01 -0.11828794989E+00  0.13218603992E+00  0.31220868291E-01 0.  0.
         14    1    1    2    0    0  0.45040492052E-02 -0.13873701472E-01  0.18923449404E-01  0.23892739256E-01  0.00000000000E+00 0.  1.
     999901    1    3    3    0    0 -0.40619210501E-01  0.48544475472E-01  0.99364500481E-01  0.88785122082E+00  0.88000000000E+00 0.  1.
        -11    1    4    4    0    0  0.20597994665E-01 -0.30553598842E-01 -0.10519618380E+00  0.11146433507E+00  0.51100000000E-03 0. -1.
         11    1    4    4    0    0  0.15517166632E-01 -0.41171751579E-02 -0.13091766085E-01  0.20721704848E-01  0.51100000000E-03 0.  1.
</event>
<event>
 8    1  0.1118868E+005  0.1043930E+01  0.7957747E-01            NaN
         13   -1    0    0    0    0  0.00000000000E+00  0.00000000000E+00  0.74505805969E-08  0.10566000000E+00  0.10566000000E+00 0.  1.
     999900   -1    0    0    0    0 -0.00000000000E+00 -0.00000000000E+00 -0.74505805969E-08  0.93827000000E+00  0.93827000000E+00 0.  1.
     999902    2    1    2    0    0 -0.28610223746E-02  0.22261658334E-01  0.16465268719E-01  0.10160934780E+01  0.10157121069E+01 0.  0.
     999903    2    3    3    0    0 -0.45572204061E-01 -0.11353952620E+00  0.11162800989E-01  0.12463718471E+00  0.21018322802E-01 0.  0.
         14    1    1    2    0    0  0.28610223746E-02 -0.22261658334E-01 -0.16465268719E-01  0.27836521959E-01  0.00000000000E+00 0. -1.
     999901    1    3    3    0    0  0.42711181686E-01  0.13580118453E+00  0.53024677297E-02  0.89145629333E+00  0.88000000000E+00 0. -1.
        -11    1    4    4    0    0 -0.22485164495E-01 -0.31626119053E-01  0.46233588434E-04  0.38807953918E-01  0.51100000000E-03 0.  1.
         11    1    4    4    0    0 -0.23087039565E-01 -0.81913407145E-01  0.11116567401E-01  0.85829230789E-01  0.51100000000E-03 0. -1.
</event>
<event>
 8    1  0.1118868E+005  0.1043930E+01  0.7957747E-01            NaN
         13   -1    0    0    0    0  0.00000000000E+00  0.00000000000E+00  0.74505805969E-08  0.10566000000E+00  0.10566000000E+00 0.  1.
     999900   -1    0    0    0    0 -0.00000000000E+00 -0.00000000000E+00 -0.74505805969E-08  0.93827000000E+00  0.93827000000E+00 0. -1.
     999902    2    1    2    0    0 -0.27591673301E-02  0.73233804462E-02 -0.22575675805E-01  0.10200363598E+01  0.10197564754E+01 0.  0.
     999903    2    3    3    0    0  0.11024858520E+00 -0.53642713952E-01  0.34443704404E-01  0.12889168772E+00  0.19859685098E-01 0.  0.
         14    1    1    2    0    0  0.27591673301E-02 -0.73233804462E-02  0.22575675805E-01  0.23893640233E-01  0.00000000000E+00 0.  1.
     999901    1    3    3    0    0 -0.11300775253E+00  0.60966094399E-01 -0.57019380209E-01  0.89114467205E+00  0.88000000000E+00 0. -1.
        -11    1    4    4    0    0  0.30945414980E-01 -0.22616951363E-01  0.43771058752E-02  0.38581930668E-01  0.51100000000E-03 0.  1.
         11    1    4    4    0    0  0.79303170217E-01 -0.31025762589E-01  0.30066598529E-01  0.90309757052E-01  0.51100000000E-03 0. -1.
</event>
<event>
 8    1  0.1118868E+005  0.1043930E+01  0.7957747E-01            NaN
         13   -1    0    0    0    0  0.00000000000E+00  0.00000000000E+00  0.74505805969E-08  0.10566000000E+00  0.10566000000E+00 0. -1.
     999900   -1    0    0    0    0 -0.00000000000E+00 -0.00000000000E+00 -0.74505805969E-08  0.93827000000E+00  0.93827000000E+00 0. -1.
     999902    2    1    2    0    0  0.14241604832E-02  0.21286286595E-01 -0.10611060680E-01  0.10201029389E+01  0.10198246306E+01 0.  0.
     999903    2    3    3    0    0 -0.62968030153E-01 -0.61443210629E-01  0.91081925094E-01  0.12806483029E+00  0.19090383041E-01 0.  0.
         14    1    1    2    0    0 -0.14241604832E-02 -0.21286286595E-01  0.10611060680E-01  0.23827061062E-01  0.00000000000E+00 0. -1.
     999901    1    3    3    0    0  0.64392190636E-01  0.82729497224E-01 -0.10169298577E+00  0.89203810865E+00  0.88000000000E+00 0. -1.
        -11    1    4    4    0    0 -0.51560263620E-01 -0.40149130022E-01  0.60188368947E-01  0.88844326232E-01  0.51100000000E-03 0. -1.
         11    1    4    4    0    0 -0.11407766532E-01 -0.21294080607E-01  0.30893556146E-01  0.39220504057E-01  0.51100000000E-03 0.  1.
</event>
<event>
 8    1  0.1118868E+005  0.1043930E+01  0.7957747E-01            NaN
         13   -1    0    0    0    0  0.00000000000E+00  0.00000000000E+00  0.74505805969E-08  0.10566000000E+00  0.10566000000E+00 0. -1.
     999900   -1    0    0    0    0 -0.00000000000E+00 -0.00000000000E+00 -0.74505805969E-08  0.93827000000E+00  0.93827000000E+00 0. -1.
     999902    2    1    2    0    0  0.21284742179E-01  0.19219639476E-02  0.11060668843E-01  0.10198660728E+01  0.10195821369E+01 0.  0.
     999903    2    3    3    0    0  0.25226389433E-01  0.90141268436E-01  0.89572930867E-01  0.13196835488E+00  0.25110112450E-01 0.  0.
         14    1    1    2    0    0 -0.21284742179E-01 -0.19219639476E-02 -0.11060668843E-01  0.24063927159E-01  0.00000000000E+00 0.  1.
     999901    1    3    3    0    0 -0.39416472543E-02 -0.88219304489E-01 -0.78512262025E-01  0.88789771796E+00  0.88000000000E+00 0. -1.
        -11    1    4    4    0    0  0.62526459255E-02  0.63584288992E-01  0.64686330224E-01  0.90921063712E-01  0.51100000000E-03 0.  1.
         11    1    4    4    0    0  0.18973743508E-01  0.26556979445E-01  0.24886600644E-01  0.41047291172E-01  0.51100000000E-03 0. -1.
</event>
<event>
 8    1  0.1118868E+005  0.1043930E+01  0.7957747E-01            NaN
         13   -1    0    0    0    0  0.00000000000E+00  0.00000000000E+00  0.74505805969E-08  0.10566000000E+00  0.10566000000E+00 0. -1.
     999900   -1    0    0    0    0 -0.00000000000E+00 -0.00000000000E+00 -0.74505805969E-08  0.93827000000E+00  0.93827000000E+00 0. -1.
     999902    2    1    2    0    0 -0.20190564235E-01 -0.95618462599E-02  0.73214793651E-02  0.10204206009E+01  0.10201497492E+01 0.  0.
     999903    2    3    3    0    0  0.54586603988E-03 -0.72639625084E-01 -0.10654643645E+00  0.13060336795E+00  0.20695011405E-01 0.  0.
         14    1    1    2    0    0  0.20190564235E-01  0.95618462599E-02 -0.73214793651E-02  0.23509399144E-01  0.00000000000E+00 0.  1.
     999901    1    3    3    0    0 -0.20736430275E-01  0.63077778824E-01  0.11386791582E+00  0.88981723291E+00  0.88000000000E+00 0.  1.
        -11    1    4    4    0    0 -0.47868710088E-02 -0.12639892998E-01 -0.10059607799E-01  0.16856389268E-01  0.51100000000E-03 0.  1.
         11    1    4    4    0    0  0.53327370486E-02 -0.59999732085E-01 -0.96486828654E-01  0.11374697868E+00  0.51100000000E-03 0. -1.
</event>
<event>
 8    1  0.1118868E+005  0.1043930E+01  0.7957747E-01            NaN
         13   -1    0    0    0    0  0.00000000000E+00  0.00000000000E+00  0.74505805969E-08  0.10566000000E+00  0.10566000000E+00 0. -1.
     999900   -1    0    0    0    0 -0.00000000000E+00 -0.00000000000E+00 -0.74505805969E-08  0.93827000000E+00  0.93827000000E+00 0. -1.
     999902    2    1    2    0    0 -0.16660023881E-01  0.14961495339E-01 -0.19957663490E-02  0.10214492122E+01  0.10212017955E+01 0.  0.
     999903    2    3    3    0    0  0.44977732428E-01  0.61982460245E-01 -0.10538792408E+00  0.13201111852E+00  0.21342424390E-01 0.  0.
         14    1    1    2    0    0  0.16660023881E-01 -0.14961495339E-01  0.19957663490E-02  0.22480787838E-01  0.00000000000E+00 0.  1.
     999901    1    3    3    0    0 -0.61637756309E-01 -0.47020964906E-01  0.10339215773E+00  0.88943809364E+00  0.88000000000E+00 0.  1.
        -11    1    4    4    0    0  0.16112031245E-01  0.40268007940E-01 -0.57206933563E-01  0.71791394909E-01  0.51100000000E-03 0.  1.
         11    1    4    4    0    0  0.28865701183E-01  0.21714452305E-01 -0.48180990514E-01  0.60219723610E-01  0.51100000000E-03 0. -1.
</event>
<event>
 8    1  0.1118868E+005  0.1043930E+01  0.7957747E-01            NaN
         13   -1    0    0    0    0  0.00000000000E+00  0.00000000000E+00  0.74505805969E-08  0.10566000000E+00  0.10566000000E+00 0.  1.
     999900   -1    0    0    0    0 -0.00000000000E+00 -0.00000000000E+00 -0.74505805969E-08  0.93827000000E+00  0.93827000000E+00 0.  1.
     999902    2    1    2    0    0 -0.74667088129E-03  0.23719833219E-01 -0.27014770513E-02  0.10200451516E+01  0.10197654756E+01 0.  0.
     999903    2    3    3    0    0  0.58397685376E-01 -0.71616264260E-01 -0.87529139186E-01  0.12887583063E+00  0.20210159566E-01 0.  0.
         14    1    1    2    0    0  0.74667088129E-03 -0.23719833219E-01  0.27014770513E-02  0.23884848410E-01  0.00000000000E+00 0. -1.
     999901    1    3    3    0    0 -0.59144356257E-01  0.95336097479E-01  0.84827662134E-01  0.89116932096E+00  0.88000000000E+00 0. -1.
        -11    1    4    4    0    0  0.36047879642E-01 -0.42177655897E-01 -0.38770428370E-01  0.67689079774E-01  0.51100000000E-03 0. -1.
         11    1    4    4    0    0  0.22349805734E-01 -0.29438608363E-01 -0.48758710816E-01  0.61186750854E-01  0.51100000000E-03 0.  1.
</event>
<event>
 8    1  0.1118868E+005  0.1043930E+01  0.7957747E-01            NaN
         13   -1    0    0    0    0  0.00000000000E+00  0.00000000000E+00  0.74505805969E-08  0.10566000000E+00  0.10566000000E+00 0. -1.
     999900   -1    0    0    0    0 -0.00000000000E+00 -0.00000000000E+00 -0.74505805969E-08  0.93827000000E+00  0.93827000000E+00 0. -1.
     999902    2    1    2    0    0  0.16312163132E-01 -0.61836467679E-02 -0.16541035304E-01  0.10198898252E+01  0.10196064563E+01 0.  0.
     999903    2    3    3    0    0  0.23135194188E-01 -0.12466868499E+00  0.24695097337E-01  0.13096593836E+00  0.21557155448E-01 0.  0.
         14    1    1    2    0    0 -0.16312163132E-01  0.61836467679E-02  0.16541035304E-01  0.24040174757E-01  0.00000000000E+00 0. -1.
     999901    1    3    3    0    0 -0.68230310556E-02  0.11848503822E+00 -0.41236132641E-01  0.88892388688E+00  0.88000000000E+00 0. -1.
        -11    1    4    4    0    0  0.89057028168E-02 -0.63505025462E-01  0.23050268084E-01  0.68145255017E-01  0.51100000000E-03 0. -1.
         11    1    4    4    0    0  0.14229491371E-01 -0.61163659528E-01  0.16448292532E-02  0.62820683344E-01  0.51100000000E-03 0.  1.
</event>
<event>
 8    1  0.1118868E+005  0.1043930E+01  0.7957747E-01            NaN
         13   -1    0    0    0    0  0.00000000000E+00  0.00000000000E+00  0.74505805969E-08  0.10566000000E+00  0.10566000000E+00 0.  1.
     999900   -1    0    0    0    0 -0.00000000000E+00 -0.00000000000E+00 -0.74505805969E-08  0.93827000000E+00  0.93827000000E+00 0.  1.
     999902    2    1    2    0    0  0.61877640926E-02 -0.10260480260E-01 -0.19952892929E-01  0.10206558982E+01  0.10203905030E+01 0.  0.
     999903    2    3    3    0    0 -0.15246018123E-01 -0.86184105993E-01 -0.99088229821E-01  0.13358983214E+00  0.19173543420E-01 0.  0.
         14    1    1    2    0    0 -0.61877640926E-02  0.10260480260E-01  0.19952892929E-01  0.23274101827E-01  0.00000000000E+00 0.  1.
     999901    1    3    3    0    0  0.21433782215E-01  0.75923625733E-01  0.79135336892E-01  0.88706606603E+00  0.88000000000E+00 0. -1.
        -11    1    4    4    0    0 -0.18772328019E-01 -0.72182836187E-01 -0.88138294292E-01  0.11546160479E+00  0.51100000000E-03 0. -1.
         11    1    4    4    0    0  0.35263098962E-02 -0.14001269806E-01 -0.10949935529E-01  0.18128227347E-01  0.51100000000E-03 0.  1.
</event>
<event>
 8    1  0.1118868E+005  0.1043930E+01  0.7957747E-01            NaN
         13   -1    0    0    0    0  0.00000000000E+00  0.00000000000E+00  0.74505805969E-08  0.10566000000E+00  0.10566000000E+00 0. -1.
     999900   -1    0    0    0    0 -0.00000000000E+00 -0.00000000000E+00 -0.74505805969E-08  0.93827000000E+00  0.93827000000E+00 0. -1.
     999902    2    1    2    0    0 -0.43048448355E-02  0.22471682845E-01  0.58118537380E-02  0.10203230971E+01  0.10200499677E+01 0.  0.
     999903    2    3    3    0    0  0.10421470119E+00 -0.36028503854E-01  0.65243809378E-01  0.12974411632E+00  0.20445635829E-01 0.  0.
         14    1    1    2    0    0  0.43048448355E-02 -0.22471682845E-01 -0.58118537380E-02  0.23606902863E-01  0.00000000000E+00 0. -1.
     999901    1    3    3    0    0 -0.10851954603E+00  0.58500186698E-01 -0.59431955640E-01  0.89057898081E+00  0.88000000000E+00 0. -1.
        -11    1    4    4    0    0  0.94441374423E-01 -0.26210658119E-01  0.54059638763E-01  0.11193246833E+00  0.51100000000E-03 0.  1.
         11    1    4    4    0    0  0.97733267671E-02 -0.98178457344E-02  0.11184170616E-01  0.17811647996E-01  0.51100000000E-03 0. -1.
</event>
<event>
 8    1  0.1118868E+005  0.1043930E+01  0.7957747E-01            NaN
         13   -1    0    0    0    0  0.00000000000E+00  0.00000000000E+00  0.74505805969E-08  0.10566000000E+00  0.10566000000E+00 0.  1.
     999900   -1    0    0    0    0 -0.00000000000E+00 -0.00000000000E+00 -0.74505805969E-08  0.93827000000E+00  0.93827000000E+00 0. -1.
     999902    2    1    2    0    0  0.12489953671E-01  0.18050132932E-01 -0.85683639185E-02  0.10203668274E+01  0.10200947208E+01 0.  0.
     999903    2    3    3    0    0  0.57468039414E-01 -0.26236413627E-01 -0.11397415941E+00  0.13183168005E+00  0.19963914893E-01 0.  0.
         14    1    1    2    0    0 -0.12489953671E-01 -0.18050132932E-01  0.85683639185E-02  0.23563172575E-01  0.00000000000E+00 0.  1.
     999901    1    3    3    0    0 -0.44978085743E-01  0.44286546559E-01  0.10540579549E+00  0.88853514738E+00  0.88000000000E+00 0.  1.
        -11    1    4    4    0    0  0.49145151513E-01 -0.22810729858E-01 -0.79572447818E-01  0.96268431413E-01  0.51100000000E-03 0. -1.
         11    1    4    4    0    0  0.83228879003E-02 -0.34256837684E-02 -0.34401711588E-01  0.35563248634E-01  0.51100000000E-03 0.  1.
</event>
<event>
 8    1  0.1118868E+005  0.1043930E+01  0.7957747E-01            NaN
         13   -1    0    0    0    0  0.00000000000E+00  0.00000000000E+00  0.74505805969E-08  0.10566000000E+00  0.10566000000E+00 0. -1.
     999900   -1    0    0    0    0 -0.00000000000E+00 -0.00000000000E+00 -0.74505805969E-08  0.93827000000E+00  0.93827000000E+00 0. -1.
     999902    2    1    2    0    0  0.10724511540E-01 -0.12295213993E-01  0.47907406530E-02  0.10269259231E+01  0.10267851347E+01 0.  0.
     999903    2    3    3    0    0 -0.77792059223E-01 -0.62144637921E-01 -0.90394620509E-01  0.13598237757E+00  0.20160830617E-01 0.  0.
         14    1    1    2    0    0 -0.10724511540E-01  0.12295213993E-01 -0.47907406530E-02  0.17004076891E-01  0.00000000000E+00 0. -1.
     999901    1    3    3    0    0  0.88516570762E-01  0.49849423928E-01  0.95185361162E-01  0.89094354554E+00  0.88000000000E+00 0.  1.
        -11    1    4    4    0    0 -0.10758528081E-01 -0.15207766428E-01 -0.95138392127E-02  0.20923583435E-01  0.51100000000E-03 0.  1.
         11    1    4    4    0    0 -0.67033531141E-01 -0.46936871493E-01 -0.80880781296E-01  0.11505879413E+00  0.51100000000E-03 0. -1.
</event>
<event>
 8    1  0.1118868E+005  0.1043930E+01  0.7957747E-01            NaN
         13   -1    0    0    0    0  0.00000000000E+00  0.00000000000E+00  0.74505805969E-08  0.10566000000E+00  0.10566000000E+00 0.  1.
     999900   -1    0    0    0    0 -0.00000000000E+00 -0.00000000000E+00 -0.74505805969E-08  0.93827000000E+00  0.93827000000E+00 0. -1.
     999902    2    1    2    0    0 -0.19700418638E-01 -0.84365172108E-02  0.79220826077E-02  0.10210817898E+01  0.10208261266E+01 0.  0.
     999903    2    3    3    0    0 -0.11759437618E+00  0.39779730323E-01  0.43119330322E-01  0.13364340900E+00  0.24298556902E-01 0.  0.
         14    1    1    2    0    0  0.19700418638E-01  0.84365172108E-02 -0.79220826077E-02  0.22848210215E-01  0.00000000000E+00 0. -1.
     999901    1    3    3    0    0  0.97893957540E-01 -0.48216247534E-01 -0.35197247715E-01  0.88743838079E+00  0.88000000000E+00 0.  1.
        -11    1    4    4    0    0 -0.81031259435E-01  0.38977851688E-01  0.30443624670E-01  0.94933731264E-01  0.51100000000E-03 0. -1.
         11    1    4    4    0    0 -0.36563116744E-01  0.80187863511E-03  0.12675705653E-01  0.38709677733E-01  0.51100000000E-03 0.  1.
</event>
<event>
 8    1  0.1118868E+005  0.1043930E+01  0.7957747E-01            NaN
         13   -1    0    0    0    0  0.00000000000E+00  0.00000000000E+00  0.74505805969E-08  0.10566000000E+00  0.10566000000E+00 0. -1.
     999900   -1    0    0    0    0 -0.00000000000E+00 -0.00000000000E+00 -0.74505805969E-08  0.93827000000E+00  0.93827000000E+00 0. -1.
     999902    2    1    2    0    0  0.21280274558E-01 -0.13851449969E-01 -0.31548693350E-02  0.10183435592E+01  0.10180220718E+01 0.  0.
     999903    2    3    3    0    0 -0.58193222978E-01 -0.41886350082E-01 -0.10493104657E+00  0.12847818586E+00  0.18846808328E-01 0.  0.
         14    1    1    2    0    0 -0.21280274558E-01  0.13851449969E-01  0.31548693350E-02  0.25586440785E-01  0.00000000000E+00 0. -1.
     999901    1    3    3    0    0  0.79473497536E-01  0.28034900113E-01  0.10177617724E+00  0.88986537335E+00  0.88000000000E+00 0.  1.
        -11    1    4    4    0    0 -0.56637210049E-02 -0.70009737022E-02 -0.25566669652E-01  0.27111014118E-01  0.51100000000E-03 0. -1.
         11    1    4    4    0    0 -0.52529501973E-01 -0.34885376379E-01 -0.79364376923E-01  0.10136717175E+00  0.51100000000E-03 0.  1.
</event>
<event>
 7    1  0.1329271E+005  0.1043930E+01  0.7957747E-01            NaN
         13   -1    0    0    0    0  0.00000000000E+00  0.00000000000E+00  0.74505805969E-08  0.10566000000E+00  0.10566000000E+00 0. -1.
     999900   -1    0    0    0    0 -0.00000000000E+00 -0.00000000000E+00 -0.74505805969E-08  0.93827000000E+00  0.93827000000E+00 0.  1.
     999903    2    1    2    0    0  0.29496131410E-01  0.84135081863E-01 -0.42991201870E-01  0.10113972651E+00  0.20791033444E-01 0.  0.
         14    1    1    2    0    0  0.46105395100E-01  0.25697743830E-02 -0.25346636075E-01  0.52676020712E-01  0.00000000000E+00 0. -1.
     999901    1    1    2    0    0 -0.75601526510E-01 -0.86704856246E-01  0.68337837946E-01  0.89011425278E+00  0.88000000000E+00 0. -1.
        -11    1    3    3    0    0  0.30817379067E-02  0.39667037940E-01 -0.20056787880E-01  0.44559026791E-01  0.51100000000E-03 0.  1.
         11    1    3    3    0    0  0.26414393503E-01  0.44468043922E-01 -0.22934413991E-01  0.56580699717E-01  0.51100000000E-03 0. -1.
</event>
<event>
 8    1  0.1118868E+005  0.1043930E+01  0.7957747E-01            NaN
         13   -1    0    0    0    0  0.00000000000E+00  0.00000000000E+00  0.74505805969E-08  0.10566000000E+00  0.10566000000E+00 0.  1.
     999900   -1    0    0    0    0 -0.00000000000E+00 -0.00000000000E+00 -0.74505805969E-08  0.93827000000E+00  0.93827000000E+00 0.  1.
     999902    2    1    2    0    0  0.20288443636E-01 -0.73943389122E-02 -0.71708343374E-02  0.10211765814E+01  0.10209230590E+01 0.  0.
     999903    2    3    3    0    0 -0.58833528232E-01 -0.11269901883E+00  0.23286697401E-01  0.13085247003E+00  0.20436382902E-01 0.  0.
         14    1    1    2    0    0 -0.20288443636E-01  0.73943389122E-02  0.71708343374E-02  0.22753418605E-01  0.00000000000E+00 0.  1.
     999901    1    3    3    0    0  0.79121971868E-01  0.10530467992E+00 -0.30457531738E-01  0.89032411137E+00  0.88000000000E+00 0.  1.
        -11    1    4    4    0    0 -0.42329912146E-01 -0.60122267695E-01  0.16154439421E-01  0.75284364706E-01  0.51100000000E-03 0. -1.
         11    1    4    4    0    0 -0.16503616086E-01 -0.52576751136E-01  0.71322579801E-02  0.55568105320E-01  0.51100000000E-03 0.  1.
</event>
<event>
 8    1  0.1118868E+005  0.1043930E+01  0.7957747E-01            NaN
         13   -1    0    0    0    0  0.00000000000E+00  0.00000000000E+00  0.74505805969E-08  0.10566000000E+00  0.10566000000E+00 0. -1.
     999900   -1    0    0    0    0 -0.00000000000E+00 -0.00000000000E+00 -0.74505805969E-08  0.93827000000E+00  0.93827000000E+00 0.  1.
     999902    2    1    2    0    0 -0.18058897560E-03  0.98702869568E-03  0.23972257099E-01  0.10199367520E+01  0.10196545014E+01 0.  0.
     999903    2    3    3    0    0 -0.43121280902E-01  0.11918746696E+00 -0.18610125515E-01  0.12997691813E+00  0.21967369610E-01 0.  0.
         14    1    1    2    0    0  0.18058897560E-03 -0.98702869568E-03 -0.23972257099E-01  0.23993247977E-01  0.00000000000E+00 0.  1.
     999901    1    3    3    0    0  0.42940691926E-01 -0.11820043827E+00  0.42582382614E-01  0.88995983389E+00  0.88000000000E+00 0. -1.
        -11    1    4    4    0    0 -0.25600626643E-01  0.83531122317E-01 -0.22017886132E-01  0.90099328026E-01  0.51100000000E-03 0. -1.
         11    1    4    4    0    0 -0.17520654259E-01  0.35656344647E-01  0.34077606175E-02  0.39877590106E-01  0.51100000000E-03 0.  1.
</event>
<event>
 8    1  0.1118868E+005  0.1043930E+01  0.7957747E-01            NaN
         13   -1    0    0    0    0  0.00000000000E+00  0.00000000000E+00  0.74505805969E-08  0.10566000000E+00  0.10566000000E+00 0.  1.
     999900   -1    0    0    0    0 -0.00000000000E+00 -0.00000000000E+00 -0.74505805969E-08  0.93827000000E+00  0.93827000000E+00 0. -1.
     999902    2    1    2    0    0  0.36641004654E-03  0.90975685138E-02 -0.22196615971E-01  0.10199385480E+01  0.10196563401E+01 0.  0.
     999903    2    3    3    0    0  0.10163845691E+00  0.23024861136E-01  0.73046498471E-01  0.12891596252E+00  0.20567311477E-01 0.  0.
         14    1    1    2    0    0 -0.36641004654E-03 -0.90975685138E-02  0.22196615971E-01  0.23991452015E-01  0.00000000000E+00 0.  1.
     999901    1    3    3    0    0 -0.10127204686E+00 -0.13927292622E-01 -0.95243114442E-01  0.89102258546E+00  0.88000000000E+00 0. -1.
        -11    1    4    4    0    0  0.64911910863E-01  0.22796858531E-01  0.40471957746E-01  0.79821635009E-01  0.51100000000E-03 0.  1.
         11    1    4    4    0    0  0.36726546045E-01  0.22800260550E-03  0.32574540725E-01  0.49094327514E-01  0.51100000000E-03 0. -1.
</event>
<event>
 8    1  0.1118868E+005  0.1043930E+01  0.7957747E-01            NaN
         13   -1    0    0    0    0  0.00000000000E+00  0.00000000000E+00  0.74505805969E-08  0.10566000000E+00  0.10566000000E+00 0. -1.
     999900   -1    0    0    0    0 -0.00000000000E+00 -0.00000000000E+00 -0.74505805969E-08  0.93827000000E+00  0.93827000000E+00 0.  1.
     999902    2    1    2    0    0  0.54660305857E-02  0.19830034528E-02  0.22744263083E-01  0.10204542402E+01  0.10201841722E+01 0.  0.
     999903    2    3    3    0    0 -0.85898937242E-01  0.35646040983E-01 -0.86425684576E-01  0.12837866333E+00  0.19037189607E-01 0.  0.
         14    1    1    2    0    0 -0.54660305857E-02 -0.19830034528E-02 -0.22744263083E-01  0.23475759759E-01  0.00000000000E+00 0.  1.
     999901    1    3    3    0    0  0.91364967827E-01 -0.33663037530E-01  0.10916994766E+00  0.89207557691E+00  0.88000000000E+00 0. -1.
        -11    1    4    4    0    0 -0.48317531894E-01  0.25767889408E-01 -0.39886177301E-01  0.67747592382E-01  0.51100000000E-03 0.  1.
         11    1    4    4    0    0 -0.37581405348E-01  0.98781515743E-02 -0.46539507274E-01  0.60631070952E-01  0.51100000000E-03 0. -1.
</event>
<event>
 8    1  0.1118868E+005  0.1043930E+01  0.7957747E-01            NaN
         13   -1    0    0    0    0  0.00000000000E+00  0.00000000000E+00  0.74505805969E-08  0.10566000000E+00  0.10566000000E+00 0.  1.
     999900   -1    0    0    0    0 -0.00000000000E+00 -0.00000000000E+00 -0.74505805969E-08  0.93827000000E+00  0.93827000000E+00 0.  1.
     999902    2    1    2    0    0  0.20629011618E-01  0.74821222149E-03  0.12153366934E-01  0.10199754541E+01  0.10196941241E+01 0.  0.
     999903    2    3    3    0    0 -0.70350364467E-01  0.77412725619E-01  0.75866083872E-01  0.12968673419E+00  0.11003748181E-01 0.  0.
         14    1    1    2    0    0 -0.20629011618E-01 -0.74821222149E-03 -0.12153366934E-01  0.23954545908E-01  0.00000000000E+00 0. -1.
     999901    1    3    3    0    0  0.90979376085E-01 -0.76664513398E-01 -0.63712716938E-01  0.89028871990E+00  0.88000000000E+00 0.  1.
        -11    1    4    4    0    0 -0.32586409689E-01  0.42363972898E-01  0.34564039941E-01  0.63651506456E-01  0.51100000000E-03 0. -1.
         11    1    4    4    0    0 -0.37763954778E-01  0.35048752721E-01  0.41302043931E-01  0.66035227733E-01  0.51100000000E-03 0.  1.
</event>
<event>
 8    1  0.1118868E+005  0.1043930E+01  0.7957747E-01            NaN
         13   -1    0    0    0    0  0.00000000000E+00  0.00000000000E+00  0.74505805969E-08  0.10566000000E+00  0.10566000000E+00 0.  1.
     999900   -1    0    0    0    0 -0.00000000000E+00 -0.00000000000E+00 -0.74505805969E-08  0.93827000000E+00  0.93827000000E+00 0. -1.
     999902    2    1    2    0    0 -0.33491007238E-02 -0.20830097295E-01  0.10532589999E-01  0.10203493961E+01  0.10200768820E+01 0.  0.
     999903    2    3    3    0    0 -0.91000502989E-01  0.85303678935E-01  0.28222519955E-01  0.12947337755E+00  0.20224630469E-01 0.  0.
         14    1    1    2    0    0  0.33491007238E-02  0.20830097295E-01 -0.10532589999E-01  0.23580603917E-01  0.00000000000E+00 0. -1.
     999901    1    3    3    0    0  0.87651402265E-01 -0.10613377623E+00 -0.17689929956E-01  0.89087601853E+00  0.88000000000E+00 0. -1.
        -11    1    4    4    0    0 -0.17590900691E-01  0.20718028517E-01  0.14281121013E-01  0.30706481907E-01  0.51100000000E-03 0. -1.
         11    1    4    4    0    0 -0.73409602298E-01  0.64585650418E-01  0.13941398942E-01  0.98766895643E-01  0.51100000000E-03 0.  1.
</event>
<event>
 8    1  0.1118868E+005  0.1043930E+01  0.7957747E-01            NaN
         13   -1    0    0    0    0  0.00000000000E+00  0.00000000000E+00  0.74505805969E-08  0.10566000000E+00  0.10566000000E+00 0.  1.
     999900   -1    0    0    0    0 -0.00000000000E+00 -0.00000000000E+00 -0.74505805969E-08  0.93827000000E+00  0.93827000000E+00 0. -1.
     999902    2    1    2    0    0  0.30055901541E-02 -0.22061817647E-01  0.49172177023E-02  0.10211278861E+01  0.10208732651E+01 0.  0.
     999903    2    3    3    0    0  0.59870636429E-02  0.32732827246E-01  0.12535258919E+00  0.13123125106E+00  0.20027149745E-01 0.  0.
         14    1    1    2    0    0 -0.30055901541E-02  0.22061817647E-01 -0.49172177023E-02  0.22802113937E-01  0.00000000000E+00 0. -1.
     999901    1    3    3    0    0 -0.29814734888E-02 -0.54794644893E-01 -0.12043537149E+00  0.88989663501E+00  0.88000000000E+00 0. -1.
        -11    1    4    4    0    0  0.12193354529E-01  0.29269227580E-01  0.10211900033E+00  0.10692949512E+00  0.51100000000E-03 0.  1.
         11    1    4    4    0    0 -0.62062908857E-02  0.34635996663E-02  0.23233588861E-01  0.24301755936E-01  0.51100000000E-03 0. -1.
</event>
<event>
 8    1  0.1118868E+005  0.1043930E+01  0.7957747E-01            NaN
         13   -1    0    0    0    0  0.00000000000E+00  0.00000000000E+00  0.74505805969E-08  0.10566000000E+00  0.10566000000E+00 0.  1.
     999900   -1    0    0    0    0 -0.00000000000E+00 -0.00000000000E+00 -0.74505805969E-08  0.93827000000E+00  0.93827000000E+00 0.  1.
     999902    2    1    2    0    0  0.12780944212E-01 -0.14696970929E-01 -0.13560730877E-01  0.10201971765E+01  0.10199210911E+01 0.  0.
     999903    2    3    3    0    0  0.81557153191E-02 -0.83536022445E-01  0.97712158649E-01  0.13051079147E+00  0.20990902905E-01 0.  0.
         14    1    1    2    0    0 -0.12780944212E-01  0.14696970929E-01  0.13560730877E-01  0.23732823502E-01  0.00000000000E+00 0.  1.
     999901    1    3    3    0    0  0.46252288933E-02  0.68839051516E-01 -0.11127288953E+00  0.88968638503E+00  0.88000000000E+00 0.  1.
        -11    1    4    4    0    0 -0.50232751434E-02 -0.34663681929E-01  0.31070608758E-01  0.46823583669E-01  0.51100000000E-03 0.  1.
         11    1    4    4    0    0  0.13178990462E-01 -0.48872340516E-01  0.66641549891E-01  0.83687207804E-01  0.51100000000E-03 0. -1.
</event>
<event>
 8    1  0.1118868E+005  0.1043930E+01  0.7957747E-01            NaN
         13   -1    0    0    0    0  0.00000000000E+00  0.00000000000E+00  0.74505805969E-08  0.10566000000E+00  0.10566000000E+00 0. -1.
     999900   -1    0    0    0    0 -0.00000000000E+00 -0.00000000000E+00 -0.74505805969E-08  0.93827000000E+00  0.93827000000E+00 0.  1.
     999902    2    1    2    0    0 -0.91651970464E-02 -0.13806868557E-01 -0.17742996499E-01  0.10196515243E+01  0.10193624413E+01 0.  0.
     999903    2    3    3    0    0 -0.24495791412E-01 -0.82104559615E-01 -0.99848362563E-01  0.13306205176E+00  0.19864833399E-01 0.  0.
         14    1    1    2    0    0  0.91651970464E-02  0.13806868557E-01  0.17742996499E-01  0.24278475673E-01  0.00000000000E+00 0. -1.
     999901    1    3    3    0    0  0.15330594365E-01  0.68297691058E-01  0.82105366064E-01  0.88658947257E+00  0.88000000000E+00 0. -1.
        -11    1    4    4    0    0 -0.10245435380E-01 -0.35101197736E-01 -0.28135489327E-01  0.46140328448E-01  0.51100000000E-03 0. -1.
         11    1    4    4    0    0 -0.14250356032E-01 -0.47003361879E-01 -0.71712873236E-01  0.86921723313E-01  0.51100000000E-03 0.  1.
</event>
<event>
 8    1  0.1118868E+005  0.1043930E+01  0.7957747E-01            NaN
         13   -1    0    0    0    0  0.00000000000E+00  0.00000000000E+00  0.74505805969E-08  0.10566000000E+00  0.10566000000E+00 0.  1.
     999900   -1    0    0    0    0 -0.00000000000E+00 -0.00000000000E+00 -0.74505805969E-08  0.93827000000E+00  0.93827000000E+00 0. -1.
     999902    2    1    2    0    0 -0.47328618939E-02  0.17998113429E-01 -0.16074384034E-01  0.10193389876E+01  0.10190423219E+01 0.  0.
     999903    2    3    3    0    0  0.80475274431E-01 -0.96850357623E-01 -0.66419804513E-02  0.12774515180E+00  0.20455960940E-01 0.  0.
         14    1    1    2    0    0  0.47328618939E-02 -0.17998113429E-01  0.16074384034E-01  0.24591012398E-01  0.00000000000E+00 0.  1.
     999901    1    3    3    0    0 -0.85208136325E-01  0.11484847105E+00 -0.94324035824E-02  0.89159383580E+00  0.88000000000E+00 0.  1.
        -11    1    4    4    0    0  0.13827566687E-01 -0.98927515538E-02 -0.64260994116E-02  0.18183069280E-01  0.51100000000E-03 0.  1.
         11    1    4    4    0    0  0.66647707744E-01 -0.86957606070E-01 -0.21588103964E-03  0.10956208252E+00  0.51100000000E-03 0. -1.
</event>
<event>
 8    1  0.1118868E+005  0.1043930E+01  0.7957747E-01            NaN
         13   -1    0    0    0    0  0.00000000000E+00  0.00000000000E+00  0.74505805969E-08  0.10566000000E+00  0.10566000000E+00 0.  1.
     999900   -1    0    0    0    0 -0.00000000000E+00 -0.00000000000E+00 -0.74505805969E-08  0.93827000000E+00  0.93827000000E+00 0.  1.
     999902    2    1    2    0    0 -0.11143239888E-01 -0.22972320504E-01 -0.75922006971E-02  0.10172927926E+01  0.10169439931E+01 0.  0.
     999903    2    3    3    0    0 -0.49822001683E-01 -0.70912981696E-01  0.93841424300E-01  0.12932706476E+00  0.20208758992E-01 0.  0.
         14    1    1    2    0    0  0.11143239888E-01  0.22972320504E-01  0.75922006971E-02  0.26637207361E-01  0.00000000000E+00 0. -1.
     999901    1    3    3    0    0  0.38678761795E-01  0.47940661191E-01 -0.10143362500E+00  0.88796572788E+00  0.88000000000E+00 0.  1.
        -11    1    4    4    0    0 -0.26402922895E-01 -0.51019658820E-01  0.69178999602E-01  0.89922828194E-01  0.51100000000E-03 0. -1.
         11    1    4    4    0    0 -0.23419078788E-01 -0.19893322876E-01  0.24662424698E-01  0.39404236566E-01  0.51100000000E-03 0.  1.
</event>
<event>
 8    1  0.1118868E+005  0.1043930E+01  0.7957747E-01            NaN
         13   -1    0    0    0    0  0.00000000000E+00  0.00000000000E+00  0.74505805969E-08  0.10566000000E+00  0.10566000000E+00 0. -1.
     999900   -1    0    0    0    0 -0.00000000000E+00 -0.00000000000E+00 -0.74505805969E-08  0.93827000000E+00  0.93827000000E+00 0.  1.
     999902    2    1    2    0    0 -0.12283137116E-01 -0.31756106724E-02  0.20498939648E-01  0.10198226051E+01  0.10195376302E+01 0.  0.
     999903    2    3    3    0    0 -0.89032871993E-01 -0.93161662418E-01  0.39193317703E-02  0.13175566244E+00  0.27170678735E-01 0.  0.
         14    1    1    2    0    0  0.12283137116E-01  0.31756106724E-02 -0.20498939648E-01  0.24107394867E-01  0.00000000000E+00 0.  1.
     999901    1    3    3    0    0  0.76749734877E-01  0.89986051745E-01  0.16579607878E-01  0.88806694270E+00  0.88000000000E+00 0. -1.
        -11    1    4    4    0    0 -0.35357410422E-01 -0.49354020673E-01  0.12355853964E-01  0.61958809516E-01  0.51100000000E-03 0. -1.
         11    1    4    4    0    0 -0.53675461571E-01 -0.43807641745E-01 -0.84365221937E-02  0.69796852922E-01  0.51100000000E-03 0.  1.
</event>
<event>
 8    1  0.1118868E+005  0.1043930E+01  0.7957747E-01            NaN
         13   -1    0    0    0    0  0.00000000000E+00  0.00000000000E+00  0.74505805969E-08  0.10566000000E+00  0.10566000000E+00 0. -1.
     999900   -1    0    0    0    0 -0.00000000000E+00 -0.00000000000E+00 -0.74505805969E-08  0.93827000000E+00  0.93827000000E+00 0.  1.
     999902    2    1    2    0    0  0.12547504419E-01  0.13870058908E-01 -0.14386035599E-01  0.10203338897E+01  0.10200610129E+01 0.  0.
     999903    2    3    3    0    0  0.59623061056E-01 -0.11205731293E+00  0.16767564970E-01  0.12957895267E+00  0.19944998082E-01 0.  0.
         14    1    1    2    0    0 -0.12547504419E-01 -0.13870058908E-01  0.14386035599E-01  0.23596110305E-01  0.00000000000E+00 0.  1.
     999901    1    3    3    0    0 -0.47075556637E-01  0.12592737184E+00 -0.31153600569E-01  0.89075493703E+00  0.88000000000E+00 0.  1.
        -11    1    4    4    0    0  0.13989848729E-01 -0.31883981004E-01 -0.39019575858E-02  0.35039841697E-01  0.51100000000E-03 0. -1.
         11    1    4    4    0    0  0.45633212327E-01 -0.80173331926E-01  0.20669522556E-01  0.94539110970E-01  0.51100000000E-03 0.  1.
</event>
<event>
 8    1  0.1118868E+005  0.1043930E+01  0.7957747E-01            NaN
         13   -1    0    0    0    0  0.00000000000E+00  0.00000000000E+00  0.74505805969E-08  0.10566000000E+00  0.10566000000E+00 0.  1.
     999900   -1    0    0    0    0 -0.00000000000E+00 -0.00000000000E+00 -0.74505805969E-08  0.93827000000E+00  0.93827000000E+00 0. -1.
     999902    2    1    2    0    0 -0.13210838276E-01  0.17552452465E-01  0.83193040543E-02  0.10204390303E+01  0.10201686081E+01 0.  0.
     999903    2    3    3    0    0  0.64962936006E-01 -0.68979890189E-01 -0.83797534656E-01  0.12797922885E+00  0.19448596275E-01 0.  0.
         14    1    1    2    0    0  0.13210838276E-01 -0.17552452465E-01 -0.83193040543E-02  0.23490969657E-01  0.00000000000E+00 0. -1.
     999901    1    3    3    0    0 -0.78173774281E-01  0.86532342654E-01  0.92116838710E-01  0.89245980150E+00  0.88000000000E+00 0. -1.
        -11    1    4    4    0    0  0.39429585880E-01 -0.32412382749E-01 -0.54184753452E-01  0.74441275015E-01  0.51100000000E-03 0. -1.
         11    1    4    4    0    0  0.25533350126E-01 -0.36567507440E-01 -0.29612781204E-01  0.53537953833E-01  0.51100000000E-03 0.  1.
</event>
<event>
 8    1  0.1118868E+005  0.1043930E+01  0.7957747E-01            NaN
         13   -1    0    0    0    0  0.00000000000E+00  0.00000000000E+00  0.74505805969E-08  0.10566000000E+00  0.10566000000E+00 0.  1.
     999900   -1    0    0    0    0 -0.00000000000E+00 -0.00000000000E+00 -0.74505805969E-08  0.93827000000E+00  0.93827000000E+00 0.  1.
     999902    2    1    2    0    0 -0.25182492264E-02 -0.19484281469E-01 -0.15240752536E-01  0.10190651786E+01  0.10187617872E+01 0.  0.
     999903    2    3    3    0    0 -0.54220338371E-01  0.56540043058E-01  0.98016414759E-01  0.12705621574E+00  0.19986066005E-01 0.  0.
         14    1    1    2    0    0  0.25182492264E-02  0.19484281469E-01  0.15240752536E-01  0.24864821363E-01  0.00000000000E+00 0.  1.
     999901    1    3    3    0    0  0.51702089144E-01 -0.76024324528E-01 -0.11325716730E+00  0.89200896290E+00  0.88000000000E+00 0.  1.
        -11    1    4    4    0    0 -0.45139612652E-01  0.35770214268E-01  0.76851761464E-01  0.96039300394E-01  0.51100000000E-03 0.  1.
         11    1    4    4    0    0 -0.90807257184E-02  0.20769828791E-01  0.21164653295E-01  0.31016915347E-01  0.51100000000E-03 0. -1.
</event>
<event>
 8    1  0.1118868E+005  0.1043930E+01  0.7957747E-01            NaN
         13   -1    0    0    0    0  0.00000000000E+00  0.00000000000E+00  0.74505805969E-08  0.10566000000E+00  0.10566000000E+00 0. -1.
     999900   -1    0    0    0    0 -0.00000000000E+00 -0.00000000000E+00 -0.74505805969E-08  0.93827000000E+00  0.93827000000E+00 0. -1.
     999902    2    1    2    0    0 -0.14498912467E-01 -0.41383505440E-02  0.18027691073E-01  0.10204280415E+01  0.10201573633E+01 0.  0.
     999903    2    3    3    0    0 -0.94718449719E-01 -0.90370725753E-01 -0.15214393281E-02  0.13236646413E+00  0.19496493521E-01 0.  0.
         14    1    1    2    0    0  0.14498912467E-01  0.41383505440E-02 -0.18027691073E-01  0.23501958501E-01  0.00000000000E+00 0.  1.
     999901    1    3    3    0    0  0.80219537252E-01  0.86232375209E-01  0.19549130402E-01  0.88806157736E+00  0.88000000000E+00 0.  1.
        -11    1    4    4    0    0 -0.40164230827E-01 -0.50779926986E-01 -0.44153653891E-02  0.64896247928E-01  0.51100000000E-03 0. -1.
         11    1    4    4    0    0 -0.54554218892E-01 -0.39590798766E-01  0.28939260610E-02  0.67470216206E-01  0.51100000000E-03 0.  1.
</event>
<event>
 8    1  0.1118868E+005  0.1043930E+01  0.7957747E-01            NaN
         13   -1    0    0    0    0  0.00000000000E+00  0.00000000000E+00  0.74505805969E-08  0.10566000000E+00  0.10566000000E+00 0.  1.
     999900   -1    0    0    0    0 -0.00000000000E+00 -0.00000000000E+00 -0.74505805969E-08  0.93827000000E+00  0.93827000000E+00 0. -1.
     999902    2    1    2    0    0 -0.65866395656E-02  0.16143421954E-01 -0.86879231424E-02  0.10244499101E+01  0.10242646848E+01 0.  0.
     999903    2    3    3    0    0 -0.35740585431E-01 -0.66680529552E-02 -0.12908038735E+00  0.13548159720E+00  0.19278599595E-01 0.  0.
         14    1    1    2    0    0  0.65866395656E-02 -0.16143421954E-01  0.86879231424E-02  0.19480089878E-01  0.00000000000E+00 0. -1.
     999901    1    3    3    0    0  0.29153945865E-01  0.22811474909E-01  0.12039246421E+00  0.88896831293E+00  0.88000000000E+00 0.  1.
        -11    1    4    4    0    0 -0.23772890240E-01 -0.55752321614E-02 -0.51778898777E-01  0.57249882127E-01  0.51100000000E-03 0.  1.
         11    1    4    4    0    0 -0.11967695190E-01 -0.10928207938E-02 -0.77301488577E-01  0.78231715069E-01  0.51100000000E-03 0. -1.
</event>
<event>
 8    1  0.1118868E+005  0.1043930E+01  0.7957747E-01            NaN
         13   -1    0    0    0    0  0.00000000000E+00  0.00000000000E+00  0.74505805969E-08  0.10566000000E+00  0.10566000000E+00 0. -1.
     999900   -1    0    0    0    0 -0.00000000000E+00 -0.00000000000E+00 -0.74505805969E-08  0.93827000000E+00  0.93827000000E+00 0.  1.
     999902    2    1    2    0    0  0.20664048030E-01  0.41120551091E-02 -0.10234699466E-01  0.10205064872E+01  0.10202376338E+01 0.  0.
     999903    2    3    3    0    0  0.51937254903E-01  0.11927793124E+00  0.13871007816E-01  0.13212465623E+00  0.18434115078E-01 0.  0.
         14    1    1    2    0    0 -0.20664048030E-01 -0.41120551091E-02  0.10234699466E-01  0.23423512788E-01  0.00000000000E+00 0. -1.
     999901    1    3    3    0    0 -0.31273206873E-01 -0.11516587613E+00 -0.24105707281E-01  0.88838183098E+00  0.88000000000E+00 0. -1.
        -11    1    4    4    0    0  0.36333940748E-01  0.77084041922E-01  0.17469071945E-01  0.86991576402E-01  0.51100000000E-03 0. -1.
         11    1    4    4    0    0  0.15603314154E-01  0.42193889318E-01 -0.35980641292E-02  0.45133079829E-01  0.51100000000E-03 0.  1.
</event>
<event>
 8    1  0.1118868E+005  0.1043930E+01  0.7957747E-01            NaN
         13   -1    0    0    0    0  0.00000000000E+00  0.00000000000E+00  0.74505805969E-08  0.10566000000E+00  0.10566000000E+00 0. -1.
     999900   -1    0    0    0    0 -0.00000000000E+00 -0.00000000000E+00 -0.74505805969E-08  0.93827000000E+00  0.93827000000E+00 0.  1.
     999902    2    1    2    0    0 -0.15622360569E-01 -0.14406364920E-01 -0.10310554574E-01  0.10203099019E+01  0.10200364635E+01 0.  0.
     999903    2    3    3    0    0 -0.85175663361E-01  0.88194527458E-01 -0.41537193317E-01  0.13107443923E+00  0.20542684569E-01 0.  0.
         14    1    1    2    0    0  0.15622360569E-01  0.14406364920E-01  0.10310554574E-01  0.23620098128E-01  0.00000000000E+00 0.  1.
     999901    1    3    3    0    0  0.69553302792E-01 -0.10260089238E+00  0.31226638744E-01  0.88923546264E+00  0.88000000000E+00 0. -1.
        -11    1    4    4    0    0 -0.63498658475E-01  0.61693277126E-01 -0.20467022894E-01  0.90869688113E-01  0.51100000000E-03 0.  1.
         11    1    4    4    0    0 -0.21677004885E-01  0.26501250332E-01 -0.21070170424E-01  0.40204751121E-01  0.51100000000E-03 0. -1.
</event>
<event>
 8    1  0.1118868E+005  0.1043930E+01  0.7957747E-01            NaN
         13   -1    0    0    0    0  0.00000000000E+00  0.00000000000E+00  0.74505805969E-08  0.10566000000E+00  0.10566000000E+00 0.  1.
     999900   -1    0    0    0    0 -0.00000000000E+00 -0.00000000000E+00 -0.74505805969E-08  0.93827000000E+00  0.93827000000E+00 0. -1.
     999902    2    1    2    0    0  0.44558167486E-02  0.10534103548E-02  0.23064480328E-01  0.10204154464E+01  0.10201444746E+01 0.  0.
     999903    2    3    3    0    0 -0.32625001094E-01 -0.50682054849E-01 -0.11105768149E+00  0.12798040695E+00  0.20300605058E-01 0.  0.
         14    1    1    2    0    0 -0.44558167486E-02 -0.10534103548E-02 -0.23064480328E-01  0.23514553559E-01  0.00000000000E+00 0. -1.
     999901    1    3    3    0    0  0.37080817843E-01  0.51735465204E-01  0.13412216182E+00  0.89243503949E+00  0.88000000000E+00 0.  1.
        -11    1    4    4    0    0 -0.22167522628E-01 -0.31921352791E-01 -0.50503464236E-01  0.63727802758E-01  0.51100000000E-03 0.  1.
         11    1    4    4    0    0 -0.10457478466E-01 -0.18760702058E-01 -0.60554217257E-01  0.64252604197E-01  0.51100000000E-03 0. -1.
</event>
<event>
 8    1  0.1118868E+005  0.1043930E+01  0.7957747E-01            NaN
         13   -1    0    0    0    0  0.00000000000E+00  0.00000000000E+00  0.74505805969E-08  0.10566000000E+00  0.10566000000E+00 0.  1.
     999900   -1    0    0    0    0 -0.00000000000E+00 -0.00000000000E+00 -0.74505805969E-08  0.93827000000E+00  0.93827000000E+00 0.  1.
     999902    2    1    2    0    0 -0.22064515695E-01  0.41776387690E-02  0.79981163697E-02  0.10200916824E+01  0.10198131080E+01 0.  0.
     999903    2    3    3    0    0  0.30804346648E-01 -0.13706049061E-01  0.12509055528E+00  0.13058306408E+00  0.16356223588E-01 0.  0.
         14    1    1    2    0    0  0.22064515695E-01 -0.41776387690E-02 -0.79981163697E-02  0.23838317558E-01  0.00000000000E+00 0. -1.
     999901    1    3    3    0    0 -0.52868862343E-01  0.17883687830E-01 -0.11709243891E+00  0.88950861837E+00  0.88000000000E+00 0.  1.
        -11    1    4    4    0    0  0.10025334417E-01 -0.82123875484E-02  0.24504843649E-01  0.27725423760E-01  0.51100000000E-03 0.  1.
         11    1    4    4    0    0  0.20779012231E-01 -0.54936615129E-02  0.10058571163E+00  0.10285764032E+00  0.51100000000E-03 0. -1.
</event>
<event>
 8    1  0.1118868E+005  0.1043930E+01  0.7957747E-01            NaN
         13   -1    0    0    0    0  0.00000000000E+00  0.00000000000E+00  0.74505805969E-08  0.10566000000E+00  0.10566000000E+00 0. -1.
     999900   -1    0    0    0    0 -0.00000000000E+00 -0.00000000000E+00 -0.74505805969E-08  0.93827000000E+00  0.93827000000E+00 0. -1.
     999902    2    1    2    0    0  0.11182922219E-01 -0.42983693386E-02 -0.20541477785E-01  0.10201500497E+01  0.10198728537E+01 0.  0.
     999903    2    3    3    0    0  0.45029687741E-01  0.44387668957E-01 -0.11528509480E+00  0.13308055587E+00  0.20538825001E-01 0.  0.
         14    1    1    2    0    0 -0.11182922219E-01  0.42983693386E-02  0.20541477785E-01  0.23779950335E-01  0.00000000000E+00 0. -1.
     999901    1    3    3    0    0 -0.33846765521E-01 -0.48686038296E-01  0.94743617019E-01  0.88706949380E+00  0.88000000000E+00 0.  1.
        -11    1    4    4    0    0  0.38759719273E-01  0.32140324632E-01 -0.73572148531E-01  0.89154015423E-01  0.51100000000E-03 0. -1.
         11    1    4    4    0    0  0.62699684676E-02  0.12247344326E-01 -0.41712946273E-01  0.43926540445E-01  0.51100000000E-03 0.  1.
</event>
<event>
 8    1  0.1118868E+005  0.1043930E+01  0.7957747E-01            NaN
         13   -1    0    0    0    0  0.00000000000E+00  0.00000000000E+00  0.74505805969E-08  0.10566000000E+00  0.10566000000E+00 0. -1.
     999900   -1    0    0    0    0 -0.00000000000E+00 -0.00000000000E+00 -0.74505805969E-08  0.93827000000E+00  0.93827000000E+00 0. -1.
     999902    2    1    2    0    0 -0.92200438439E-02  0.20310197287E-01 -0.81146773894E-02  0.10201947665E+01  0.10199186243E+01 0.  0.
     999903    2    3    3    0    0 -0.53931187309E-01 -0.40682925697E-01 -0.11051235532E+00  0.13103531402E+00  0.19839340584E-01 0.  0.
         14    1    1    2    0    0  0.92200438439E-02 -0.20310197287E-01  0.81146773894E-02  0.23735233545E-01  0.00000000000E+00 0.  1.
     999901    1    3    3    0    0  0.44711143465E-01  0.60993122984E-01  0.10239767793E+00  0.88915945243E+00  0.88000000000E+00 0.  1.
        -11    1    4    4    0    0 -0.14274640701E-01 -0.10597764822E-01 -0.47576182763E-01  0.50792049315E-01  0.51100000000E-03 0.  1.
         11    1    4    4    0    0 -0.39656546609E-01 -0.30085160875E-01 -0.62936172558E-01  0.80243264708E-01  0.51100000000E-03 0. -1.
</event>
<event>
 8    1  0.1118868E+005  0.1043930E+01  0.7957747E-01            NaN
         13   -1    0    0    0    0  0.00000000000E+00  0.00000000000E+00  0.74505805969E-08  0.10566000000E+00  0.10566000000E+00 0.  1.
     999900   -1    0    0    0    0 -0.00000000000E+00 -0.00000000000E+00 -0.74505805969E-08  0.93827000000E+00  0.93827000000E+00 0.  1.
     999902    2    1    2    0    0  0.19034346154E-01 -0.10550869698E-01  0.97909053676E-02  0.10200660311E+01  0.10197868497E+01 0.  0.
     999903    2    3    3    0    0  0.11751324954E+00 -0.56702739264E-01 -0.16007437385E-01  0.13299577232E+00  0.20176048852E-01 0.  0.
         14    1    1    2    0    0 -0.19034346154E-01  0.10550869698E-01 -0.97909053676E-02  0.23863968924E-01  0.00000000000E+00 0. -1.
     999901    1    3    3    0    0 -0.98478903383E-01  0.46151869566E-01  0.25798342753E-01  0.88707025875E+00  0.88000000000E+00 0. -1.
        -11    1    4    4    0    0  0.81457873622E-01 -0.28732777243E-01 -0.11439242696E-01  0.87132514354E-01  0.51100000000E-03 0.  1.
         11    1    4    4    0    0  0.36055375915E-01 -0.27969962021E-01 -0.45681946888E-02  0.45863257969E-01  0.51100000000E-03 0. -1.
</event>
<event>
 8    1  0.1118868E+005  0.1043930E+01  0.7957747E-01            NaN
         13   -1    0    0    0    0  0.00000000000E+00  0.00000000000E+00  0.74505805969E-08  0.10566000000E+00  0.10566000000E+00 0.  1.
     999900   -1    0    0    0    0 -0.00000000000E+00 -0.00000000000E+00 -0.74505805969E-08  0.93827000000E+00  0.93827000000E+00 0. -1.
     999902    2    1    2    0    0 -0.12618665355E-01 -0.18905099785E-01  0.63215105378E-02  0.10203377341E+01  0.10200649473E+01 0.  0.
     999903    2    3    3    0    0  0.12663690343E+00 -0.10406770688E-01 -0.12928013545E-01  0.12913917084E+00  0.19094128010E-01 0.  0.
         14    1    1    2    0    0  0.12618665355E-01  0.18905099785E-01 -0.63215105378E-02  0.23592265866E-01  0.00000000000E+00 0.  1.
     999901    1    3    3    0    0 -0.13925556879E+00 -0.84983290971E-02  0.19249524082E-01  0.89119856329E+00  0.88000000000E+00 0.  1.
        -11    1    4    4    0    0  0.10068878026E+00 -0.75867728376E-02 -0.17939202055E-01  0.10255664622E+00  0.51100000000E-03 0. -1.
         11    1    4    4    0    0  0.25948123169E-01 -0.28199978500E-02  0.50111885103E-02  0.26582524619E-01  0.51100000000E-03 0.  1.
</event>
<event>
 8    1  0.1118868E+005  0.1043930E+01  0.7957747E-01            NaN
         13   -1    0    0    0    0  0.00000000000E+00  0.00000000000E+00  0.74505805969E-08  0.10566000000E+00  0.10566000000E+00 0.  1.
     999900   -1    0    0    0    0 -0.00000000000E+00 -0.00000000000E+00 -0.74505805969E-08  0.93827000000E+00  0.93827000000E+00 0. -1.
     999902    2    1    2    0    0 -0.17100611883E-01  0.25809638361E-02 -0.13955770490E-01  0.10217071327E+01  0.10214654224E+01 0.  0.
     999903    2    3    3    0    0 -0.11697305111E+00  0.54628418319E-02 -0.63303050222E-01  0.13467953259E+00  0.20463699668E-01 0.  0.
         14    1    1    2    0    0  0.17100611883E-01 -0.25809638361E-02  0.13955770490E-01  0.22222867301E-01  0.00000000000E+00 0.  1.
     999901    1    3    3    0    0  0.99872439228E-01 -0.28818779958E-02  0.49347279732E-01  0.88702760011E+00  0.88000000000E+00 0.  1.
        -11    1    4    4    0    0 -0.73940894880E-01 -0.59960670192E-02 -0.36205557063E-01  0.82548847591E-01  0.51100000000E-03 0.  1.
         11    1    4    4    0    0 -0.43032156231E-01  0.11458908851E-01 -0.27097493159E-01  0.52130684999E-01  0.51100000000E-03 0. -1.
</event>
<event>
 8    1  0.1118868E+005  0.1043930E+01  0.7957747E-01            NaN
         13   -1    0    0    0    0  0.00000000000E+00  0.00000000000E+00  0.74505805969E-08  0.10566000000E+00  0.10566000000E+00 0. -1.
     999900   -1    0    0    0    0 -0.00000000000E+00 -0.00000000000E+00 -0.74505805969E-08  0.93827000000E+00  0.93827000000E+00 0.  1.
     999902    2    1    2    0    0  0.15773141886E-01 -0.11051048988E-01 -0.15346883775E-01  0.10193039055E+01  0.10190063823E+01 0.  0.
     999903    2    3    3    0    0 -0.52600234597E-01  0.11133968586E+00 -0.27377673688E-01  0.12812538775E+00  0.22433627493E-01 0.  0.
         14    1    1    2    0    0 -0.15773141886E-01  0.11051048988E-01  0.15346883775E-01  0.24626094500E-01  0.00000000000E+00 0. -1.
     999901    1    3    3    0    0  0.68373376483E-01 -0.12239073485E+00  0.12030789912E-01  0.89117851775E+00  0.88000000000E+00 0.  1.
        -11    1    4    4    0    0 -0.14539386693E-01  0.53030398222E-01 -0.18012092297E-01  0.57864613460E-01  0.51100000000E-03 0. -1.
         11    1    4    4    0    0 -0.38060847905E-01  0.58309287641E-01 -0.93655813912E-02  0.70260774293E-01  0.51100000000E-03 0.  1.
</event>
<event>
 8    1  0.1118868E+005  0.1043930E+01  0.7957747E-01            NaN
         13   -1    0    0    0    0  0.00000000000E+00  0.00000000000E+00  0.74505805969E-08  0.10566000000E+00  0.10566000000E+00 0.  1.
     999900   -1    0    0    0    0 -0.00000000000E+00 -0.00000000000E+00 -0.74505805969E-08  0.93827000000E+00  0.93827000000E+00 0.  1.
     999902    2    1    2    0    0 -0.11690337062E-01 -0.16547269263E-01 -0.12380032079E-01  0.10201867632E+01  0.10199104326E+01 0.  0.
     999903    2    3    3    0    0 -0.25165599841E-01  0.42975446450E-01 -0.12013005043E+00  0.13151663155E+00  0.19626485751E-01 0.  0.
         14    1    1    2    0    0  0.11690337062E-01  0.16547269263E-01  0.12380032079E-01  0.23743236826E-01  0.00000000000E+00 0.  1.
     999901    1    3    3    0    0  0.13475262779E-01 -0.59522715714E-01  0.10775001836E+00  0.88867013163E+00  0.88000000000E+00 0. -1.
        -11    1    4    4    0    0 -0.10100328714E-01  0.30617245402E-01 -0.90285005055E-01  0.95870097606E-01  0.51100000000E-03 0.  1.
         11    1    4    4    0    0 -0.15065271127E-01  0.12358201048E-01 -0.29845045379E-01  0.35646533940E-01  0.51100000000E-03 0. -1.
</event>
<event>
 8    1  0.1118868E+005  0.1043930E+01  0.7957747E-01            NaN
         13   -1    0    0    0    0  0.00000000000E+00  0.00000000000E+00  0.74505805969E-08  0.10566000000E+00  0.10566000000E+00 0. -1.
     999900   -1    0    0    0    0 -0.00000000000E+00 -0.00000000000E+00 -0.74505805969E-08  0.93827000000E+00  0.93827000000E+00 0.  1.
     999902    2    1    2    0    0  0.11555206193E-01 -0.16984386525E-02 -0.20449291684E-01  0.10203804562E+01  0.10201086679E+01 0.  0.
     999903    2    3    3    0    0 -0.76378101230E-01  0.60812392499E-01 -0.86030027365E-01  0.13136937443E+00  0.18027354265E-01 0.  0.
         14    1    1    2    0    0 -0.11555206193E-01  0.16984386525E-02  0.20449291684E-01  0.23549543825E-01  0.00000000000E+00 0. -1.
     999901    1    3    3    0    0  0.87933307422E-01 -0.62510831152E-01  0.65580735681E-01  0.88901108174E+00  0.88000000000E+00 0. -1.
        -11    1    4    4    0    0 -0.21667678587E-01  0.11505567038E-01 -0.13531461357E-01  0.28021918843E-01  0.51100000000E-03 0.  1.
         11    1    4    4    0    0 -0.54710422643E-01  0.49306825461E-01 -0.72498566008E-01  0.10334745559E+00  0.51100000000E-03 0. -1.
</event>
<event>
 8    1  0.1118868E+005  0.1043930E+01  0.7957747E-01            NaN
         13   -1    0    0    0    0  0.00000000000E+00  0.00000000000E+00  0.74505805969E-08  0.10566000000E+00  0.10566000000E+00 0. -1.
     999900   -1    0    0    0    0 -0.00000000000E+00 -0.00000000000E+00 -0.74505805969E-08  0.93827000000E+00  0.93827000000E+00 0.  1.
     999902    2    1    2    0    0  0.13644434340E-01 -0.15225946291E-01  0.51515122921E-02  0.10228459276E+01  0.10226286000E+01 0.  0.
     999903    2    3    3    0    0 -0.68837232733E-01  0.91795142613E-01 -0.59756127542E-01  0.13017031993E+00  0.14443150411E-01 0.  0.
         14    1    1    2    0    0 -0.13644434340E-01  0.15225946291E-01 -0.51515122921E-02  0.21084072372E-01  0.00000000000E+00 0.  1.
     999901    1    3    3    0    0  0.82481667073E-01 -0.10702108890E+00  0.64907639834E-01  0.89267560770E+00  0.88000000000E+00 0. -1.
        -11    1    4    4    0    0 -0.27001320370E-01  0.27093666208E-01 -0.24575128454E-01  0.45467967954E-01  0.51100000000E-03 0. -1.
         11    1    4    4    0    0 -0.41835912363E-01  0.64701476404E-01 -0.35180999088E-01  0.84702351974E-01  0.51100000000E-03 0.  1.
</event>
<event>
 8    1  0.1118868E+005  0.1043930E+01  0.7957747E-01            NaN
         13   -1    0    0    0    0  0.00000000000E+00  0.00000000000E+00  0.74505805969E-08  0.10566000000E+00  0.10566000000E+00 0.  1.
     999900   -1    0    0    0    0 -0.00000000000E+00 -0.00000000000E+00 -0.74505805969E-08  0.93827000000E+00  0.93827000000E+00 0. -1.
     999902    2    1    2    0    0 -0.18738828297E-01 -0.13692377073E-01 -0.54530558274E-02  0.10200896834E+01  0.10198110617E+01 0.  0.
     999903    2    3    3    0    0 -0.90542482242E-01  0.87683458604E-01  0.29294843568E-01  0.13068525277E+00  0.18278879318E-01 0.  0.
         14    1    1    2    0    0  0.18738828297E-01  0.13692377073E-01  0.54530558274E-02  0.23840316560E-01  0.00000000000E+00 0.  1.
     999901    1    3    3    0    0  0.71803653946E-01 -0.10137583568E+00 -0.34747899395E-01  0.88940443067E+00  0.88000000000E+00 0.  1.
        -11    1    4    4    0    0 -0.63144443457E-01  0.59090397986E-01  0.11414959950E-01  0.87232209105E-01  0.51100000000E-03 0. -1.
         11    1    4    4    0    0 -0.27398038785E-01  0.28593060618E-01  0.17879883618E-01  0.43453043667E-01  0.51100000000E-03 0.  1.
</event>
<event>
 8    1  0.1118868E+005  0.1043930E+01  0.7957747E-01            NaN
         13   -1    0    0    0    0  0.00000000000E+00  0.00000000000E+00  0.74505805969E-08  0.10566000000E+00  0.10566000000E+00 0. -1.
     999900   -1    0    0    0    0 -0.00000000000E+00 -0.00000000000E+00 -0.74505805969E-08  0.93827000000E+00  0.93827000000E+00 0.  1.
     999902    2    1    2    0    0  0.14129897553E-01 -0.16680423353E-01  0.84122418464E-02  0.10205065856E+01  0.10202377345E+01 0.  0.
     999903    2    3    3    0    0  0.56519713917E-01  0.10654251062E+00  0.44669962954E-01  0.13017214828E+00  0.20089747804E-01 0.  0.
         14    1    1    2    0    0 -0.14129897553E-01  0.16680423353E-01 -0.84122418464E-02  0.23423414375E-01  0.00000000000E+00 0. -1.
     999901    1    3    3    0    0 -0.42389816363E-01 -0.12322293397E+00 -0.36257721108E-01  0.89033443735E+00  0.88000000000E+00 0.  1.
        -11    1    4    4    0    0  0.41850915812E-02  0.99433127223E-02  0.10628776588E-01  0.15153101075E-01  0.51100000000E-03 0.  1.
         11    1    4    4    0    0  0.52334622335E-01  0.96599197895E-01  0.34041186366E-01  0.11501904720E+00  0.51100000000E-03 0. -1.
</event>
<event>
 8    1  0.1118868E+005  0.1043930E+01  0.7957747E-01            NaN
         13   -1    0    0    0    0  0.00000000000E+00  0.00000000000E+00  0.74505805969E-08  0.10566000000E+00  0.10566000000E+00 0. -1.
     999900   -1    0    0    0    0 -0.00000000000E+00 -0.00000000000E+00 -0.74505805969E-08  0.93827000000E+00  0.93827000000E+00 0. -1.
     999902    2    1    2    0    0  0.23575798195E-01  0.10795369297E-01 -0.12969552793E-01  0.10149374568E+01  0.10145232741E+01 0.  0.
     999903    2    3    3    0    0  0.10747116214E+00 -0.64350876414E-01  0.12065812128E-01  0.12740595891E+00  0.19889910913E-01 0.  0.
         14    1    1    2    0    0 -0.23575798195E-01 -0.10795369297E-01  0.12969552793E-01  0.28992543153E-01  0.00000000000E+00 0. -1.
     999901    1    3    3    0    0 -0.83895363945E-01  0.75146245711E-01 -0.25035364921E-01  0.88753149794E+00  0.88000000000E+00 0. -1.
        -11    1    4    4    0    0  0.76890610415E-01 -0.49393023765E-01  0.17140419677E-01  0.92983288145E-01  0.51100000000E-03 0. -1.
         11    1    4    4    0    0  0.30580551726E-01 -0.14957852649E-01 -0.50746075491E-02  0.34422670764E-01  0.51100000000E-03 0.  1.
</event>
<event>
 8    1  0.1118868E+005  0.1043930E+01  0.7957747E-01            NaN
         13   -1    0    0    0    0  0.00000000000E+00  0.00000000000E+00  0.74505805969E-08  0.10566000000E+00  0.10566000000E+00 0.  1.
     999900   -1    0    0    0    0 -0.00000000000E+00 -0.00000000000E+00 -0.74505805969E-08  0.93827000000E+00  0.93827000000E+00 0.  1.
     999902    2    1    2    0    0  0.93278908484E-02  0.18001476177E-01  0.12265312090E-01  0.10202339967E+01  0.10199587773E+01 0.  0.
     999903    2    3    3    0    0  0.27599805995E-01 -0.12349960104E+00  0.12521829168E-01  0.12874283939E+00  0.20100292086E-01 0.  0.
         14    1    1    2    0    0 -0.93278908484E-02 -0.18001476177E-01 -0.12265312090E-01  0.23696003311E-01  0.00000000000E+00 0. -1.
     999901    1    3    3    0    0 -0.18271915147E-01  0.14150107721E+00 -0.25651707849E-03  0.89149115730E+00  0.88000000000E+00 0. -1.
        -11    1    4    4    0    0  0.83878381863E-03 -0.24947702814E-01  0.90671396287E-02  0.26562484373E-01  0.51100000000E-03 0. -1.
         11    1    4    4    0    0  0.26761022177E-01 -0.98551898223E-01  0.34546895397E-02  0.10218035502E+00  0.51100000000E-03 0.  1.
</event>
<event>
 8    1  0.1118868E+005  0.1043930E+01  0.7957747E-01            NaN
         13   -1    0    0    0    0  0.00000000000E+00  0.00000000000E+00  0.74505805969E-08  0.10566000000E+00  0.10566000000E+00 0. -1.
     999900   -1    0    0    0    0 -0.00000000000E+00 -0.00000000000E+00 -0.74505805969E-08  0.93827000000E+00  0.93827000000E+00 0.  1.
     999902    2    1    2    0    0 -0.15078259050E-01  0.14904134910E-01 -0.13413631996E-01  0.10188419021E+01  0.10185329689E+01 0.  0.
     999903    2    3    3    0    0  0.10422307462E-01 -0.71338046340E-01 -0.10399113560E+00  0.12963310947E+00  0.28157511243E-01 0.  0.
         14    1    1    2    0    0  0.15078259050E-01 -0.14904134910E-01  0.13413631996E-01  0.25088097910E-01  0.00000000000E+00 0. -1.
     999901    1    3    3    0    0 -0.25500566512E-01  0.86242181250E-01  0.90577503599E-01  0.88920879262E+00  0.88000000000E+00 0. -1.
        -11    1    4    4    0    0  0.13814899246E-01 -0.24318516716E-01 -0.54629396078E-01  0.61374862389E-01  0.51100000000E-03 0. -1.
         11    1    4    4    0    0 -0.33925917834E-02 -0.47019529624E-01 -0.49361739518E-01  0.68258247079E-01  0.51100000000E-03 0.  1.
</event>
<event>
 8    1  0.1118868E+005  0.1043930E+01  0.7957747E-01            NaN
         13   -1    0    0    0    0  0.00000000000E+00  0.00000000000E+00  0.74505805969E-08  0.10566000000E+00  0.10566000000E+00 0.  1.
     999900   -1    0    0    0    0 -0.00000000000E+00 -0.00000000000E+00 -0.74505805969E-08  0.93827000000E+00  0.93827000000E+00 0.  1.
     999902    2    1    2    0    0 -0.18753153290E-01  0.48287448616E-02 -0.12128763426E-01  0.10210803952E+01  0.10208247005E+01 0.  0.
     999903    2    3    3    0    0 -0.11920883595E+00  0.56978241563E-01 -0.12211705545E-01  0.13383132026E+00  0.17447921092E-01 0.  0.
         14    1    1    2    0    0  0.18753153290E-01 -0.48287448616E-02  0.12128763426E-01  0.22849604756E-01  0.00000000000E+00 0. -1.
     999901    1    3    3    0    0  0.10045568266E+00 -0.52149496701E-01  0.82942118821E-04  0.88724907499E+00  0.88000000000E+00 0.  1.
        -11    1    4    4    0    0 -0.31965636915E-01  0.11865422082E-01  0.38181195287E-02  0.34313690304E-01  0.51100000000E-03 0.  1.
         11    1    4    4    0    0 -0.87243199032E-01  0.45112819481E-01 -0.16029825074E-01  0.99517629954E-01  0.51100000000E-03 0. -1.
</event>
<event>
 8    1  0.1118868E+005  0.1043930E+01  0.7957747E-01            NaN
         13   -1    0    0    0    0  0.00000000000E+00  0.00000000000E+00  0.74505805969E-08  0.10566000000E+00  0.10566000000E+00 0. -1.
     999900   -1    0    0    0    0 -0.00000000000E+00 -0.00000000000E+00 -0.74505805969E-08  0.93827000000E+00  0.93827000000E+00 0.  1.
     999902    2    1    2    0    0 -0.33746780740E-02 -0.23020207395E-01 -0.53739031683E-02  0.10200511969E+01  0.10197716642E+01 0.  0.
     999903    2    3    3    0    0 -0.11498471234E+00 -0.52761564445E-01 -0.31651754730E-01  0.13211433344E+00  0.21144662900E-01 0.  0.
         14    1    1    2    0    0  0.33746780740E-02  0.23020207395E-01  0.53739031683E-02  0.23878803066E-01  0.00000000000E+00 0.  1.
     999901    1    3    3    0    0  0.11161003426E+00  0.29741357051E-01  0.26277851562E-01  0.88793686349E+00  0.88000000000E+00 0. -1.
        -11    1    4    4    0    0 -0.72733231698E-01 -0.42455651751E-01 -0.15011492163E-01  0.85546545089E-01  0.51100000000E-03 0. -1.
         11    1    4    4    0    0 -0.42251480639E-01 -0.10305912695E-01 -0.16640262567E-01  0.46567788351E-01  0.51100000000E-03 0.  1.
</event>
<event>
 8    1  0.1118868E+005  0.1043930E+01  0.7957747E-01            NaN
         13   -1    0    0    0    0  0.00000000000E+00  0.00000000000E+00  0.74505805969E-08  0.10566000000E+00  0.10566000000E+00 0.  1.
     999900   -1    0    0    0    0 -0.00000000000E+00 -0.00000000000E+00 -0.74505805969E-08  0.93827000000E+00  0.93827000000E+00 0.  1.
     999902    2    1    2    0    0 -0.56465427069E-02 -0.20385937312E-01  0.52735462459E-02  0.10221290786E+01  0.10218965570E+01 0.  0.
     999903    2    3    3    0    0 -0.35604242240E-01  0.12113279454E+00 -0.22618216827E-01  0.12988305552E+00  0.20425679879E-01 0.  0.
         14    1    1    2    0    0  0.56465427069E-02  0.20385937312E-01 -0.52735462459E-02  0.21800921417E-01  0.00000000000E+00 0. -1.
     999901    1    3    3    0    0  0.29957699533E-01 -0.14151873186E+00  0.27891763073E-01  0.89224602306E+00  0.88000000000E+00 0.  1.
        -11    1    4    4    0    0 -0.18410406775E-01  0.88321784546E-01 -0.10131586168E-01  0.90788715501E-01  0.51100000000E-03 0.  1.
         11    1    4    4    0    0 -0.17193835466E-01  0.32811009998E-01 -0.12486630659E-01  0.39094340017E-01  0.51100000000E-03 0. -1.
</event>
<event>
 8    1  0.1118868E+005  0.1043930E+01  0.7957747E-01            NaN
         13   -1    0    0    0    0  0.00000000000E+00  0.00000000000E+00  0.74505805969E-08  0.10566000000E+00  0.10566000000E+00 0. -1.
     999900   -1    0    0    0    0 -0.00000000000E+00 -0.00000000000E+00 -0.74505805969E-08  0.93827000000E+00  0.93827000000E+00 0.  1.
     999902    2    1    2    0    0 -0.21997770622E-01 -0.25628509811E-02  0.13905682091E-01  0.10177797015E+01  0.10174437000E+01 0.  0.
     999903    2    3    3    0    0 -0.14553945778E-01 -0.23880123370E-01  0.12578813462E+00  0.13040857293E+00  0.20041543122E-01 0.  0.
         14    1    1    2    0    0  0.21997770622E-01  0.25628509811E-02 -0.13905682091E-01  0.26150298505E-01  0.00000000000E+00 0.  1.
     999901    1    3    3    0    0 -0.74438248438E-02  0.21317272389E-01 -0.11188245253E+00  0.88737112857E+00  0.88000000000E+00 0.  1.
        -11    1    4    4    0    0 -0.14494704396E-01 -0.23923805717E-01  0.82448135340E-01  0.87065498779E-01  0.51100000000E-03 0. -1.
         11    1    4    4    0    0 -0.59241382637E-04  0.43682346760E-04  0.43339999284E-01  0.43343074148E-01  0.51100000000E-03 0.  1.
</event>
<event>
 8    1  0.1118868E+005  0.1043930E+01  0.7957747E-01            NaN
         13   -1    0    0    0    0  0.00000000000E+00  0.00000000000E+00  0.74505805969E-08  0.10566000000E+00  0.10566000000E+00 0.  1.
     999900   -1    0    0    0    0 -0.00000000000E+00 -0.00000000000E+00 -0.74505805969E-08  0.93827000000E+00  0.93827000000E+00 0.  1.
     999902    2    1    2    0    0  0.44506456906E-02  0.11319777041E-01 -0.19708771845E-01  0.10207700931E+01  0.10205073257E+01 0.  0.
     999903    2    3    3    0    0 -0.10396117846E+00 -0.54215172270E-01 -0.54645775137E-01  0.13101251523E+00  0.20758296573E-01 0.  0.
         14    1    1    2    0    0 -0.44506456906E-02 -0.11319777041E-01  0.19708771845E-01  0.23159906886E-01  0.00000000000E+00 0.  1.
     999901    1    3    3    0    0  0.10841182415E+00  0.65534949311E-01  0.34937003292E-01  0.88975757788E+00  0.88000000000E+00 0. -1.
        -11    1    4    4    0    0 -0.60767570766E-01 -0.39489551334E-01 -0.25339241678E-01  0.76775390661E-01  0.51100000000E-03 0.  1.
         11    1    4    4    0    0 -0.43193607694E-01 -0.14725620936E-01 -0.29306533459E-01  0.54237124573E-01  0.51100000000E-03 0. -1.
</event>
<event>
 8    1  0.1118868E+005  0.1043930E+01  0.7957747E-01            NaN
         13   -1    0    0    0    0  0.00000000000E+00  0.00000000000E+00  0.74505805969E-08  0.10566000000E+00  0.10566000000E+00 0.  1.
     999900   -1    0    0    0    0 -0.00000000000E+00 -0.00000000000E+00 -0.74505805969E-08  0.93827000000E+00  0.93827000000E+00 0. -1.
     999902    2    1    2    0    0 -0.12880938460E-01  0.12519191742E-01 -0.13840011695E-01  0.10212541392E+01  0.10210023615E+01 0.  0.
     999903    2    3    3    0    0  0.22960096231E-01 -0.92445317001E-01  0.84605424085E-01  0.12884524659E+00  0.19228029768E-01 0.  0.
         14    1    1    2    0    0  0.12880938460E-01 -0.12519191742E-01  0.13840011695E-01  0.22675860760E-01  0.00000000000E+00 0.  1.
     999901    1    3    3    0    0 -0.35841034691E-01  0.10496450874E+00 -0.98445435781E-01  0.89240889265E+00  0.88000000000E+00 0. -1.
        -11    1    4    4    0    0  0.63629676815E-02 -0.62959366083E-01  0.57140615169E-01  0.85262419378E-01  0.51100000000E-03 0.  1.
         11    1    4    4    0    0  0.16597128549E-01 -0.29485950917E-01  0.27464808917E-01  0.43582827208E-01  0.51100000000E-03 0. -1.
</event>
<event>
 8    1  0.1118868E+005  0.1043930E+01  0.7957747E-01            NaN
         13   -1    0    0    0    0  0.00000000000E+00  0.00000000000E+00  0.74505805969E-08  0.10566000000E+00  0.10566000000E+00 0.  1.
     999900   -1    0    0    0    0 -0.00000000000E+00 -0.00000000000E+00 -0.74505805969E-08  0.93827000000E+00  0.93827000000E+00 0.  1.
     999902    2    1    2    0    0  0.30706941132E-02  0.26475586950E-01  0.53930562405E-02  0.10167367854E+01  0.10163730712E+01 0.  0.
     999903    2    3    3    0    0  0.14314430647E-01  0.10470501097E+00 -0.71194113249E-01  0.12988174708E+00  0.25152022138E-01 0.  0.
         14    1    1    2    0    0 -0.30706941132E-02 -0.26475586950E-01 -0.53930562405E-02  0.27193214637E-01  0.00000000000E+00 0. -1.
     999901    1    3    3    0    0 -0.11243736534E-01 -0.78229424017E-01  0.76587169490E-01  0.88685503828E+00  0.88000000000E+00 0. -1.
        -11    1    4    4    0    0  0.17709220963E-01  0.40105568015E-01 -0.26095415090E-01  0.51022592081E-01  0.51100000000E-03 0.  1.
         11    1    4    4    0    0 -0.33947903158E-02  0.64599442951E-01 -0.45098698159E-01  0.78859155002E-01  0.51100000000E-03 0. -1.
</event>
<event>
 8    1  0.1118868E+005  0.1043930E+01  0.7957747E-01            NaN
         13   -1    0    0    0    0  0.00000000000E+00  0.00000000000E+00  0.74505805969E-08  0.10566000000E+00  0.10566000000E+00 0.  1.
     999900   -1    0    0    0    0 -0.00000000000E+00 -0.00000000000E+00 -0.74505805969E-08  0.93827000000E+00  0.93827000000E+00 0. -1.
     999902    2    1    2    0    0 -0.83959695744E-02  0.80537891882E-02  0.20499412292E-01  0.10203592187E+01  0.10200869343E+01 0.  0.
     999903    2    3    3    0    0 -0.12481595000E-01 -0.11773747405E+00  0.51259508104E-01  0.13087267148E+00  0.21959416236E-01 0.  0.
         14    1    1    2    0    0  0.83959695744E-02 -0.80537891882E-02 -0.20499412292E-01  0.23570781270E-01  0.00000000000E+00 0. -1.
     999901    1    3    3    0    0  0.40856254254E-02  0.12579126323E+00 -0.30760095812E-01  0.88948654725E+00  0.88000000000E+00 0. -1.
        -11    1    4    4    0    0 -0.25258452711E-03 -0.51158507454E-01  0.32556135059E-01  0.60641732618E-01  0.51100000000E-03 0. -1.
         11    1    4    4    0    0 -0.12229010473E-01 -0.66578966591E-01  0.18703373045E-01  0.70230938864E-01  0.51100000000E-03 0.  1.
</event>
<event>
 8    1  0.1118868E+005  0.1043930E+01  0.7957747E-01            NaN
         13   -1    0    0    0    0  0.00000000000E+00  0.00000000000E+00  0.74505805969E-08  0.10566000000E+00  0.10566000000E+00 0. -1.
     999900   -1    0    0    0    0 -0.00000000000E+00 -0.00000000000E+00 -0.74505805969E-08  0.93827000000E+00  0.93827000000E+00 0. -1.
     999902    2    1    2    0    0  0.19233198877E-01 -0.80240302459E-02 -0.10300603501E-01  0.10206834210E+01  0.10204186604E+01 0.  0.
     999903    2    3    3    0    0 -0.93164778868E-02  0.84551663755E-01 -0.98001021848E-01  0.13103365483E+00  0.18161437442E-01 0.  0.
         14    1    1    2    0    0 -0.19233198877E-01  0.80240302459E-02  0.10300603501E-01  0.23246578950E-01  0.00000000000E+00 0. -1.
     999901    1    3    3    0    0  0.28549676763E-01 -0.92575694001E-01  0.87700418347E-01  0.88964976622E+00  0.88000000000E+00 0.  1.
        -11    1    4    4    0    0 -0.69699497572E-02  0.54989710015E-01 -0.76175113284E-01  0.94209115334E-01  0.51100000000E-03 0.  1.
         11    1    4    4    0    0 -0.23465281296E-02  0.29561953740E-01 -0.21825908563E-01  0.36824539492E-01  0.51100000000E-03 0. -1.
</event>
<event>
 8    1  0.1118868E+005  0.1043930E+01  0.7957747E-01            NaN
         13   -1    0    0    0    0  0.00000000000E+00  0.00000000000E+00  0.74505805969E-08  0.10566000000E+00  0.10566000000E+00 0.  1.
     999900   -1    0    0    0    0 -0.00000000000E+00 -0.00000000000E+00 -0.74505805969E-08  0.93827000000E+00  0.93827000000E+00 0. -1.
     999902    2    1    2    0    0 -0.21486681958E-01  0.83747041585E-02 -0.74074863325E-02  0.10197084388E+01  0.10194207258E+01 0.  0.
     999903    2    3    3    0    0 -0.15319055773E-01  0.10629985350E+00  0.72255722576E-01  0.13067885478E+00  0.17937149062E-01 0.  0.
         14    1    1    2    0    0  0.21486681958E-01 -0.83747041585E-02  0.74074863325E-02  0.24221561161E-01  0.00000000000E+00 0.  1.
     999901    1    3    3    0    0 -0.61676261851E-02 -0.97925149342E-01 -0.79663208908E-01  0.88902958406E+00  0.88000000000E+00 0. -1.
        -11    1    4    4    0    0  0.82042909796E-03  0.23943614819E-01  0.23783209723E-01  0.33761990170E-01  0.51100000000E-03 0.  1.
         11    1    4    4    0    0 -0.16139484871E-01  0.82356238682E-01  0.48472512852E-01  0.96916864605E-01  0.51100000000E-03 0. -1.
</event>
<event>
 8    1  0.1118868E+005  0.1043930E+01  0.7957747E-01            NaN
         13   -1    0    0    0    0  0.00000000000E+00  0.00000000000E+00  0.74505805969E-08  0.10566000000E+00  0.10566000000E+00 0.  1.
     999900   -1    0    0    0    0 -0.00000000000E+00 -0.00000000000E+00 -0.74505805969E-08  0.93827000000E+00  0.93827000000E+00 0. -1.
     999902    2    1    2    0    0 -0.16338176037E-01  0.13664132891E-01 -0.11419581825E-01  0.10197628452E+01  0.10194764387E+01 0.  0.
     999903    2    3    3    0    0  0.62200860137E-01  0.92175036752E-01  0.63610257789E-01  0.12961576796E+00  0.19717961476E-01 0.  0.
         14    1    1    2    0    0  0.16338176037E-01 -0.13664132891E-01  0.11419581825E-01  0.24167154837E-01  0.00000000000E+00 0.  1.
     999901    1    3    3    0    0 -0.78539036174E-01 -0.78510903861E-01 -0.75029839614E-01  0.89014707721E+00  0.88000000000E+00 0. -1.
        -11    1    4    4    0    0  0.12472940921E-01  0.26693421769E-01  0.25579417232E-01  0.39021541844E-01  0.51100000000E-03 0. -1.
         11    1    4    4    0    0  0.49727919215E-01  0.65481614983E-01  0.38030840557E-01  0.90594226112E-01  0.51100000000E-03 0.  1.
</event>
<event>
 8    1  0.1439062E+005  0.1043930E+01  0.7957747E-01            NaN
         13   -1    0    0    0    0  0.00000000000E+00  0.00000000000E+00  0.74505805969E-08  0.10566000000E+00  0.10566000000E+00 0.  1.
     999900   -1    0    0    0    0 -0.00000000000E+00 -0.00000000000E+00 -0.74505805969E-08  0.93827000000E+00  0.93827000000E+00 0. -1.
     999902    2    1    2    0    0 -0.12486051386E-01  0.19154783843E-01  0.21771533666E-02  0.10209616039E+01  0.10207032132E+01 0.  0.
     999903    2    3    3    0    0 -0.14806113057E-01 -0.12518955803E-01 -0.12813250013E+00  0.13079913879E+00  0.17735046662E-01 0.  0.
         14    1    1    2    0    0  0.12486051386E-01 -0.19154783843E-01 -0.21771533666E-02  0.22968396114E-01  0.00000000000E+00 0. -1.
     999901    1    3    3    0    0  0.23200616716E-02  0.31673739646E-01  0.13030965350E+00  0.89016246510E+00  0.88000000000E+00 0.  1.
        -11    1    4    4    0    0 -0.15537028135E-01 -0.86451102755E-02 -0.60777892236E-01  0.63327328071E-01  0.51100000000E-03 0.  1.
         11    1    4    4    0    0  0.73091507767E-03 -0.38738455275E-02 -0.67354607896E-01  0.67471810720E-01  0.51100000000E-03 0. -1.
</event>
<event>
 8    1  0.1118868E+005  0.1043930E+01  0.7957747E-01            NaN
         13   -1    0    0    0    0  0.00000000000E+00  0.00000000000E+00  0.74505805969E-08  0.10566000000E+00  0.10566000000E+00 0. -1.
     999900   -1    0    0    0    0 -0.00000000000E+00 -0.00000000000E+00 -0.74505805969E-08  0.93827000000E+00  0.93827000000E+00 0. -1.
     999902    2    1    2    0    0 -0.14285367531E-02 -0.14904251669E-01  0.17524665998E-01  0.10208802418E+01  0.10206199962E+01 0.  0.
     999903    2    3    3    0    0 -0.12775456316E+00 -0.21595287016E-01 -0.92033299815E-02  0.13143242395E+00  0.20054823681E-01 0.  0.
         14    1    1    2    0    0  0.14285367531E-02  0.14904251669E-01 -0.17524665998E-01  0.23049758207E-01  0.00000000000E+00 0.  1.
     999901    1    3    3    0    0  0.12632602641E+00  0.66910353472E-02  0.26727995979E-01  0.88944781785E+00  0.88000000000E+00 0.  1.
        -11    1    4    4    0    0 -0.42191098963E-01 -0.67759038916E-02  0.63739466821E-02  0.43207522754E-01  0.51100000000E-03 0.  1.
         11    1    4    4    0    0 -0.85563464196E-01 -0.14819383125E-01 -0.15577276664E-01  0.88224901194E-01  0.51100000000E-03 0. -1.
</event>
<event>
 8    1  0.1118868E+005  0.1043930E+01  0.7957747E-01            NaN
         13   -1    0    0    0    0  0.00000000000E+00  0.00000000000E+00  0.74505805969E-08  0.10566000000E+00  0.10566000000E+00 0. -1.
     999900   -1    0    0    0    0 -0.00000000000E+00 -0.00000000000E+00 -0.74505805969E-08  0.93827000000E+00  0.93827000000E+00 0.  1.
     999902    2    1    2    0    0  0.15259160252E-01  0.99891474724E-02 -0.25589646210E-02  0.10255133407E+01  0.10253479598E+01 0.  0.
     999903    2    3    3    0    0  0.12920077319E+00 -0.30088860317E-01  0.24608449412E-01  0.13684748325E+00  0.22879654317E-01 0.  0.
         14    1    1    2    0    0 -0.15259160252E-01 -0.99891474724E-02  0.25589646210E-02  0.18416659272E-01  0.00000000000E+00 0. -1.
     999901    1    3    3    0    0 -0.11394161293E+00  0.40078007789E-01 -0.27167414033E-01  0.88866585748E+00  0.88000000000E+00 0.  1.
        -11    1    4    4    0    0  0.50335626094E-01 -0.24442117275E-02  0.15783732278E-01  0.52811331652E-01  0.51100000000E-03 0. -1.
         11    1    4    4    0    0  0.78865147092E-01 -0.27644648589E-01  0.88247171347E-02  0.84036151595E-01  0.51100000000E-03 0.  1.
</event>
<event>
 8    1  0.1118868E+005  0.1043930E+01  0.7957747E-01            NaN
         13   -1    0    0    0    0  0.00000000000E+00  0.00000000000E+00  0.74505805969E-08  0.10566000000E+00  0.10566000000E+00 0. -1.
     999900   -1    0    0    0    0 -0.00000000000E+00 -0.00000000000E+00 -0.74505805969E-08  0.93827000000E+00  0.93827000000E+00 0.  1.
     999902    2    1    2    0    0  0.16005555592E-01 -0.65208303852E-02 -0.17045124451E-01  0.10196558305E+01  0.10193668512E+01 0.  0.
     999903    2    3    3    0    0  0.90440012394E-01  0.85419008443E-01  0.32942723936E-01  0.13033462455E+00  0.20641910042E-01 0.  0.
         14    1    1    2    0    0 -0.16005555592E-01  0.65208303852E-02  0.17045124451E-01  0.24274169528E-01  0.00000000000E+00 0.  1.
     999901    1    3    3    0    0 -0.74434456802E-01 -0.91939838828E-01 -0.49987848387E-01  0.88932120593E+00  0.88000000000E+00 0.  1.
        -11    1    4    4    0    0  0.77532076405E-01  0.63798283802E-01  0.30952023307E-01  0.10507013256E+00  0.51100000000E-03 0. -1.
         11    1    4    4    0    0  0.12907935988E-01  0.21620724641E-01  0.19907006287E-02  0.25264491989E-01  0.51100000000E-03 0.  1.
</event>
<event>
 8    1  0.1118868E+005  0.1043930E+01  0.7957747E-01            NaN
         13   -1    0    0    0    0  0.00000000000E+00  0.00000000000E+00  0.74505805969E-08  0.10566000000E+00  0.10566000000E+00 0. -1.
     999900   -1    0    0    0    0 -0.00000000000E+00 -0.00000000000E+00 -0.74505805969E-08  0.93827000000E+00  0.93827000000E+00 0.  1.
     999902    2    1    2    0    0  0.10591453301E-02 -0.97877956881E-02  0.20607729473E-01  0.10210914088E+01  0.10208359633E+01 0.  0.
     999903    2    3    3    0    0 -0.11485346843E+00  0.42470666443E-01 -0.38696955222E-01  0.12997765260E+00  0.20041434876E-01 0.  0.
         14    1    1    2    0    0 -0.10591453301E-02  0.97877956881E-02 -0.20607729473E-01  0.22838591185E-01  0.00000000000E+00 0.  1.
     999901    1    3    3    0    0  0.11591261376E+00 -0.52258462131E-01  0.59304684696E-01  0.89111375622E+00  0.88000000000E+00 0. -1.
        -11    1    4    4    0    0 -0.92751449823E-01  0.26287936803E-01 -0.33708532067E-01  0.10212939499E+00  0.51100000000E-03 0.  1.
         11    1    4    4    0    0 -0.22102018611E-01  0.16182729640E-01 -0.49884231554E-02  0.27848257609E-01  0.51100000000E-03 0. -1.
</event>
<event>
 8    1  0.1118868E+005  0.1043930E+01  0.7957747E-01            NaN
         13   -1    0    0    0    0  0.00000000000E+00  0.00000000000E+00  0.74505805969E-08  0.10566000000E+00  0.10566000000E+00 0.  1.
     999900   -1    0    0    0    0 -0.00000000000E+00 -0.00000000000E+00 -0.74505805969E-08  0.93827000000E+00  0.93827000000E+00 0.  1.
     999902    2    1    2    0    0  0.19715292704E-01  0.56057854215E-02 -0.13746225271E-01  0.10192505287E+01  0.10189516985E+01 0.  0.
     999903    2    3    3    0    0  0.97593704603E-01 -0.48317521030E-01 -0.72379221048E-01  0.13222708014E+00  0.19650319770E-01 0.  0.
         14    1    1    2    0    0 -0.19715292704E-01 -0.56057854215E-02  0.13746225271E-01  0.24679471343E-01  0.00000000000E+00 0. -1.
     999901    1    3    3    0    0 -0.77878411899E-01  0.53923306452E-01  0.58632995777E-01  0.88702344851E+00  0.88000000000E+00 0.  1.
        -11    1    4    4    0    0  0.85267582318E-01 -0.34353588204E-01 -0.58076229648E-01  0.10873747830E+00  0.51100000000E-03 0. -1.
         11    1    4    4    0    0  0.12326122284E-01 -0.13963932826E-01 -0.14302991400E-01  0.23489601839E-01  0.51100000000E-03 0.  1.
</event>
<event>
 8    1  0.1118868E+005  0.1043930E+01  0.7957747E-01            NaN
         13   -1    0    0    0    0  0.00000000000E+00  0.00000000000E+00  0.74505805969E-08  0.10566000000E+00  0.10566000000E+00 0.  1.
     999900   -1    0    0    0    0 -0.00000000000E+00 -0.00000000000E+00 -0.74505805969E-08  0.93827000000E+00  0.93827000000E+00 0.  1.
     999902    2    1    2    0    0 -0.16036207317E-01  0.10175594737E-01 -0.12039756438E-01  0.10214431503E+01  0.10211955988E+01 0.  0.
     999903    2    3    3    0    0  0.18361278239E-01 -0.77527605642E-01  0.99955183252E-01  0.12935688494E+00  0.19861995041E-01 0.  0.
         14    1    1    2    0    0  0.16036207317E-01 -0.10175594737E-01  0.12039756438E-01  0.22486849678E-01  0.00000000000E+00 0.  1.
     999901    1    3    3    0    0 -0.34397485556E-01  0.87703200379E-01 -0.11199493969E+00  0.89208626538E+00  0.88000000000E+00 0.  1.
        -11    1    4    4    0    0 -0.37214386202E-02 -0.21424737752E-01  0.24272456627E-01  0.32592664279E-01  0.51100000000E-03 0. -1.
         11    1    4    4    0    0  0.22082716859E-01 -0.56102867890E-01  0.75682726625E-01  0.96764220659E-01  0.51100000000E-03 0.  1.
</event>
<event>
 8    1  0.1118868E+005  0.1043930E+01  0.7957747E-01            NaN
         13   -1    0    0    0    0  0.00000000000E+00  0.00000000000E+00  0.74505805969E-08  0.10566000000E+00  0.10566000000E+00 0. -1.
     999900   -1    0    0    0    0 -0.00000000000E+00 -0.00000000000E+00 -0.74505805969E-08  0.93827000000E+00  0.93827000000E+00 0.  1.
     999902    2    1    2    0    0 -0.17386184362E-02  0.22383261384E-01 -0.68610406489E-02  0.10204543304E+01  0.10201842644E+01 0.  0.
     999903    2    3    3    0    0  0.13554415646E-01 -0.13357398360E-01  0.12650811561E+00  0.12955669123E+00  0.20457044061E-01 0.  0.
         14    1    1    2    0    0  0.17386184362E-02 -0.22383261384E-01  0.68610406489E-02  0.23475669597E-01  0.00000000000E+00 0. -1.
     999901    1    3    3    0    0 -0.15293034082E-01  0.35740659744E-01 -0.13336915626E+00  0.89089763918E+00  0.88000000000E+00 0.  1.
        -11    1    4    4    0    0  0.18009722564E-01 -0.14593109653E-01  0.10921001001E+00  0.11164406103E+00  0.51100000000E-03 0.  1.
         11    1    4    4    0    0 -0.44553069178E-02  0.12357112937E-02  0.17298105602E-01  0.17912630197E-01  0.51100000000E-03 0. -1.
</event>
<event>
 8    1  0.1118868E+005  0.1043930E+01  0.7957747E-01            NaN
         13   -1    0    0    0    0  0.00000000000E+00  0.00000000000E+00  0.74505805969E-08  0.10566000000E+00  0.10566000000E+00 0.  1.
     999900   -1    0    0    0    0 -0.00000000000E+00 -0.00000000000E+00 -0.74505805969E-08  0.93827000000E+00  0.93827000000E+00 0. -1.
     999902    2    1    2    0    0  0.71552299468E-02  0.33735715391E-02  0.21295995381E-01  0.10212122158E+01  0.10209594957E+01 0.  0.
     999903    2    3    3    0    0  0.12511346903E+00  0.34143781856E-01  0.19916586226E-01  0.13280754741E+00  0.20542547846E-01 0.  0.
         14    1    1    2    0    0 -0.71552299468E-02 -0.33735715391E-02 -0.21295995381E-01  0.22717784219E-01  0.00000000000E+00 0. -1.
     999901    1    3    3    0    0 -0.11795823908E+00 -0.30770210317E-01  0.13794091555E-02  0.88840466837E+00  0.88000000000E+00 0.  1.
        -11    1    4    4    0    0  0.69792365605E-01  0.93751599830E-02  0.64590047044E-02  0.70716672604E-01  0.51100000000E-03 0.  1.
         11    1    4    4    0    0  0.55321103421E-01  0.24768621873E-01  0.13457581522E-01  0.62090874809E-01  0.51100000000E-03 0. -1.
</event>
<event>
 8    1  0.1118868E+005  0.1043930E+01  0.7957747E-01            NaN
         13   -1    0    0    0    0  0.00000000000E+00  0.00000000000E+00  0.74505805969E-08  0.10566000000E+00  0.10566000000E+00 0. -1.
     999900   -1    0    0    0    0 -0.00000000000E+00 -0.00000000000E+00 -0.74505805969E-08  0.93827000000E+00  0.93827000000E+00 0.  1.
     999902    2    1    2    0    0 -0.14931595295E-01  0.63078906489E-04  0.18429341266E-01  0.10202108698E+01  0.10199351066E+01 0.  0.
     999903    2    3    3    0    0  0.45562118406E-01 -0.33740451500E-01 -0.11270553933E+00  0.12779923555E+00  0.20390716284E-01 0.  0.
         14    1    1    2    0    0  0.14931595295E-01 -0.63078906489E-04 -0.18429341266E-01  0.23719130180E-01  0.00000000000E+00 0.  1.
     999901    1    3    3    0    0 -0.60493713701E-01  0.33803530407E-01  0.13113488060E+00  0.89241163427E+00  0.88000000000E+00 0. -1.
        -11    1    4    4    0    0  0.39645419781E-01 -0.18479048371E-01 -0.78146978519E-01  0.89556942283E-01  0.51100000000E-03 0.  1.
         11    1    4    4    0    0  0.59166986252E-02 -0.15261403130E-01 -0.34558560814E-01  0.38242293271E-01  0.51100000000E-03 0. -1.
</event>
<event>
 8    1  0.1118868E+005  0.1043930E+01  0.7957747E-01            NaN
         13   -1    0    0    0    0  0.00000000000E+00  0.00000000000E+00  0.74505805969E-08  0.10566000000E+00  0.10566000000E+00 0. -1.
     999900   -1    0    0    0    0 -0.00000000000E+00 -0.00000000000E+00 -0.74505805969E-08  0.93827000000E+00  0.93827000000E+00 0. -1.
     999902    2    1    2    0    0 -0.20002165208E-01 -0.66457391008E-02 -0.93625547932E-02  0.10208668282E+01  0.10206062762E+01 0.  0.
     999903    2    3    3    0    0  0.28900597502E-01  0.12036165212E+00 -0.35463750823E-01  0.13002249272E+00  0.18055446650E-01 0.  0.
         14    1    1    2    0    0  0.20002165208E-01  0.66457391008E-02  0.93625547932E-02  0.23063171800E-01  0.00000000000E+00 0. -1.
     999901    1    3    3    0    0 -0.48902762710E-01 -0.12700739122E+00  0.26101196030E-01  0.89084433548E+00  0.88000000000E+00 0. -1.
        -11    1    4    4    0    0 -0.12475945691E-02  0.25840553962E-01 -0.76997095603E-02  0.26996988158E-01  0.51100000000E-03 0. -1.
         11    1    4    4    0    0  0.30148192071E-01  0.94521098156E-01 -0.27764041263E-01  0.10302550456E+00  0.51100000000E-03 0.  1.
</event>
<event>
 8    1  0.1118868E+005  0.1043930E+01  0.7957747E-01            NaN
         13   -1    0    0    0    0  0.00000000000E+00  0.00000000000E+00  0.74505805969E-08  0.10566000000E+00  0.10566000000E+00 0. -1.
     999900   -1    0    0    0    0 -0.00000000000E+00 -0.00000000000E+00 -0.74505805969E-08  0.93827000000E+00  0.93827000000E+00 0. -1.
     999902    2    1    2    0    0  0.14225534373E-02 -0.74213060699E-02  0.22326211043E-01  0.10203596979E+01  0.10200874247E+01 0.  0.
     999903    2    3    3    0    0 -0.62443076148E-01  0.10597705956E+00 -0.33409981321E-01  0.12904351880E+00  0.20142690495E-01 0.  0.
         14    1    1    2    0    0 -0.14225534373E-02  0.74213060699E-02 -0.22326211043E-01  0.23570302111E-01  0.00000000000E+00 0.  1.
     999901    1    3    3    0    0  0.63865629586E-01 -0.11339836563E+00  0.55736192365E-01  0.89131617909E+00  0.88000000000E+00 0. -1.
        -11    1    4    4    0    0 -0.43236825179E-01  0.58749118375E-01 -0.26404823495E-01  0.77578075422E-01  0.51100000000E-03 0. -1.
         11    1    4    4    0    0 -0.19206250969E-01  0.47227941183E-01 -0.70051578266E-02  0.51465443376E-01  0.51100000000E-03 0.  1.
</event>
<event>
 8    1  0.1118868E+005  0.1043930E+01  0.7957747E-01            NaN
         13   -1    0    0    0    0  0.00000000000E+00  0.00000000000E+00  0.74505805969E-08  0.10566000000E+00  0.10566000000E+00 0. -1.
     999900   -1    0    0    0    0 -0.00000000000E+00 -0.00000000000E+00 -0.74505805969E-08  0.93827000000E+00  0.93827000000E+00 0.  1.
     999902    2    1    2    0    0  0.10730302033E-01  0.13744708146E-01  0.83250777732E-02  0.10246073888E+01  0.10244251744E+01 0.  0.
     999903    2    3    3    0    0  0.11284709421E+00  0.58635430903E-01 -0.44040088557E-01  0.13602136208E+00  0.19740848845E-01 0.  0.
         14    1    1    2    0    0 -0.10730302033E-01 -0.13744708146E-01 -0.83250777732E-02  0.19322611202E-01  0.00000000000E+00 0.  1.
     999901    1    3    3    0    0 -0.10211679218E+00 -0.44890722756E-01  0.52365166330E-01  0.88858602672E+00  0.88000000000E+00 0. -1.
        -11    1    4    4    0    0  0.74653849420E-01  0.30432929328E-01 -0.33971670892E-01  0.87485404296E-01  0.51100000000E-03 0. -1.
         11    1    4    4    0    0  0.38193244790E-01  0.28202501575E-01 -0.10068417665E-01  0.48535957783E-01  0.51100000000E-03 0.  1.
</event>
<event>
 8    1  0.1118868E+005  0.1043930E+01  0.7957747E-01            NaN
         13   -1    0    0    0    0  0.00000000000E+00  0.00000000000E+00  0.74505805969E-08  0.10566000000E+00  0.10566000000E+00 0.  1.
     999900   -1    0    0    0    0 -0.00000000000E+00 -0.00000000000E+00 -0.74505805969E-08  0.93827000000E+00  0.93827000000E+00 0. -1.
     999902    2    1    2    0    0 -0.22591037702E-01 -0.18372533666E-02  0.19703323643E-01  0.10138974935E+01  0.10134526017E+01 0.  0.
     999903    2    3    3    0    0  0.10097884404E+00 -0.31809447166E-01  0.60997526653E-01  0.12380027449E+00  0.19930926568E-01 0.  0.
         14    1    1    2    0    0  0.22591037702E-01  0.18372533666E-02 -0.19703323643E-01  0.30032506505E-01  0.00000000000E+00 0. -1.
     999901    1    3    3    0    0 -0.12356988174E+00  0.29972193799E-01 -0.41294203010E-01  0.89009721900E+00  0.88000000000E+00 0.  1.
        -11    1    4    4    0    0  0.62354993600E-01 -0.27757573531E-01  0.32321553440E-01  0.75521997146E-01  0.51100000000E-03 0. -1.
         11    1    4    4    0    0  0.38623850441E-01 -0.40518736352E-02  0.28675973213E-01  0.48278277346E-01  0.51100000000E-03 0.  1.
</event>
<event>
 8    1  0.1832998E+005  0.1043930E+01  0.7957747E-01            NaN
         13   -1    0    0    0    0  0.00000000000E+00  0.00000000000E+00  0.74505805969E-08  0.10566000000E+00  0.10566000000E+00 0.  1.
     999900   -1    0    0    0    0 -0.00000000000E+00 -0.00000000000E+00 -0.74505805969E-08  0.93827000000E+00  0.93827000000E+00 0. -1.
     999902    2    1    2    0    0  0.32968987227E-01 -0.70907355859E-02  0.29569616458E-02  0.10100777287E+01  0.10095102980E+01 0.  0.
     999903    2    3    3    0    0 -0.11032780617E-01 -0.11115273187E+00  0.44638900961E-01  0.12187592803E+00  0.19607608360E-01 0.  0.
         14    1    1    2    0    0 -0.32968987227E-01  0.70907355859E-02 -0.29569616458E-02  0.33852271299E-01  0.00000000000E+00 0.  1.
     999901    1    3    3    0    0  0.44001767844E-01  0.10406199628E+00 -0.41681939315E-01  0.88820180067E+00  0.88000000000E+00 0. -1.
        -11    1    4    4    0    0 -0.13278518244E-01 -0.39284601463E-01  0.14967503913E-01  0.44089525437E-01  0.51100000000E-03 0.  1.
         11    1    4    4    0    0  0.22457376274E-02 -0.71868130403E-01  0.29671397048E-01  0.77786402597E-01  0.51100000000E-03 0. -1.
</event>
<event>
 8    1  0.1118868E+005  0.1043930E+01  0.7957747E-01            NaN
         13   -1    0    0    0    0  0.00000000000E+00  0.00000000000E+00  0.74505805969E-08  0.10566000000E+00  0.10566000000E+00 0.  1.
     999900   -1    0    0    0    0 -0.00000000000E+00 -0.00000000000E+00 -0.74505805969E-08  0.93827000000E+00  0.93827000000E+00 0.  1.
     999902    2    1    2    0    0 -0.15198245969E-01  0.73754585542E-02  0.17096868299E-01  0.10198948804E+01  0.10196116320E+01 0.  0.
     999903    2    3    3    0    0 -0.10997110934E+00 -0.61909264030E-01 -0.27097162732E-01  0.13099928427E+00  0.22364131708E-01 0.  0.
         14    1    1    2    0    0  0.15198245969E-01 -0.73754585542E-02 -0.17096868299E-01  0.24035119618E-01  0.00000000000E+00 0. -1.
     999901    1    3    3    0    0  0.94772863375E-01  0.69284722584E-01  0.44194031031E-01  0.88889559612E+00  0.88000000000E+00 0.  1.
        -11    1    4    4    0    0 -0.15094818143E-01 -0.13507418003E-01 -0.11654398717E-01  0.23374986766E-01  0.51100000000E-03 0. -1.
         11    1    4    4    0    0 -0.94876291201E-01 -0.48401846027E-01 -0.15442764015E-01  0.10762429750E+00  0.51100000000E-03 0.  1.
</event>
<event>
 8    1  0.1118868E+005  0.1043930E+01  0.7957747E-01            NaN
         13   -1    0    0    0    0  0.00000000000E+00  0.00000000000E+00  0.74505805969E-08  0.10566000000E+00  0.10566000000E+00 0.  1.
     999900   -1    0    0    0    0 -0.00000000000E+00 -0.00000000000E+00 -0.74505805969E-08  0.93827000000E+00  0.93827000000E+00 0. -1.
     999902    2    1    2    0    0  0.22276686053E-01  0.56311963286E-04 -0.65451048654E-02  0.10207116385E+01  0.10204475276E+01 0.  0.
     999903    2    3    3    0    0 -0.14939480646E-02 -0.11365417422E+00  0.60908299469E-01  0.13051779475E+00  0.20138783575E-01 0.  0.
         14    1    1    2    0    0 -0.22276686053E-01 -0.56311963286E-04  0.65451048654E-02  0.23218361489E-01  0.00000000000E+00 0.  1.
     999901    1    3    3    0    0  0.23770634118E-01  0.11371048618E+00 -0.67453404334E-01  0.89019384376E+00  0.88000000000E+00 0. -1.
        -11    1    4    4    0    0 -0.18424850103E-02 -0.37345876863E-01  0.30933891589E-01  0.48531186257E-01  0.51100000000E-03 0. -1.
         11    1    4    4    0    0  0.34853694574E-03 -0.76308297356E-01  0.29974407880E-01  0.81986608493E-01  0.51100000000E-03 0.  1.
</event>
<event>
 8    1  0.1118868E+005  0.1043930E+01  0.7957747E-01            NaN
         13   -1    0    0    0    0  0.00000000000E+00  0.00000000000E+00  0.74505805969E-08  0.10566000000E+00  0.10566000000E+00 0. -1.
     999900   -1    0    0    0    0 -0.00000000000E+00 -0.00000000000E+00 -0.74505805969E-08  0.93827000000E+00  0.93827000000E+00 0. -1.
     999902    2    1    2    0    0 -0.26893503989E-02 -0.21185790598E-01 -0.10864443774E-01  0.10199694811E+01  0.10196880091E+01 0.  0.
     999903    2    3    3    0    0 -0.35486010218E-01 -0.98904821881E-01  0.76791616114E-01  0.13160049605E+00  0.19501731759E-01 0.  0.
         14    1    1    2    0    0  0.26893503989E-02  0.21185790598E-01  0.10864443774E-01  0.23960518930E-01  0.00000000000E+00 0. -1.
     999901    1    3    3    0    0  0.32796659819E-01  0.77719031283E-01 -0.87656059888E-01  0.88836898502E+00  0.88000000000E+00 0. -1.
        -11    1    4    4    0    0 -0.72327262272E-02 -0.46848211838E-01  0.29824062207E-01  0.56007169975E-01  0.51100000000E-03 0. -1.
         11    1    4    4    0    0 -0.28253283991E-01 -0.52056610043E-01  0.46967553907E-01  0.75593326070E-01  0.51100000000E-03 0.  1.
</event>
<event>
 8    1  0.1118868E+005  0.1043930E+01  0.7957747E-01            NaN
         13   -1    0    0    0    0  0.00000000000E+00  0.00000000000E+00  0.74505805969E-08  0.10566000000E+00  0.10566000000E+00 0. -1.
     999900   -1    0    0    0    0 -0.00000000000E+00 -0.00000000000E+00 -0.74505805969E-08  0.93827000000E+00  0.93827000000E+00 0. -1.
     999902    2    1    2    0    0  0.14944299452E-01 -0.51252043560E-02  0.19798913752E-01  0.10186002390E+01  0.10182852499E+01 0.  0.
     999903    2    3    3    0    0  0.11523948341E+00  0.44523882781E-01 -0.34485628231E-01  0.12985338683E+00  0.20251637975E-01 0.  0.
         14    1    1    2    0    0 -0.14944299452E-01  0.51252043560E-02 -0.19798913752E-01  0.25329760985E-01  0.00000000000E+00 0.  1.
     999901    1    3    3    0    0 -0.10029518396E+00 -0.49649087137E-01  0.54284541983E-01  0.88874685219E+00  0.88000000000E+00 0.  1.
        -11    1    4    4    0    0  0.64116011573E-01  0.20886224372E-01 -0.28503427861E-01  0.73210681115E-01  0.51100000000E-03 0. -1.
         11    1    4    4    0    0  0.51123471839E-01  0.23637658409E-01 -0.59822003701E-02  0.56642705710E-01  0.51100000000E-03 0.  1.
</event>
<event>
 8    1  0.1118868E+005  0.1043930E+01  0.7957747E-01            NaN
         13   -1    0    0    0    0  0.00000000000E+00  0.00000000000E+00  0.74505805969E-08  0.10566000000E+00  0.10566000000E+00 0.  1.
     999900   -1    0    0    0    0 -0.00000000000E+00 -0.00000000000E+00 -0.74505805969E-08  0.93827000000E+00  0.93827000000E+00 0. -1.
     999902    2    1    2    0    0  0.41614197478E-02  0.14449587698E-01  0.18146775331E-01  0.10203627886E+01  0.10200905876E+01 0.  0.
     999903    2    3    3    0    0 -0.48518330388E-01 -0.93714069432E-01  0.73908468020E-01  0.13042801616E+00  0.20313802239E-01 0.  0.
         14    1    1    2    0    0 -0.41614197478E-02 -0.14449587698E-01 -0.18146775331E-01  0.23567211415E-01  0.00000000000E+00 0. -1.
     999901    1    3    3    0    0  0.52679750136E-01  0.10816365713E+00 -0.55761692689E-01  0.88993477242E+00  0.88000000000E+00 0. -1.
        -11    1    4    4    0    0 -0.30248148833E-01 -0.56769620943E-01  0.32771557010E-01  0.72194019418E-01  0.51100000000E-03 0.  1.
         11    1    4    4    0    0 -0.18270181555E-01 -0.36944448489E-01  0.41136911010E-01  0.58233996743E-01  0.51100000000E-03 0. -1.
</event>
<event>
 8    1  0.1118868E+005  0.1043930E+01  0.7957747E-01            NaN
         13   -1    0    0    0    0  0.00000000000E+00  0.00000000000E+00  0.74505805969E-08  0.10566000000E+00  0.10566000000E+00 0.  1.
     999900   -1    0    0    0    0 -0.00000000000E+00 -0.00000000000E+00 -0.74505805969E-08  0.93827000000E+00  0.93827000000E+00 0.  1.
     999902    2    1    2    0    0 -0.29163195107E-01  0.60512293491E-02 -0.44780965389E-02  0.10138108587E+01  0.10133633576E+01 0.  0.
     999903    2    3    3    0    0  0.18854484281E-01 -0.10872215040E+00 -0.52860685252E-01  0.12374372575E+00  0.18500271632E-01 0.  0.
         14    1    1    2    0    0  0.29163195107E-01 -0.60512293491E-02  0.44780965389E-02  0.30119141324E-01  0.00000000000E+00 0.  1.
     999901    1    3    3    0    0 -0.48017679388E-01  0.11477337975E+00  0.48382588713E-01  0.89006713293E+00  0.88000000000E+00 0. -1.
        -11    1    4    4    0    0  0.21012554983E-02 -0.36255484550E-01 -0.90881321282E-02  0.37439694192E-01  0.51100000000E-03 0. -1.
         11    1    4    4    0    0  0.16753228783E-01 -0.72466665853E-01 -0.43772553123E-01  0.86304031553E-01  0.51100000000E-03 0.  1.
</event>
<event>
 8    1  0.1118868E+005  0.1043930E+01  0.7957747E-01            NaN
         13   -1    0    0    0    0  0.00000000000E+00  0.00000000000E+00  0.74505805969E-08  0.10566000000E+00  0.10566000000E+00 0.  1.
     999900   -1    0    0    0    0 -0.00000000000E+00 -0.00000000000E+00 -0.74505805969E-08  0.93827000000E+00  0.93827000000E+00 0. -1.
     999902    2    1    2    0    0  0.17242781760E-01 -0.26385911399E-02  0.16285392171E-01  0.10200660170E+01  0.10197868353E+01 0.  0.
     999903    2    3    3    0    0  0.64981493015E-01 -0.90577838458E-01 -0.65053549875E-01  0.13066828862E+00  0.20378862703E-01 0.  0.
         14    1    1    2    0    0 -0.17242781760E-01  0.26385911399E-02 -0.16285392171E-01  0.23863982991E-01  0.00000000000E+00 0. -1.
     999901    1    3    3    0    0 -0.47738711254E-01  0.87939247318E-01  0.81338942047E-01  0.88939772839E+00  0.88000000000E+00 0.  1.
        -11    1    4    4    0    0  0.13371765626E-01 -0.74294659916E-02 -0.11190093110E-01  0.18959967977E-01  0.51100000000E-03 0.  1.
         11    1    4    4    0    0  0.51609727389E-01 -0.83148372467E-01 -0.53863456766E-01  0.11170832064E+00  0.51100000000E-03 0. -1.
</event>
<event>
 8    1  0.1138353E+005  0.1043930E+01  0.7957747E-01            NaN
         13   -1    0    0    0    0  0.00000000000E+00  0.00000000000E+00  0.74505805969E-08  0.10566000000E+00  0.10566000000E+00 0. -1.
     999900   -1    0    0    0    0 -0.00000000000E+00 -0.00000000000E+00 -0.74505805969E-08  0.93827000000E+00  0.93827000000E+00 0.  1.
     999902    2    1    2    0    0 -0.19323078150E-01 -0.38750267524E-03  0.14210078085E-01  0.10199412979E+01  0.10196591555E+01 0.  0.
     999903    2    3    3    0    0  0.11356478065E+00  0.17132401036E-02  0.57548153566E-01  0.12890718808E+00  0.20134015093E-01 0.  0.
         14    1    1    2    0    0  0.19323078150E-01  0.38750267524E-03 -0.14210078085E-01  0.23988702063E-01  0.00000000000E+00 0. -1.
     999901    1    3    3    0    0 -0.13288785880E+00 -0.21007427789E-02 -0.43338075481E-01  0.89103410985E+00  0.88000000000E+00 0.  1.
        -11    1    4    4    0    0  0.36411391552E-01  0.96874845236E-02  0.21362281470E-01  0.43315643615E-01  0.51100000000E-03 0.  1.
         11    1    4    4    0    0  0.77153389102E-01 -0.79742444199E-02  0.36185872096E-01  0.85591544468E-01  0.51100000000E-03 0. -1.
</event>
<event>
 8    1  0.1118868E+005  0.1043930E+01  0.7957747E-01            NaN
         13   -1    0    0    0    0  0.00000000000E+00  0.00000000000E+00  0.74505805969E-08  0.10566000000E+00  0.10566000000E+00 0. -1.
     999900   -1    0    0    0    0 -0.00000000000E+00 -0.00000000000E+00 -0.74505805969E-08  0.93827000000E+00  0.93827000000E+00 0.  1.
     999902    2    1    2    0    0 -0.11937126819E-02 -0.13934863234E-01 -0.17627241757E-01  0.10214283331E+01  0.10211804515E+01 0.  0.
     999903    2    3    3    0    0  0.90336420628E-01  0.37694012413E-01  0.82421176261E-01  0.12954661890E+00  0.20188330976E-01 0.  0.
         14    1    1    2    0    0  0.11937126819E-02  0.13934863234E-01  0.17627241757E-01  0.22501666944E-01  0.00000000000E+00 0. -1.
     999901    1    3    3    0    0 -0.91530133310E-01 -0.51628875646E-01 -0.10004841802E+00  0.89188171416E+00  0.88000000000E+00 0. -1.
        -11    1    4    4    0    0  0.64276420020E-01  0.26877647643E-01  0.46064432161E-01  0.83522806135E-01  0.51100000000E-03 0. -1.
         11    1    4    4    0    0  0.26060000608E-01  0.10816364769E-01  0.36356744100E-01  0.46023812761E-01  0.51100000000E-03 0.  1.
</event>
<event>
 8    1  0.1118868E+005  0.1043930E+01  0.7957747E-01            NaN
         13   -1    0    0    0    0  0.00000000000E+00  0.00000000000E+00  0.74505805969E-08  0.10566000000E+00  0.10566000000E+00 0.  1.
     999900   -1    0    0    0    0 -0.00000000000E+00 -0.00000000000E+00 -0.74505805969E-08  0.93827000000E+00  0.93827000000E+00 0.  1.
     999902    2    1    2    0    0  0.18551459177E-01 -0.40526592302E-02  0.14487230219E-01  0.10200456846E+01  0.10197660212E+01 0.  0.
     999903    2    3    3    0    0  0.40796022355E-01  0.10619045045E+00  0.63031147514E-01  0.13156108946E+00  0.19866240163E-01 0.  0.
         14    1    1    2    0    0 -0.18551459177E-01  0.40526592302E-02 -0.14487230219E-01  0.23884315436E-01  0.00000000000E+00 0. -1.
     999901    1    3    3    0    0 -0.22244563178E-01 -0.11024310968E+00 -0.48543917295E-01  0.88848459510E+00  0.88000000000E+00 0. -1.
        -11    1    4    4    0    0  0.29300580440E-01  0.82966413520E-01  0.57343077478E-01  0.10502589891E+00  0.51100000000E-03 0. -1.
         11    1    4    4    0    0  0.11495441915E-01  0.23224036926E-01  0.56880700366E-02  0.26535190553E-01  0.51100000000E-03 0.  1.
</event>
<event>
 8    1  0.1118868E+005  0.1043930E+01  0.7957747E-01            NaN
         13   -1    0    0    0    0  0.00000000000E+00  0.00000000000E+00  0.74505805969E-08  0.10566000000E+00  0.10566000000E+00 0.  1.
     999900   -1    0    0    0    0 -0.00000000000E+00 -0.00000000000E+00 -0.74505805969E-08  0.93827000000E+00  0.93827000000E+00 0.  1.
     999902    2    1    2    0    0  0.11080584647E-01 -0.23272436126E-03  0.20594948118E-01  0.10205422809E+01  0.10202742581E+01 0.  0.
     999903    2    3    3    0    0  0.14784097668E-01 -0.12810866805E+00  0.13864491206E-01  0.13126658010E+00  0.20206201040E-01 0.  0.
         14    1    1    2    0    0 -0.11080584647E-01  0.23272436126E-03 -0.20594948118E-01  0.23387719101E-01  0.00000000000E+00 0. -1.
     999901    1    3    3    0    0 -0.37035130206E-02  0.12787594369E+00  0.67304569125E-02  0.88927570080E+00  0.88000000000E+00 0. -1.
        -11    1    4    4    0    0  0.83099372834E-02 -0.59656855096E-01  0.16509455861E-01  0.62456534258E-01  0.51100000000E-03 0. -1.
         11    1    4    4    0    0  0.64741603843E-02 -0.68451812956E-01 -0.26449646554E-02  0.68810045841E-01  0.51100000000E-03 0.  1.
</event>
<event>
 8    1  0.1118868E+005  0.1043930E+01  0.7957747E-01            NaN
         13   -1    0    0    0    0  0.00000000000E+00  0.00000000000E+00  0.74505805969E-08  0.10566000000E+00  0.10566000000E+00 0.  1.
     999900   -1    0    0    0    0 -0.00000000000E+00 -0.00000000000E+00 -0.74505805969E-08  0.93827000000E+00  0.93827000000E+00 0. -1.
     999902    2    1    2    0    0  0.70636115480E-03  0.62616302309E-02  0.21938094823E-01  0.10211048611E+01  0.10208497198E+01 0.  0.
     999903    2    3    3    0    0 -0.10860093516E+00 -0.31495635985E-01 -0.59915040173E-01  0.12977235759E+00  0.21561877311E-01 0.  0.
         14    1    1    2    0    0 -0.70636115480E-03 -0.62616302309E-02 -0.21938094823E-01  0.22825138854E-01  0.00000000000E+00 0. -1.
     999901    1    3    3    0    0  0.10930729631E+00  0.37757266216E-01  0.81853134996E-01  0.89133250355E+00  0.88000000000E+00 0.  1.
        -11    1    4    4    0    0 -0.96695005013E-01 -0.34483421339E-01 -0.51282810617E-01  0.11475721384E+00  0.51100000000E-03 0.  1.
         11    1    4    4    0    0 -0.11905930146E-01  0.29877853544E-02 -0.86322295553E-02  0.15015143758E-01  0.51100000000E-03 0. -1.
</event>
<event>
 8    1  0.1118868E+005  0.1043930E+01  0.7957747E-01            NaN
         13   -1    0    0    0    0  0.00000000000E+00  0.00000000000E+00  0.74505805969E-08  0.10566000000E+00  0.10566000000E+00 0. -1.
     999900   -1    0    0    0    0 -0.00000000000E+00 -0.00000000000E+00 -0.74505805969E-08  0.93827000000E+00  0.93827000000E+00 0. -1.
     999902    2    1    2    0    0 -0.19284378000E-01  0.19653801942E-02 -0.14212404936E-01  0.10198937272E+01  0.10196104513E+01 0.  0.
     999903    2    3    3    0    0 -0.63672318762E-01 -0.17262831284E-01  0.11004151285E+00  0.12984931852E+00  0.19988532945E-01 0.  0.
         14    1    1    2    0    0  0.19284378000E-01 -0.19653801942E-02  0.14212404936E-01  0.24036272761E-01  0.00000000000E+00 0. -1.
     999901    1    3    3    0    0  0.44387940762E-01  0.19228211478E-01 -0.12425391779E+00  0.89004440872E+00  0.88000000000E+00 0. -1.
        -11    1    4    4    0    0 -0.11954297250E-01 -0.10014243214E-01  0.36060306048E-01  0.39291183275E-01  0.51100000000E-03 0. -1.
         11    1    4    4    0    0 -0.51718021512E-01 -0.72485880698E-02  0.73981206805E-01  0.90558135247E-01  0.51100000000E-03 0.  1.
</event>
<event>
 8    1  0.1118868E+005  0.1043930E+01  0.7957747E-01            NaN
         13   -1    0    0    0    0  0.00000000000E+00  0.00000000000E+00  0.74505805969E-08  0.10566000000E+00  0.10566000000E+00 0.  1.
     999900   -1    0    0    0    0 -0.00000000000E+00 -0.00000000000E+00 -0.74505805969E-08  0.93827000000E+00  0.93827000000E+00 0. -1.
     999902    2    1    2    0    0  0.18704626486E-01 -0.10462790480E-01 -0.80867856982E-02  0.10210230329E+01  0.10207660382E+01 0.  0.
     999903    2    3    3    0    0  0.61186262905E-01  0.84808519643E-01  0.76086786875E-01  0.13087332515E+00  0.20059519623E-01 0.  0.
         14    1    1    2    0    0 -0.18704626486E-01  0.10462790480E-01  0.80867856982E-02  0.22906967052E-01  0.00000000000E+00 0.  1.
     999901    1    3    3    0    0 -0.42481636419E-01 -0.95271310123E-01 -0.84173572573E-01  0.89014970779E+00  0.88000000000E+00 0. -1.
        -11    1    4    4    0    0  0.72476113154E-02  0.24331053402E-01  0.19920343787E-01  0.32273971665E-01  0.51100000000E-03 0. -1.
         11    1    4    4    0    0  0.53938651590E-01  0.60477466241E-01  0.56166443088E-01  0.98599353489E-01  0.51100000000E-03 0.  1.
</event>
<event>
 8    1  0.1118868E+005  0.1043930E+01  0.7957747E-01            NaN
         13   -1    0    0    0    0  0.00000000000E+00  0.00000000000E+00  0.74505805969E-08  0.10566000000E+00  0.10566000000E+00 0.  1.
     999900   -1    0    0    0    0 -0.00000000000E+00 -0.00000000000E+00 -0.74505805969E-08  0.93827000000E+00  0.93827000000E+00 0. -1.
     999902    2    1    2    0    0  0.66685874555E-02  0.76947519640E-02  0.20870208483E-01  0.10207083534E+01  0.10204441670E+01 0.  0.
     999903    2    3    3    0    0  0.97495182641E-01  0.42941555799E-01  0.77817318606E-01  0.13350218748E+00  0.20445320625E-01 0.  0.
         14    1    1    2    0    0 -0.66685874555E-02 -0.76947519640E-02 -0.20870208483E-01  0.23221646552E-01  0.00000000000E+00 0. -1.
     999901    1    3    3    0    0 -0.90826595185E-01 -0.35246803835E-01 -0.56947110122E-01  0.88720616596E+00  0.88000000000E+00 0.  1.
        -11    1    4    4    0    0  0.47356209247E-01  0.17005847691E-01  0.24972771913E-01  0.56175705318E-01  0.51100000000E-03 0.  1.
         11    1    4    4    0    0  0.50138973394E-01  0.25935708109E-01  0.52844546692E-01  0.77326482166E-01  0.51100000000E-03 0. -1.
</event>
<event>
 8    1  0.1118868E+005  0.1043930E+01  0.7957747E-01            NaN
         13   -1    0    0    0    0  0.00000000000E+00  0.00000000000E+00  0.74505805969E-08  0.10566000000E+00  0.10566000000E+00 0.  1.
     999900   -1    0    0    0    0 -0.00000000000E+00 -0.00000000000E+00 -0.74505805969E-08  0.93827000000E+00  0.93827000000E+00 0.  1.
     999902    2    1    2    0    0  0.14293879553E-01  0.18119083689E-01  0.20974334213E-02  0.10207564070E+01  0.10204933253E+01 0.  0.
     999903    2    3    3    0    0  0.45041101554E-01 -0.11327111471E+00 -0.39043109989E-01  0.12952056827E+00  0.19803204516E-01 0.  0.
         14    1    1    2    0    0 -0.14293879553E-01 -0.18119083689E-01 -0.20974334213E-02  0.23173593018E-01  0.00000000000E+00 0. -1.
     999901    1    3    3    0    0 -0.30747222001E-01  0.13139019840E+00  0.41140543410E-01  0.89123583871E+00  0.88000000000E+00 0. -1.
        -11    1    4    4    0    0  0.26572055508E-02 -0.29335850196E-01 -0.88354639747E-02  0.30756777996E-01  0.51100000000E-03 0. -1.
         11    1    4    4    0    0  0.42383896004E-01 -0.83935264518E-01 -0.30207646014E-01  0.98763790272E-01  0.51100000000E-03 0.  1.
</event>
<event>
 8    1  0.1118868E+005  0.1043930E+01  0.7957747E-01            NaN
         13   -1    0    0    0    0  0.00000000000E+00  0.00000000000E+00  0.74505805969E-08  0.10566000000E+00  0.10566000000E+00 0. -1.
     999900   -1    0    0    0    0 -0.00000000000E+00 -0.00000000000E+00 -0.74505805969E-08  0.93827000000E+00  0.93827000000E+00 0.  1.
     999902    2    1    2    0    0 -0.16623940003E-01  0.30056652202E-02 -0.69025816769E-02  0.10256807524E+01  0.10255183912E+01 0.  0.
     999903    2    3    3    0    0  0.11665784176E+00  0.60985088764E-01 -0.11560233921E-01  0.13374614681E+00  0.20643635380E-01 0.  0.
         14    1    1    2    0    0  0.16623940003E-01 -0.30056652202E-02  0.69025816769E-02  0.18249247613E-01  0.00000000000E+00 0.  1.
     999901    1    3    3    0    0 -0.13328178176E+00 -0.57979423544E-01  0.46576522442E-02  0.89193460558E+00  0.88000000000E+00 0. -1.
        -11    1    4    4    0    0  0.56255983385E-01  0.40926541978E-01 -0.46611071194E-02  0.69725924487E-01  0.51100000000E-03 0. -1.
         11    1    4    4    0    0  0.60401858377E-01  0.20058546786E-01 -0.68991268017E-02  0.64020222322E-01  0.51100000000E-03 0.  1.
</event>
<event>
 8    1  0.1118868E+005  0.1043930E+01  0.7957747E-01            NaN
         13   -1    0    0    0    0  0.00000000000E+00  0.00000000000E+00  0.74505805969E-08  0.10566000000E+00  0.10566000000E+00 0. -1.
     999900   -1    0    0    0    0 -0.00000000000E+00 -0.00000000000E+00 -0.74505805969E-08  0.93827000000E+00  0.93827000000E+00 0.  1.
     999902    2    1    2    0    0  0.56675743085E-02 -0.20655022537E-01 -0.10142040794E-01  0.10202316383E+01  0.10199563635E+01 0.  0.
     999903    2    3    3    0    0 -0.48230297980E-01  0.55367550504E-02 -0.12009597037E+00  0.13136671243E+00  0.21848426408E-01 0.  0.
         14    1    1    2    0    0 -0.56675743085E-02  0.20655022537E-01  0.10142040794E-01  0.23698361674E-01  0.00000000000E+00 0. -1.
     999901    1    3    3    0    0  0.53897872289E-01 -0.26191777587E-01  0.10995392958E+00  0.88886492589E+00  0.88000000000E+00 0. -1.
        -11    1    4    4    0    0 -0.30520551715E-01 -0.68253581977E-02 -0.78331261693E-01  0.84345345283E-01  0.51100000000E-03 0. -1.
         11    1    4    4    0    0 -0.17709746266E-01  0.12362113248E-01 -0.41764708679E-01  0.47021367152E-01  0.51100000000E-03 0.  1.
</event>
<event>
 8    1  0.1118868E+005  0.1043930E+01  0.7957747E-01            NaN
         13   -1    0    0    0    0  0.00000000000E+00  0.00000000000E+00  0.74505805969E-08  0.10566000000E+00  0.10566000000E+00 0.  1.
     999900   -1    0    0    0    0 -0.00000000000E+00 -0.00000000000E+00 -0.74505805969E-08  0.93827000000E+00  0.93827000000E+00 0.  1.
     999902    2    1    2    0    0 -0.67813270261E-02  0.21403133829E-01 -0.81092813857E-02  0.10200586578E+01  0.10197793018E+01 0.  0.
     999903    2    3    3    0    0 -0.99816294295E-02 -0.85449553535E-01 -0.94589845879E-01  0.12938103555E+00  0.19772564126E-01 0.  0.
         14    1    1    2    0    0  0.67813270261E-02 -0.21403133829E-01  0.81092813857E-02  0.23871342202E-01  0.00000000000E+00 0.  1.
     999901    1    3    3    0    0  0.32003024034E-02  0.10685268736E+00  0.86480564493E-01  0.89067762224E+00  0.88000000000E+00 0. -1.
        -11    1    4    4    0    0 -0.92641784852E-02 -0.21783872677E-01 -0.34414753307E-01  0.41773178931E-01  0.51100000000E-03 0.  1.
         11    1    4    4    0    0 -0.71745094433E-03 -0.63665680858E-01 -0.60175092571E-01  0.87607856622E-01  0.51100000000E-03 0. -1.
</event>
<event>
 8    1  0.1118868E+005  0.1043930E+01  0.7957747E-01            NaN
         13   -1    0    0    0    0  0.00000000000E+00  0.00000000000E+00  0.74505805969E-08  0.10566000000E+00  0.10566000000E+00 0. -1.
     999900   -1    0    0    0    0 -0.00000000000E+00 -0.00000000000E+00 -0.74505805969E-08  0.93827000000E+00  0.93827000000E+00 0. -1.
     999902    2    1    2    0    0 -0.75339121055E-02  0.26763459404E-01  0.56334315167E-02  0.10155613881E+01  0.10151650875E+01 0.  0.
     999903    2    3    3    0    0  0.93605225663E-01 -0.22667519541E-01  0.77966145061E-01  0.12544646949E+00  0.19553573040E-01 0.  0.
         14    1    1    2    0    0  0.75339121055E-02 -0.26763459404E-01 -0.56334315167E-02  0.28368611907E-01  0.00000000000E+00 0. -1.
     999901    1    3    3    0    0 -0.10113913777E+00  0.49430978945E-01 -0.72332713544E-01  0.89011491860E+00  0.88000000000E+00 0. -1.
        -11    1    4    4    0    0  0.34287985129E-01  0.81852376538E-03  0.23739491810E-01  0.41715231005E-01  0.51100000000E-03 0.  1.
         11    1    4    4    0    0  0.59317240534E-01 -0.23486043306E-01  0.54226653251E-01  0.83731238486E-01  0.51100000000E-03 0. -1.
</event>
<event>
 8    1  0.1118868E+005  0.1043930E+01  0.7957747E-01            NaN
         13   -1    0    0    0    0  0.00000000000E+00  0.00000000000E+00  0.74505805969E-08  0.10566000000E+00  0.10566000000E+00 0. -1.
     999900   -1    0    0    0    0 -0.00000000000E+00 -0.00000000000E+00 -0.74505805969E-08  0.93827000000E+00  0.93827000000E+00 0. -1.
     999902    2    1    2    0    0  0.36622767012E-02  0.21815944156E-01 -0.88678500809E-02  0.10200975336E+01  0.10198190975E+01 0.  0.
     999903    2    3    3    0    0 -0.11063191136E+00 -0.36005029494E-01  0.52080736287E-01  0.12873837108E+00  0.18038379545E-01 0.  0.
         14    1    1    2    0    0 -0.36622767012E-02 -0.21815944156E-01  0.88678500809E-02  0.23832466408E-01  0.00000000000E+00 0. -1.
     999901    1    3    3    0    0  0.11429418806E+00  0.57820973650E-01 -0.60948586368E-01  0.89135916251E+00  0.88000000000E+00 0.  1.
        -11    1    4    4    0    0 -0.65880728301E-01 -0.28169089608E-01  0.38374037781E-01  0.81280968667E-01  0.51100000000E-03 0.  1.
         11    1    4    4    0    0 -0.44751183054E-01 -0.78359398853E-02  0.13706698505E-01  0.47457402410E-01  0.51100000000E-03 0. -1.
</event>
<event>
 7    1  0.1118868E+005  0.1043930E+01  0.7957747E-01            NaN
         13   -1    0    0    0    0  0.00000000000E+00  0.00000000000E+00  0.74505805969E-08  0.10566000000E+00  0.10566000000E+00 0. -1.
     999900   -1    0    0    0    0 -0.00000000000E+00 -0.00000000000E+00 -0.74505805969E-08  0.93827000000E+00  0.93827000000E+00 0. -1.
     999903    2    1    2    0    0 -0.18105123796E-01 -0.53541379302E-01 -0.37557117489E-01  0.70475611238E-01  0.19021038353E-01 0.  0.
         14    1    1    2    0    0  0.39167254792E-01 -0.66321395131E-01  0.36133830468E-01  0.85077934885E-01  0.00000000000E+00 0. -1.
     999901    1    1    2    0    0 -0.21062130997E-01  0.11986277443E+00  0.14232870213E-02  0.88837645388E+00  0.88000000000E+00 0. -1.
        -11    1    3    3    0    0 -0.50182301339E-02 -0.31409300172E-01 -0.29863070637E-01  0.43632452141E-01  0.51100000000E-03 0.  1.
         11    1    3    3    0    0 -0.13086893662E-01 -0.22132079130E-01 -0.76940468521E-02  0.26843159097E-01  0.51100000000E-03 0. -1.
</event>
<event>
 8    1  0.1118868E+005  0.1043930E+01  0.7957747E-01            NaN
         13   -1    0    0    0    0  0.00000000000E+00  0.00000000000E+00  0.74505805969E-08  0.10566000000E+00  0.10566000000E+00 0.  1.
     999900   -1    0    0    0    0 -0.00000000000E+00 -0.00000000000E+00 -0.74505805969E-08  0.93827000000E+00  0.93827000000E+00 0.  1.
     999902    2    1    2    0    0 -0.66967474946E-02  0.21938256155E-01  0.62854877754E-02  0.10201467944E+01  0.10198695217E+01 0.  0.
     999903    2    3    3    0    0 -0.16685455806E-01  0.22432412601E-01 -0.12535290891E+00  0.13029923111E+00  0.21975447346E-01 0.  0.
         14    1    1    2    0    0  0.66967474946E-02 -0.21938256155E-01 -0.62854877754E-02  0.23783205560E-01  0.00000000000E+00 0. -1.
     999901    1    3    3    0    0  0.99887083116E-02 -0.49415644610E-03  0.13163839668E+00  0.88984756333E+00  0.88000000000E+00 0. -1.
        -11    1    4    4    0    0  0.50620348187E-02  0.43184567599E-02 -0.15872308347E-01  0.17218146200E-01  0.51100000000E-03 0.  1.
         11    1    4    4    0    0 -0.21747490625E-01  0.18113955841E-01 -0.10948060056E+00  0.11308108491E+00  0.51100000000E-03 0. -1.
</event>
<event>
 8    1  0.1232126E+005  0.1043930E+01  0.7957747E-01            NaN
         13   -1    0    0    0    0  0.00000000000E+00  0.00000000000E+00  0.74505805969E-08  0.10566000000E+00  0.10566000000E+00 0.  1.
     999900   -1    0    0    0    0 -0.00000000000E+00 -0.00000000000E+00 -0.74505805969E-08  0.93827000000E+00  0.93827000000E+00 0.  1.
     999902    2    1    2    0    0  0.23798660063E-02  0.23688714063E-01  0.99880149679E-02  0.10181118014E+01  0.10177843881E+01 0.  0.
     999903    2    3    3    0    0  0.87572944048E-02 -0.19745153744E-01 -0.12351907831E+00  0.12696012159E+00  0.19883371622E-01 0.  0.
         14    1    1    2    0    0 -0.23798660063E-02 -0.23688714063E-01 -0.99880149679E-02  0.25818198605E-01  0.00000000000E+00 0. -1.
     999901    1    3    3    0    0 -0.63774283985E-02  0.43433867807E-01  0.13350709327E+00  0.89115167981E+00  0.88000000000E+00 0. -1.
        -11    1    4    4    0    0 -0.33077316450E-02 -0.16089882670E-01 -0.60626598651E-01  0.62814576318E-01  0.51100000000E-03 0.  1.
         11    1    4    4    0    0  0.12065026050E-01 -0.36552710740E-02 -0.62892479654E-01  0.64145545272E-01  0.51100000000E-03 0. -1.
</event>
<event>
 8    1  0.1152357E+005  0.1043930E+01  0.7957747E-01            NaN
         13   -1    0    0    0    0  0.00000000000E+00  0.00000000000E+00  0.74505805969E-08  0.10566000000E+00  0.10566000000E+00 0. -1.
     999900   -1    0    0    0    0 -0.00000000000E+00 -0.00000000000E+00 -0.74505805969E-08  0.93827000000E+00  0.93827000000E+00 0.  1.
     999902    2    1    2    0    0  0.23436898336E-01 -0.10792894081E-01  0.88176957071E-02  0.10166623172E+01  0.10162965811E+01 0.  0.
     999903    2    3    3    0    0 -0.41519071232E-01  0.97325696304E-01 -0.62910519343E-01  0.12478012523E+00  0.20401513941E-01 0.  0.
         14    1    1    2    0    0 -0.23436898336E-01  0.10792894081E-01 -0.88176957071E-02  0.27267682773E-01  0.00000000000E+00 0.  1.
     999901    1    3    3    0    0  0.64955969568E-01 -0.10811859038E+00  0.71728215050E-01  0.89188219200E+00  0.88000000000E+00 0. -1.
        -11    1    4    4    0    0 -0.10161860811E-01  0.48713448489E-01 -0.32328452984E-01  0.59343520895E-01  0.51100000000E-03 0. -1.
         11    1    4    4    0    0 -0.31357210421E-01  0.48612247815E-01 -0.30582066359E-01  0.65436604334E-01  0.51100000000E-03 0.  1.
</event>
<event>
 8    1  0.1118868E+005  0.1043930E+01  0.7957747E-01            NaN
         13   -1    0    0    0    0  0.00000000000E+00  0.00000000000E+00  0.74505805969E-08  0.10566000000E+00  0.10566000000E+00 0. -1.
     999900   -1    0    0    0    0 -0.00000000000E+00 -0.00000000000E+00 -0.74505805969E-08  0.93827000000E+00  0.93827000000E+00 0. -1.
     999902    2    1    2    0    0 -0.10530768870E-02 -0.23468038877E-01 -0.58398185394E-02  0.10197233625E+01  0.10194360081E+01 0.  0.
     999903    2    3    3    0    0 -0.49968825623E-01 -0.58037006901E-01 -0.10587755992E+00  0.13203236121E+00  0.18902619061E-01 0.  0.
         14    1    1    2    0    0  0.10530768870E-02  0.23468038877E-01  0.58398185394E-02  0.24206637524E-01  0.00000000000E+00 0.  1.
     999901    1    3    3    0    0  0.48915748736E-01  0.34568968024E-01  0.10003774138E+00  0.88769100126E+00  0.88000000000E+00 0.  1.
        -11    1    4    4    0    0 -0.96801989075E-02 -0.24498896710E-01 -0.38783948451E-01  0.46886650225E-01  0.51100000000E-03 0.  1.
         11    1    4    4    0    0 -0.40288626715E-01 -0.33538110191E-01 -0.67093611473E-01  0.85145710986E-01  0.51100000000E-03 0. -1.
</event>
<event>
 8    1  0.1118868E+005  0.1043930E+01  0.7957747E-01            NaN
         13   -1    0    0    0    0  0.00000000000E+00  0.00000000000E+00  0.74505805969E-08  0.10566000000E+00  0.10566000000E+00 0.  1.
     999900   -1    0    0    0    0 -0.00000000000E+00 -0.00000000000E+00 -0.74505805969E-08  0.93827000000E+00  0.93827000000E+00 0.  1.
     999902    2    1    2    0    0  0.10541436651E-01  0.59664114216E-04  0.20343845715E-01  0.10210171760E+01  0.10207600483E+01 0.  0.
     999903    2    3    3    0    0  0.22966386823E-01  0.49216323084E-01 -0.11546373423E+00  0.12915706627E+00  0.19999311541E-01 0.  0.
         14    1    1    2    0    0 -0.10541436651E-01 -0.59664114216E-04 -0.20343845715E-01  0.22912824028E-01  0.00000000000E+00 0. -1.
     999901    1    3    3    0    0 -0.12424950172E-01 -0.49156658970E-01  0.13580757995E+00  0.89186010970E+00  0.88000000000E+00 0. -1.
        -11    1    4    4    0    0 -0.33776385983E-03  0.18727843557E-01 -0.28584238251E-01  0.34178443589E-01  0.51100000000E-03 0. -1.
         11    1    4    4    0    0  0.23304150683E-01  0.30488479527E-01 -0.86879495983E-01  0.94978622680E-01  0.51100000000E-03 0.  1.
</event>
<event>
 8    1  0.1118868E+005  0.1043930E+01  0.7957747E-01            NaN
         13   -1    0    0    0    0  0.00000000000E+00  0.00000000000E+00  0.74505805969E-08  0.10566000000E+00  0.10566000000E+00 0. -1.
     999900   -1    0    0    0    0 -0.00000000000E+00 -0.00000000000E+00 -0.74505805969E-08  0.93827000000E+00  0.93827000000E+00 0.  1.
     999902    2    1    2    0    0  0.22905213688E-01  0.27594225308E-02  0.25202910640E-02  0.10207219175E+01  0.10204580431E+01 0.  0.
     999903    2    3    3    0    0  0.26648520040E-01 -0.11914552039E+00  0.44204380532E-01  0.13133314380E+00  0.19712147308E-01 0.  0.
         14    1    1    2    0    0 -0.22905213688E-01 -0.27594225308E-02 -0.25202910640E-02  0.23208082511E-01  0.00000000000E+00 0. -1.
     999901    1    3    3    0    0 -0.37433063525E-02  0.12190494292E+00 -0.41684089468E-01  0.88938877369E+00  0.88000000000E+00 0.  1.
        -11    1    4    4    0    0  0.21287492595E-02 -0.34902185139E-01  0.53628459820E-02  0.35379589299E-01  0.51100000000E-03 0.  1.
         11    1    4    4    0    0  0.24519770781E-01 -0.84243335255E-01  0.38841534550E-01  0.95953554500E-01  0.51100000000E-03 0. -1.
</event>
<event>
 8    1  0.1118868E+005  0.1043930E+01  0.7957747E-01            NaN
         13   -1    0    0    0    0  0.00000000000E+00  0.00000000000E+00  0.74505805969E-08  0.10566000000E+00  0.10566000000E+00 0.  1.
     999900   -1    0    0    0    0 -0.00000000000E+00 -0.00000000000E+00 -0.74505805969E-08  0.93827000000E+00  0.93827000000E+00 0.  1.
     999902    2    1    2    0    0 -0.99754926489E-02 -0.44473405442E-02  0.21985821720E-01  0.10193807506E+01  0.10190851039E+01 0.  0.
     999903    2    3    3    0    0  0.56370437437E-01 -0.41003368417E-01 -0.10426115805E+00  0.12714960029E+00  0.20921982115E-01 0.  0.
         14    1    1    2    0    0  0.99754926489E-02  0.44473405442E-02 -0.21985821720E-01  0.24549249443E-01  0.00000000000E+00 0. -1.
     999901    1    3    3    0    0 -0.66345930086E-01  0.36556027872E-01  0.12624697977E+00  0.89223115027E+00  0.88000000000E+00 0. -1.
        -11    1    4    4    0    0  0.44780967422E-01 -0.37712897530E-01 -0.96296988651E-01  0.11269857509E+00  0.51100000000E-03 0.  1.
         11    1    4    4    0    0  0.11589470015E-01 -0.32904708864E-02 -0.79641694033E-02  0.14451025194E-01  0.51100000000E-03 0. -1.
</event>
<event>
 8    1  0.1118868E+005  0.1043930E+01  0.7957747E-01            NaN
         13   -1    0    0    0    0  0.00000000000E+00  0.00000000000E+00  0.74505805969E-08  0.10566000000E+00  0.10566000000E+00 0. -1.
     999900   -1    0    0    0    0 -0.00000000000E+00 -0.00000000000E+00 -0.74505805969E-08  0.93827000000E+00  0.93827000000E+00 0.  1.
     999902    2    1    2    0    0 -0.15214137491E-01  0.10746165629E-01 -0.14657296534E-01  0.10202279664E+01  0.10199526053E+01 0.  0.
     999903    2    3    3    0    0 -0.30167071331E-01  0.11806968494E+00 -0.49195490216E-01  0.13290907510E+00  0.19852538670E-01 0.  0.
         14    1    1    2    0    0  0.15214137491E-01 -0.10746165629E-01  0.14657296534E-01  0.23702033605E-01  0.00000000000E+00 0. -1.
     999901    1    3    3    0    0  0.14952933839E-01 -0.10732351931E+00  0.34538193683E-01  0.88731889130E+00  0.88000000000E+00 0. -1.
        -11    1    4    4    0    0 -0.23110504166E-01  0.56753127104E-01 -0.30274621005E-01  0.68350761787E-01  0.51100000000E-03 0. -1.
         11    1    4    4    0    0 -0.70565671649E-02  0.61316557836E-01 -0.18920869211E-01  0.64558313312E-01  0.51100000000E-03 0.  1.
</event>
<event>
 8    1  0.1118868E+005  0.1043930E+01  0.7957747E-01            NaN
         13   -1    0    0    0    0  0.00000000000E+00  0.00000000000E+00  0.74505805969E-08  0.10566000000E+00  0.10566000000E+00 0.  1.
     999900   -1    0    0    0    0 -0.00000000000E+00 -0.00000000000E+00 -0.74505805969E-08  0.93827000000E+00  0.93827000000E+00 0. -1.
     999902    2    1    2    0    0  0.19878336359E-01  0.40505045968E-02 -0.34687510865E-02  0.10233487688E+01  0.10231417866E+01 0.  0.
     999903    2    3    3    0    0 -0.45344450656E-01 -0.48908033713E-02  0.12227283108E+00  0.13197628525E+00  0.19673725737E-01 0.  0.
         14    1    1    2    0    0 -0.19878336359E-01 -0.40505045968E-02  0.34687510865E-02  0.20581231206E-01  0.00000000000E+00 0.  1.
     999901    1    3    3    0    0  0.65222787015E-01  0.89413079681E-02 -0.12574158217E+00  0.89137248354E+00  0.88000000000E+00 0. -1.
        -11    1    4    4    0    0 -0.25453786030E-01 -0.29106417690E-02  0.41570748950E-01  0.48833956916E-01  0.51100000000E-03 0.  1.
         11    1    4    4    0    0 -0.19890664626E-01 -0.19801616023E-02  0.80702082132E-01  0.83142328333E-01  0.51100000000E-03 0. -1.
</event>
<event>
 8    1  0.1118868E+005  0.1043930E+01  0.7957747E-01            NaN
         13   -1    0    0    0    0  0.00000000000E+00  0.00000000000E+00  0.74505805969E-08  0.10566000000E+00  0.10566000000E+00 0.  1.
     999900   -1    0    0    0    0 -0.00000000000E+00 -0.00000000000E+00 -0.74505805969E-08  0.93827000000E+00  0.93827000000E+00 0.  1.
     999902    2    1    2    0    0  0.52165472875E-03  0.13631062330E-01 -0.18788874970E-01  0.10207114771E+01  0.10204473625E+01 0.  0.
     999903    2    3    3    0    0 -0.19614793796E-01  0.79235954025E-01 -0.10415316112E+00  0.13392145700E+00  0.20591239056E-01 0.  0.
         14    1    1    2    0    0 -0.52165472875E-03 -0.13631062330E-01  0.18788874970E-01  0.23218522919E-01  0.00000000000E+00 0.  1.
     999901    1    3    3    0    0  0.20136448525E-01 -0.65604891695E-01  0.85364286153E-01  0.88679002009E+00  0.88000000000E+00 0.  1.
        -11    1    4    4    0    0 -0.60210600271E-02  0.44139669101E-01 -0.41815458115E-01  0.61101204657E-01  0.51100000000E-03 0. -1.
         11    1    4    4    0    0 -0.13593733769E-01  0.35096284924E-01 -0.62337703008E-01  0.72820252338E-01  0.51100000000E-03 0.  1.
</event>
<event>
 8    1  0.1118868E+005  0.1043930E+01  0.7957747E-01            NaN
         13   -1    0    0    0    0  0.00000000000E+00  0.00000000000E+00  0.74505805969E-08  0.10566000000E+00  0.10566000000E+00 0. -1.
     999900   -1    0    0    0    0 -0.00000000000E+00 -0.00000000000E+00 -0.74505805969E-08  0.93827000000E+00  0.93827000000E+00 0. -1.
     999902    2    1    2    0    0  0.10030240810E-01  0.15785377475E-01  0.13275302821E-01  0.10209949278E+01  0.10207372948E+01 0.  0.
     999903    2    3    3    0    0  0.60188913927E-03  0.12324093807E+00 -0.44321640020E-01  0.13253952702E+00  0.20337830791E-01 0.  0.
         14    1    1    2    0    0 -0.10030240810E-01 -0.15785377475E-01 -0.13275302821E-01  0.22935072220E-01  0.00000000000E+00 0.  1.
     999901    1    3    3    0    0  0.94283516711E-02 -0.10745556060E+00  0.57596942841E-01  0.88845540076E+00  0.88000000000E+00 0.  1.
        -11    1    4    4    0    0  0.59066733360E-02  0.49481692144E-01 -0.92246338620E-02  0.50682162920E-01  0.51100000000E-03 0.  1.
         11    1    4    4    0    0 -0.53047841968E-02  0.73759245926E-01 -0.35097006158E-01  0.81857364099E-01  0.51100000000E-03 0. -1.
</event>
<event>
 8    1  0.1118868E+005  0.1043930E+01  0.7957747E-01            NaN
         13   -1    0    0    0    0  0.00000000000E+00  0.00000000000E+00  0.74505805969E-08  0.10566000000E+00  0.10566000000E+00 0.  1.
     999900   -1    0    0    0    0 -0.00000000000E+00 -0.00000000000E+00 -0.74505805969E-08  0.93827000000E+00  0.93827000000E+00 0. -1.
     999902    2    1    2    0    0  0.15759397806E-01  0.23619211999E-02 -0.22599833741E-02  0.10278351308E+01  0.10277091083E+01 0.  0.
     999903    2    3    3    0    0  0.13000430216E+00  0.39350243858E-01 -0.24427601476E-01  0.13940312015E+00  0.19671347772E-01 0.  0.
         14    1    1    2    0    0 -0.15759397806E-01 -0.23619211999E-02  0.22599833741E-02  0.16094869238E-01  0.00000000000E+00 0. -1.
     999901    1    3    3    0    0 -0.11424490435E+00 -0.36988322658E-01  0.22167618102E-01  0.88843201061E+00  0.88000000000E+00 0. -1.
        -11    1    4    4    0    0  0.12451902260E+00  0.33282081546E-01 -0.21344737783E-01  0.13064663369E+00  0.51100000000E-03 0. -1.
         11    1    4    4    0    0  0.54852795530E-02  0.60681623120E-02 -0.30828636928E-02  0.87564864625E-02  0.51100000000E-03 0.  1.
</event>
<event>
 8    1  0.1118868E+005  0.1043930E+01  0.7957747E-01            NaN
         13   -1    0    0    0    0  0.00000000000E+00  0.00000000000E+00  0.74505805969E-08  0.10566000000E+00  0.10566000000E+00 0.  1.
     999900   -1    0    0    0    0 -0.00000000000E+00 -0.00000000000E+00 -0.74505805969E-08  0.93827000000E+00  0.93827000000E+00 0.  1.
     999902    2    1    2    0    0  0.15763848345E-01 -0.17612805404E-01  0.82126183772E-03  0.10202786935E+01  0.10200045236E+01 0.  0.
     999903    2    3    3    0    0 -0.75703626603E-01 -0.76096960824E-01 -0.71467753102E-01  0.13066507112E+00  0.21069754417E-01 0.  0.
         14    1    1    2    0    0 -0.15763848345E-01  0.17612805404E-01 -0.82126183772E-03  0.23651306514E-01  0.00000000000E+00 0.  1.
     999901    1    3    3    0    0  0.91467474948E-01  0.58484155421E-01  0.72289014939E-01  0.88961362236E+00  0.88000000000E+00 0. -1.
        -11    1    4    4    0    0 -0.15977452357E-01 -0.26519988278E-01 -0.13472258678E-01  0.33769092924E-01  0.51100000000E-03 0.  1.
         11    1    4    4    0    0 -0.59726174246E-01 -0.49576972547E-01 -0.57995494424E-01  0.96895978201E-01  0.51100000000E-03 0. -1.
</event>
<event>
 8    1  0.1118868E+005  0.1043930E+01  0.7957747E-01            NaN
         13   -1    0    0    0    0  0.00000000000E+00  0.00000000000E+00  0.74505805969E-08  0.10566000000E+00  0.10566000000E+00 0. -1.
     999900   -1    0    0    0    0 -0.00000000000E+00 -0.00000000000E+00 -0.74505805969E-08  0.93827000000E+00  0.93827000000E+00 0.  1.
     999902    2    1    2    0    0  0.10025331858E-01 -0.12068732501E-01 -0.15334305914E-01  0.10219913920E+01  0.10217558920E+01 0.  0.
     999903    2    3    3    0    0  0.10649063841E+00 -0.76924210529E-01 -0.18736192298E-01  0.13434091956E+00  0.20948688081E-01 0.  0.
         14    1    1    2    0    0 -0.10025331858E-01  0.12068732501E-01  0.15334305914E-01  0.21938607998E-01  0.00000000000E+00 0.  1.
     999901    1    3    3    0    0 -0.96465306548E-01  0.64855478028E-01  0.34018863848E-02  0.88765047244E+00  0.88000000000E+00 0. -1.
        -11    1    4    4    0    0  0.41704432983E-01 -0.20286512202E-01 -0.53405595576E-03  0.46382633005E-01  0.51100000000E-03 0.  1.
         11    1    4    4    0    0  0.64786205423E-01 -0.56637698327E-01 -0.18202136343E-01  0.87958286553E-01  0.51100000000E-03 0. -1.
</event>
<event>
 8    1  0.1118868E+005  0.1043930E+01  0.7957747E-01            NaN
         13   -1    0    0    0    0  0.00000000000E+00  0.00000000000E+00  0.74505805969E-08  0.10566000000E+00  0.10566000000E+00 0. -1.
     999900   -1    0    0    0    0 -0.00000000000E+00 -0.00000000000E+00 -0.74505805969E-08  0.93827000000E+00  0.93827000000E+00 0. -1.
     999902    2    1    2    0    0 -0.45358211672E-02  0.83604486237E-02 -0.21609637163E-01  0.10203196804E+01  0.10200464710E+01 0.  0.
     999903    2    3    3    0    0 -0.39196039615E-01 -0.80458488508E-01 -0.94951584791E-01  0.13213660486E+00  0.20841808826E-01 0.  0.
         14    1    1    2    0    0  0.45358211672E-02 -0.83604486237E-02  0.21609637163E-01  0.23610319633E-01  0.00000000000E+00 0. -1.
     999901    1    3    3    0    0  0.34660218448E-01  0.88818937131E-01  0.73341947628E-01  0.88818307551E+00  0.88000000000E+00 0.  1.
        -11    1    4    4    0    0 -0.32482624251E-02 -0.72721124452E-02 -0.15142423756E-02  0.81233539360E-02  0.51100000000E-03 0.  1.
         11    1    4    4    0    0 -0.35947777190E-01 -0.73186376062E-01 -0.93437342415E-01  0.12401325092E+00  0.51100000000E-03 0. -1.
</event>
<event>
 8    1  0.1118868E+005  0.1043930E+01  0.7957747E-01            NaN
         13   -1    0    0    0    0  0.00000000000E+00  0.00000000000E+00  0.74505805969E-08  0.10566000000E+00  0.10566000000E+00 0. -1.
     999900   -1    0    0    0    0 -0.00000000000E+00 -0.00000000000E+00 -0.74505805969E-08  0.93827000000E+00  0.93827000000E+00 0.  1.
     999902    2    1    2    0    0  0.17570499602E-01 -0.13785036607E-01  0.62947949121E-02  0.10207271094E+01  0.10204633544E+01 0.  0.
     999903    2    3    3    0    0  0.17377154950E-01 -0.19972948824E-01 -0.12653509595E+00  0.13073716137E+00  0.19498478317E-01 0.  0.
         14    1    1    2    0    0 -0.17570499602E-01  0.13785036607E-01 -0.62947949121E-02  0.23202890628E-01  0.00000000000E+00 0.  1.
     999901    1    3    3    0    0  0.19334465187E-03  0.61879122169E-02  0.13282989086E+00  0.88998994800E+00  0.88000000000E+00 0. -1.
        -11    1    4    4    0    0  0.16518005480E-01 -0.73907761014E-02 -0.96072056021E-01  0.97762820875E-01  0.51100000000E-03 0.  1.
         11    1    4    4    0    0  0.85914947022E-03 -0.12582172722E-01 -0.30463039930E-01  0.32974340494E-01  0.51100000000E-03 0. -1.
</event>
<event>
 8    1  0.1118868E+005  0.1043930E+01  0.7957747E-01            NaN
         13   -1    0    0    0    0  0.00000000000E+00  0.00000000000E+00  0.74505805969E-08  0.10566000000E+00  0.10566000000E+00 0.  1.
     999900   -1    0    0    0    0 -0.00000000000E+00 -0.00000000000E+00 -0.74505805969E-08  0.93827000000E+00  0.93827000000E+00 0.  1.
     999902    2    1    2    0    0  0.57933059325E-02  0.61870013093E-02  0.30243171277E-01  0.10125215491E+01  0.10120342863E+01 0.  0.
     999903    2    3    3    0    0 -0.56415775488E-01 -0.61949523300E-01  0.91383756503E-01  0.12558822187E+00  0.20023170541E-01 0.  0.
         14    1    1    2    0    0 -0.57933059325E-02 -0.61870013093E-02 -0.30243171277E-01  0.31408450897E-01  0.00000000000E+00 0. -1.
     999901    1    3    3    0    0  0.62209081420E-01  0.68136524610E-01 -0.61140585226E-01  0.88693332723E+00  0.88000000000E+00 0.  1.
        -11    1    4    4    0    0 -0.88628277674E-03 -0.45097644017E-02  0.12435658310E-01  0.13267636969E-01  0.51100000000E-03 0. -1.
         11    1    4    4    0    0 -0.55529492711E-01 -0.57439758899E-01  0.78948098193E-01  0.11232058490E+00  0.51100000000E-03 0.  1.
</event>
<event>
 8    1  0.1118868E+005  0.1043930E+01  0.7957747E-01            NaN
         13   -1    0    0    0    0  0.00000000000E+00  0.00000000000E+00  0.74505805969E-08  0.10566000000E+00  0.10566000000E+00 0. -1.
     999900   -1    0    0    0    0 -0.00000000000E+00 -0.00000000000E+00 -0.74505805969E-08  0.93827000000E+00  0.93827000000E+00 0.  1.
     999902    2    1    2    0    0 -0.12571408280E-01 -0.44779992464E-02 -0.19297616920E-01  0.10204674596E+01  0.10201976991E+01 0.  0.
     999903    2    3    3    0    0 -0.11558484183E+00 -0.58328727218E-01  0.17360900462E-01  0.13206692195E+00  0.19446720224E-01 0.  0.
         14    1    1    2    0    0  0.12571408280E-01  0.44779992464E-02  0.19297616920E-01  0.23462540403E-01  0.00000000000E+00 0.  1.
     999901    1    3    3    0    0  0.10301343355E+00  0.53850727972E-01 -0.36658517382E-01  0.88840053765E+00  0.88000000000E+00 0. -1.
        -11    1    4    4    0    0 -0.76027929851E-01 -0.28307860510E-01  0.13629464687E-01  0.82265451514E-01  0.51100000000E-03 0.  1.
         11    1    4    4    0    0 -0.39556911983E-01 -0.30020866709E-01  0.37314357745E-02  0.49801470435E-01  0.51100000000E-03 0. -1.
</event>
<event>
 8    1  0.1118868E+005  0.1043930E+01  0.7957747E-01            NaN
         13   -1    0    0    0    0  0.00000000000E+00  0.00000000000E+00  0.74505805969E-08  0.10566000000E+00  0.10566000000E+00 0.  1.
     999900   -1    0    0    0    0 -0.00000000000E+00 -0.00000000000E+00 -0.74505805969E-08  0.93827000000E+00  0.93827000000E+00 0. -1.
     999902    2    1    2    0    0  0.65089455916E-02  0.17707315240E-02  0.22706008069E-01  0.10202431964E+01  0.10199681932E+01 0.  0.
     999903    2    3    3    0    0  0.10057548918E+00 -0.53469980159E-01 -0.58955153917E-01  0.12975535468E+00  0.19653856974E-01 0.  0.
         14    1    1    2    0    0 -0.65089455916E-02 -0.17707315240E-02 -0.22706008069E-01  0.23686803610E-01  0.00000000000E+00 0. -1.
     999901    1    3    3    0    0 -0.94066543587E-01  0.55240711683E-01  0.81661161986E-01  0.89048784171E+00  0.88000000000E+00 0.  1.
        -11    1    4    4    0    0  0.63865458420E-01 -0.27539106132E-01 -0.44374491021E-01  0.82501852828E-01  0.51100000000E-03 0. -1.
         11    1    4    4    0    0  0.36710030759E-01 -0.25930874027E-01 -0.14580662897E-01  0.47253501856E-01  0.51100000000E-03 0.  1.
</event>
<event>
 8    1  0.1118868E+005  0.1043930E+01  0.7957747E-01            NaN
         13   -1    0    0    0    0  0.00000000000E+00  0.00000000000E+00  0.74505805969E-08  0.10566000000E+00  0.10566000000E+00 0.  1.
     999900   -1    0    0    0    0 -0.00000000000E+00 -0.00000000000E+00 -0.74505805969E-08  0.93827000000E+00  0.93827000000E+00 0. -1.
     999902    2    1    2    0    0 -0.20160586405E-01 -0.10028695829E-01  0.63377213366E-02  0.10205378924E+01  0.10202697679E+01 0.  0.
     999903    2    3    3    0    0  0.54826047942E-03  0.12357859892E+00  0.34154591166E-01  0.12977779915E+00  0.20094037777E-01 0.  0.
         14    1    1    2    0    0  0.20160586405E-01  0.10028695829E-01 -0.63377213366E-02  0.23392107557E-01  0.00000000000E+00 0. -1.
     999901    1    3    3    0    0 -0.20708846884E-01 -0.13360729475E+00 -0.27816869830E-01  0.89076009329E+00  0.88000000000E+00 0.  1.
        -11    1    4    4    0    0 -0.26064864051E-02  0.63040001853E-01  0.27369617452E-01  0.68776396282E-01  0.51100000000E-03 0. -1.
         11    1    4    4    0    0  0.31547468846E-02  0.60538597069E-01  0.67849737146E-02  0.61001402872E-01  0.51100000000E-03 0.  1.
</event>
<event>
 8    1  0.1118868E+005  0.1043930E+01  0.7957747E-01            NaN
         13   -1    0    0    0    0  0.00000000000E+00  0.00000000000E+00  0.74505805969E-08  0.10566000000E+00  0.10566000000E+00 0. -1.
     999900   -1    0    0    0    0 -0.00000000000E+00 -0.00000000000E+00 -0.74505805969E-08  0.93827000000E+00  0.93827000000E+00 0.  1.
     999902    2    1    2    0    0 -0.23993170752E-01 -0.37440894213E-03  0.71348732626E-02  0.10188956468E+01  0.10185880522E+01 0.  0.
     999903    2    3    3    0    0  0.83425583418E-01 -0.52755090353E-01 -0.77291304095E-01  0.12681364160E+00  0.19100431439E-01 0.  0.
         14    1    1    2    0    0  0.23993170752E-01  0.37440894213E-03 -0.71348732626E-02  0.25034353222E-01  0.00000000000E+00 0.  1.
     999901    1    3    3    0    0 -0.10741875417E+00  0.52380681411E-01  0.84426177358E-01  0.89208200517E+00  0.88000000000E+00 0. -1.
        -11    1    4    4    0    0  0.19266257444E-01 -0.20286650657E-01 -0.28326287194E-01  0.39816787138E-01  0.51100000000E-03 0. -1.
         11    1    4    4    0    0  0.64159325975E-01 -0.32468439696E-01 -0.48965016901E-01  0.86996854466E-01  0.51100000000E-03 0.  1.
</event>
<event>
 8    1  0.1118868E+005  0.1043930E+01  0.7957747E-01            NaN
         13   -1    0    0    0    0  0.00000000000E+00  0.00000000000E+00  0.74505805969E-08  0.10566000000E+00  0.10566000000E+00 0.  1.
     999900   -1    0    0    0    0 -0.00000000000E+00 -0.00000000000E+00 -0.74505805969E-08  0.93827000000E+00  0.93827000000E+00 0.  1.
     999902    2    1    2    0    0  0.10920277894E-01  0.22858566748E-02  0.21041544710E-01  0.10201135306E+01  0.10198354726E+01 0.  0.
     999903    2    3    3    0    0 -0.56134897953E-01 -0.92847977316E-01  0.71013800762E-01  0.13104431545E+00  0.18915048356E-01 0.  0.
         14    1    1    2    0    0 -0.10920277894E-01 -0.22858566748E-02 -0.21041544710E-01  0.23816469382E-01  0.00000000000E+00 0. -1.
     999901    1    3    3    0    0  0.67055175846E-01  0.95133833991E-01 -0.49972256052E-01  0.88906921516E+00  0.88000000000E+00 0.  1.
        -11    1    4    4    0    0 -0.28573526487E-01 -0.63960510305E-01  0.48498446280E-01  0.85204188318E-01  0.51100000000E-03 0.  1.
         11    1    4    4    0    0 -0.27561371466E-01 -0.28887467011E-01  0.22515354483E-01  0.45840127136E-01  0.51100000000E-03 0. -1.
</event>
<event>
 8    1  0.1118868E+005  0.1043930E+01  0.7957747E-01            NaN
         13   -1    0    0    0    0  0.00000000000E+00  0.00000000000E+00  0.74505805969E-08  0.10566000000E+00  0.10566000000E+00 0. -1.
     999900   -1    0    0    0    0 -0.00000000000E+00 -0.00000000000E+00 -0.74505805969E-08  0.93827000000E+00  0.93827000000E+00 0. -1.
     999902    2    1    2    0    0  0.10668797413E-02  0.21292528552E-01  0.14789390067E-01  0.10179832071E+01  0.10176524819E+01 0.  0.
     999903    2    3    3    0    0  0.19776751257E-01 -0.66286549927E-01 -0.10260307827E+00  0.12568216712E+00  0.21990654165E-01 0.  0.
         14    1    1    2    0    0 -0.10668797413E-02 -0.21292528552E-01 -0.14789390067E-01  0.25946792925E-01  0.00000000000E+00 0.  1.
     999901    1    3    3    0    0 -0.18709871516E-01  0.87579078479E-01  0.11739246834E+00  0.89230103995E+00  0.88000000000E+00 0. -1.
        -11    1    4    4    0    0  0.95474571908E-02 -0.79128865230E-02 -0.26172564947E-01  0.28966048900E-01  0.51100000000E-03 0. -1.
         11    1    4    4    0    0  0.10229294066E-01 -0.58373663404E-01 -0.76430513322E-01  0.96716118223E-01  0.51100000000E-03 0.  1.
</event>
<event>
 7    1  0.1118868E+005  0.1043930E+01  0.7957747E-01            NaN
         13   -1    0    0    0    0  0.00000000000E+00  0.00000000000E+00  0.74505805969E-08  0.10566000000E+00  0.10566000000E+00 0. -1.
     999900   -1    0    0    0    0 -0.00000000000E+00 -0.00000000000E+00 -0.74505805969E-08  0.93827000000E+00  0.93827000000E+00 0. -1.
     999903    2    1    2    0    0 -0.57055078602E-01 -0.24871707202E-01 -0.86766824620E-01  0.10881779496E+00  0.20951058035E-01 0.  0.
         14    1    1    2    0    0 -0.25810417553E-01  0.30729111155E-01 -0.19888469269E-01  0.44788471022E-01  0.00000000000E+00 0.  1.
     999901    1    1    2    0    0  0.82865496155E-01 -0.58574039533E-02  0.10665529389E+00  0.89032373401E+00  0.88000000000E+00 0.  1.
        -11    1    3    3    0    0 -0.53643698593E-01 -0.16517317157E-01 -0.69574071220E-01  0.89393963286E-01  0.51100000000E-03 0.  1.
         11    1    3    3    0    0 -0.34113800082E-02 -0.83543900445E-02 -0.17192753400E-01  0.19423831678E-01  0.51100000000E-03 0. -1.
</event>
<event>
 8    1  0.1118868E+005  0.1043930E+01  0.7957747E-01            NaN
         13   -1    0    0    0    0  0.00000000000E+00  0.00000000000E+00  0.74505805969E-08  0.10566000000E+00  0.10566000000E+00 0.  1.
     999900   -1    0    0    0    0 -0.00000000000E+00 -0.00000000000E+00 -0.74505805969E-08  0.93827000000E+00  0.93827000000E+00 0.  1.
     999902    2    1    2    0    0  0.11058481197E-01 -0.19908676434E-01  0.73195491786E-02  0.10200088545E+01  0.10197283177E+01 0.  0.
     999903    2    3    3    0    0 -0.11596372014E+00  0.49811422264E-01  0.10222693904E-01  0.12815462868E+00  0.19757105172E-01 0.  0.
         14    1    1    2    0    0 -0.11058481197E-01  0.19908676434E-01 -0.73195491786E-02  0.23921145539E-01  0.00000000000E+00 0.  1.
     999901    1    3    3    0    0  0.12702220134E+00 -0.69720098699E-01 -0.29031447251E-02  0.89185422578E+00  0.88000000000E+00 0. -1.
        -11    1    4    4    0    0 -0.32329934738E-01  0.14260407003E-01 -0.59872813450E-02  0.35842607982E-01  0.51100000000E-03 0.  1.
         11    1    4    4    0    0 -0.83633785401E-01  0.35551015262E-01  0.16209975249E-01  0.92312020698E-01  0.51100000000E-03 0. -1.
</event>
<event>
 8    1  0.1118868E+005  0.1043930E+01  0.7957747E-01            NaN
         13   -1    0    0    0    0  0.00000000000E+00  0.00000000000E+00  0.74505805969E-08  0.10566000000E+00  0.10566000000E+00 0. -1.
     999900   -1    0    0    0    0 -0.00000000000E+00 -0.00000000000E+00 -0.74505805969E-08  0.93827000000E+00  0.93827000000E+00 0. -1.
     999902    2    1    2    0    0  0.57662343222E-02 -0.12286996276E-01 -0.19022573738E-01  0.10205616871E+01  0.10202941140E+01 0.  0.
     999903    2    3    3    0    0 -0.24633304599E-01  0.61922818418E-02  0.12422033272E+00  0.12827017312E+00  0.19426842258E-01 0.  0.
         14    1    1    2    0    0 -0.57662343222E-02  0.12286996276E-01  0.19022573738E-01  0.23368312891E-01  0.00000000000E+00 0. -1.
     999901    1    3    3    0    0  0.30399538922E-01 -0.18479278118E-01 -0.14324290646E+00  0.89229151399E+00  0.88000000000E+00 0. -1.
        -11    1    4    4    0    0 -0.38640407420E-02  0.57232084536E-02  0.99293935671E-02  0.12105366722E-01  0.51100000000E-03 0. -1.
         11    1    4    4    0    0 -0.20769263857E-01  0.46907338814E-03  0.11429093916E+00  0.11616480640E+00  0.51100000000E-03 0.  1.
</event>
<event>
 8    1  0.1118868E+005  0.1043930E+01  0.7957747E-01            NaN
         13   -1    0    0    0    0  0.00000000000E+00  0.00000000000E+00  0.74505805969E-08  0.10566000000E+00  0.10566000000E+00 0. -1.
     999900   -1    0    0    0    0 -0.00000000000E+00 -0.00000000000E+00 -0.74505805969E-08  0.93827000000E+00  0.93827000000E+00 0.  1.
     999902    2    1    2    0    0 -0.14859572353E-02  0.18816194729E-01  0.14772973564E-01  0.10199613121E+01  0.10196796458E+01 0.  0.
     999903    2    3    3    0    0 -0.12066343333E+00  0.47013608051E-01 -0.54797701268E-02  0.13124958235E+00  0.20651428522E-01 0.  0.
         14    1    1    2    0    0  0.14859572353E-02 -0.18816194729E-01 -0.14772973564E-01  0.23968687926E-01  0.00000000000E+00 0. -1.
     999901    1    3    3    0    0  0.11917747610E+00 -0.28197413322E-01  0.20252743690E-01  0.88871172973E+00  0.88000000000E+00 0.  1.
        -11    1    4    4    0    0 -0.66876002362E-01  0.18785567464E-01  0.48308031866E-02  0.69634007621E-01  0.51100000000E-03 0.  1.
         11    1    4    4    0    0 -0.53787430971E-01  0.28228040587E-01 -0.10310573313E-01  0.61615574727E-01  0.51100000000E-03 0. -1.
</event>
<event>
 8    1  0.1118868E+005  0.1043930E+01  0.7957747E-01            NaN
         13   -1    0    0    0    0  0.00000000000E+00  0.00000000000E+00  0.74505805969E-08  0.10566000000E+00  0.10566000000E+00 0.  1.
     999900   -1    0    0    0    0 -0.00000000000E+00 -0.00000000000E+00 -0.74505805969E-08  0.93827000000E+00  0.93827000000E+00 0. -1.
     999902    2    1    2    0    0 -0.65597119015E-02 -0.22017119568E-01 -0.67619556803E-02  0.10199819851E+01  0.10197008103E+01 0.  0.
     999903    2    3    3    0    0  0.77213739088E-01 -0.31284429120E-02 -0.10318280223E+00  0.13055983961E+00  0.20674437906E-01 0.  0.
         14    1    1    2    0    0  0.65597119015E-02  0.22017119568E-01  0.67619556803E-02  0.23948014927E-01  0.00000000000E+00 0. -1.
     999901    1    3    3    0    0 -0.83773450990E-01 -0.18888676656E-01  0.96420846551E-01  0.88942214547E+00  0.88000000000E+00 0.  1.
        -11    1    4    4    0    0  0.70612885086E-01  0.62002094939E-03 -0.82917385259E-01  0.10891335026E+00  0.51100000000E-03 0.  1.
         11    1    4    4    0    0  0.66008540025E-02 -0.37484638614E-02 -0.20265416972E-01  0.21646489345E-01  0.51100000000E-03 0. -1.
</event>
<event>
 8    1  0.1118868E+005  0.1043930E+01  0.7957747E-01            NaN
         13   -1    0    0    0    0  0.00000000000E+00  0.00000000000E+00  0.74505805969E-08  0.10566000000E+00  0.10566000000E+00 0.  1.
     999900   -1    0    0    0    0 -0.00000000000E+00 -0.00000000000E+00 -0.74505805969E-08  0.93827000000E+00  0.93827000000E+00 0. -1.
     999902    2    1    2    0    0 -0.21093509068E-01  0.10285615688E-01  0.49500729915E-02  0.10199459795E+01  0.10196639485E+01 0.  0.
     999903    2    3    3    0    0  0.10566857068E+00  0.60575096120E-02 -0.68916777054E-01  0.12778970776E+00  0.19446002101E-01 0.  0.
         14    1    1    2    0    0  0.21093509068E-01 -0.10285615688E-01 -0.49500729915E-02  0.23984020461E-01  0.00000000000E+00 0. -1.
     999901    1    3    3    0    0 -0.12676207974E+00  0.42281060756E-02  0.73866850045E-01  0.89215627178E+00  0.88000000000E+00 0.  1.
        -11    1    4    4    0    0  0.89639132700E-01  0.96071393236E-02 -0.64276057772E-01  0.11072101861E+00  0.51100000000E-03 0. -1.
         11    1    4    4    0    0  0.16029437977E-01 -0.35496297116E-02 -0.46407192819E-02  0.17068689153E-01  0.51100000000E-03 0.  1.
</event>
<event>
 8    1  0.1118868E+005  0.1043930E+01  0.7957747E-01            NaN
         13   -1    0    0    0    0  0.00000000000E+00  0.00000000000E+00  0.74505805969E-08  0.10566000000E+00  0.10566000000E+00 0. -1.
     999900   -1    0    0    0    0 -0.00000000000E+00 -0.00000000000E+00 -0.74505805969E-08  0.93827000000E+00  0.93827000000E+00 0.  1.
     999902    2    1    2    0    0  0.19327774886E-01  0.76931024958E-03 -0.16978163621E-01  0.10181926194E+01  0.10178672789E+01 0.  0.
     999903    2    3    3    0    0  0.66019752076E-01  0.47495556322E-01 -0.10155579305E+00  0.13167310004E+00  0.20243286224E-01 0.  0.
         14    1    1    2    0    0 -0.19327774886E-01 -0.76931024958E-03  0.16978163621E-01  0.25737380602E-01  0.00000000000E+00 0. -1.
     999901    1    3    3    0    0 -0.46691977190E-01 -0.46726246072E-01  0.84577629430E-01  0.88651951936E+00  0.88000000000E+00 0. -1.
        -11    1    4    4    0    0  0.69919034549E-02 -0.72962348352E-03 -0.13337840761E-01  0.15085694599E-01  0.51100000000E-03 0. -1.
         11    1    4    4    0    0  0.59027848621E-01  0.48225179805E-01 -0.88217952289E-01  0.11658740544E+00  0.51100000000E-03 0.  1.
</event>
<event>
 8    1  0.1118868E+005  0.1043930E+01  0.7957747E-01            NaN
         13   -1    0    0    0    0  0.00000000000E+00  0.00000000000E+00  0.74505805969E-08  0.10566000000E+00  0.10566000000E+00 0. -1.
     999900   -1    0    0    0    0 -0.00000000000E+00 -0.00000000000E+00 -0.74505805969E-08  0.93827000000E+00  0.93827000000E+00 0. -1.
     999902    2    1    2    0    0  0.40229390109E-02  0.21866342304E-01  0.14543848341E-01  0.10173622660E+01  0.10170153076E+01 0.  0.
     999903    2    3    3    0    0 -0.71017310217E-01  0.91408526248E-01  0.56552297457E-01  0.13043957258E+00  0.20428967803E-01 0.  0.
         14    1    1    2    0    0 -0.40229390109E-02 -0.21866342304E-01 -0.14543848341E-01  0.26567733976E-01  0.00000000000E+00 0.  1.
     999901    1    3    3    0    0  0.75040249228E-01 -0.69542183944E-01 -0.42008449116E-01  0.88692269345E+00  0.88000000000E+00 0. -1.
        -11    1    4    4    0    0 -0.44610581576E-01  0.43761141096E-01  0.36604353307E-01  0.72424314016E-01  0.51100000000E-03 0. -1.
         11    1    4    4    0    0 -0.26406728641E-01  0.47647385151E-01  0.19947944150E-01  0.58015258563E-01  0.51100000000E-03 0.  1.
</event>
<event>
 8    1  0.1118868E+005  0.1043930E+01  0.7957747E-01            NaN
         13   -1    0    0    0    0  0.00000000000E+00  0.00000000000E+00  0.74505805969E-08  0.10566000000E+00  0.10566000000E+00 0. -1.
     999900   -1    0    0    0    0 -0.00000000000E+00 -0.00000000000E+00 -0.74505805969E-08  0.93827000000E+00  0.93827000000E+00 0. -1.
     999902    2    1    2    0    0 -0.90209926421E-02 -0.38928775563E-02 -0.24765525789E-01  0.10172867256E+01  0.10169377650E+01 0.  0.
     999903    2    3    3    0    0  0.14502663335E-01 -0.82497662613E-01  0.91685652920E-01  0.12583120137E+00  0.20274138879E-01 0.  0.
         14    1    1    2    0    0  0.90209926421E-02  0.38928775563E-02  0.24765525789E-01  0.26643274415E-01  0.00000000000E+00 0. -1.
     999901    1    3    3    0    0 -0.23523655977E-01  0.78604785057E-01 -0.11645117871E+00  0.89145552421E+00  0.88000000000E+00 0. -1.
        -11    1    4    4    0    0  0.59928789533E-02 -0.40515984447E-01  0.59560182248E-01  0.72285102368E-01  0.51100000000E-03 0. -1.
         11    1    4    4    0    0  0.85097843820E-02 -0.41981678166E-01  0.32125470672E-01  0.53546099006E-01  0.51100000000E-03 0.  1.
</event>
<event>
 8    1  0.1118868E+005  0.1043930E+01  0.7957747E-01            NaN
         13   -1    0    0    0    0  0.00000000000E+00  0.00000000000E+00  0.74505805969E-08  0.10566000000E+00  0.10566000000E+00 0. -1.
     999900   -1    0    0    0    0 -0.00000000000E+00 -0.00000000000E+00 -0.74505805969E-08  0.93827000000E+00  0.93827000000E+00 0.  1.
     999902    2    1    2    0    0 -0.26014881257E-02 -0.61998024185E-02 -0.22462331764E-01  0.10204830036E+01  0.10202136046E+01 0.  0.
     999903    2    3    3    0    0  0.10097910148E+00 -0.21983801311E-01 -0.80237276718E-01  0.13238615225E+00  0.20199165284E-01 0.  0.
         14    1    1    2    0    0  0.26014881257E-02  0.61998024185E-02  0.22462331764E-01  0.23446996370E-01  0.00000000000E+00 0. -1.
     999901    1    3    3    0    0 -0.10358058960E+00  0.15783998893E-01  0.57774944955E-01  0.88809685138E+00  0.88000000000E+00 0. -1.
        -11    1    4    4    0    0  0.64354952662E-01 -0.16236093047E-01 -0.62951922743E-01  0.91478830052E-01  0.51100000000E-03 0. -1.
         11    1    4    4    0    0  0.36624148813E-01 -0.57477082637E-02 -0.17285353975E-01  0.40907322200E-01  0.51100000000E-03 0.  1.
</event>
<event>
 8    1  0.1118868E+005  0.1043930E+01  0.7957747E-01            NaN
         13   -1    0    0    0    0  0.00000000000E+00  0.00000000000E+00  0.74505805969E-08  0.10566000000E+00  0.10566000000E+00 0. -1.
     999900   -1    0    0    0    0 -0.00000000000E+00 -0.00000000000E+00 -0.74505805969E-08  0.93827000000E+00  0.93827000000E+00 0. -1.
     999902    2    1    2    0    0  0.17721844458E-01  0.12836758798E-01  0.82088187243E-02  0.10205584178E+01  0.10202907690E+01 0.  0.
     999903    2    3    3    0    0  0.11495198358E+00  0.57796542635E-01  0.31396671593E-01  0.13375925308E+00  0.18745344165E-01 0.  0.
         14    1    1    2    0    0 -0.17721844458E-01 -0.12836758798E-01 -0.82088187243E-02  0.23371582152E-01  0.00000000000E+00 0.  1.
     999901    1    3    3    0    0 -0.97230139120E-01 -0.44959783837E-01 -0.23187852869E-01  0.88679916477E+00  0.88000000000E+00 0. -1.
        -11    1    4    4    0    0  0.25786975488E-01  0.12968260207E-01 -0.84022604082E-03  0.28880979526E-01  0.51100000000E-03 0.  1.
         11    1    4    4    0    0  0.89165008090E-01  0.44828282428E-01  0.32236897634E-01  0.10487827355E+00  0.51100000000E-03 0. -1.
</event>
<event>
 8    1  0.1118868E+005  0.1043930E+01  0.7957747E-01            NaN
         13   -1    0    0    0    0  0.00000000000E+00  0.00000000000E+00  0.74505805969E-08  0.10566000000E+00  0.10566000000E+00 0. -1.
     999900   -1    0    0    0    0 -0.00000000000E+00 -0.00000000000E+00 -0.74505805969E-08  0.93827000000E+00  0.93827000000E+00 0. -1.
     999902    2    1    2    0    0  0.26377493750E-02 -0.20902443143E-01 -0.11701634826E-01  0.10198302467E+01  0.10195454546E+01 0.  0.
     999903    2    3    3    0    0 -0.10626133359E+00 -0.24530344209E-01 -0.70035747301E-01  0.13119362772E+00  0.20336008711E-01 0.  0.
         14    1    1    2    0    0 -0.26377493750E-02  0.20902443143E-01  0.11701634826E-01  0.24099753292E-01  0.00000000000E+00 0. -1.
     999901    1    3    3    0    0  0.10889908296E+00  0.36279010659E-02  0.58334112474E-01  0.88863661899E+00  0.88000000000E+00 0.  1.
        -11    1    4    4    0    0 -0.76384892743E-01 -0.25168868063E-01 -0.44706690059E-01  0.92016699658E-01  0.51100000000E-03 0.  1.
         11    1    4    4    0    0 -0.29876440844E-01  0.63852385351E-03 -0.25329057242E-01  0.39176928057E-01  0.51100000000E-03 0. -1.
</event>
<event>
 8    1  0.1118868E+005  0.1043930E+01  0.7957747E-01            NaN
         13   -1    0    0    0    0  0.00000000000E+00  0.00000000000E+00  0.74505805969E-08  0.10566000000E+00  0.10566000000E+00 0.  1.
     999900   -1    0    0    0    0 -0.00000000000E+00 -0.00000000000E+00 -0.74505805969E-08  0.93827000000E+00  0.93827000000E+00 0.  1.
     999902    2    1    2    0    0  0.71696209580E-02 -0.90124316440E-02 -0.20374447012E-01  0.10205260371E+01  0.10202576375E+01 0.  0.
     999903    2    3    3    0    0 -0.10309427639E-01  0.95819156917E-01 -0.88451609303E-01  0.13152115571E+00  0.13657674746E-01 0.  0.
         14    1    1    2    0    0 -0.71696209580E-02  0.90124316440E-02  0.20374447012E-01  0.23403962910E-01  0.00000000000E+00 0. -1.
     999901    1    3    3    0    0  0.17479048597E-01 -0.10483158856E+00  0.68077162291E-01  0.88900488138E+00  0.88000000000E+00 0. -1.
        -11    1    4    4    0    0  0.17853204761E-02  0.26827345748E-01 -0.30021659633E-01  0.40304528495E-01  0.51100000000E-03 0.  1.
         11    1    4    4    0    0 -0.12094748115E-01  0.68991811168E-01 -0.58429949670E-01  0.91216627211E-01  0.51100000000E-03 0. -1.
</event>
<event>
 8    1  0.1118868E+005  0.1043930E+01  0.7957747E-01            NaN
         13   -1    0    0    0    0  0.00000000000E+00  0.00000000000E+00  0.74505805969E-08  0.10566000000E+00  0.10566000000E+00 0. -1.
     999900   -1    0    0    0    0 -0.00000000000E+00 -0.00000000000E+00 -0.74505805969E-08  0.93827000000E+00  0.93827000000E+00 0.  1.
     999902    2    1    2    0    0 -0.71378870486E-02  0.15197187029E-01 -0.17220172636E-01  0.10198792563E+01  0.10195956352E+01 0.  0.
     999903    2    3    3    0    0 -0.25270276133E-01 -0.81381739497E-01 -0.97200599797E-01  0.13080493925E+00  0.20010026262E-01 0.  0.
         14    1    1    2    0    0  0.71378870486E-02 -0.15197187029E-01  0.17220172636E-01  0.24050743662E-01  0.00000000000E+00 0. -1.
     999901    1    3    3    0    0  0.18132389085E-01  0.96578926525E-01  0.79980427161E-01  0.88907431709E+00  0.88000000000E+00 0. -1.
        -11    1    4    4    0    0 -0.26837979312E-01 -0.56224411629E-01 -0.70389618387E-01  0.94002239836E-01  0.51100000000E-03 0.  1.
         11    1    4    4    0    0  0.15677031788E-02 -0.25157327868E-01 -0.26810981409E-01  0.36802699410E-01  0.51100000000E-03 0. -1.
</event>
<event>
 8    1  0.1118868E+005  0.1043930E+01  0.7957747E-01            NaN
         13   -1    0    0    0    0  0.00000000000E+00  0.00000000000E+00  0.74505805969E-08  0.10566000000E+00  0.10566000000E+00 0.  1.
     999900   -1    0    0    0    0 -0.00000000000E+00 -0.00000000000E+00 -0.74505805969E-08  0.93827000000E+00  0.93827000000E+00 0. -1.
     999902    2    1    2    0    0  0.45664765012E-02  0.23694637462E-01  0.23171596020E-02  0.10196883462E+01  0.10194001499E+01 0.  0.
     999903    2    3    3    0    0 -0.79858861611E-01  0.79922133779E-01 -0.63959959343E-01  0.13138556808E+00  0.20157029907E-01 0.  0.
         14    1    1    2    0    0 -0.45664765012E-02 -0.23694637462E-01 -0.23171596020E-02  0.24241653836E-01  0.00000000000E+00 0. -1.
     999901    1    3    3    0    0  0.84425338112E-01 -0.56227496316E-01  0.66277118945E-01  0.88830277808E+00  0.88000000000E+00 0. -1.
        -11    1    4    4    0    0 -0.14527389936E-01  0.26710550449E-01 -0.14623318673E-01  0.33743164251E-01  0.51100000000E-03 0.  1.
         11    1    4    4    0    0 -0.65331471675E-01  0.53211583329E-01 -0.49336640671E-01  0.97642403828E-01  0.51100000000E-03 0. -1.
</event>
<event>
 8    1  0.1118868E+005  0.1043930E+01  0.7957747E-01            NaN
         13   -1    0    0    0    0  0.00000000000E+00  0.00000000000E+00  0.74505805969E-08  0.10566000000E+00  0.10566000000E+00 0. -1.
     999900   -1    0    0    0    0 -0.00000000000E+00 -0.00000000000E+00 -0.74505805969E-08  0.93827000000E+00  0.93827000000E+00 0.  1.
     999902    2    1    2    0    0  0.34176692098E-02 -0.18547413893E-01 -0.13767016265E-01  0.10205801015E+01  0.10203129548E+01 0.  0.
     999903    2    3    3    0    0  0.71017598844E-01  0.11364825789E-01  0.10586331798E+00  0.12941462331E+00  0.19194895762E-01 0.  0.
         14    1    1    2    0    0 -0.34176692098E-02  0.18547413893E-01  0.13767016265E-01  0.23349898539E-01  0.00000000000E+00 0. -1.
     999901    1    3    3    0    0 -0.67599929634E-01 -0.29912239681E-01 -0.11963033424E+00  0.89116547815E+00  0.88000000000E+00 0.  1.
        -11    1    4    4    0    0  0.38202625440E-01  0.10067638333E-01  0.72680836039E-01  0.82725830189E-01  0.51100000000E-03 0. -1.
         11    1    4    4    0    0  0.32814973404E-01  0.12971874551E-02  0.33182481940E-01  0.46688793125E-01  0.51100000000E-03 0.  1.
</event>
<event>
 8    1  0.1118868E+005  0.1043930E+01  0.7957747E-01            NaN
         13   -1    0    0    0    0  0.00000000000E+00  0.00000000000E+00  0.74505805969E-08  0.10566000000E+00  0.10566000000E+00 0. -1.
     999900   -1    0    0    0    0 -0.00000000000E+00 -0.00000000000E+00 -0.74505805969E-08  0.93827000000E+00  0.93827000000E+00 0.  1.
     999902    2    1    2    0    0  0.18663287011E-01  0.94946376127E-02 -0.10190405383E-01  0.10206424328E+01  0.10203767269E+01 0.  0.
     999903    2    3    3    0    0 -0.78843115632E-01  0.22448897008E-02  0.99104974716E-01  0.12850705206E+00  0.21702304132E-01 0.  0.
         14    1    1    2    0    0 -0.18663287011E-01 -0.94946376127E-02  0.10190405383E-01  0.23287567226E-01  0.00000000000E+00 0. -1.
     999901    1    3    3    0    0  0.97506402643E-01  0.72497479119E-02 -0.10929538010E+00  0.89213538071E+00  0.88000000000E+00 0.  1.
        -11    1    4    4    0    0 -0.33512248291E-01  0.92680794865E-03  0.25798834747E-01  0.42305682287E-01  0.51100000000E-03 0. -1.
         11    1    4    4    0    0 -0.45330867342E-01  0.13180817522E-02  0.73306139969E-01  0.86201369778E-01  0.51100000000E-03 0.  1.
</event>
<event>
 8    1  0.1454656E+005  0.1043930E+01  0.7957747E-01            NaN
         13   -1    0    0    0    0  0.00000000000E+00  0.00000000000E+00  0.74505805969E-08  0.10566000000E+00  0.10566000000E+00 0.  1.
     999900   -1    0    0    0    0 -0.00000000000E+00 -0.00000000000E+00 -0.74505805969E-08  0.93827000000E+00  0.93827000000E+00 0.  1.
     999902    2    1    2    0    0  0.80740687600E-02 -0.10291873131E-01  0.19518560014E-01  0.10204334593E+01  0.10201629073E+01 0.  0.
     999903    2    3    3    0    0 -0.10059980748E-01  0.10490504952E+00  0.75485481023E-01  0.13097774317E+00  0.18730689626E-01 0.  0.
         14    1    1    2    0    0 -0.80740687600E-02  0.10291873131E-01 -0.19518560014E-01  0.23496540680E-01  0.00000000000E+00 0. -1.
     999901    1    3    3    0    0  0.18134049508E-01 -0.11519692265E+00 -0.55966921009E-01  0.88945571615E+00  0.88000000000E+00 0.  1.
        -11    1    4    4    0    0 -0.14347707598E-01  0.61452911073E-01  0.40060346807E-01  0.74748976582E-01  0.51100000000E-03 0. -1.
         11    1    4    4    0    0  0.42877268499E-02  0.43452138447E-01  0.35425134216E-01  0.56228766591E-01  0.51100000000E-03 0.  1.
</event>
<event>
 8    1  0.1118868E+005  0.1043930E+01  0.7957747E-01            NaN
         13   -1    0    0    0    0  0.00000000000E+00  0.00000000000E+00  0.74505805969E-08  0.10566000000E+00  0.10566000000E+00 0. -1.
     999900   -1    0    0    0    0 -0.00000000000E+00 -0.00000000000E+00 -0.74505805969E-08  0.93827000000E+00  0.93827000000E+00 0. -1.
     999902    2    1    2    0    0  0.10194040424E-02 -0.22734990738E-01  0.96181796118E-02  0.10192231514E+01  0.10189236497E+01 0.  0.
     999903    2    3    3    0    0  0.11290122997E+00  0.47419378766E-01  0.33180616949E-01  0.12905779205E+00  0.23657454151E-01 0.  0.
         14    1    1    2    0    0 -0.10194040424E-02  0.22734990738E-01 -0.96181796118E-02  0.24706848596E-01  0.00000000000E+00 0. -1.
     999901    1    3    3    0    0 -0.11188182593E+00 -0.70154369504E-01 -0.23562437337E-01  0.89016535935E+00  0.88000000000E+00 0. -1.
        -11    1    4    4    0    0  0.82091729633E-01  0.45205717089E-01  0.27274282635E-01  0.97605105123E-01  0.51100000000E-03 0. -1.
         11    1    4    4    0    0  0.30809500340E-01  0.22136616765E-02  0.59063343136E-02  0.31452686932E-01  0.51100000000E-03 0.  1.
</event>
<event>
 8    1  0.1118868E+005  0.1043930E+01  0.7957747E-01            NaN
         13   -1    0    0    0    0  0.00000000000E+00  0.00000000000E+00  0.74505805969E-08  0.10566000000E+00  0.10566000000E+00 0.  1.
     999900   -1    0    0    0    0 -0.00000000000E+00 -0.00000000000E+00 -0.74505805969E-08  0.93827000000E+00  0.93827000000E+00 0. -1.
     999902    2    1    2    0    0  0.14477993460E-01  0.36854724683E-02  0.16743735410E-01  0.10214901320E+01  0.10212436252E+01 0.  0.
     999903    2    3    3    0    0  0.39652617597E-01  0.11952948687E+00 -0.33121746347E-01  0.13214196412E+00  0.22468206139E-01 0.  0.
         14    1    1    2    0    0 -0.14477993460E-01 -0.36854724683E-02 -0.16743735410E-01  0.22439868035E-01  0.00000000000E+00 0. -1.
     999901    1    3    3    0    0 -0.25174624137E-01 -0.11584401440E+00  0.49865481758E-01  0.88934816784E+00  0.88000000000E+00 0. -1.
        -11    1    4    4    0    0  0.43255662798E-02  0.24839519719E-01  0.16208532340E-02  0.25270547080E-01  0.51100000000E-03 0. -1.
         11    1    4    4    0    0  0.35327051317E-01  0.94689967153E-01 -0.34742599581E-01  0.10687141704E+00  0.51100000000E-03 0.  1.
</event>
<event>
 8    1  0.1118868E+005  0.1043930E+01  0.7957747E-01            NaN
         13   -1    0    0    0    0  0.00000000000E+00  0.00000000000E+00  0.74505805969E-08  0.10566000000E+00  0.10566000000E+00 0.  1.
     999900   -1    0    0    0    0 -0.00000000000E+00 -0.00000000000E+00 -0.74505805969E-08  0.93827000000E+00  0.93827000000E+00 0. -1.
     999902    2    1    2    0    0  0.15053142381E-01 -0.17657550034E-01  0.63344272988E-02  0.10198777415E+01  0.10195940842E+01 0.  0.
     999903    2    3    3    0    0 -0.70163315125E-01 -0.37449965722E-01 -0.99823999478E-01  0.12919081789E+00  0.20001145810E-01 0.  0.
         14    1    1    2    0    0 -0.15053142381E-01  0.17657550034E-01 -0.63344272988E-02  0.24052258480E-01  0.00000000000E+00 0. -1.
     999901    1    3    3    0    0  0.85216457506E-01  0.19792415688E-01  0.10615842678E+00  0.89068692363E+00  0.88000000000E+00 0.  1.
        -11    1    4    4    0    0 -0.51067211615E-01 -0.16537837981E-01 -0.64722652914E-01  0.84087116186E-01  0.51100000000E-03 0. -1.
         11    1    4    4    0    0 -0.19096103509E-01 -0.20912127741E-01 -0.35101346563E-01  0.45103701705E-01  0.51100000000E-03 0.  1.
</event>
<event>
 8    1  0.1118868E+005  0.1043930E+01  0.7957747E-01            NaN
         13   -1    0    0    0    0  0.00000000000E+00  0.00000000000E+00  0.74505805969E-08  0.10566000000E+00  0.10566000000E+00 0. -1.
     999900   -1    0    0    0    0 -0.00000000000E+00 -0.00000000000E+00 -0.74505805969E-08  0.93827000000E+00  0.93827000000E+00 0.  1.
     999902    2    1    2    0    0  0.51163374690E-02  0.53290978945E-02 -0.22691245457E-01  0.10200664543E+01  0.10197872829E+01 0.  0.
     999903    2    3    3    0    0  0.10742102297E+00 -0.66410032399E-01  0.23516472995E-01  0.13003954192E+00  0.20191319472E-01 0.  0.
         14    1    1    2    0    0 -0.51163374690E-02 -0.53290978945E-02  0.22691245457E-01  0.23863545710E-01  0.00000000000E+00 0. -1.
     999901    1    3    3    0    0 -0.10230468550E+00  0.71739130293E-01 -0.46207718452E-01  0.89002691237E+00  0.88000000000E+00 0.  1.
        -11    1    4    4    0    0  0.72493487605E-01 -0.52302391913E-01  0.23246051181E-01  0.92366043336E-01  0.51100000000E-03 0.  1.
         11    1    4    4    0    0  0.34927535368E-01 -0.14107640485E-01  0.27042181381E-03  0.37673498589E-01  0.51100000000E-03 0. -1.
</event>
<event>
 8    1  0.1118868E+005  0.1043930E+01  0.7957747E-01            NaN
         13   -1    0    0    0    0  0.00000000000E+00  0.00000000000E+00  0.74505805969E-08  0.10566000000E+00  0.10566000000E+00 0. -1.
     999900   -1    0    0    0    0 -0.00000000000E+00 -0.00000000000E+00 -0.74505805969E-08  0.93827000000E+00  0.93827000000E+00 0.  1.
     999902    2    1    2    0    0  0.12784494844E-01 -0.17421149834E-01  0.10490843472E-01  0.10199092264E+01  0.10196263200E+01 0.  0.
     999903    2    3    3    0    0  0.57111346744E-01  0.11362756981E+00 -0.67415620146E-02  0.12893470790E+00  0.20143974174E-01 0.  0.
         14    1    1    2    0    0 -0.12784494844E-01  0.17421149834E-01 -0.10490843472E-01  0.24020773650E-01  0.00000000000E+00 0.  1.
     999901    1    3    3    0    0 -0.44326851900E-01 -0.13104871965E+00  0.17232405487E-01  0.89097451845E+00  0.88000000000E+00 0. -1.
        -11    1    4    4    0    0  0.46051712788E-02  0.24515630961E-01 -0.52307389548E-02  0.25492067687E-01  0.51100000000E-03 0.  1.
         11    1    4    4    0    0  0.52506175465E-01  0.89111938852E-01 -0.15108230599E-02  0.10344264022E+00  0.51100000000E-03 0. -1.
</event>
<event>
 8    1  0.1118868E+005  0.1043930E+01  0.7957747E-01            NaN
         13   -1    0    0    0    0  0.00000000000E+00  0.00000000000E+00  0.74505805969E-08  0.10566000000E+00  0.10566000000E+00 0. -1.
     999900   -1    0    0    0    0 -0.00000000000E+00 -0.00000000000E+00 -0.74505805969E-08  0.93827000000E+00  0.93827000000E+00 0. -1.
     999902    2    1    2    0    0 -0.82032268591E-03 -0.22793889062E-01  0.11306291115E-01  0.10184728492E+01  0.10181546435E+01 0.  0.
     999903    2    3    3    0    0  0.11791147492E+00  0.63497700536E-02  0.48421629130E-01  0.12924613967E+00  0.20407718020E-01 0.  0.
         14    1    1    2    0    0  0.82032268591E-03  0.22793889062E-01 -0.11306291115E-01  0.25457150796E-01  0.00000000000E+00 0.  1.
     999901    1    3    3    0    0 -0.11873179761E+00 -0.29143659116E-01 -0.37115338015E-01  0.88922670953E+00  0.88000000000E+00 0. -1.
        -11    1    4    4    0    0  0.78520336676E-01  0.66426462876E-02  0.42110360642E-01  0.89348260284E-01  0.51100000000E-03 0.  1.
         11    1    4    4    0    0  0.39391138244E-01 -0.29287623403E-03  0.63112684876E-02  0.39897879387E-01  0.51100000000E-03 0. -1.
</event>
<event>
 8    1  0.1118868E+005  0.1043930E+01  0.7957747E-01            NaN
         13   -1    0    0    0    0  0.00000000000E+00  0.00000000000E+00  0.74505805969E-08  0.10566000000E+00  0.10566000000E+00 0. -1.
     999900   -1    0    0    0    0 -0.00000000000E+00 -0.00000000000E+00 -0.74505805969E-08  0.93827000000E+00  0.93827000000E+00 0.  1.
     999902    2    1    2    0    0  0.18331313410E-01  0.12122334571E-01  0.55428803648E-02  0.10212647939E+01  0.10210132554E+01 0.  0.
     999903    2    3    3    0    0 -0.36441777590E-01 -0.11033895388E+00 -0.52989466288E-01  0.12917573201E+00  0.19385517950E-01 0.  0.
         14    1    1    2    0    0 -0.18331313410E-01 -0.12122334571E-01 -0.55428803648E-02  0.22665206143E-01  0.00000000000E+00 0. -1.
     999901    1    3    3    0    0  0.54773090999E-01  0.12246128845E+00  0.58532346653E-01  0.89208906185E+00  0.88000000000E+00 0.  1.
        -11    1    4    4    0    0 -0.34852525346E-01 -0.90427202569E-01 -0.49739899911E-01  0.10893161273E+00  0.51100000000E-03 0.  1.
         11    1    4    4    0    0 -0.15892522434E-02 -0.19911751306E-01 -0.32495663770E-02  0.20244119279E-01  0.51100000000E-03 0. -1.
</event>
<event>
 8    1  0.1118868E+005  0.1043930E+01  0.7957747E-01            NaN
         13   -1    0    0    0    0  0.00000000000E+00  0.00000000000E+00  0.74505805969E-08  0.10566000000E+00  0.10566000000E+00 0. -1.
     999900   -1    0    0    0    0 -0.00000000000E+00 -0.00000000000E+00 -0.74505805969E-08  0.93827000000E+00  0.93827000000E+00 0. -1.
     999902    2    1    2    0    0 -0.28204793941E-02  0.21540683479E-01 -0.90457138854E-02  0.10203974462E+01  0.10201260545E+01 0.  0.
     999903    2    3    3    0    0  0.66289250684E-01 -0.67797824111E-01  0.84062818267E-01  0.12830623870E+00  0.20127686525E-01 0.  0.
         14    1    1    2    0    0  0.28204793941E-02 -0.21540683479E-01  0.90457138854E-02  0.23532553802E-01  0.00000000000E+00 0.  1.
     999901    1    3    3    0    0 -0.69109730078E-01  0.89338507589E-01 -0.93108532152E-01  0.89209120749E+00  0.88000000000E+00 0.  1.
        -11    1    4    4    0    0  0.32833850632E-01 -0.47287194804E-01  0.46883501272E-01  0.74245971960E-01  0.51100000000E-03 0.  1.
         11    1    4    4    0    0  0.33455400051E-01 -0.20510629307E-01  0.37179316995E-01  0.54060266743E-01  0.51100000000E-03 0. -1.
</event>
<event>
 8    1  0.1118868E+005  0.1043930E+01  0.7957747E-01            NaN
         13   -1    0    0    0    0  0.00000000000E+00  0.00000000000E+00  0.74505805969E-08  0.10566000000E+00  0.10566000000E+00 0.  1.
     999900   -1    0    0    0    0 -0.00000000000E+00 -0.00000000000E+00 -0.74505805969E-08  0.93827000000E+00  0.93827000000E+00 0.  1.
     999902    2    1    2    0    0 -0.12557781656E-01  0.11410437166E-01  0.16152437297E-01  0.10205035793E+01  0.10202346584E+01 0.  0.
     999903    2    3    3    0    0  0.98511422638E-01  0.49867702710E-01  0.69815520010E-01  0.13106833384E+00  0.10649560407E-01 0.  0.
         14    1    1    2    0    0  0.12557781656E-01 -0.11410437166E-01 -0.16152437297E-01  0.23426420705E-01  0.00000000000E+00 0. -1.
     999901    1    3    3    0    0 -0.11106920429E+00 -0.38457265545E-01 -0.53663082713E-01  0.88943524546E+00  0.88000000000E+00 0.  1.
        -11    1    4    4    0    0  0.35069876944E-01  0.13673347713E-01  0.27876036544E-01  0.46842195091E-01  0.51100000000E-03 0. -1.
         11    1    4    4    0    0  0.63441545693E-01  0.36194354997E-01  0.41939483466E-01  0.84226138746E-01  0.51100000000E-03 0.  1.
</event>
<event>
 8    1  0.1118868E+005  0.1043930E+01  0.7957747E-01            NaN
         13   -1    0    0    0    0  0.00000000000E+00  0.00000000000E+00  0.74505805969E-08  0.10566000000E+00  0.10566000000E+00 0. -1.
     999900   -1    0    0    0    0 -0.00000000000E+00 -0.00000000000E+00 -0.74505805969E-08  0.93827000000E+00  0.93827000000E+00 0. -1.
     999902    2    1    2    0    0  0.21511399111E-01  0.10979285157E-01  0.51439246976E-02  0.10192369857E+01  0.10189378234E+01 0.  0.
     999903    2    3    3    0    0  0.25436353589E-01 -0.47345308714E-01  0.11691204805E+00  0.13024357913E+00  0.20158784286E-01 0.  0.
         14    1    1    2    0    0 -0.21511399111E-01 -0.10979285157E-01 -0.51439246976E-02  0.24693014307E-01  0.00000000000E+00 0.  1.
     999901    1    3    3    0    0 -0.39249544780E-02  0.58324593871E-01 -0.11176812335E+00  0.88899340656E+00  0.88000000000E+00 0. -1.
        -11    1    4    4    0    0  0.25819659333E-01 -0.31681181194E-01  0.73693161666E-01  0.84269183259E-01  0.51100000000E-03 0. -1.
         11    1    4    4    0    0 -0.38330574381E-03 -0.15664127520E-01  0.43218886384E-01  0.45974395869E-01  0.51100000000E-03 0.  1.
</event>
<event>
 8    1  0.1118868E+005  0.1043930E+01  0.7957747E-01            NaN
         13   -1    0    0    0    0  0.00000000000E+00  0.00000000000E+00  0.74505805969E-08  0.10566000000E+00  0.10566000000E+00 0. -1.
     999900   -1    0    0    0    0 -0.00000000000E+00 -0.00000000000E+00 -0.74505805969E-08  0.93827000000E+00  0.93827000000E+00 0.  1.
     999902    2    1    2    0    0 -0.67173071172E-02  0.17486535579E-01  0.13542871843E-01  0.10208148422E+01  0.10205531008E+01 0.  0.
     999903    2    3    3    0    0 -0.19307702337E-01  0.12960932043E+00 -0.13204170941E-01  0.13320826201E+00  0.19968165288E-01 0.  0.
         14    1    1    2    0    0  0.67173071172E-02 -0.17486535579E-01 -0.13542871843E-01  0.23115157780E-01  0.00000000000E+00 0.  1.
     999901    1    3    3    0    0  0.12590395220E-01 -0.11212278485E+00  0.26747042784E-01  0.88760658021E+00  0.88000000000E+00 0. -1.
        -11    1    4    4    0    0 -0.83467429013E-02  0.87882937894E-01 -0.16980934048E-01  0.89898232085E-01  0.51100000000E-03 0.  1.
         11    1    4    4    0    0 -0.10960959436E-01  0.41726382538E-01  0.37767631072E-02  0.43310029924E-01  0.51100000000E-03 0. -1.
</event>
<event>
 8    1  0.1118868E+005  0.1043930E+01  0.7957747E-01            NaN
         13   -1    0    0    0    0  0.00000000000E+00  0.00000000000E+00  0.74505805969E-08  0.10566000000E+00  0.10566000000E+00 0. -1.
     999900   -1    0    0    0    0 -0.00000000000E+00 -0.00000000000E+00 -0.74505805969E-08  0.93827000000E+00  0.93827000000E+00 0.  1.
     999902    2    1    2    0    0  0.59261067463E-02  0.11005128977E-01  0.20884031594E-01  0.10195912576E+01  0.10193007202E+01 0.  0.
     999903    2    3    3    0    0 -0.72825813424E-01 -0.72794510837E-01 -0.71969650665E-01  0.12726505557E+00  0.20350032996E-01 0.  0.
         14    1    1    2    0    0 -0.59261067463E-02 -0.11005128977E-01 -0.20884031594E-01  0.24338742379E-01  0.00000000000E+00 0.  1.
     999901    1    3    3    0    0  0.78751920170E-01  0.83799639814E-01  0.92853682258E-01  0.89232620205E+00  0.88000000000E+00 0. -1.
        -11    1    4    4    0    0 -0.42010270742E-01 -0.54642523850E-01 -0.51617659142E-01  0.86112206550E-01  0.51100000000E-03 0. -1.
         11    1    4    4    0    0 -0.30815542682E-01 -0.18151986986E-01 -0.20351991522E-01  0.41152849017E-01  0.51100000000E-03 0.  1.
</event>
<event>
 8    1  0.1118868E+005  0.1043930E+01  0.7957747E-01            NaN
         13   -1    0    0    0    0  0.00000000000E+00  0.00000000000E+00  0.74505805969E-08  0.10566000000E+00  0.10566000000E+00 0.  1.
     999900   -1    0    0    0    0 -0.00000000000E+00 -0.00000000000E+00 -0.74505805969E-08  0.93827000000E+00  0.93827000000E+00 0. -1.
     999902    2    1    2    0    0 -0.14757285704E-01 -0.16097344504E-01  0.58024183226E-02  0.10213342030E+01  0.10210842200E+01 0.  0.
     999903    2    3    3    0    0  0.64938747872E-01  0.10334821835E+00  0.36377645282E-01  0.12917191694E+00  0.21544276215E-01 0.  0.
         14    1    1    2    0    0  0.14757285704E-01  0.16097344504E-01 -0.58024183226E-02  0.22595796951E-01  0.00000000000E+00 0.  1.
     999901    1    3    3    0    0 -0.79696033576E-01 -0.11944556286E+00 -0.30575226959E-01  0.89216228611E+00  0.88000000000E+00 0.  1.
        -11    1    4    4    0    0  0.18087179944E-01  0.48606916305E-01  0.16454861730E-01  0.54413251939E-01  0.51100000000E-03 0. -1.
         11    1    4    4    0    0  0.46851567928E-01  0.54741302048E-01  0.19922783552E-01  0.74758665000E-01  0.51100000000E-03 0.  1.
</event>
<event>
 8    1  0.1118868E+005  0.1043930E+01  0.7957747E-01            NaN
         13   -1    0    0    0    0  0.00000000000E+00  0.00000000000E+00  0.74505805969E-08  0.10566000000E+00  0.10566000000E+00 0. -1.
     999900   -1    0    0    0    0 -0.00000000000E+00 -0.00000000000E+00 -0.74505805969E-08  0.93827000000E+00  0.93827000000E+00 0.  1.
     999902    2    1    2    0    0 -0.21509522426E-01  0.56639012486E-03  0.10078850038E-01  0.10201694535E+01  0.10198927151E+01 0.  0.
     999903    2    3    3    0    0  0.76209497907E-01  0.42597896369E-01 -0.91173300384E-01  0.12799926096E+00  0.21184233715E-01 0.  0.
         14    1    1    2    0    0  0.21509522426E-01 -0.56639012486E-03 -0.10078850038E-01  0.23760546518E-01  0.00000000000E+00 0.  1.
     999901    1    3    3    0    0 -0.97719020333E-01 -0.42031506245E-01  0.10125215042E+00  0.89217019252E+00  0.88000000000E+00 0. -1.
        -11    1    4    4    0    0  0.21549692822E-01  0.22844043549E-01 -0.27011156893E-01  0.41425877228E-01  0.51100000000E-03 0.  1.
         11    1    4    4    0    0  0.54659805085E-01  0.19753852820E-01 -0.64162143491E-01  0.86573383736E-01  0.51100000000E-03 0. -1.
</event>
<event>
 8    1  0.1118868E+005  0.1043930E+01  0.7957747E-01            NaN
         13   -1    0    0    0    0  0.00000000000E+00  0.00000000000E+00  0.74505805969E-08  0.10566000000E+00  0.10566000000E+00 0.  1.
     999900   -1    0    0    0    0 -0.00000000000E+00 -0.00000000000E+00 -0.74505805969E-08  0.93827000000E+00  0.93827000000E+00 0.  1.
     999902    2    1    2    0    0 -0.69462362352E-02 -0.15325663928E-01  0.19986712646E-01  0.10178034837E+01  0.10174681010E+01 0.  0.
     999903    2    3    3    0    0  0.54962633864E-01 -0.64163439901E-01  0.97787224166E-01  0.13085886526E+00  0.20587939785E-01 0.  0.
         14    1    1    2    0    0  0.69462362352E-02  0.15325663928E-01 -0.19986712646E-01  0.26126516321E-01  0.00000000000E+00 0. -1.
     999901    1    3    3    0    0 -0.61908870099E-01  0.48837775973E-01 -0.77800511520E-01  0.88694461842E+00  0.88000000000E+00 0.  1.
        -11    1    4    4    0    0  0.30765369419E-01 -0.48615451807E-01  0.72522413821E-01  0.92572845572E-01  0.51100000000E-03 0. -1.
         11    1    4    4    0    0  0.24197264446E-01 -0.15547988094E-01  0.25264810345E-01  0.38286019683E-01  0.51100000000E-03 0.  1.
</event>
<event>
 8    1  0.1118868E+005  0.1043930E+01  0.7957747E-01            NaN
         13   -1    0    0    0    0  0.00000000000E+00  0.00000000000E+00  0.74505805969E-08  0.10566000000E+00  0.10566000000E+00 0.  1.
     999900   -1    0    0    0    0 -0.00000000000E+00 -0.00000000000E+00 -0.74505805969E-08  0.93827000000E+00  0.93827000000E+00 0.  1.
     999902    2    1    2    0    0 -0.20715074939E-02  0.19069075482E-01  0.13360002063E-01  0.10205545762E+01  0.10202868384E+01 0.  0.
     999903    2    3    3    0    0 -0.43571160855E-01 -0.77918018213E-01  0.91261249321E-01  0.13083702444E+00  0.28636475277E-01 0.  0.
         14    1    1    2    0    0  0.20715074939E-02 -0.19069075482E-01 -0.13360002063E-01  0.23375423807E-01  0.00000000000E+00 0. -1.
     999901    1    3    3    0    0  0.41499653361E-01  0.96987093695E-01 -0.77901247258E-01  0.88971755175E+00  0.88000000000E+00 0.  1.
        -11    1    4    4    0    0 -0.25968433542E-01 -0.19774811615E-01  0.37447149283E-01  0.49678494597E-01  0.51100000000E-03 0. -1.
         11    1    4    4    0    0 -0.17602727313E-01 -0.58143206598E-01  0.53814100038E-01  0.81158529843E-01  0.51100000000E-03 0.  1.
</event>
<event>
 8    1  0.1118868E+005  0.1043930E+01  0.7957747E-01            NaN
         13   -1    0    0    0    0  0.00000000000E+00  0.00000000000E+00  0.74505805969E-08  0.10566000000E+00  0.10566000000E+00 0.  1.
     999900   -1    0    0    0    0 -0.00000000000E+00 -0.00000000000E+00 -0.74505805969E-08  0.93827000000E+00  0.93827000000E+00 0. -1.
     999902    2    1    2    0    0  0.68224723684E-02  0.20807364799E-01 -0.25228611611E-02  0.10218878271E+01  0.10216500740E+01 0.  0.
     999903    2    3    3    0    0  0.10940519149E+00 -0.71840468468E-02  0.71542483798E-01  0.13239785596E+00  0.19742310418E-01 0.  0.
         14    1    1    2    0    0 -0.68224723684E-02 -0.20807364799E-01  0.25228611611E-02  0.22042172931E-01  0.00000000000E+00 0. -1.
     999901    1    3    3    0    0 -0.10258271912E+00  0.27991411646E-01 -0.74065344959E-01  0.88948997111E+00  0.88000000000E+00 0. -1.
        -11    1    4    4    0    0  0.37518038141E-01  0.52309007036E-02  0.30897097885E-01  0.48886166620E-01  0.51100000000E-03 0.  1.
         11    1    4    4    0    0  0.71887153344E-01 -0.12414947550E-01  0.40645385913E-01  0.83511689335E-01  0.51100000000E-03 0. -1.
</event>
<event>
 8    1  0.1118868E+005  0.1043930E+01  0.7957747E-01            NaN
         13   -1    0    0    0    0  0.00000000000E+00  0.00000000000E+00  0.74505805969E-08  0.10566000000E+00  0.10566000000E+00 0. -1.
     999900   -1    0    0    0    0 -0.00000000000E+00 -0.00000000000E+00 -0.74505805969E-08  0.93827000000E+00  0.93827000000E+00 0.  1.
     999902    2    1    2    0    0  0.22877413763E-01 -0.51414682725E-02 -0.40530155312E-03  0.10204784537E+01  0.10202089489E+01 0.  0.
     999903    2    3    3    0    0  0.97772895933E-01  0.61979562665E-01 -0.61496291955E-01  0.13264588208E+00  0.20301003464E-01 0.  0.
         14    1    1    2    0    0 -0.22877413763E-01  0.51414682725E-02  0.40530155312E-03  0.23451546342E-01  0.00000000000E+00 0.  1.
     999901    1    3    3    0    0 -0.74895482170E-01 -0.67121030937E-01  0.61090990402E-01  0.88783257158E+00  0.88000000000E+00 0. -1.
        -11    1    4    4    0    0  0.86742476403E-01  0.46401509463E-01 -0.49918275936E-01  0.11031524231E+00  0.51100000000E-03 0. -1.
         11    1    4    4    0    0  0.11030419530E-01  0.15578053201E-01 -0.11578016019E-01  0.22330639769E-01  0.51100000000E-03 0.  1.
</event>
<event>
 8    1  0.1118868E+005  0.1043930E+01  0.7957747E-01            NaN
         13   -1    0    0    0    0  0.00000000000E+00  0.00000000000E+00  0.74505805969E-08  0.10566000000E+00  0.10566000000E+00 0.  1.
     999900   -1    0    0    0    0 -0.00000000000E+00 -0.00000000000E+00 -0.74505805969E-08  0.93827000000E+00  0.93827000000E+00 0. -1.
     999902    2    1    2    0    0 -0.85333154564E-02 -0.21415971972E-01 -0.41345310404E-02  0.10205087346E+01  0.10202399334E+01 0.  0.
     999903    2    3    3    0    0 -0.87012511328E-01  0.90921640670E-01  0.23053391533E-01  0.12948802406E+00  0.19944113003E-01 0.  0.
         14    1    1    2    0    0  0.85333154564E-02  0.21415971972E-01  0.41345310404E-02  0.23421265446E-01  0.00000000000E+00 0.  1.
     999901    1    3    3    0    0  0.78479195872E-01 -0.11233761264E+00 -0.27187922573E-01  0.89102071050E+00  0.88000000000E+00 0. -1.
        -11    1    4    4    0    0 -0.54564728082E-01  0.46092577075E-01  0.65047903721E-02  0.71724532977E-01  0.51100000000E-03 0.  1.
         11    1    4    4    0    0 -0.32447783246E-01  0.44829063596E-01  0.16548601161E-01  0.57763491081E-01  0.51100000000E-03 0. -1.
</event>
<event>
 8    1  0.1118868E+005  0.1043930E+01  0.7957747E-01            NaN
         13   -1    0    0    0    0  0.00000000000E+00  0.00000000000E+00  0.74505805969E-08  0.10566000000E+00  0.10566000000E+00 0.  1.
     999900   -1    0    0    0    0 -0.00000000000E+00 -0.00000000000E+00 -0.74505805969E-08  0.93827000000E+00  0.93827000000E+00 0. -1.
     999902    2    1    2    0    0  0.19459518029E-01 -0.10296097796E-01  0.29969039707E-02  0.10217114513E+01  0.10214698360E+01 0.  0.
     999903    2    3    3    0    0  0.69305603506E-01  0.32296027026E-01  0.10713573434E+00  0.13314878200E+00  0.20105534981E-01 0.  0.
         14    1    1    2    0    0 -0.19459518029E-01  0.10296097796E-01 -0.29969039707E-02  0.22218548673E-01  0.00000000000E+00 0. -1.
     999901    1    3    3    0    0 -0.49846085477E-01 -0.42592124821E-01 -0.10413883037E+00  0.88856266933E+00  0.88000000000E+00 0. -1.
        -11    1    4    4    0    0  0.46099345706E-01  0.12043245952E-01  0.72929769974E-01  0.87116025604E-01  0.51100000000E-03 0.  1.
         11    1    4    4    0    0  0.23206257799E-01  0.20252781074E-01  0.34205964363E-01  0.46032756394E-01  0.51100000000E-03 0. -1.
</event>
<event>
 8    1  0.1118868E+005  0.1043930E+01  0.7957747E-01            NaN
         13   -1    0    0    0    0  0.00000000000E+00  0.00000000000E+00  0.74505805969E-08  0.10566000000E+00  0.10566000000E+00 0. -1.
     999900   -1    0    0    0    0 -0.00000000000E+00 -0.00000000000E+00 -0.74505805969E-08  0.93827000000E+00  0.93827000000E+00 0.  1.
     999902    2    1    2    0    0 -0.61152510154E-02  0.15974247400E-01  0.16743103247E-01  0.10199945789E+01  0.10197137033E+01 0.  0.
     999903    2    3    3    0    0 -0.63345234352E-01 -0.11109439391E+00  0.30593163894E-02  0.12892277677E+00  0.16035581687E-01 0.  0.
         14    1    1    2    0    0  0.61152510154E-02 -0.15974247400E-01 -0.16743103247E-01  0.23935421059E-01  0.00000000000E+00 0.  1.
     999901    1    3    3    0    0  0.57229983337E-01  0.12706864131E+00  0.13683786857E-01  0.89107180217E+00  0.88000000000E+00 0. -1.
        -11    1    4    4    0    0 -0.36049211722E-01 -0.77838637135E-01  0.41432007695E-02  0.85882631134E-01  0.51100000000E-03 0. -1.
         11    1    4    4    0    0 -0.27296022630E-01 -0.33255756777E-01 -0.10838843801E-02  0.43040145638E-01  0.51100000000E-03 0.  1.
</event>
<event>
 8    1  0.1118868E+005  0.1043930E+01  0.7957747E-01            NaN
         13   -1    0    0    0    0  0.00000000000E+00  0.00000000000E+00  0.74505805969E-08  0.10566000000E+00  0.10566000000E+00 0.  1.
     999900   -1    0    0    0    0 -0.00000000000E+00 -0.00000000000E+00 -0.74505805969E-08  0.93827000000E+00  0.93827000000E+00 0. -1.
     999902    2    1    2    0    0  0.14018274904E-01  0.14537096320E-01  0.12310316352E-01  0.10202787191E+01  0.10200045497E+01 0.  0.
     999903    2    3    3    0    0  0.66616932695E-01  0.94537754021E-01 -0.60584832358E-01  0.13208930981E+00  0.20046475894E-01 0.  0.
         14    1    1    2    0    0 -0.14018274904E-01 -0.14537096320E-01 -0.12310316352E-01  0.23651280925E-01  0.00000000000E+00 0. -1.
     999901    1    3    3    0    0 -0.52598657791E-01 -0.80000657702E-01  0.72895148710E-01  0.88818940927E+00  0.88000000000E+00 0.  1.
        -11    1    4    4    0    0  0.32258798412E-01  0.34615582677E-01 -0.33097464823E-01  0.57745752552E-01  0.51100000000E-03 0. -1.
         11    1    4    4    0    0  0.34358134283E-01  0.59922171344E-01 -0.27487367535E-01  0.74343557253E-01  0.51100000000E-03 0.  1.
</event>
<event>
 8    1  0.1118868E+005  0.1043930E+01  0.7957747E-01            NaN
         13   -1    0    0    0    0  0.00000000000E+00  0.00000000000E+00  0.74505805969E-08  0.10566000000E+00  0.10566000000E+00 0. -1.
     999900   -1    0    0    0    0 -0.00000000000E+00 -0.00000000000E+00 -0.74505805969E-08  0.93827000000E+00  0.93827000000E+00 0.  1.
     999902    2    1    2    0    0  0.17731664749E-01 -0.24578579788E-02 -0.16662048901E-01  0.10194743897E+01  0.10191810214E+01 0.  0.
     999903    2    3    3    0    0 -0.81223682566E-01 -0.80732498323E-01  0.52892566998E-01  0.12775867007E+00  0.20239348768E-01 0.  0.
         14    1    1    2    0    0 -0.17731664749E-01  0.24578579788E-02  0.16662048901E-01  0.24455610281E-01  0.00000000000E+00 0. -1.
     999901    1    3    3    0    0  0.98955347315E-01  0.78274640344E-01 -0.69554615899E-01  0.89171571965E+00  0.88000000000E+00 0.  1.
        -11    1    4    4    0    0 -0.44166492080E-01 -0.53807129598E-01  0.24175684893E-01  0.73692679957E-01  0.51100000000E-03 0.  1.
         11    1    4    4    0    0 -0.37057190486E-01 -0.26925368724E-01  0.28716882105E-01  0.54065990109E-01  0.51100000000E-03 0. -1.
</event>
<event>
 8    1  0.1118868E+005  0.1043930E+01  0.7957747E-01            NaN
         13   -1    0    0    0    0  0.00000000000E+00  0.00000000000E+00  0.74505805969E-08  0.10566000000E+00  0.10566000000E+00 0. -1.
     999900   -1    0    0    0    0 -0.00000000000E+00 -0.00000000000E+00 -0.74505805969E-08  0.93827000000E+00  0.93827000000E+00 0. -1.
     999902    2    1    2    0    0  0.10752196850E-01  0.55149545849E-02 -0.23035512525E-01  0.10179173243E+01  0.10175848956E+01 0.  0.
     999903    2    3    3    0    0  0.46794904632E-01  0.88659200415E-01 -0.82211048500E-01  0.13128674367E+00  0.20672098366E-01 0.  0.
         14    1    1    2    0    0 -0.10752196850E-01 -0.55149545849E-02  0.23035512525E-01  0.26012675727E-01  0.00000000000E+00 0. -1.
     999901    1    3    3    0    0 -0.36042707781E-01 -0.83144245830E-01  0.59175535975E-01  0.88663058060E+00  0.88000000000E+00 0.  1.
        -11    1    4    4    0    0  0.25484496717E-01  0.57063294310E-01 -0.38997812836E-01  0.73666611551E-01  0.51100000000E-03 0.  1.
         11    1    4    4    0    0  0.21310407915E-01  0.31595906104E-01 -0.43213235664E-01  0.57620132121E-01  0.51100000000E-03 0. -1.
</event>
<event>
 8    1  0.1118868E+005  0.1043930E+01  0.7957747E-01            NaN
         13   -1    0    0    0    0  0.00000000000E+00  0.00000000000E+00  0.74505805969E-08  0.10566000000E+00  0.10566000000E+00 0. -1.
     999900   -1    0    0    0    0 -0.00000000000E+00 -0.00000000000E+00 -0.74505805969E-08  0.93827000000E+00  0.93827000000E+00 0.  1.
     999902    2    1    2    0    0  0.56435715764E-02  0.11841145388E-01 -0.16638552597E-01  0.10227426439E+01  0.10225231595E+01 0.  0.
     999903    2    3    3    0    0 -0.68285936916E-02 -0.26003258814E-01 -0.13045310941E+00  0.13451885053E+00  0.18828389016E-01 0.  0.
         14    1    1    2    0    0 -0.56435715764E-02 -0.11841145388E-01  0.16638552597E-01  0.21187356059E-01  0.00000000000E+00 0.  1.
     999901    1    3    3    0    0  0.12472165268E-01  0.37844404202E-01  0.11381455681E+00  0.88822379341E+00  0.88000000000E+00 0. -1.
        -11    1    4    4    0    0 -0.71917392522E-02 -0.16470107462E-01 -0.11465896163E+00  0.11606000239E+00  0.51100000000E-03 0. -1.
         11    1    4    4    0    0  0.36314556062E-03 -0.95331513518E-02 -0.15794147784E-01  0.18458848139E-01  0.51100000000E-03 0.  1.
</event>
<event>
 8    1  0.1118868E+005  0.1043930E+01  0.7957747E-01            NaN
         13   -1    0    0    0    0  0.00000000000E+00  0.00000000000E+00  0.74505805969E-08  0.10566000000E+00  0.10566000000E+00 0. -1.
     999900   -1    0    0    0    0 -0.00000000000E+00 -0.00000000000E+00 -0.74505805969E-08  0.93827000000E+00  0.93827000000E+00 0. -1.
     999902    2    1    2    0    0  0.19321345117E-01 -0.15361909838E-02 -0.15317046025E-01  0.10192260295E+01  0.10189265985E+01 0.  0.
     999903    2    3    3    0    0 -0.43869776884E-01  0.97978298532E-01 -0.70246242261E-01  0.12966801108E+00  0.18840229261E-01 0.  0.
         14    1    1    2    0    0 -0.19321345117E-01  0.15361909838E-02  0.15317046025E-01  0.24703970507E-01  0.00000000000E+00 0. -1.
     999901    1    3    3    0    0  0.63191122001E-01 -0.99514489516E-01  0.54929196236E-01  0.88955801841E+00  0.88000000000E+00 0. -1.
        -11    1    4    4    0    0 -0.21193422867E-01  0.32394160205E-01 -0.33214349994E-01  0.51009773130E-01  0.51100000000E-03 0.  1.
         11    1    4    4    0    0 -0.22676354017E-01  0.65584138327E-01 -0.37031892266E-01  0.78658237950E-01  0.51100000000E-03 0. -1.
</event>
<event>
 8    1  0.1118868E+005  0.1043930E+01  0.7957747E-01            NaN
         13   -1    0    0    0    0  0.00000000000E+00  0.00000000000E+00  0.74505805969E-08  0.10566000000E+00  0.10566000000E+00 0. -1.
     999900   -1    0    0    0    0 -0.00000000000E+00 -0.00000000000E+00 -0.74505805969E-08  0.93827000000E+00  0.93827000000E+00 0. -1.
     999902    2    1    2    0    0  0.17522782042E-01  0.89280690803E-02 -0.11347257252E-01  0.10212249663E+01  0.10209725331E+01 0.  0.
     999903    2    3    3    0    0  0.92233962529E-01 -0.44628690368E-01 -0.83171876951E-01  0.13352633334E+00  0.20319860528E-01 0.  0.
         14    1    1    2    0    0 -0.17522782042E-01 -0.89280690803E-02  0.11347257252E-01  0.22705033696E-01  0.00000000000E+00 0. -1.
     999901    1    3    3    0    0 -0.74711180487E-01  0.53556759449E-01  0.71824619699E-01  0.88769863296E+00  0.88000000000E+00 0. -1.
        -11    1    4    4    0    0  0.57252574785E-01 -0.29587438886E-01 -0.39528538688E-01  0.75604499543E-01  0.51100000000E-03 0.  1.
         11    1    4    4    0    0  0.34981387743E-01 -0.15041251483E-01 -0.43643338263E-01  0.57921833796E-01  0.51100000000E-03 0. -1.
</event>
<event>
 8    1  0.1118868E+005  0.1043930E+01  0.7957747E-01            NaN
         13   -1    0    0    0    0  0.00000000000E+00  0.00000000000E+00  0.74505805969E-08  0.10566000000E+00  0.10566000000E+00 0. -1.
     999900   -1    0    0    0    0 -0.00000000000E+00 -0.00000000000E+00 -0.74505805969E-08  0.93827000000E+00  0.93827000000E+00 0. -1.
     999902    2    1    2    0    0 -0.96647244401E-02 -0.19712128869E-01  0.41071722445E-02  0.10215951889E+01  0.10213510103E+01 0.  0.
     999903    2    3    3    0    0  0.10444709911E+00 -0.14254643106E-01 -0.74564343473E-01  0.13073015995E+00  0.20448521709E-01 0.  0.
         14    1    1    2    0    0  0.96647244401E-02  0.19712128869E-01 -0.41071722445E-02  0.22334811101E-01  0.00000000000E+00 0. -1.
     999901    1    3    3    0    0 -0.11411182355E+00 -0.54574857631E-02  0.78671515718E-01  0.89086502895E+00  0.88000000000E+00 0.  1.
        -11    1    4    4    0    0  0.18328903773E-01  0.40979219746E-02 -0.18349785423E-01  0.26262471782E-01  0.51100000000E-03 0.  1.
         11    1    4    4    0    0  0.86118195335E-01 -0.18352565081E-01 -0.56214558051E-01  0.10446768817E+00  0.51100000000E-03 0. -1.
</event>
<event>
 8    1  0.1118868E+005  0.1043930E+01  0.7957747E-01            NaN
         13   -1    0    0    0    0  0.00000000000E+00  0.00000000000E+00  0.74505805969E-08  0.10566000000E+00  0.10566000000E+00 0. -1.
     999900   -1    0    0    0    0 -0.00000000000E+00 -0.00000000000E+00 -0.74505805969E-08  0.93827000000E+00  0.93827000000E+00 0.  1.
     999902    2    1    2    0    0  0.40841672025E-02  0.21699471041E-01  0.90453350479E-02  0.10200686180E+01  0.10197894978E+01 0.  0.
     999903    2    3    3    0    0 -0.36365129035E-01  0.67941566405E-01  0.10604830915E+00  0.13260929276E+00  0.20012536021E-01 0.  0.
         14    1    1    2    0    0 -0.40841672025E-02 -0.21699471041E-01 -0.90453350479E-02  0.23861382008E-01  0.00000000000E+00 0. -1.
     999901    1    3    3    0    0  0.40449296237E-01 -0.46242095364E-01 -0.97002974105E-01  0.88745932523E+00  0.88000000000E+00 0.  1.
        -11    1    4    4    0    0 -0.28933440008E-01  0.63145806782E-01  0.84994095505E-01  0.10976699985E+00  0.51100000000E-03 0.  1.
         11    1    4    4    0    0 -0.74316890266E-02  0.47957596230E-02  0.21054213648E-01  0.22842292912E-01  0.51100000000E-03 0. -1.
</event>
<event>
 8    1  0.1118868E+005  0.1043930E+01  0.7957747E-01            NaN
         13   -1    0    0    0    0  0.00000000000E+00  0.00000000000E+00  0.74505805969E-08  0.10566000000E+00  0.10566000000E+00 0.  1.
     999900   -1    0    0    0    0 -0.00000000000E+00 -0.00000000000E+00 -0.74505805969E-08  0.93827000000E+00  0.93827000000E+00 0. -1.
     999902    2    1    2    0    0  0.22644353878E-01 -0.13054169492E-03 -0.56511169568E-02  0.10205907856E+01  0.10203238862E+01 0.  0.
     999903    2    3    3    0    0  0.43314242444E-01  0.12235971590E+00  0.77569018543E-02  0.13176522207E+00  0.21304472468E-01 0.  0.
         14    1    1    2    0    0 -0.22644353878E-01  0.13054169492E-03  0.56511169568E-02  0.23339214352E-01  0.00000000000E+00 0. -1.
     999901    1    3    3    0    0 -0.20669888565E-01 -0.12249025760E+00 -0.13408018811E-01  0.88882556358E+00  0.88000000000E+00 0.  1.
        -11    1    4    4    0    0  0.26162377733E-01  0.74129701621E-01 -0.57471287286E-02  0.78822416106E-01  0.51100000000E-03 0. -1.
         11    1    4    4    0    0  0.17151864711E-01  0.48230014280E-01  0.13504030583E-01  0.52942805966E-01  0.51100000000E-03 0.  1.
</event>
<event>
 8    1  0.1492838E+005  0.1043930E+01  0.7957747E-01            NaN
         13   -1    0    0    0    0  0.00000000000E+00  0.00000000000E+00  0.74505805969E-08  0.10566000000E+00  0.10566000000E+00 0. -1.
     999900   -1    0    0    0    0 -0.00000000000E+00 -0.00000000000E+00 -0.74505805969E-08  0.93827000000E+00  0.93827000000E+00 0. -1.
     999902    2    1    2    0    0  0.11113367846E-01  0.17322533129E-01  0.78127341147E-02  0.10219160064E+01  0.10216788675E+01 0.  0.
     999903    2    3    3    0    0  0.10412073211E+00  0.10246179670E-01  0.81168590876E-01  0.13395118375E+00  0.20210601916E-01 0.  0.
         14    1    1    2    0    0 -0.11113367846E-01 -0.17322533129E-01 -0.78127341147E-02  0.22013993577E-01  0.00000000000E+00 0.  1.
     999901    1    3    3    0    0 -0.93007364264E-01  0.70763534589E-02 -0.73355856762E-01  0.88796482267E+00  0.88000000000E+00 0. -1.
        -11    1    4    4    0    0  0.52523336559E-01  0.14484151329E-01  0.36611220871E-01  0.65643995443E-01  0.51100000000E-03 0.  1.
         11    1    4    4    0    0  0.51597395551E-01 -0.42379716595E-02  0.44557370005E-01  0.68307188305E-01  0.51100000000E-03 0. -1.
</event>
<event>
 8    1  0.1118868E+005  0.1043930E+01  0.7957747E-01            NaN
         13   -1    0    0    0    0  0.00000000000E+00  0.00000000000E+00  0.74505805969E-08  0.10566000000E+00  0.10566000000E+00 0. -1.
     999900   -1    0    0    0    0 -0.00000000000E+00 -0.00000000000E+00 -0.74505805969E-08  0.93827000000E+00  0.93827000000E+00 0. -1.
     999902    2    1    2    0    0  0.22859864013E-01 -0.54272124548E-02  0.32340947852E-02  0.10202131835E+01  0.10199374747E+01 0.  0.
     999903    2    3    3    0    0  0.12446402740E+00  0.42730508717E-02 -0.41950443486E-01  0.13316237115E+00  0.21513351668E-01 0.  0.
         14    1    1    2    0    0 -0.22859864013E-01  0.54272124548E-02 -0.32340947852E-02  0.23716816540E-01  0.00000000000E+00 0.  1.
     999901    1    3    3    0    0 -0.10160416339E+00 -0.97002633264E-02  0.45184538271E-01  0.88705081231E+00  0.88000000000E+00 0.  1.
        -11    1    4    4    0    0  0.75701526579E-01  0.12396296448E-01 -0.29441661840E-01  0.82167279771E-01  0.51100000000E-03 0.  1.
         11    1    4    4    0    0  0.48762500823E-01 -0.81232455768E-02 -0.12508781646E-01  0.50995091376E-01  0.51100000000E-03 0. -1.
</event>
<event>
 8    1  0.1118868E+005  0.1043930E+01  0.7957747E-01            NaN
         13   -1    0    0    0    0  0.00000000000E+00  0.00000000000E+00  0.74505805969E-08  0.10566000000E+00  0.10566000000E+00 0.  1.
     999900   -1    0    0    0    0 -0.00000000000E+00 -0.00000000000E+00 -0.74505805969E-08  0.93827000000E+00  0.93827000000E+00 0. -1.
     999902    2    1    2    0    0  0.67741870099E-02 -0.16356363338E-01 -0.17186574298E-01  0.10192561562E+01  0.10189574640E+01 0.  0.
     999903    2    3    3    0    0  0.30519421595E-01  0.63860042859E-01  0.10389804257E+00  0.12703421497E+00  0.18257829986E-01 0.  0.
         14    1    1    2    0    0 -0.67741870099E-02  0.16356363338E-01  0.17186574298E-01  0.24673843790E-01  0.00000000000E+00 0.  1.
     999901    1    3    3    0    0 -0.23745234585E-01 -0.80216406196E-01 -0.12108461686E+00  0.89222194124E+00  0.88000000000E+00 0. -1.
        -11    1    4    4    0    0  0.13874602466E-01  0.19536703857E-01  0.48933064589E-01  0.54487551993E-01  0.51100000000E-03 0.  1.
         11    1    4    4    0    0  0.16644819129E-01  0.44323339002E-01  0.54964977977E-01  0.72546662977E-01  0.51100000000E-03 0. -1.
</event>
<event>
 8    1  0.1118868E+005  0.1043930E+01  0.7957747E-01            NaN
         13   -1    0    0    0    0  0.00000000000E+00  0.00000000000E+00  0.74505805969E-08  0.10566000000E+00  0.10566000000E+00 0. -1.
     999900   -1    0    0    0    0 -0.00000000000E+00 -0.00000000000E+00 -0.74505805969E-08  0.93827000000E+00  0.93827000000E+00 0. -1.
     999902    2    1    2    0    0 -0.10700650870E-01  0.18857257836E-01 -0.96667779578E-02  0.10201908615E+01  0.10199146274E+01 0.  0.
     999903    2    3    3    0    0  0.11324931165E+00  0.46594312305E-01 -0.40058669436E-01  0.13055239306E+00  0.21042666406E-01 0.  0.
         14    1    1    2    0    0  0.10700650870E-01 -0.18857257836E-01  0.96667779578E-02  0.23739138532E-01  0.00000000000E+00 0. -1.
     999901    1    3    3    0    0 -0.12394996252E+00 -0.27737054469E-01  0.30391891478E-01  0.88963846841E+00  0.88000000000E+00 0.  1.
        -11    1    4    4    0    0  0.99497734302E-01  0.46090665848E-01 -0.40168999899E-01  0.11678166930E+00  0.51100000000E-03 0.  1.
         11    1    4    4    0    0  0.13751577347E-01  0.50364645668E-03  0.11033046301E-03  0.13770723768E-01  0.51100000000E-03 0. -1.
</event>
<event>
 8    1  0.1118868E+005  0.1043930E+01  0.7957747E-01            NaN
         13   -1    0    0    0    0  0.00000000000E+00  0.00000000000E+00  0.74505805969E-08  0.10566000000E+00  0.10566000000E+00 0.  1.
     999900   -1    0    0    0    0 -0.00000000000E+00 -0.00000000000E+00 -0.74505805969E-08  0.93827000000E+00  0.93827000000E+00 0.  1.
     999902    2    1    2    0    0 -0.16817918121E-02  0.21628754262E-01 -0.95356978927E-02  0.10202327223E+01  0.10199574730E+01 0.  0.
     999903    2    3    3    0    0 -0.40820363728E-01  0.79560261346E-01 -0.96629031801E-01  0.13317402296E+00  0.20050269906E-01 0.  0.
         14    1    1    2    0    0  0.16817918121E-02 -0.21628754262E-01  0.95356978927E-02  0.23697277669E-01  0.00000000000E+00 0. -1.
     999901    1    3    3    0    0  0.39138571916E-01 -0.57931507084E-01  0.87093333909E-01  0.88705869937E+00  0.88000000000E+00 0. -1.
        -11    1    4    4    0    0 -0.13771191689E-01  0.36419568806E-01 -0.29172116682E-01  0.48654950676E-01  0.51100000000E-03 0.  1.
         11    1    4    4    0    0 -0.27049172039E-01  0.43140692540E-01 -0.67456915119E-01  0.84519072281E-01  0.51100000000E-03 0. -1.
</event>
<event>
 8    1  0.1118868E+005  0.1043930E+01  0.7957747E-01            NaN
         13   -1    0    0    0    0  0.00000000000E+00  0.00000000000E+00  0.74505805969E-08  0.10566000000E+00  0.10566000000E+00 0. -1.
     999900   -1    0    0    0    0 -0.00000000000E+00 -0.00000000000E+00 -0.74505805969E-08  0.93827000000E+00  0.93827000000E+00 0. -1.
     999902    2    1    2    0    0  0.17513089416E-02 -0.19826230291E-01  0.13606065833E-01  0.10198204268E+01  0.10195353998E+01 0.  0.
     999903    2    3    3    0    0  0.79686612450E-01 -0.30797467545E-02 -0.99623427528E-01  0.12899200654E+00  0.18832668304E-01 0.  0.
         14    1    1    2    0    0 -0.17513089416E-02  0.19826230291E-01 -0.13606065833E-01  0.24109573161E-01  0.00000000000E+00 0.  1.
     999901    1    3    3    0    0 -0.77935303508E-01 -0.16746483536E-01  0.11322949336E+00  0.89082842030E+00  0.88000000000E+00 0.  1.
        -11    1    4    4    0    0  0.64788353846E-01 -0.88442767998E-02 -0.73604804724E-01  0.98456490013E-01  0.51100000000E-03 0. -1.
         11    1    4    4    0    0  0.14898258604E-01  0.57645300453E-02 -0.26018622804E-01  0.30535516529E-01  0.51100000000E-03 0.  1.
</event>
<event>
 8    1  0.1118868E+005  0.1043930E+01  0.7957747E-01            NaN
         13   -1    0    0    0    0  0.00000000000E+00  0.00000000000E+00  0.74505805969E-08  0.10566000000E+00  0.10566000000E+00 0. -1.
     999900   -1    0    0    0    0 -0.00000000000E+00 -0.00000000000E+00 -0.74505805969E-08  0.93827000000E+00  0.93827000000E+00 0. -1.
     999902    2    1    2    0    0 -0.14560474242E-03 -0.15867138849E-01  0.17615314565E-01  0.10202216343E+01  0.10199461243E+01 0.  0.
     999903    2    3    3    0    0 -0.43973522627E-01 -0.80030430518E-01 -0.90739729166E-01  0.13017746132E+00  0.19337334003E-01 0.  0.
         14    1    1    2    0    0  0.14560474242E-03  0.15867138849E-01 -0.17615314565E-01  0.23708365680E-01  0.00000000000E+00 0.  1.
     999901    1    3    3    0    0  0.43827917885E-01  0.64163291669E-01  0.10835504373E+00  0.89004417300E+00  0.88000000000E+00 0. -1.
        -11    1    4    4    0    0 -0.21089895165E-01 -0.54308760235E-01 -0.49476410459E-01  0.76435603152E-01  0.51100000000E-03 0. -1.
         11    1    4    4    0    0 -0.22883627463E-01 -0.25721670283E-01 -0.41263318707E-01  0.53741858171E-01  0.51100000000E-03 0.  1.
</event>
<event>
 8    1  0.1118868E+005  0.1043930E+01  0.7957747E-01            NaN
         13   -1    0    0    0    0  0.00000000000E+00  0.00000000000E+00  0.74505805969E-08  0.10566000000E+00  0.10566000000E+00 0. -1.
     999900   -1    0    0    0    0 -0.00000000000E+00 -0.00000000000E+00 -0.74505805969E-08  0.93827000000E+00  0.93827000000E+00 0.  1.
     999902    2    1    2    0    0  0.68114294870E-02 -0.22827716725E-01 -0.68030296875E-03  0.10200980250E+01  0.10198196005E+01 0.  0.
     999903    2    3    3    0    0  0.86930319191E-01  0.58860537537E-01  0.73865609174E-01  0.12956498211E+00  0.17592984326E-01 0.  0.
         14    1    1    2    0    0 -0.68114294870E-02  0.22827716725E-01  0.68030296875E-03  0.23831975047E-01  0.00000000000E+00 0.  1.
     999901    1    3    3    0    0 -0.80118889704E-01 -0.81688254262E-01 -0.74545912142E-01  0.89053304284E+00  0.88000000000E+00 0.  1.
        -11    1    4    4    0    0  0.25074724514E-01  0.11736805253E-01  0.27516317628E-01  0.39037203586E-01  0.51100000000E-03 0. -1.
         11    1    4    4    0    0  0.61855594677E-01  0.47123732284E-01  0.46349291545E-01  0.90527778527E-01  0.51100000000E-03 0.  1.
</event>
<event>
 8    1  0.1118868E+005  0.1043930E+01  0.7957747E-01            NaN
         13   -1    0    0    0    0  0.00000000000E+00  0.00000000000E+00  0.74505805969E-08  0.10566000000E+00  0.10566000000E+00 0.  1.
     999900   -1    0    0    0    0 -0.00000000000E+00 -0.00000000000E+00 -0.74505805969E-08  0.93827000000E+00  0.93827000000E+00 0. -1.
     999902    2    1    2    0    0 -0.34215207597E-02 -0.20968998867E-01 -0.11007414643E-01  0.10200015881E+01  0.10197208789E+01 0.  0.
     999903    2    3    3    0    0  0.12330171037E+00 -0.37341110704E-01  0.73489541277E-02  0.13058392491E+00  0.20012096109E-01 0.  0.
         14    1    1    2    0    0  0.34215207597E-02  0.20968998867E-01  0.11007414643E-01  0.23928411876E-01  0.00000000000E+00 0. -1.
     999901    1    3    3    0    0 -0.12672323113E+00  0.16372111837E-01 -0.18356368771E-01  0.88941766321E+00  0.88000000000E+00 0. -1.
        -11    1    4    4    0    0  0.25866880186E-01 -0.33849677509E-02 -0.53086995693E-02  0.26626995875E-01  0.51100000000E-03 0. -1.
         11    1    4    4    0    0  0.97434830184E-01 -0.33956142954E-01  0.12657653697E-01  0.10395692904E+00  0.51100000000E-03 0.  1.
</event>
<event>
 8    1  0.1118868E+005  0.1043930E+01  0.7957747E-01            NaN
         13   -1    0    0    0    0  0.00000000000E+00  0.00000000000E+00  0.74505805969E-08  0.10566000000E+00  0.10566000000E+00 0.  1.
     999900   -1    0    0    0    0 -0.00000000000E+00 -0.00000000000E+00 -0.74505805969E-08  0.93827000000E+00  0.93827000000E+00 0. -1.
     999902    2    1    2    0    0  0.99422972077E-02  0.17882309186E-01 -0.56241085935E-02  0.10227107433E+01  0.10224905905E+01 0.  0.
     999903    2    3    3    0    0 -0.34284531701E-01 -0.26314125915E-01  0.12246817327E+00  0.13124174784E+00  0.18923017087E-01 0.  0.
         14    1    1    2    0    0 -0.99422972077E-02 -0.17882309186E-01  0.56241085935E-02  0.21219256657E-01  0.00000000000E+00 0.  1.
     999901    1    3    3    0    0  0.44226828909E-01  0.44196435101E-01 -0.12809228186E+00  0.89146899550E+00  0.88000000000E+00 0. -1.
        -11    1    4    4    0    0  0.30386791711E-03 -0.55707505264E-02  0.27468088740E-01  0.28033598006E-01  0.51100000000E-03 0.  1.
         11    1    4    4    0    0 -0.34588399618E-01 -0.20743375389E-01  0.95000084529E-01  0.10320814983E+00  0.51100000000E-03 0. -1.
</event>
<event>
 8    1  0.1118868E+005  0.1043930E+01  0.7957747E-01            NaN
         13   -1    0    0    0    0  0.00000000000E+00  0.00000000000E+00  0.74505805969E-08  0.10566000000E+00  0.10566000000E+00 0. -1.
     999900   -1    0    0    0    0 -0.00000000000E+00 -0.00000000000E+00 -0.74505805969E-08  0.93827000000E+00  0.93827000000E+00 0.  1.
     999902    2    1    2    0    0  0.36052319924E-02 -0.21423770705E-01  0.91115112171E-02  0.10203716621E+01  0.10200996684E+01 0.  0.
     999903    2    3    3    0    0  0.12426477594E+00  0.24998217618E-01 -0.17502110653E-01  0.13052784915E+00  0.25778869283E-01 0.  0.
         14    1    1    2    0    0 -0.36052319924E-02  0.21423770705E-01 -0.91115112171E-02  0.23558337921E-01  0.00000000000E+00 0. -1.
     999901    1    3    3    0    0 -0.12065954395E+00 -0.46421988323E-01  0.26613621870E-01  0.88984381293E+00  0.88000000000E+00 0.  1.
        -11    1    4    4    0    0  0.42868789364E-01  0.38468169204E-02  0.53559836857E-02  0.43376016232E-01  0.51100000000E-03 0. -1.
         11    1    4    4    0    0  0.81395986578E-01  0.21151400697E-01 -0.22858094339E-01  0.87151832914E-01  0.51100000000E-03 0.  1.
</event>
<event>
 8    1  0.1118868E+005  0.1043930E+01  0.7957747E-01            NaN
         13   -1    0    0    0    0  0.00000000000E+00  0.00000000000E+00  0.74505805969E-08  0.10566000000E+00  0.10566000000E+00 0.  1.
     999900   -1    0    0    0    0 -0.00000000000E+00 -0.00000000000E+00 -0.74505805969E-08  0.93827000000E+00  0.93827000000E+00 0. -1.
     999902    2    1    2    0    0  0.48131797307E-02  0.21780403591E-01 -0.80899220128E-02  0.10202023891E+01  0.10199264264E+01 0.  0.
     999903    2    3    3    0    0  0.73964431397E-02 -0.72676386751E-01  0.10333782502E+00  0.12815704201E+00  0.20222679720E-01 0.  0.
         14    1    1    2    0    0 -0.48131797307E-02 -0.21780403591E-01  0.80899220128E-02  0.23727610876E-01  0.00000000000E+00 0. -1.
     999901    1    3    3    0    0 -0.25832634089E-02  0.94456790343E-01 -0.11142774703E+00  0.89204534711E+00  0.88000000000E+00 0. -1.
        -11    1    4    4    0    0 -0.60427403400E-02 -0.31568502914E-01  0.50654467503E-01  0.59993510366E-01  0.51100000000E-03 0. -1.
         11    1    4    4    0    0  0.13439183480E-01 -0.41107883837E-01  0.52683357519E-01  0.68163531647E-01  0.51100000000E-03 0.  1.
</event>
<event>
 8    1  0.1118868E+005  0.1043930E+01  0.7957747E-01            NaN
         13   -1    0    0    0    0  0.00000000000E+00  0.00000000000E+00  0.74505805969E-08  0.10566000000E+00  0.10566000000E+00 0. -1.
     999900   -1    0    0    0    0 -0.00000000000E+00 -0.00000000000E+00 -0.74505805969E-08  0.93827000000E+00  0.93827000000E+00 0.  1.
     999902    2    1    2    0    0 -0.99075401558E-02 -0.26876906324E-01 -0.13523294237E-02  0.10152532456E+01  0.10148481643E+01 0.  0.
     999903    2    3    3    0    0 -0.99201240338E-01  0.56320627436E-01  0.48075606118E-01  0.12545646248E+00  0.20375497914E-01 0.  0.
         14    1    1    2    0    0  0.99075401558E-02  0.26876906324E-01  0.13523294237E-02  0.28676754355E-01  0.00000000000E+00 0.  1.
     999901    1    3    3    0    0  0.89293700183E-01 -0.83197533760E-01 -0.49427935542E-01  0.88979678316E+00  0.88000000000E+00 0. -1.
        -11    1    4    4    0    0 -0.46789252336E-01  0.17024040967E-01  0.26989474405E-01  0.56636957498E-01  0.51100000000E-03 0.  1.
         11    1    4    4    0    0 -0.52411988003E-01  0.39296586469E-01  0.21086131713E-01  0.68819504983E-01  0.51100000000E-03 0. -1.
</event>
<event>
 8    1  0.1118868E+005  0.1043930E+01  0.7957747E-01            NaN
         13   -1    0    0    0    0  0.00000000000E+00  0.00000000000E+00  0.74505805969E-08  0.10566000000E+00  0.10566000000E+00 0.  1.
     999900   -1    0    0    0    0 -0.00000000000E+00 -0.00000000000E+00 -0.74505805969E-08  0.93827000000E+00  0.93827000000E+00 0.  1.
     999902    2    1    2    0    0  0.91158148766E-02 -0.15416088048E-01  0.14112886780E-01  0.10211280829E+01  0.10208734663E+01 0.  0.
     999903    2    3    3    0    0 -0.15627949170E-01 -0.12714397057E+00  0.31767047749E-01  0.13354313314E+00  0.20366664867E-01 0.  0.
         14    1    1    2    0    0 -0.91158148766E-02  0.15416088048E-01 -0.14112886780E-01  0.22801917131E-01  0.00000000000E+00 0. -1.
     999901    1    3    3    0    0  0.24743764046E-01  0.11172788252E+00 -0.17654160969E-01  0.88758494973E+00  0.88000000000E+00 0.  1.
        -11    1    4    4    0    0 -0.57384918962E-02 -0.16247966193E-01  0.10523473779E-01  0.20197309624E-01  0.51100000000E-03 0. -1.
         11    1    4    4    0    0 -0.98894572738E-02 -0.11089600438E+00  0.21243573970E-01  0.11334582351E+00  0.51100000000E-03 0.  1.
</event>
<event>
 8    1  0.1118868E+005  0.1043930E+01  0.7957747E-01            NaN
         13   -1    0    0    0    0  0.00000000000E+00  0.00000000000E+00  0.74505805969E-08  0.10566000000E+00  0.10566000000E+00 0.  1.
     999900   -1    0    0    0    0 -0.00000000000E+00 -0.00000000000E+00 -0.74505805969E-08  0.93827000000E+00  0.93827000000E+00 0. -1.
     999902    2    1    2    0    0  0.12235312209E-01 -0.91632343113E-02  0.18647112882E-01  0.10198181244E+01  0.10195330422E+01 0.  0.
     999903    2    3    3    0    0 -0.50740033995E-01  0.76067395536E-01  0.91015512751E-01  0.13051089973E+00  0.19709684740E-01 0.  0.
         14    1    1    2    0    0 -0.12235312209E-01  0.91632343113E-02 -0.18647112882E-01  0.24111875637E-01  0.00000000000E+00 0. -1.
     999901    1    3    3    0    0  0.62975346204E-01 -0.85230629847E-01 -0.72368399869E-01  0.88930722464E+00  0.88000000000E+00 0. -1.
        -11    1    4    4    0    0 -0.72212517997E-02  0.26727520183E-01  0.29027074177E-01  0.40116567263E-01  0.51100000000E-03 0. -1.
         11    1    4    4    0    0 -0.43518782195E-01  0.49339875353E-01  0.61988438573E-01  0.90394332462E-01  0.51100000000E-03 0.  1.
</event>
<event>
 8    1  0.1118868E+005  0.1043930E+01  0.7957747E-01            NaN
         13   -1    0    0    0    0  0.00000000000E+00  0.00000000000E+00  0.74505805969E-08  0.10566000000E+00  0.10566000000E+00 0.  1.
     999900   -1    0    0    0    0 -0.00000000000E+00 -0.00000000000E+00 -0.74505805969E-08  0.93827000000E+00  0.93827000000E+00 0. -1.
     999902    2    1    2    0    0  0.94861787347E-02  0.11617779875E-01  0.16888968874E-01  0.10213424444E+01  0.10210926457E+01 0.  0.
     999903    2    3    3    0    0 -0.11448879663E+00 -0.25370785598E-01  0.54990121781E-01  0.13106740473E+00  0.20084565564E-01 0.  0.
         14    1    1    2    0    0 -0.94861787347E-02 -0.11617779875E-01 -0.16888968874E-01  0.22587555552E-01  0.00000000000E+00 0. -1.
     999901    1    3    3    0    0  0.12397497536E+00  0.36988565473E-01 -0.38101152908E-01  0.89027503972E+00  0.88000000000E+00 0. -1.
        -11    1    4    4    0    0 -0.88157092973E-01 -0.21829033414E-01  0.51102277249E-01  0.10421076529E+00  0.51100000000E-03 0.  1.
         11    1    4    4    0    0 -0.26331703655E-01 -0.35417521834E-02  0.38878445324E-02  0.26856639440E-01  0.51100000000E-03 0. -1.
</event>
<event>
 8    1  0.1118868E+005  0.1043930E+01  0.7957747E-01            NaN
         13   -1    0    0    0    0  0.00000000000E+00  0.00000000000E+00  0.74505805969E-08  0.10566000000E+00  0.10566000000E+00 0. -1.
     999900   -1    0    0    0    0 -0.00000000000E+00 -0.00000000000E+00 -0.74505805969E-08  0.93827000000E+00  0.93827000000E+00 0. -1.
     999902    2    1    2    0    0  0.17285435370E-01  0.11691312561E-01  0.10247314638E-01  0.10206817630E+01  0.10204169642E+01 0.  0.
     999903    2    3    3    0    0  0.31764841082E-01  0.69666099901E-01  0.10731058013E+00  0.13333064499E+00  0.19978230197E-01 0.  0.
         14    1    1    2    0    0 -0.17285435370E-01 -0.11691312561E-01 -0.10247314638E-01  0.23248236978E-01  0.00000000000E+00 0.  1.
     999901    1    3    3    0    0 -0.14479405712E-01 -0.57974787340E-01 -0.97063265495E-01  0.88735111803E+00  0.88000000000E+00 0. -1.
        -11    1    4    4    0    0  0.27746699571E-01  0.62880535589E-01  0.82979108697E-01  0.10774801480E+00  0.51100000000E-03 0. -1.
         11    1    4    4    0    0  0.40181415106E-02  0.67855643119E-02  0.24331471435E-01  0.25582630190E-01  0.51100000000E-03 0.  1.
</event>
<event>
 8    1  0.1118868E+005  0.1043930E+01  0.7957747E-01            NaN
         13   -1    0    0    0    0  0.00000000000E+00  0.00000000000E+00  0.74505805969E-08  0.10566000000E+00  0.10566000000E+00 0. -1.
     999900   -1    0    0    0    0 -0.00000000000E+00 -0.00000000000E+00 -0.74505805969E-08  0.93827000000E+00  0.93827000000E+00 0.  1.
     999902    2    1    2    0    0 -0.13956507989E-01  0.48266373573E-02  0.16965641241E-01  0.10214374784E+01  0.10211898006E+01 0.  0.
     999903    2    3    3    0    0  0.85382774082E-01  0.97305650066E-01  0.84796290672E-03  0.13088683962E+00  0.19288289168E-01 0.  0.
         14    1    1    2    0    0  0.13956507989E-01 -0.48266373573E-02 -0.16965641241E-01  0.22492521560E-01  0.00000000000E+00 0.  1.
     999901    1    3    3    0    0 -0.99339282071E-01 -0.92479012709E-01  0.16117678334E-01  0.89055063882E+00  0.88000000000E+00 0.  1.
        -11    1    4    4    0    0  0.66982888492E-01  0.86735093799E-01 -0.84538576043E-03  0.10959315510E+00  0.51100000000E-03 0. -1.
         11    1    4    4    0    0  0.18399885590E-01  0.10570556267E-01  0.16933486671E-02  0.21293684515E-01  0.51100000000E-03 0.  1.
</event>
<event>
 8    1  0.1118868E+005  0.1043930E+01  0.7957747E-01            NaN
         13   -1    0    0    0    0  0.00000000000E+00  0.00000000000E+00  0.74505805969E-08  0.10566000000E+00  0.10566000000E+00 0. -1.
     999900   -1    0    0    0    0 -0.00000000000E+00 -0.00000000000E+00 -0.74505805969E-08  0.93827000000E+00  0.93827000000E+00 0. -1.
     999902    2    1    2    0    0  0.12650592118E-01 -0.31904234499E-02 -0.19384555037E-01  0.10205638438E+01  0.10202963207E+01 0.  0.
     999903    2    3    3    0    0 -0.99607382042E-02 -0.12768575461E+00 -0.22158984351E-01  0.13150925760E+00  0.20019890374E-01 0.  0.
         14    1    1    2    0    0 -0.12650592118E-01  0.31904234499E-02  0.19384555037E-01  0.23366156225E-01  0.00000000000E+00 0. -1.
     999901    1    3    3    0    0  0.22611330322E-01  0.12449533116E+00  0.27744293138E-02  0.88905458617E+00  0.88000000000E+00 0.  1.
        -11    1    4    4    0    0 -0.15820694727E-01 -0.88708228186E-01 -0.13024122175E-01  0.91045774251E-01  0.51100000000E-03 0. -1.
         11    1    4    4    0    0  0.58599565228E-02 -0.38977526427E-01 -0.91348621762E-02  0.40463483350E-01  0.51100000000E-03 0.  1.
</event>
<event>
 8    1  0.1118868E+005  0.1043930E+01  0.7957747E-01            NaN
         13   -1    0    0    0    0  0.00000000000E+00  0.00000000000E+00  0.74505805969E-08  0.10566000000E+00  0.10566000000E+00 0. -1.
     999900   -1    0    0    0    0 -0.00000000000E+00 -0.00000000000E+00 -0.74505805969E-08  0.93827000000E+00  0.93827000000E+00 0.  1.
     999902    2    1    2    0    0  0.12255350224E-01 -0.43051102086E-02 -0.19556261507E-01  0.10204528846E+01  0.10201827850E+01 0.  0.
     999903    2    3    3    0    0 -0.28154177102E-01  0.79843107166E-01  0.94128993283E-01  0.12824316176E+00  0.20456336714E-01 0.  0.
         14    1    1    2    0    0 -0.12255350224E-01  0.43051102086E-02  0.19556261507E-01  0.23477115392E-01  0.00000000000E+00 0. -1.
     999901    1    3    3    0    0  0.40409527326E-01 -0.84148217375E-01 -0.11368525479E+00  0.89220972285E+00  0.88000000000E+00 0.  1.
        -11    1    4    4    0    0  0.29322908191E-02  0.13311282833E-01  0.15759935083E-01  0.20842870602E-01  0.51100000000E-03 0.  1.
         11    1    4    4    0    0 -0.31086467921E-01  0.66531824333E-01  0.78369058200E-01  0.10740029116E+00  0.51100000000E-03 0. -1.
</event>
<event>
 8    1  0.1118868E+005  0.1043930E+01  0.7957747E-01            NaN
         13   -1    0    0    0    0  0.00000000000E+00  0.00000000000E+00  0.74505805969E-08  0.10566000000E+00  0.10566000000E+00 0. -1.
     999900   -1    0    0    0    0 -0.00000000000E+00 -0.00000000000E+00 -0.74505805969E-08  0.93827000000E+00  0.93827000000E+00 0. -1.
     999902    2    1    2    0    0 -0.98895688047E-03  0.13459422900E-01  0.19056032773E-01  0.10205790581E+01  0.10203118873E+01 0.  0.
     999903    2    3    3    0    0 -0.47996384622E-01 -0.68835436675E-01 -0.94818231395E-01  0.12819489747E+00  0.20036577912E-01 0.  0.
         14    1    1    2    0    0  0.98895688047E-03 -0.13459422900E-01 -0.19056032773E-01  0.23350941856E-01  0.00000000000E+00 0.  1.
     999901    1    3    3    0    0  0.47007427742E-01  0.82294859575E-01  0.11387426417E+00  0.89238416067E+00  0.88000000000E+00 0. -1.
        -11    1    4    4    0    0 -0.21395345569E-01 -0.38996041492E-01 -0.62890332616E-01  0.77031857836E-01  0.51100000000E-03 0. -1.
         11    1    4    4    0    0 -0.26601039053E-01 -0.29839395183E-01 -0.31927898779E-01  0.51163039638E-01  0.51100000000E-03 0.  1.
</event>
<event>
 8    1  0.1118868E+005  0.1043930E+01  0.7957747E-01            NaN
         13   -1    0    0    0    0  0.00000000000E+00  0.00000000000E+00  0.74505805969E-08  0.10566000000E+00  0.10566000000E+00 0. -1.
     999900   -1    0    0    0    0 -0.00000000000E+00 -0.00000000000E+00 -0.74505805969E-08  0.93827000000E+00  0.93827000000E+00 0.  1.
     999902    2    1    2    0    0  0.20504736895E-01  0.78182277398E-02  0.94821042170E-02  0.10200243684E+01  0.10197441998E+01 0.  0.
     999903    2    3    3    0    0 -0.61450143106E-02 -0.12718865888E+00 -0.25048404385E-02  0.12924900084E+00  0.22007131684E-01 0.  0.
         14    1    1    2    0    0 -0.20504736895E-01 -0.78182277398E-02 -0.94821042170E-02  0.23905631565E-01  0.00000000000E+00 0. -1.
     999901    1    3    3    0    0  0.26649751206E-01  0.13500688662E+00  0.11986944656E-01  0.89077536760E+00  0.88000000000E+00 0.  1.
        -11    1    4    4    0    0  0.27791871636E-02 -0.10347502111E+00  0.18765631722E-02  0.10353060652E+00  0.51100000000E-03 0. -1.
         11    1    4    4    0    0 -0.89242014742E-02 -0.23713637764E-01 -0.43814036107E-02  0.25718394323E-01  0.51100000000E-03 0.  1.
</event>
<event>
 8    1  0.1118868E+005  0.1043930E+01  0.7957747E-01            NaN
         13   -1    0    0    0    0  0.00000000000E+00  0.00000000000E+00  0.74505805969E-08  0.10566000000E+00  0.10566000000E+00 0.  1.
     999900   -1    0    0    0    0 -0.00000000000E+00 -0.00000000000E+00 -0.74505805969E-08  0.93827000000E+00  0.93827000000E+00 0.  1.
     999902    2    1    2    0    0  0.11020984699E-01  0.12579964701E-01 -0.17243871707E-01  0.10199077452E+01  0.10196248035E+01 0.  0.
     999903    2    3    3    0    0 -0.10362971400E+00 -0.53897252214E-02  0.70894736913E-01  0.12792338051E+00  0.23878040053E-01 0.  0.
         14    1    1    2    0    0 -0.11020984699E-01 -0.12579964701E-01  0.17243871707E-01  0.24022254829E-01  0.00000000000E+00 0.  1.
     999901    1    3    3    0    0  0.11465069870E+00  0.17969689922E-01 -0.88138608620E-01  0.89198436466E+00  0.88000000000E+00 0.  1.
        -11    1    4    4    0    0 -0.46165461750E-01  0.75354041467E-02  0.39218133587E-01  0.61043880097E-01  0.51100000000E-03 0. -1.
         11    1    4    4    0    0 -0.57464252255E-01 -0.12925129368E-01  0.31676603326E-01  0.66879500414E-01  0.51100000000E-03 0.  1.
</event>
<event>
 8    1  0.1118868E+005  0.1043930E+01  0.7957747E-01            NaN
         13   -1    0    0    0    0  0.00000000000E+00  0.00000000000E+00  0.74505805969E-08  0.10566000000E+00  0.10566000000E+00 0.  1.
     999900   -1    0    0    0    0 -0.00000000000E+00 -0.00000000000E+00 -0.74505805969E-08  0.93827000000E+00  0.93827000000E+00 0.  1.
     999902    2    1    2    0    0 -0.16041672899E-01  0.13430209195E-01  0.91975359196E-02  0.10210761063E+01  0.10208203145E+01 0.  0.
     999903    2    3    3    0    0 -0.11519448949E-01  0.55768260558E-01  0.11896961386E+00  0.13323441426E+00  0.18837290965E-01 0.  0.
         14    1    1    2    0    0  0.16041672899E-01 -0.13430209195E-01 -0.91975359196E-02  0.22853893660E-01  0.00000000000E+00 0. -1.
     999901    1    3    3    0    0 -0.45222239501E-02 -0.42338051363E-01 -0.10977207794E+00  0.88784169208E+00  0.88000000000E+00 0.  1.
        -11    1    4    4    0    0 -0.27881003164E-02  0.26380360045E-01  0.75600195342E-01  0.80120830975E-01  0.51100000000E-03 0.  1.
         11    1    4    4    0    0 -0.87313486321E-02  0.29387900513E-01  0.43369418520E-01  0.53113583284E-01  0.51100000000E-03 0. -1.
</event>
<event>
 8    1  0.1118868E+005  0.1043930E+01  0.7957747E-01            NaN
         13   -1    0    0    0    0  0.00000000000E+00  0.00000000000E+00  0.74505805969E-08  0.10566000000E+00  0.10566000000E+00 0. -1.
     999900   -1    0    0    0    0 -0.00000000000E+00 -0.00000000000E+00 -0.74505805969E-08  0.93827000000E+00  0.93827000000E+00 0. -1.
     999902    2    1    2    0    0 -0.63328645425E-02 -0.15787365548E-01 -0.16391703866E-01  0.10203072559E+01  0.10200337555E+01 0.  0.
     999903    2    3    3    0    0  0.32924428655E-01 -0.12438928184E+00 -0.25218624848E-01  0.13271871053E+00  0.20532063903E-01 0.  0.
         14    1    1    2    0    0  0.63328645425E-02  0.15787365548E-01  0.16391703866E-01  0.23622744123E-01  0.00000000000E+00 0. -1.
     999901    1    3    3    0    0 -0.39257293198E-01  0.10860191629E+00  0.88269209817E-02  0.88758854534E+00  0.88000000000E+00 0. -1.
        -11    1    4    4    0    0  0.19658462755E-01 -0.69734150998E-01 -0.24453191103E-01  0.76469122196E-01  0.51100000000E-03 0.  1.
         11    1    4    4    0    0  0.13265965900E-01 -0.54655130839E-01 -0.76543374565E-03  0.56249588337E-01  0.51100000000E-03 0. -1.
</event>
<event>
 8    1  0.1118868E+005  0.1043930E+01  0.7957747E-01            NaN
         13   -1    0    0    0    0  0.00000000000E+00  0.00000000000E+00  0.74505805969E-08  0.10566000000E+00  0.10566000000E+00 0.  1.
     999900   -1    0    0    0    0 -0.00000000000E+00 -0.00000000000E+00 -0.74505805969E-08  0.93827000000E+00  0.93827000000E+00 0. -1.
     999902    2    1    2    0    0  0.11928086863E-01  0.14732748995E-01 -0.12692059644E-01  0.10211172508E+01  0.10208623895E+01 0.  0.
     999903    2    3    3    0    0 -0.72739772015E-02  0.67323672464E-01 -0.11332537511E+00  0.13361424308E+00  0.20609165206E-01 0.  0.
         14    1    1    2    0    0 -0.11928086863E-01 -0.14732748995E-01  0.12692059644E-01  0.22812749224E-01  0.00000000000E+00 0.  1.
     999901    1    3    3    0    0  0.19202064064E-01 -0.52590923468E-01  0.10063331547E+00  0.88750300770E+00  0.88000000000E+00 0.  1.
        -11    1    4    4    0    0  0.48321193265E-02  0.20990574370E-01 -0.48005145370E-01  0.52618520433E-01  0.51100000000E-03 0. -1.
         11    1    4    4    0    0 -0.12106096528E-01  0.46333098093E-01 -0.65320229740E-01  0.80995722642E-01  0.51100000000E-03 0.  1.
</event>
<event>
 8    1  0.1118868E+005  0.1043930E+01  0.7957747E-01            NaN
         13   -1    0    0    0    0  0.00000000000E+00  0.00000000000E+00  0.74505805969E-08  0.10566000000E+00  0.10566000000E+00 0.  1.
     999900   -1    0    0    0    0 -0.00000000000E+00 -0.00000000000E+00 -0.74505805969E-08  0.93827000000E+00  0.93827000000E+00 0. -1.
     999902    2    1    2    0    0  0.19232578594E-02  0.22424378051E-01 -0.81502425257E-02  0.10199930389E+01  0.10197121267E+01 0.  0.
     999903    2    3    3    0    0  0.47271927380E-01 -0.87672048920E-01 -0.79653995945E-01  0.12909994108E+00  0.20025294904E-01 0.  0.
         14    1    1    2    0    0 -0.19232578594E-02 -0.22424378051E-01  0.81502425257E-02  0.23936961064E-01  0.00000000000E+00 0.  1.
     999901    1    3    3    0    0 -0.45348669521E-01  0.11009642697E+00  0.71503753419E-01  0.89089309786E+00  0.88000000000E+00 0.  1.
        -11    1    4    4    0    0  0.41557534398E-01 -0.71166901704E-01 -0.55786240647E-01  0.99519457042E-01  0.51100000000E-03 0. -1.
         11    1    4    4    0    0  0.57143929820E-02 -0.16505147216E-01 -0.23867755298E-01  0.29580484035E-01  0.51100000000E-03 0.  1.
</event>
<event>
 8    1  0.1118868E+005  0.1043930E+01  0.7957747E-01            NaN
         13   -1    0    0    0    0  0.00000000000E+00  0.00000000000E+00  0.74505805969E-08  0.10566000000E+00  0.10566000000E+00 0. -1.
     999900   -1    0    0    0    0 -0.00000000000E+00 -0.00000000000E+00 -0.74505805969E-08  0.93827000000E+00  0.93827000000E+00 0. -1.
     999902    2    1    2    0    0  0.18882670047E-01  0.12843831837E-01 -0.17616804209E-02  0.10210253550E+01  0.10207684129E+01 0.  0.
     999903    2    3    3    0    0  0.68133378105E-01  0.86701842372E-01  0.69583909905E-01  0.13368616889E+00  0.29507703257E-01 0.  0.
         14    1    1    2    0    0 -0.18882670047E-01 -0.12843831837E-01  0.17616804209E-02  0.22904644993E-01  0.00000000000E+00 0.  1.
     999901    1    3    3    0    0 -0.49250708058E-01 -0.73858010535E-01 -0.71345590326E-01  0.88733918612E+00  0.88000000000E+00 0. -1.
        -11    1    4    4    0    0  0.38451208779E-01  0.58359648754E-01  0.58579507507E-01  0.91193003460E-01  0.51100000000E-03 0.  1.
         11    1    4    4    0    0  0.29682169326E-01  0.28342193618E-01  0.11004402398E-01  0.42493165428E-01  0.51100000000E-03 0. -1.
</event>
<event>
 8    1  0.1118868E+005  0.1043930E+01  0.7957747E-01            NaN
         13   -1    0    0    0    0  0.00000000000E+00  0.00000000000E+00  0.74505805969E-08  0.10566000000E+00  0.10566000000E+00 0.  1.
     999900   -1    0    0    0    0 -0.00000000000E+00 -0.00000000000E+00 -0.74505805969E-08  0.93827000000E+00  0.93827000000E+00 0.  1.
     999902    2    1    2    0    0 -0.17138612678E-01  0.57711101064E-03 -0.16697781209E-01  0.10199950674E+01  0.10197142033E+01 0.  0.
     999903    2    3    3    0    0 -0.81714819710E-01 -0.10034181705E+00  0.93528507849E-02  0.13149444726E+00  0.21389759972E-01 0.  0.
         14    1    1    2    0    0  0.17138612678E-01 -0.57711101064E-03  0.16697781209E-01  0.23934932608E-01  0.00000000000E+00 0.  1.
     999901    1    3    3    0    0  0.64576207032E-01  0.10091892806E+00 -0.26050631994E-01  0.88850062014E+00  0.88000000000E+00 0.  1.
        -11    1    4    4    0    0 -0.60067655056E-01 -0.74865180241E-01  0.16260938859E-01  0.97352953987E-01  0.51100000000E-03 0.  1.
         11    1    4    4    0    0 -0.21647164654E-01 -0.25476636811E-01 -0.69080880738E-02  0.34141493268E-01  0.51100000000E-03 0. -1.
</event>
<event>
 8    1  0.1118868E+005  0.1043930E+01  0.7957747E-01            NaN
         13   -1    0    0    0    0  0.00000000000E+00  0.00000000000E+00  0.74505805969E-08  0.10566000000E+00  0.10566000000E+00 0.  1.
     999900   -1    0    0    0    0 -0.00000000000E+00 -0.00000000000E+00 -0.74505805969E-08  0.93827000000E+00  0.93827000000E+00 0.  1.
     999902    2    1    2    0    0  0.68874808197E-02 -0.17553025352E-01 -0.13823856996E-01  0.10205495570E+01  0.10202817029E+01 0.  0.
     999903    2    3    3    0    0  0.10115846390E-01  0.69046458393E-01 -0.10920558350E+00  0.13116349537E+00  0.20205427147E-01 0.  0.
         14    1    1    2    0    0 -0.68874808197E-02  0.17553025352E-01  0.13823856996E-01  0.23380442966E-01  0.00000000000E+00 0.  1.
     999901    1    3    3    0    0 -0.32283655706E-02 -0.86599483745E-01  0.95381726502E-01  0.88938606166E+00  0.88000000000E+00 0. -1.
        -11    1    4    4    0    0  0.14089427266E-01  0.41369150233E-01 -0.55800739143E-01  0.70879490415E-01  0.51100000000E-03 0.  1.
         11    1    4    4    0    0 -0.39735808757E-02  0.27677308160E-01 -0.53404844355E-01  0.60284004956E-01  0.51100000000E-03 0. -1.
</event>
<event>
 8    1  0.1118868E+005  0.1043930E+01  0.7957747E-01            NaN
         13   -1    0    0    0    0  0.00000000000E+00  0.00000000000E+00  0.74505805969E-08  0.10566000000E+00  0.10566000000E+00 0. -1.
     999900   -1    0    0    0    0 -0.00000000000E+00 -0.00000000000E+00 -0.74505805969E-08  0.93827000000E+00  0.93827000000E+00 0. -1.
     999902    2    1    2    0    0 -0.22239312634E-01  0.73929015023E-02 -0.42392918146E-02  0.10201137531E+01  0.10198357004E+01 0.  0.
     999903    2    3    3    0    0  0.65482003909E-01 -0.99374000375E-01  0.42606028402E-01  0.12809991652E+00  0.20766082182E-01 0.  0.
         14    1    1    2    0    0  0.22239312634E-01 -0.73929015023E-02  0.42392918146E-02  0.23816246853E-01  0.00000000000E+00 0. -1.
     999901    1    3    3    0    0 -0.87721316543E-01  0.10676690188E+00 -0.46845320216E-01  0.89201383663E+00  0.88000000000E+00 0. -1.
        -11    1    4    4    0    0  0.18891500552E-01 -0.29248640006E-01  0.26980807456E-02  0.34927245755E-01  0.51100000000E-03 0. -1.
         11    1    4    4    0    0  0.46590503357E-01 -0.70125360369E-01  0.39907947656E-01  0.93172670763E-01  0.51100000000E-03 0.  1.
</event>
<event>
 8    1  0.1118868E+005  0.1043930E+01  0.7957747E-01            NaN
         13   -1    0    0    0    0  0.00000000000E+00  0.00000000000E+00  0.74505805969E-08  0.10566000000E+00  0.10566000000E+00 0. -1.
     999900   -1    0    0    0    0 -0.00000000000E+00 -0.00000000000E+00 -0.74505805969E-08  0.93827000000E+00  0.93827000000E+00 0.  1.
     999902    2    1    2    0    0  0.14638695253E-01  0.81836205017E-02  0.14398342024E-01  0.10218262606E+01  0.10215871630E+01 0.  0.
     999903    2    3    3    0    0 -0.91347046993E-01  0.80478475171E-01  0.47071025639E-01  0.13192344127E+00  0.19158416966E-01 0.  0.
         14    1    1    2    0    0 -0.14638695253E-01 -0.81836205017E-02 -0.14398342024E-01  0.22103739418E-01  0.00000000000E+00 0.  1.
     999901    1    3    3    0    0  0.10598574225E+00 -0.72294854669E-01 -0.32672683614E-01  0.88990281932E+00  0.88000000000E+00 0. -1.
        -11    1    4    4    0    0 -0.70203300243E-01  0.52043840274E-01  0.38301165854E-01  0.95416482341E-01  0.51100000000E-03 0. -1.
         11    1    4    4    0    0 -0.21143746750E-01  0.28434634896E-01  0.87698597844E-02  0.36506958925E-01  0.51100000000E-03 0.  1.
</event>
<event>
 8    1  0.1118868E+005  0.1043930E+01  0.7957747E-01            NaN
         13   -1    0    0    0    0  0.00000000000E+00  0.00000000000E+00  0.74505805969E-08  0.10566000000E+00  0.10566000000E+00 0. -1.
     999900   -1    0    0    0    0 -0.00000000000E+00 -0.00000000000E+00 -0.74505805969E-08  0.93827000000E+00  0.93827000000E+00 0. -1.
     999902    2    1    2    0    0 -0.97859520232E-02  0.13767022269E-01  0.17373203915E-01  0.10196993588E+01  0.10194114274E+01 0.  0.
     999903    2    3    3    0    0  0.30593114594E-01 -0.10501930544E+00  0.66240041076E-01  0.12945858886E+00  0.20169036004E-01 0.  0.
         14    1    1    2    0    0  0.97859520232E-02 -0.13767022269E-01 -0.17373203915E-01  0.24230641209E-01  0.00000000000E+00 0. -1.
     999901    1    3    3    0    0 -0.40379066617E-01  0.11878632770E+00 -0.48866837161E-01  0.89024076993E+00  0.88000000000E+00 0.  1.
        -11    1    4    4    0    0  0.16693774142E-01 -0.81973094261E-01  0.43890679501E-01  0.94471811383E-01  0.51100000000E-03 0. -1.
         11    1    4    4    0    0  0.13899340452E-01 -0.23046211174E-01  0.22349361575E-01  0.34986777478E-01  0.51100000000E-03 0.  1.
</event>
<event>
 8    1  0.1118868E+005  0.1043930E+01  0.7957747E-01            NaN
         13   -1    0    0    0    0  0.00000000000E+00  0.00000000000E+00  0.74505805969E-08  0.10566000000E+00  0.10566000000E+00 0. -1.
     999900   -1    0    0    0    0 -0.00000000000E+00 -0.00000000000E+00 -0.74505805969E-08  0.93827000000E+00  0.93827000000E+00 0.  1.
     999902    2    1    2    0    0  0.15260303779E-01 -0.11571095269E-01  0.13696895449E-01  0.10203848930E+01  0.10201132084E+01 0.  0.
     999903    2    3    3    0    0  0.35260230068E-01  0.12279313731E+00 -0.92056071814E-02  0.12966705405E+00  0.20183243256E-01 0.  0.
         14    1    1    2    0    0 -0.15260303779E-01  0.11571095269E-01 -0.13696895449E-01  0.23545106967E-01  0.00000000000E+00 0.  1.
     999901    1    3    3    0    0 -0.19999926289E-01 -0.13436423258E+00  0.22902502631E-01  0.89071783898E+00  0.88000000000E+00 0. -1.
        -11    1    4    4    0    0  0.16158052126E-01  0.34153343226E-01  0.41469205827E-02  0.38013044779E-01  0.51100000000E-03 0. -1.
         11    1    4    4    0    0  0.19102177942E-01  0.88639794085E-01 -0.13352527764E-01  0.91654009275E-01  0.51100000000E-03 0.  1.
</event>
<event>
 8    1  0.1118868E+005  0.1043930E+01  0.7957747E-01            NaN
         13   -1    0    0    0    0  0.00000000000E+00  0.00000000000E+00  0.74505805969E-08  0.10566000000E+00  0.10566000000E+00 0.  1.
     999900   -1    0    0    0    0 -0.00000000000E+00 -0.00000000000E+00 -0.74505805969E-08  0.93827000000E+00  0.93827000000E+00 0. -1.
     999902    2    1    2    0    0 -0.49819725423E-02 -0.17829647801E-01 -0.13681599911E-01  0.10209103873E+01  0.10206508298E+01 0.  0.
     999903    2    3    3    0    0  0.59254412652E-01  0.81195326404E-01  0.77371415314E-01  0.12837304342E+00  0.19736664382E-01 0.  0.
         14    1    1    2    0    0  0.49819725423E-02  0.17829647801E-01  0.13681599911E-01  0.23019612665E-01  0.00000000000E+00 0.  1.
     999901    1    3    3    0    0 -0.64236385195E-01 -0.99024974205E-01 -0.91053015225E-01  0.89253734391E+00  0.88000000000E+00 0. -1.
        -11    1    4    4    0    0  0.77260955575E-03  0.10706999081E-01  0.99112742891E-02  0.14619549715E-01  0.51100000000E-03 0. -1.
         11    1    4    4    0    0  0.58481803097E-01  0.70488327323E-01  0.67460141025E-01  0.11375349371E+00  0.51100000000E-03 0.  1.
</event>
<event>
 8    1  0.1144501E+005  0.1043930E+01  0.7957747E-01            NaN
         13   -1    0    0    0    0  0.00000000000E+00  0.00000000000E+00  0.74505805969E-08  0.10566000000E+00  0.10566000000E+00 0.  1.
     999900   -1    0    0    0    0 -0.00000000000E+00 -0.00000000000E+00 -0.74505805969E-08  0.93827000000E+00  0.93827000000E+00 0. -1.
     999902    2    1    2    0    0  0.19798368727E-01 -0.61899828672E-03 -0.12509004873E-01  0.10205027986E+01  0.10202338595E+01 0.  0.
     999903    2    3    3    0    0  0.12203373747E+00 -0.30619648881E-01  0.36381397633E-01  0.13272896415E+00  0.21530811710E-01 0.  0.
         14    1    1    2    0    0 -0.19798368727E-01  0.61899828672E-03  0.12509004873E-01  0.23427201413E-01  0.00000000000E+00 0. -1.
     999901    1    3    3    0    0 -0.10223536874E+00  0.30000650594E-01 -0.48890402505E-01  0.88777383444E+00  0.88000000000E+00 0. -1.
        -11    1    4    4    0    0  0.81283871607E-01 -0.29635567184E-01  0.20035158572E-01  0.88808802074E-01  0.51100000000E-03 0.  1.
         11    1    4    4    0    0  0.40749865858E-01 -0.98408169680E-03  0.16346239061E-01  0.43920162075E-01  0.51100000000E-03 0. -1.
</event>
<event>
 8    1  0.1118868E+005  0.1043930E+01  0.7957747E-01            NaN
         13   -1    0    0    0    0  0.00000000000E+00  0.00000000000E+00  0.74505805969E-08  0.10566000000E+00  0.10566000000E+00 0.  1.
     999900   -1    0    0    0    0 -0.00000000000E+00 -0.00000000000E+00 -0.74505805969E-08  0.93827000000E+00  0.93827000000E+00 0.  1.
     999902    2    1    2    0    0  0.22638797630E-01 -0.19486397033E-02  0.66571808868E-02  0.10202523647E+01  0.10199775769E+01 0.  0.
     999903    2    3    3    0    0  0.95281905103E-01 -0.61456145467E-01  0.66279241968E-01  0.13325013560E+00  0.22520245689E-01 0.  0.
         14    1    1    2    0    0 -0.22638797630E-01  0.19486397033E-02 -0.66571808868E-02  0.23677635275E-01  0.00000000000E+00 0. -1.
     999901    1    3    3    0    0 -0.72643107473E-01  0.59507505764E-01 -0.59622061081E-01  0.88700222913E+00  0.88000000000E+00 0.  1.
        -11    1    4    4    0    0  0.13638773331E-01 -0.10013924990E-01  0.20074986355E-01  0.26259494089E-01  0.51100000000E-03 0. -1.
         11    1    4    4    0    0  0.81643131772E-01 -0.51442220477E-01  0.46204255613E-01  0.10699064151E+00  0.51100000000E-03 0.  1.
</event>
<event>
 8    1  0.1118868E+005  0.1043930E+01  0.7957747E-01            NaN
         13   -1    0    0    0    0  0.00000000000E+00  0.00000000000E+00  0.74505805969E-08  0.10566000000E+00  0.10566000000E+00 0.  1.
     999900   -1    0    0    0    0 -0.00000000000E+00 -0.00000000000E+00 -0.74505805969E-08  0.93827000000E+00  0.93827000000E+00 0. -1.
     999902    2    1    2    0    0 -0.13721125620E-01 -0.14350644649E-01  0.12119663496E-01  0.10206685182E+01  0.10204034141E+01 0.  0.
     999903    2    3    3    0    0 -0.12446827850E+00 -0.41195599851E-01  0.15624492648E-01  0.13331409789E+00  0.18414508616E-01 0.  0.
         14    1    1    2    0    0  0.13721125620E-01  0.14350644649E-01 -0.12119663496E-01  0.23261481754E-01  0.00000000000E+00 0. -1.
     999901    1    3    3    0    0  0.11074715288E+00  0.26844955202E-01 -0.35048291522E-02  0.88735442035E+00  0.88000000000E+00 0.  1.
        -11    1    4    4    0    0 -0.50364629256E-01 -0.74394489044E-02  0.42270062057E-02  0.51088844012E-01  0.51100000000E-03 0. -1.
         11    1    4    4    0    0 -0.74103649242E-01 -0.33756150947E-01  0.11397486442E-01  0.82225253882E-01  0.51100000000E-03 0.  1.
</event>
<event>
 8    1  0.1118868E+005  0.1043930E+01  0.7957747E-01            NaN
         13   -1    0    0    0    0  0.00000000000E+00  0.00000000000E+00  0.74505805969E-08  0.10566000000E+00  0.10566000000E+00 0. -1.
     999900   -1    0    0    0    0 -0.00000000000E+00 -0.00000000000E+00 -0.74505805969E-08  0.93827000000E+00  0.93827000000E+00 0. -1.
     999902    2    1    2    0    0  0.16403963525E-01  0.15833197845E-01 -0.51333523328E-02  0.10205605439E+01  0.10202929443E+01 0.  0.
     999903    2    3    3    0    0 -0.62897669735E-01  0.92463376885E-01  0.67342471169E-01  0.13072141326E+00  0.68910477883E-02 0.  0.
         14    1    1    2    0    0 -0.16403963525E-01 -0.15833197845E-01  0.51333523328E-02  0.23369456123E-01  0.00000000000E+00 0. -1.
     999901    1    3    3    0    0  0.79301633260E-01 -0.76630179040E-01 -0.72475823502E-01  0.88983913061E+00  0.88000000000E+00 0.  1.
        -11    1    4    4    0    0 -0.46083377819E-01  0.63222775660E-01  0.49144665872E-01  0.92391863159E-01  0.51100000000E-03 0.  1.
         11    1    4    4    0    0 -0.16814291916E-01  0.29240601225E-01  0.18197805297E-01  0.38329550105E-01  0.51100000000E-03 0. -1.
</event>
<event>
 8    1  0.1118868E+005  0.1043930E+01  0.7957747E-01            NaN
         13   -1    0    0    0    0  0.00000000000E+00  0.00000000000E+00  0.74505805969E-08  0.10566000000E+00  0.10566000000E+00 0. -1.
     999900   -1    0    0    0    0 -0.00000000000E+00 -0.00000000000E+00 -0.74505805969E-08  0.93827000000E+00  0.93827000000E+00 0. -1.
     999902    2    1    2    0    0 -0.16537732462E-01  0.13689206995E-01 -0.93943967338E-02  0.10204961426E+01  0.10202270489E+01 0.  0.
     999903    2    3    3    0    0  0.57901462199E-01  0.96187664777E-01  0.63252281358E-01  0.13053843063E+00  0.20851489021E-01 0.  0.
         14    1    1    2    0    0  0.16537732462E-01 -0.13689206995E-01  0.93943967338E-02  0.23433857410E-01  0.00000000000E+00 0.  1.
     999901    1    3    3    0    0 -0.74439194661E-01 -0.82498457782E-01 -0.72646678092E-01  0.88995771196E+00  0.88000000000E+00 0.  1.
        -11    1    4    4    0    0  0.39068945554E-01  0.53184768259E-01  0.46329262494E-01  0.80632895059E-01  0.51100000000E-03 0. -1.
         11    1    4    4    0    0  0.18832516645E-01  0.43002896518E-01  0.16923018864E-01  0.49905535571E-01  0.51100000000E-03 0.  1.
</event>
<event>
 7    1  0.1118868E+005  0.1043930E+01  0.7957747E-01            NaN
         13   -1    0    0    0    0  0.00000000000E+00  0.00000000000E+00  0.74505805969E-08  0.10566000000E+00  0.10566000000E+00 0.  1.
     999900   -1    0    0    0    0 -0.00000000000E+00 -0.00000000000E+00 -0.74505805969E-08  0.93827000000E+00  0.93827000000E+00 0.  1.
     999903    2    1    2    0    0  0.22764785491E-01  0.46753226801E-01  0.60420938722E-01  0.81933060445E-01  0.18927146720E-01 0.  0.
         14    1    1    2    0    0 -0.25551702499E-01 -0.55045552966E-01  0.45155272323E-01  0.75643248347E-01  0.00000000000E+00 0. -1.
     999901    1    1    2    0    0  0.27869170079E-02  0.82923261647E-02 -0.10557621105E+00  0.88635369121E+00  0.88000000000E+00 0.  1.
        -11    1    3    3    0    0  0.24122200118E-01  0.43743555920E-01  0.48779755132E-01  0.69821951096E-01  0.51100000000E-03 0.  1.
         11    1    3    3    0    0 -0.13574146265E-02  0.30096708810E-02  0.11641183590E-01  0.12111109349E-01  0.51100000000E-03 0. -1.
</event>
<event>
 8    1  0.1118868E+005  0.1043930E+01  0.7957747E-01            NaN
         13   -1    0    0    0    0  0.00000000000E+00  0.00000000000E+00  0.74505805969E-08  0.10566000000E+00  0.10566000000E+00 0. -1.
     999900   -1    0    0    0    0 -0.00000000000E+00 -0.00000000000E+00 -0.74505805969E-08  0.93827000000E+00  0.93827000000E+00 0. -1.
     999902    2    1    2    0    0 -0.19052920236E-01  0.13331680398E-01  0.29241633085E-02  0.10204928883E+01  0.10202237191E+01 0.  0.
     999903    2    3    3    0    0  0.63373727610E-01  0.50696450766E-01 -0.99333867356E-01  0.12996103424E+00  0.20887645749E-01 0.  0.
         14    1    1    2    0    0  0.19052920236E-01 -0.13331680398E-01 -0.29241633085E-02  0.23437111657E-01  0.00000000000E+00 0.  1.
     999901    1    3    3    0    0 -0.82426647847E-01 -0.37364770369E-01  0.10225803066E+00  0.89053185410E+00  0.88000000000E+00 0.  1.
        -11    1    4    4    0    0  0.37487171540E-01  0.18711910221E-01 -0.41435914701E-01  0.58928938241E-01  0.51100000000E-03 0.  1.
         11    1    4    4    0    0  0.25886556071E-01  0.31984540546E-01 -0.57897952655E-01  0.71032095997E-01  0.51100000000E-03 0. -1.
</event>
<event>
 8    1  0.1118868E+005  0.1043930E+01  0.7957747E-01            NaN
         13   -1    0    0    0    0  0.00000000000E+00  0.00000000000E+00  0.74505805969E-08  0.10566000000E+00  0.10566000000E+00 0.  1.
     999900   -1    0    0    0    0 -0.00000000000E+00 -0.00000000000E+00 -0.74505805969E-08  0.93827000000E+00  0.93827000000E+00 0.  1.
     999902    2    1    2    0    0  0.93433062837E-02  0.20564275882E-01  0.59124475987E-02  0.10205816842E+01  0.10203145742E+01 0.  0.
     999903    2    3    3    0    0 -0.81448753352E-01  0.66790749450E-01 -0.75269726319E-01  0.13099153680E+00  0.19958641723E-01 0.  0.
         14    1    1    2    0    0 -0.93433062837E-02 -0.20564275882E-01 -0.59124475987E-02  0.23348315817E-01  0.00000000000E+00 0.  1.
     999901    1    3    3    0    0  0.90792059636E-01 -0.46226473568E-01  0.81182173918E-01  0.88959014738E+00  0.88000000000E+00 0. -1.
        -11    1    4    4    0    0 -0.32801619012E-01  0.17566902492E-01 -0.34037553588E-01  0.50431720655E-01  0.51100000000E-03 0. -1.
         11    1    4    4    0    0 -0.48647134340E-01  0.49223846958E-01 -0.41232172731E-01  0.80559816149E-01  0.51100000000E-03 0.  1.
</event>
<event>
 8    1  0.1118868E+005  0.1043930E+01  0.7957747E-01            NaN
         13   -1    0    0    0    0  0.00000000000E+00  0.00000000000E+00  0.74505805969E-08  0.10566000000E+00  0.10566000000E+00 0. -1.
     999900   -1    0    0    0    0 -0.00000000000E+00 -0.00000000000E+00 -0.74505805969E-08  0.93827000000E+00  0.93827000000E+00 0. -1.
     999902    2    1    2    0    0  0.62164557709E-02  0.20404022992E-01  0.92166487588E-02  0.10206939269E+01  0.10204294083E+01 0.  0.
     999903    2    3    3    0    0 -0.81679935128E-01  0.21032156447E-02  0.10098314858E+00  0.13137858042E+00  0.19664683475E-01 0.  0.
         14    1    1    2    0    0 -0.62164557709E-02 -0.20404022992E-01 -0.92166487588E-02  0.23236073054E-01  0.00000000000E+00 0. -1.
     999901    1    3    3    0    0  0.87896390899E-01  0.18300807347E-01 -0.91766499824E-01  0.88931534653E+00  0.88000000000E+00 0. -1.
        -11    1    4    4    0    0 -0.75934524979E-01 -0.53231294837E-03  0.83932798641E-01  0.11318706308E+00  0.51100000000E-03 0. -1.
         11    1    4    4    0    0 -0.57454101490E-02  0.26355285930E-02  0.17050349942E-01  0.18191517333E-01  0.51100000000E-03 0.  1.
</event>
<event>
 8    1  0.1118868E+005  0.1043930E+01  0.7957747E-01            NaN
         13   -1    0    0    0    0  0.00000000000E+00  0.00000000000E+00  0.74505805969E-08  0.10566000000E+00  0.10566000000E+00 0.  1.
     999900   -1    0    0    0    0 -0.00000000000E+00 -0.00000000000E+00 -0.74505805969E-08  0.93827000000E+00  0.93827000000E+00 0. -1.
     999902    2    1    2    0    0 -0.19361562403E-01 -0.36273513738E-02 -0.13162503614E-01  0.10202386666E+01  0.10199635570E+01 0.  0.
     999903    2    3    3    0    0 -0.81860827843E-01 -0.38759704197E-01  0.92325975260E-01  0.13104337896E+00  0.21089610162E-01 0.  0.
         14    1    1    2    0    0  0.19361562403E-01  0.36273513738E-02  0.13162503614E-01  0.23691333395E-01  0.00000000000E+00 0.  1.
     999901    1    3    3    0    0  0.62499265441E-01  0.35132352824E-01 -0.10548847887E+00  0.88919528765E+00  0.88000000000E+00 0. -1.
        -11    1    4    4    0    0 -0.27388962421E-01 -0.11344379390E-01  0.17187481343E-01  0.34271283054E-01  0.51100000000E-03 0. -1.
         11    1    4    4    0    0 -0.54471865422E-01 -0.27415324807E-01  0.75138493917E-01  0.96772095906E-01  0.51100000000E-03 0.  1.
</event>
<event>
 8    1  0.1118868E+005  0.1043930E+01  0.7957747E-01            NaN
         13   -1    0    0    0    0  0.00000000000E+00  0.00000000000E+00  0.74505805969E-08  0.10566000000E+00  0.10566000000E+00 0. -1.
     999900   -1    0    0    0    0 -0.00000000000E+00 -0.00000000000E+00 -0.74505805969E-08  0.93827000000E+00  0.93827000000E+00 0. -1.
     999902    2    1    2    0    0 -0.16701732244E-01  0.13872941042E-01 -0.68983412679E-02  0.10211485719E+01  0.10208944179E+01 0.  0.
     999903    2    3    3    0    0  0.19058988262E-01 -0.53267721376E-01  0.11505137954E+00  0.12948808043E+00  0.18156207347E-01 0.  0.
         14    1    1    2    0    0  0.16701732244E-01 -0.13872941042E-01  0.68983412679E-02  0.22781428080E-01  0.00000000000E+00 0. -1.
     999901    1    3    3    0    0 -0.35760720506E-01  0.67140662418E-01 -0.12194972081E+00  0.89166049149E+00  0.88000000000E+00 0. -1.
        -11    1    4    4    0    0  0.29023402548E-02 -0.28659825216E-01  0.44177316374E-01  0.52741876753E-01  0.51100000000E-03 0.  1.
         11    1    4    4    0    0  0.16156648007E-01 -0.24607896160E-01  0.70874063165E-01  0.76746203677E-01  0.51100000000E-03 0. -1.
</event>
<event>
 8    1  0.1118868E+005  0.1043930E+01  0.7957747E-01            NaN
         13   -1    0    0    0    0  0.00000000000E+00  0.00000000000E+00  0.74505805969E-08  0.10566000000E+00  0.10566000000E+00 0. -1.
     999900   -1    0    0    0    0 -0.00000000000E+00 -0.00000000000E+00 -0.74505805969E-08  0.93827000000E+00  0.93827000000E+00 0.  1.
     999902    2    1    2    0    0  0.22017234161E-01  0.59891120966E-02 -0.15473776595E-02  0.10210603161E+01  0.10208041667E+01 0.  0.
     999903    2    3    3    0    0  0.40498667337E-01  0.78955166970E-01  0.95835263683E-01  0.13249462502E+00  0.22279305363E-01 0.  0.
         14    1    1    2    0    0 -0.22017234161E-01 -0.59891120966E-02  0.15473776595E-02  0.22869683894E-01  0.00000000000E+00 0. -1.
     999901    1    3    3    0    0 -0.18481433176E-01 -0.72966054873E-01 -0.97382641342E-01  0.88856569108E+00  0.88000000000E+00 0.  1.
        -11    1    4    4    0    0  0.27534602921E-01  0.57455313969E-01  0.53157837436E-01  0.82977613024E-01  0.51100000000E-03 0.  1.
         11    1    4    4    0    0  0.12964064416E-01  0.21499853001E-01  0.42677426247E-01  0.49517011999E-01  0.51100000000E-03 0. -1.
</event>
<event>
 8    1  0.1118868E+005  0.1043930E+01  0.7957747E-01            NaN
         13   -1    0    0    0    0  0.00000000000E+00  0.00000000000E+00  0.74505805969E-08  0.10566000000E+00  0.10566000000E+00 0. -1.
     999900   -1    0    0    0    0 -0.00000000000E+00 -0.00000000000E+00 -0.74505805969E-08  0.93827000000E+00  0.93827000000E+00 0.  1.
     999902    2    1    2    0    0  0.28700344987E-02 -0.21871234128E-01  0.90461060534E-02  0.10200884393E+01  0.10198097882E+01 0.  0.
     999903    2    3    3    0    0 -0.92655612169E-02  0.99359230679E-01 -0.77033243570E-01  0.12753381764E+00  0.19304058642E-01 0.  0.
         14    1    1    2    0    0 -0.28700344987E-02  0.21871234128E-01 -0.90461060534E-02  0.23841560667E-01  0.00000000000E+00 0. -1.
     999901    1    3    3    0    0  0.12135595716E-01 -0.12123046481E+00  0.86079349623E-01  0.89255462170E+00  0.88000000000E+00 0. -1.
        -11    1    4    4    0    0 -0.10278513928E-01  0.22813257119E-01 -0.17131044575E-01  0.30328639241E-01  0.51100000000E-03 0. -1.
         11    1    4    4    0    0  0.10129527110E-02  0.76545973560E-01 -0.59902198995E-01  0.97205178395E-01  0.51100000000E-03 0.  1.
</event>
<event>
 8    1  0.1118868E+005  0.1043930E+01  0.7957747E-01            NaN
         13   -1    0    0    0    0  0.00000000000E+00  0.00000000000E+00  0.74505805969E-08  0.10566000000E+00  0.10566000000E+00 0. -1.
     999900   -1    0    0    0    0 -0.00000000000E+00 -0.00000000000E+00 -0.74505805969E-08  0.93827000000E+00  0.93827000000E+00 0. -1.
     999902    2    1    2    0    0 -0.11073481231E-01  0.18039145200E-01 -0.97292659618E-02  0.10206342630E+01  0.10203683685E+01 0.  0.
     999903    2    3    3    0    0 -0.58315276413E-02 -0.11825261812E+00  0.46658227365E-01  0.12834368688E+00  0.16656031168E-01 0.  0.
         14    1    1    2    0    0  0.11073481231E-01 -0.18039145200E-01  0.97292659618E-02  0.23295736998E-01  0.00000000000E+00 0. -1.
     999901    1    3    3    0    0 -0.52419535901E-02  0.13629176332E+00 -0.56387493326E-01  0.89229057612E+00  0.88000000000E+00 0. -1.
        -11    1    4    4    0    0 -0.94661540968E-02 -0.69541752253E-01  0.33402921679E-01  0.77728242470E-01  0.51100000000E-03 0.  1.
         11    1    4    4    0    0  0.36346264555E-02 -0.48710865870E-01  0.13255305686E-01  0.50615444413E-01  0.51100000000E-03 0. -1.
</event>
<event>
 7    1  0.1118868E+005  0.1043930E+01  0.7957747E-01            NaN
         13   -1    0    0    0    0  0.00000000000E+00  0.00000000000E+00  0.74505805969E-08  0.10566000000E+00  0.10566000000E+00 0. -1.
     999900   -1    0    0    0    0 -0.00000000000E+00 -0.00000000000E+00 -0.74505805969E-08  0.93827000000E+00  0.93827000000E+00 0. -1.
     999902    2    1    2    0    0  0.15132011266E-01  0.61944776277E-03 -0.18316156496E-01  0.10201635726E+01  0.10198866956E+01 0.  0.
         14    1    1    2    0    0 -0.15132011266E-01 -0.61944776277E-03  0.18316156496E-01  0.23766427356E-01  0.00000000000E+00 0. -1.
     999901    1    3    3    0    0  0.24774396079E-01  0.54823152683E-01  0.92095370823E-01  0.88684886317E+00  0.88000000000E+00 0.  1.
        -11    1    3    3    0    0 -0.29993886876E-01 -0.30298361924E-01 -0.54578523619E-01  0.69258215012E-01  0.51100000000E-03 0.  1.
         11    1    3    3    0    0  0.20351502064E-01 -0.23905342996E-01 -0.55833003701E-01  0.64056494466E-01  0.51100000000E-03 0. -1.
</event>
<event>
 8    1  0.1118868E+005  0.1043930E+01  0.7957747E-01            NaN
         13   -1    0    0    0    0  0.00000000000E+00  0.00000000000E+00  0.74505805969E-08  0.10566000000E+00  0.10566000000E+00 0.  1.
     999900   -1    0    0    0    0 -0.00000000000E+00 -0.00000000000E+00 -0.74505805969E-08  0.93827000000E+00  0.93827000000E+00 0. -1.
     999902    2    1    2    0    0  0.77088773606E-02  0.16190178963E-01 -0.15068743424E-01  0.10205074529E+01  0.10202386219E+01 0.  0.
     999903    2    3    3    0    0 -0.12569422016E+00 -0.23237607256E-01 -0.49001213448E-02  0.12952241506E+00  0.20322928922E-01 0.  0.
         14    1    1    2    0    0 -0.77088773606E-02 -0.16190178963E-01  0.15068743424E-01  0.23422547115E-01  0.00000000000E+00 0.  1.
     999901    1    3    3    0    0  0.13340309752E+00  0.39427786219E-01 -0.10168622079E-01  0.89098503783E+00  0.88000000000E+00 0.  1.
        -11    1    4    4    0    0 -0.38887481607E-01 -0.16353403527E-01  0.14149033047E-02  0.42212949495E-01  0.51100000000E-03 0. -1.
         11    1    4    4    0    0 -0.86806738556E-01 -0.68842037286E-02 -0.63150246494E-02  0.87309465564E-01  0.51100000000E-03 0.  1.
</event>
<event>
 8    1  0.1118868E+005  0.1043930E+01  0.7957747E-01            NaN
         13   -1    0    0    0    0  0.00000000000E+00  0.00000000000E+00  0.74505805969E-08  0.10566000000E+00  0.10566000000E+00 0.  1.
     999900   -1    0    0    0    0 -0.00000000000E+00 -0.00000000000E+00 -0.74505805969E-08  0.93827000000E+00  0.93827000000E+00 0.  1.
     999902    2    1    2    0    0  0.10307519259E-01 -0.90513996469E-02  0.18976584918E-01  0.10205145443E+01  0.10202458780E+01 0.  0.
     999903    2    3    3    0    0  0.10610021961E+00 -0.77033269210E-01 -0.17393974897E-02  0.13246785189E+00  0.18796944304E-01 0.  0.
         14    1    1    2    0    0 -0.10307519259E-01  0.90513996469E-02 -0.18976584918E-01  0.23415455665E-01  0.00000000000E+00 0. -1.
     999901    1    3    3    0    0 -0.95792700351E-01  0.67981869563E-01  0.20715982408E-01  0.88804669244E+00  0.88000000000E+00 0. -1.
        -11    1    4    4    0    0  0.46237830529E-01 -0.29987701677E-01  0.80675001842E-02  0.55700492853E-01  0.51100000000E-03 0.  1.
         11    1    4    4    0    0  0.59862389081E-01 -0.47045567532E-01 -0.98068976739E-02  0.76767359040E-01  0.51100000000E-03 0. -1.
</event>
<event>
 8    1  0.1118868E+005  0.1043930E+01  0.7957747E-01            NaN
         13   -1    0    0    0    0  0.00000000000E+00  0.00000000000E+00  0.74505805969E-08  0.10566000000E+00  0.10566000000E+00 0. -1.
     999900   -1    0    0    0    0 -0.00000000000E+00 -0.00000000000E+00 -0.74505805969E-08  0.93827000000E+00  0.93827000000E+00 0.  1.
     999902    2    1    2    0    0  0.62701106951E-02  0.10215712951E-01 -0.20251132398E-01  0.10203973962E+01  0.10201260033E+01 0.  0.
     999903    2    3    3    0    0  0.61471619751E-01 -0.11124821280E+00  0.15484265118E-01  0.12962373778E+00  0.20189750992E-01 0.  0.
         14    1    1    2    0    0 -0.62701106951E-02 -0.10215712951E-01  0.20251132398E-01  0.23532603822E-01  0.00000000000E+00 0. -1.
     999901    1    3    3    0    0 -0.55201509055E-01  0.12146392575E+00 -0.35735397515E-01  0.89077365840E+00  0.88000000000E+00 0.  1.
        -11    1    4    4    0    0  0.47955650345E-01 -0.85455288706E-01  0.20383265042E-01  0.10009040605E+00  0.51100000000E-03 0.  1.
         11    1    4    4    0    0  0.13515969405E-01 -0.25792924089E-01 -0.48989999243E-02  0.29533331734E-01  0.51100000000E-03 0. -1.
</event>
<event>
 8    1  0.1118868E+005  0.1043930E+01  0.7957747E-01            NaN
         13   -1    0    0    0    0  0.00000000000E+00  0.00000000000E+00  0.74505805969E-08  0.10566000000E+00  0.10566000000E+00 0. -1.
     999900   -1    0    0    0    0 -0.00000000000E+00 -0.00000000000E+00 -0.74505805969E-08  0.93827000000E+00  0.93827000000E+00 0.  1.
     999902    2    1    2    0    0 -0.17315482571E-01  0.95297835657E-02  0.11941038846E-01  0.10208382023E+01  0.10205769957E+01 0.  0.
     999903    2    3    3    0    0  0.10815740322E+00  0.46864391287E-01 -0.48764011526E-01  0.12908575845E+00  0.19771423114E-01 0.  0.
         14    1    1    2    0    0  0.17315482571E-01 -0.95297835657E-02 -0.11941038846E-01  0.23091797683E-01  0.00000000000E+00 0.  1.
     999901    1    3    3    0    0 -0.12547288579E+00 -0.37334607722E-01  0.60705050372E-01  0.89175244387E+00  0.88000000000E+00 0. -1.
        -11    1    4    4    0    0  0.78491369636E-01  0.39117919291E-01 -0.28037464031E-01  0.92073162362E-01  0.51100000000E-03 0. -1.
         11    1    4    4    0    0  0.29666033586E-01  0.77464719965E-02 -0.20726547495E-01  0.37012596088E-01  0.51100000000E-03 0.  1.
</event>
<event>
 8    1  0.1118868E+005  0.1043930E+01  0.7957747E-01            NaN
         13   -1    0    0    0    0  0.00000000000E+00  0.00000000000E+00  0.74505805969E-08  0.10566000000E+00  0.10566000000E+00 0.  1.
     999900   -1    0    0    0    0 -0.00000000000E+00 -0.00000000000E+00 -0.74505805969E-08  0.93827000000E+00  0.93827000000E+00 0. -1.
     999902    2    1    2    0    0  0.11077395489E-01 -0.19702397184E-01 -0.92422285959E-02  0.10195105009E+01  0.10192180088E+01 0.  0.
     999903    2    3    3    0    0 -0.52282025393E-01  0.75714060690E-01 -0.87505063102E-01  0.12864362652E+00  0.20640189203E-01 0.  0.
         14    1    1    2    0    0 -0.11077395489E-01  0.19702397184E-01  0.92422285959E-02  0.24419499074E-01  0.00000000000E+00 0.  1.
     999901    1    3    3    0    0  0.63359420881E-01 -0.95416457875E-01  0.78262834507E-01  0.89086687441E+00  0.88000000000E+00 0.  1.
        -11    1    4    4    0    0 -0.20538697149E-01  0.43759850302E-01 -0.36355563126E-01  0.60487607576E-01  0.51100000000E-03 0. -1.
         11    1    4    4    0    0 -0.31743328244E-01  0.31954210388E-01 -0.51149499976E-01  0.68156018945E-01  0.51100000000E-03 0.  1.
</event>
<event>
 8    1  0.1165735E+005  0.1043930E+01  0.7957747E-01            NaN
         13   -1    0    0    0    0  0.00000000000E+00  0.00000000000E+00  0.74505805969E-08  0.10566000000E+00  0.10566000000E+00 0.  1.
     999900   -1    0    0    0    0 -0.00000000000E+00 -0.00000000000E+00 -0.74505805969E-08  0.93827000000E+00  0.93827000000E+00 0.  1.
     999902    2    1    2    0    0 -0.11789703163E-01 -0.17530503813E-01  0.12036240940E-01  0.10196156676E+01  0.10193257197E+01 0.  0.
     999903    2    3    3    0    0  0.66838498617E-01  0.15419090529E-01  0.10890999987E+00  0.13020429199E+00  0.19663070198E-01 0.  0.
         14    1    1    2    0    0  0.11789703163E-01  0.17530503813E-01 -0.12036240940E-01  0.24314332411E-01  0.00000000000E+00 0. -1.
     999901    1    3    3    0    0 -0.78628201780E-01 -0.32949594342E-01 -0.96873758931E-01  0.88941137560E+00  0.88000000000E+00 0.  1.
        -11    1    4    4    0    0  0.35620977804E-01  0.11648485706E-01  0.75677406076E-01  0.84450412612E-01  0.51100000000E-03 0. -1.
         11    1    4    4    0    0  0.31217520813E-01  0.37706048233E-02  0.33232593795E-01  0.45753879374E-01  0.51100000000E-03 0.  1.
</event>
<event>
 8    1  0.1118868E+005  0.1043930E+01  0.7957747E-01            NaN
         13   -1    0    0    0    0  0.00000000000E+00  0.00000000000E+00  0.74505805969E-08  0.10566000000E+00  0.10566000000E+00 0.  1.
     999900   -1    0    0    0    0 -0.00000000000E+00 -0.00000000000E+00 -0.74505805969E-08  0.93827000000E+00  0.93827000000E+00 0.  1.
     999902    2    1    2    0    0  0.12461612561E-01  0.47382927628E-02  0.17370138417E-01  0.10220333127E+01  0.10217987216E+01 0.  0.
     999903    2    3    3    0    0 -0.83195606265E-01  0.96065736287E-01  0.29979736109E-01  0.13206139887E+00  0.19781150243E-01 0.  0.
         14    1    1    2    0    0 -0.12461612561E-01 -0.47382927628E-02 -0.17370138417E-01  0.21896687296E-01  0.00000000000E+00 0. -1.
     999901    1    3    3    0    0  0.95657218826E-01 -0.91327443524E-01 -0.12609597693E-01  0.88997191383E+00  0.88000000000E+00 0. -1.
        -11    1    4    4    0    0 -0.15891465858E-01  0.29947243744E-01  0.12310790443E-01  0.36072049807E-01  0.51100000000E-03 0. -1.
         11    1    4    4    0    0 -0.67304140407E-01  0.66118492543E-01  0.17668945666E-01  0.95989349066E-01  0.51100000000E-03 0.  1.
</event>
<event>
 8    1  0.1118868E+005  0.1043930E+01  0.7957747E-01            NaN
         13   -1    0    0    0    0  0.00000000000E+00  0.00000000000E+00  0.74505805969E-08  0.10566000000E+00  0.10566000000E+00 0.  1.
     999900   -1    0    0    0    0 -0.00000000000E+00 -0.00000000000E+00 -0.74505805969E-08  0.93827000000E+00  0.93827000000E+00 0.  1.
     999902    2    1    2    0    0 -0.12780209130E-01  0.17808082280E-01 -0.51121462061E-02  0.10214223218E+01  0.10211743063E+01 0.  0.
     999903    2    3    3    0    0  0.69865075646E-01 -0.99201712248E-01  0.38053885509E-01  0.12879426856E+00  0.20439102305E-01 0.  0.
         14    1    1    2    0    0  0.12780209130E-01 -0.17808082280E-01  0.51121462061E-02  0.22507678217E-01  0.00000000000E+00 0. -1.
     999901    1    3    3    0    0 -0.82645284776E-01  0.11700979453E+00 -0.43166031715E-01  0.89262805323E+00  0.88000000000E+00 0.  1.
        -11    1    4    4    0    0  0.35188364601E-01 -0.65276445863E-01  0.18092876453E-01  0.76333797803E-01  0.51100000000E-03 0. -1.
         11    1    4    4    0    0  0.34676711045E-01 -0.33925266385E-01  0.19961009056E-01  0.52460470754E-01  0.51100000000E-03 0.  1.
</event>
<event>
 8    1  0.1118868E+005  0.1043930E+01  0.7957747E-01            NaN
         13   -1    0    0    0    0  0.00000000000E+00  0.00000000000E+00  0.74505805969E-08  0.10566000000E+00  0.10566000000E+00 0. -1.
     999900   -1    0    0    0    0 -0.00000000000E+00 -0.00000000000E+00 -0.74505805969E-08  0.93827000000E+00  0.93827000000E+00 0.  1.
     999902    2    1    2    0    0  0.23626352602E-01 -0.37939043056E-02  0.15580151662E-02  0.10199503074E+01  0.10196683794E+01 0.  0.
     999903    2    3    3    0    0  0.80540852186E-01 -0.95106247406E-01  0.42358127112E-01  0.13245841817E+00  0.14798460924E-01 0.  0.
         14    1    1    2    0    0 -0.23626352602E-01  0.37939043056E-02 -0.15580151662E-02  0.23979692626E-01  0.00000000000E+00 0.  1.
     999901    1    3    3    0    0 -0.56914499583E-01  0.91312343100E-01 -0.40800111946E-01  0.88749188920E+00  0.88000000000E+00 0. -1.
        -11    1    4    4    0    0  0.40479731961E-01 -0.37103887298E-01  0.15999254264E-01  0.57197416116E-01  0.51100000000E-03 0.  1.
         11    1    4    4    0    0  0.40061120224E-01 -0.58002360107E-01  0.26358872849E-01  0.75261002056E-01  0.51100000000E-03 0. -1.
</event>
<event>
 8    1  0.1118868E+005  0.1043930E+01  0.7957747E-01            NaN
         13   -1    0    0    0    0  0.00000000000E+00  0.00000000000E+00  0.74505805969E-08  0.10566000000E+00  0.10566000000E+00 0.  1.
     999900   -1    0    0    0    0 -0.00000000000E+00 -0.00000000000E+00 -0.74505805969E-08  0.93827000000E+00  0.93827000000E+00 0.  1.
     999902    2    1    2    0    0 -0.23385841593E-02  0.16067133666E-01  0.17788937827E-01  0.10198453977E+01  0.10195609678E+01 0.  0.
     999903    2    3    3    0    0  0.84548455347E-01 -0.89297692022E-01 -0.29522337221E-01  0.12805536584E+00  0.20101970665E-01 0.  0.
         14    1    1    2    0    0  0.23385841593E-02 -0.16067133666E-01 -0.17788937827E-01  0.24084602324E-01  0.00000000000E+00 0.  1.
     999901    1    3    3    0    0 -0.86887039506E-01  0.10536482569E+00  0.47311275048E-01  0.89179003183E+00  0.88000000000E+00 0. -1.
        -11    1    4    4    0    0  0.70811093192E-01 -0.79459745180E-01 -0.18925614051E-01  0.10810412578E+00  0.51100000000E-03 0.  1.
         11    1    4    4    0    0  0.13737362155E-01 -0.98379468414E-02 -0.10596723171E-01  0.19951240061E-01  0.51100000000E-03 0. -1.
</event>
<event>
 8    1  0.1118868E+005  0.1043930E+01  0.7957747E-01            NaN
         13   -1    0    0    0    0  0.00000000000E+00  0.00000000000E+00  0.74505805969E-08  0.10566000000E+00  0.10566000000E+00 0.  1.
     999900   -1    0    0    0    0 -0.00000000000E+00 -0.00000000000E+00 -0.74505805969E-08  0.93827000000E+00  0.93827000000E+00 0. -1.
     999902    2    1    2    0    0 -0.20688864428E-01  0.12846925532E-01 -0.14064132761E-02  0.10195363409E+01  0.10192444750E+01 0.  0.
     999903    2    3    3    0    0  0.25851419314E-01 -0.10393482951E+00 -0.67974871265E-01  0.12811313279E+00  0.17934519888E-01 0.  0.
         14    1    1    2    0    0  0.20688864428E-01 -0.12846925532E-01  0.14064132761E-02  0.24393659120E-01  0.00000000000E+00 0. -1.
     999901    1    3    3    0    0 -0.46540283741E-01  0.11678175504E+00  0.66568457989E-01  0.89142320809E+00  0.88000000000E+00 0.  1.
        -11    1    4    4    0    0  0.41782214834E-02 -0.27896139706E-01 -0.94910295559E-02  0.29765633007E-01  0.51100000000E-03 0.  1.
         11    1    4    4    0    0  0.21673197830E-01 -0.76038689807E-01 -0.58483841709E-01  0.98347499784E-01  0.51100000000E-03 0. -1.
</event>
<event>
 8    1  0.1118868E+005  0.1043930E+01  0.7957747E-01            NaN
         13   -1    0    0    0    0  0.00000000000E+00  0.00000000000E+00  0.74505805969E-08  0.10566000000E+00  0.10566000000E+00 0. -1.
     999900   -1    0    0    0    0 -0.00000000000E+00 -0.00000000000E+00 -0.74505805969E-08  0.93827000000E+00  0.93827000000E+00 0.  1.
     999902    2    1    2    0    0 -0.19156223491E-01 -0.13111301362E-01  0.27122904043E-02  0.10205585721E+01  0.10202909269E+01 0.  0.
     999903    2    3    3    0    0  0.91615502718E-01  0.56613218431E-01 -0.66743664655E-01  0.12817075638E+00  0.19353789821E-01 0.  0.
         14    1    1    2    0    0  0.19156223491E-01  0.13111301362E-01 -0.27122904043E-02  0.23371427879E-01  0.00000000000E+00 0. -1.
     999901    1    3    3    0    0 -0.11077172621E+00 -0.69724519793E-01  0.69455955059E-01  0.89238781574E+00  0.88000000000E+00 0. -1.
        -11    1    4    4    0    0  0.62576769229E-01  0.48649766359E-01 -0.46783308533E-01  0.92041245603E-01  0.51100000000E-03 0. -1.
         11    1    4    4    0    0  0.29038733489E-01  0.79634520720E-02 -0.19960356122E-01  0.36129510778E-01  0.51100000000E-03 0.  1.
</event>
<event>
 8    1  0.1118868E+005  0.1043930E+01  0.7957747E-01            NaN
         13   -1    0    0    0    0  0.00000000000E+00  0.00000000000E+00  0.74505805969E-08  0.10566000000E+00  0.10566000000E+00 0. -1.
     999900   -1    0    0    0    0 -0.00000000000E+00 -0.00000000000E+00 -0.74505805969E-08  0.93827000000E+00  0.93827000000E+00 0.  1.
     999902    2    1    2    0    0  0.22416445469E-01 -0.89726784657E-03  0.69960092640E-02  0.10204300795E+01  0.10201594488E+01 0.  0.
     999903    2    3    3    0    0  0.99944335731E-01  0.83766518937E-01 -0.16142849752E-01  0.13267226493E+00  0.18320435163E-01 0.  0.
         14    1    1    2    0    0 -0.22416445469E-01  0.89726784657E-03 -0.69960092640E-02  0.23499920482E-01  0.00000000000E+00 0. -1.
     999901    1    3    3    0    0 -0.77527890262E-01 -0.84663786784E-01  0.23138859016E-01  0.88775781459E+00  0.88000000000E+00 0. -1.
        -11    1    4    4    0    0  0.53173094426E-01  0.55165350488E-01 -0.13348730780E-01  0.77775597714E-01  0.51100000000E-03 0.  1.
         11    1    4    4    0    0  0.46771241305E-01  0.28601168450E-01 -0.27941189720E-02  0.54896667218E-01  0.51100000000E-03 0. -1.
</event>
<event>
 8    1  0.1118868E+005  0.1043930E+01  0.7957747E-01            NaN
         13   -1    0    0    0    0  0.00000000000E+00  0.00000000000E+00  0.74505805969E-08  0.10566000000E+00  0.10566000000E+00 0. -1.
     999900   -1    0    0    0    0 -0.00000000000E+00 -0.00000000000E+00 -0.74505805969E-08  0.93827000000E+00  0.93827000000E+00 0. -1.
     999902    2    1    2    0    0 -0.13769336797E-01  0.10607371914E-01  0.14749103557E-01  0.10211342322E+01  0.10208797545E+01 0.  0.
     999903    2    3    3    0    0  0.84260781555E-01 -0.55087930665E-01 -0.77136636114E-01  0.12851518352E+00  0.20773356737E-01 0.  0.
         14    1    1    2    0    0  0.13769336797E-01 -0.10607371914E-01 -0.14749103557E-01  0.22795767819E-01  0.00000000000E+00 0.  1.
     999901    1    3    3    0    0 -0.98030118351E-01  0.65695302579E-01  0.91885739670E-01  0.89261904866E+00  0.88000000000E+00 0.  1.
        -11    1    4    4    0    0  0.34414255532E-01 -0.34660473158E-01 -0.34264399293E-01  0.59665731901E-01  0.51100000000E-03 0.  1.
         11    1    4    4    0    0  0.49846526023E-01 -0.20427457507E-01 -0.42872236820E-01  0.68849451615E-01  0.51100000000E-03 0. -1.
</event>
<event>
 8    1  0.1118868E+005  0.1043930E+01  0.7957747E-01            NaN
         13   -1    0    0    0    0  0.00000000000E+00  0.00000000000E+00  0.74505805969E-08  0.10566000000E+00  0.10566000000E+00 0.  1.
     999900   -1    0    0    0    0 -0.00000000000E+00 -0.00000000000E+00 -0.74505805969E-08  0.93827000000E+00  0.93827000000E+00 0.  1.
     999902    2    1    2    0    0 -0.78341523592E-02 -0.99208620346E-02 -0.19157202311E-01  0.10209779664E+01  0.10207199479E+01 0.  0.
     999903    2    3    3    0    0  0.32393448701E-01  0.11687666610E+00 -0.43869461122E-01  0.13063726263E+00  0.20786393872E-01 0.  0.
         14    1    1    2    0    0  0.78341523592E-02  0.99208620346E-02  0.19157202311E-01  0.22952033615E-01  0.00000000000E+00 0.  1.
     999901    1    3    3    0    0 -0.40227601061E-01 -0.12679752814E+00  0.24712258811E-01  0.89034070376E+00  0.88000000000E+00 0. -1.
        -11    1    4    4    0    0  0.18446248759E-01  0.56262634885E-01 -0.10785327918E-01  0.60185817239E-01  0.51100000000E-03 0. -1.
         11    1    4    4    0    0  0.13947199942E-01  0.60614031217E-01 -0.33084133204E-01  0.70451445389E-01  0.51100000000E-03 0.  1.
</event>
<event>
 8    1  0.1118868E+005  0.1043930E+01  0.7957747E-01            NaN
         13   -1    0    0    0    0  0.00000000000E+00  0.00000000000E+00  0.74505805969E-08  0.10566000000E+00  0.10566000000E+00 0. -1.
     999900   -1    0    0    0    0 -0.00000000000E+00 -0.00000000000E+00 -0.74505805969E-08  0.93827000000E+00  0.93827000000E+00 0.  1.
     999902    2    1    2    0    0  0.15534487611E-01 -0.16458090385E-01 -0.50026843477E-02  0.10207520817E+01  0.10204889007E+01 0.  0.
     999903    2    3    3    0    0  0.67076382760E-01  0.10000079259E+00  0.45063517058E-01  0.13017594074E+00  0.20387627040E-01 0.  0.
         14    1    1    2    0    0 -0.15534487611E-01  0.16458090385E-01  0.50026843477E-02  0.23177918266E-01  0.00000000000E+00 0.  1.
     999901    1    3    3    0    0 -0.51541895149E-01 -0.11645888297E+00 -0.50066201406E-01  0.89057614099E+00  0.88000000000E+00 0. -1.
        -11    1    4    4    0    0  0.25354753817E-01  0.41964997548E-01  0.80697908301E-02  0.49692124179E-01  0.51100000000E-03 0. -1.
         11    1    4    4    0    0  0.41721628943E-01  0.58035795039E-01  0.36993726228E-01  0.80483816564E-01  0.51100000000E-03 0.  1.
</event>
<event>
 8    1  0.1118868E+005  0.1043930E+01  0.7957747E-01            NaN
         13   -1    0    0    0    0  0.00000000000E+00  0.00000000000E+00  0.74505805969E-08  0.10566000000E+00  0.10566000000E+00 0. -1.
     999900   -1    0    0    0    0 -0.00000000000E+00 -0.00000000000E+00 -0.74505805969E-08  0.93827000000E+00  0.93827000000E+00 0. -1.
     999902    2    1    2    0    0  0.15326284601E-01  0.80947116006E-02 -0.15689731388E-01  0.10205507993E+01  0.10202829739E+01 0.  0.
     999903    2    3    3    0    0 -0.15159379803E-01 -0.99561173193E-01  0.77185694029E-01  0.12861750025E+00  0.21037965768E-01 0.  0.
         14    1    1    2    0    0 -0.15326284601E-01 -0.80947116006E-02  0.15689731388E-01  0.23379200727E-01  0.00000000000E+00 0. -1.
     999901    1    3    3    0    0  0.30485664405E-01  0.10765588479E+00 -0.92875425417E-01  0.89193329903E+00  0.88000000000E+00 0. -1.
        -11    1    4    4    0    0  0.27128584021E-02 -0.51974191083E-01  0.38943596490E-01  0.65004161159E-01  0.51100000000E-03 0. -1.
         11    1    4    4    0    0 -0.17872238206E-01 -0.47586982110E-01  0.38242097538E-01  0.63613339088E-01  0.51100000000E-03 0.  1.
</event>
<event>
 8    1  0.1118868E+005  0.1043930E+01  0.7957747E-01            NaN
         13   -1    0    0    0    0  0.00000000000E+00  0.00000000000E+00  0.74505805969E-08  0.10566000000E+00  0.10566000000E+00 0.  1.
     999900   -1    0    0    0    0 -0.00000000000E+00 -0.00000000000E+00 -0.74505805969E-08  0.93827000000E+00  0.93827000000E+00 0. -1.
     999902    2    1    2    0    0 -0.21316319917E-01  0.18024003049E-01 -0.36851516272E-02  0.10157727536E+01  0.10153824188E+01 0.  0.
     999903    2    3    3    0    0  0.10115261345E+00 -0.44788690516E-01  0.51847408612E-01  0.12334463923E+00  0.16966680348E-01 0.  0.
         14    1    1    2    0    0  0.21316319917E-01 -0.18024003049E-01  0.36851516272E-02  0.28157246372E-01  0.00000000000E+00 0. -1.
     999901    1    3    3    0    0 -0.12246893337E+00  0.62812693565E-01 -0.55532560239E-01  0.89242811439E+00  0.88000000000E+00 0. -1.
        -11    1    4    4    0    0  0.44240146757E-01 -0.27170096777E-01  0.29476984165E-01  0.59703923325E-01  0.51100000000E-03 0. -1.
         11    1    4    4    0    0  0.56912466694E-01 -0.17618593739E-01  0.22370424447E-01  0.63640715910E-01  0.51100000000E-03 0.  1.
</event>
<event>
 8    1  0.1118868E+005  0.1043930E+01  0.7957747E-01            NaN
         13   -1    0    0    0    0  0.00000000000E+00  0.00000000000E+00  0.74505805969E-08  0.10566000000E+00  0.10566000000E+00 0.  1.
     999900   -1    0    0    0    0 -0.00000000000E+00 -0.00000000000E+00 -0.74505805969E-08  0.93827000000E+00  0.93827000000E+00 0. -1.
     999902    2    1    2    0    0  0.18681711321E-01  0.10171953813E-01  0.10378897409E-01  0.10202615295E+01  0.10199869569E+01 0.  0.
     999903    2    3    3    0    0 -0.56541870780E-01  0.11341462494E+00 -0.23066004696E-01  0.13040974530E+00  0.20366658928E-01 0.  0.
         14    1    1    2    0    0 -0.18681711321E-01 -0.10171953813E-01 -0.10378897409E-01  0.23668470455E-01  0.00000000000E+00 0. -1.
     999901    1    3    3    0    0  0.75223582101E-01 -0.10324267112E+00  0.33444902105E-01  0.88985178424E+00  0.88000000000E+00 0.  1.
        -11    1    4    4    0    0 -0.25103798688E-01  0.71222614984E-01 -0.17302964320E-01  0.77475901344E-01  0.51100000000E-03 0.  1.
         11    1    4    4    0    0 -0.31438072092E-01  0.42192009954E-01 -0.57630403754E-02  0.52933843958E-01  0.51100000000E-03 0. -1.
</event>
<event>
 8    1  0.1118868E+005  0.1043930E+01  0.7957747E-01            NaN
         13   -1    0    0    0    0  0.00000000000E+00  0.00000000000E+00  0.74505805969E-08  0.10566000000E+00  0.10566000000E+00 0.  1.
     999900   -1    0    0    0    0 -0.00000000000E+00 -0.00000000000E+00 -0.74505805969E-08  0.93827000000E+00  0.93827000000E+00 0. -1.
     999902    2    1    2    0    0 -0.12135079233E-01 -0.12064527908E-01 -0.15160614295E-01  0.10210683026E+01  0.10208123341E+01 0.  0.
     999903    2    3    3    0    0 -0.82984649322E-01  0.98040750339E-01  0.20496893036E-01  0.13066710556E+00  0.12463109643E-01 0.  0.
         14    1    1    2    0    0  0.12135079233E-01  0.12064527908E-01  0.15160614295E-01  0.22861697387E-01  0.00000000000E+00 0.  1.
     999901    1    3    3    0    0  0.70849570088E-01 -0.11010527825E+00 -0.35657507330E-01  0.89040119705E+00  0.88000000000E+00 0. -1.
        -11    1    4    4    0    0 -0.23118103276E-01  0.35803348023E-01  0.87972644051E-02  0.43519873745E-01  0.51100000000E-03 0. -1.
         11    1    4    4    0    0 -0.59866546045E-01  0.62237402316E-01  0.11699628631E-01  0.87147231818E-01  0.51100000000E-03 0.  1.
</event>
<event>
 8    1  0.1118868E+005  0.1043930E+01  0.7957747E-01            NaN
         13   -1    0    0    0    0  0.00000000000E+00  0.00000000000E+00  0.74505805969E-08  0.10566000000E+00  0.10566000000E+00 0.  1.
     999900   -1    0    0    0    0 -0.00000000000E+00 -0.00000000000E+00 -0.74505805969E-08  0.93827000000E+00  0.93827000000E+00 0. -1.
     999902    2    1    2    0    0 -0.11167505602E-01 -0.20011015528E-01 -0.78593496734E-02  0.10197035000E+01  0.10194156682E+01 0.  0.
     999903    2    3    3    0    0 -0.12169230337E+00  0.14037336563E-01  0.41015487865E-01  0.13079193471E+00  0.20449851438E-01 0.  0.
         14    1    1    2    0    0  0.11167505602E-01  0.20011015528E-01  0.78593496734E-02  0.24226499977E-01  0.00000000000E+00 0.  1.
     999901    1    3    3    0    0  0.11052479777E+00 -0.34048352091E-01 -0.48874837538E-01  0.88891156531E+00  0.88000000000E+00 0. -1.
        -11    1    4    4    0    0 -0.77446456065E-01  0.18452519852E-01  0.28944459193E-01  0.84714177590E-01  0.51100000000E-03 0. -1.
         11    1    4    4    0    0 -0.44245847304E-01 -0.44151832884E-02  0.12071028672E-01  0.46077757121E-01  0.51100000000E-03 0.  1.
</event>
<event>
 8    1  0.1118868E+005  0.1043930E+01  0.7957747E-01            NaN
         13   -1    0    0    0    0  0.00000000000E+00  0.00000000000E+00  0.74505805969E-08  0.10566000000E+00  0.10566000000E+00 0. -1.
     999900   -1    0    0    0    0 -0.00000000000E+00 -0.00000000000E+00 -0.74505805969E-08  0.93827000000E+00  0.93827000000E+00 0. -1.
     999902    2    1    2    0    0  0.59286023422E-02  0.21136912217E-01  0.55238615780E-02  0.10212930737E+01  0.10210421696E+01 0.  0.
     999903    2    3    3    0    0  0.91325712239E-01 -0.74453645752E-01 -0.51816508489E-01  0.13016000893E+00  0.19311817408E-01 0.  0.
         14    1    1    2    0    0 -0.59286023422E-02 -0.21136912217E-01 -0.55238615780E-02  0.22636926261E-01  0.00000000000E+00 0.  1.
     999901    1    3    3    0    0 -0.85397109897E-01  0.95590557969E-01  0.57340370067E-01  0.89113306481E+00  0.88000000000E+00 0.  1.
        -11    1    4    4    0    0  0.28893004720E-01 -0.15198386664E-01 -0.20554190291E-01  0.38581505135E-01  0.51100000000E-03 0.  1.
         11    1    4    4    0    0  0.62432707520E-01 -0.59255259088E-01 -0.31262318198E-01  0.91578503798E-01  0.51100000000E-03 0. -1.
</event>
<event>
 8    1  0.1118868E+005  0.1043930E+01  0.7957747E-01            NaN
         13   -1    0    0    0    0  0.00000000000E+00  0.00000000000E+00  0.74505805969E-08  0.10566000000E+00  0.10566000000E+00 0. -1.
     999900   -1    0    0    0    0 -0.00000000000E+00 -0.00000000000E+00 -0.74505805969E-08  0.93827000000E+00  0.93827000000E+00 0. -1.
     999902    2    1    2    0    0 -0.19545947220E-01 -0.85610945197E-03  0.65917292510E-03  0.10243542118E+01  0.10241671444E+01 0.  0.
     999903    2    3    3    0    0  0.86125643271E-01  0.98294786390E-01 -0.54397551317E-02  0.13248281851E+00  0.21038412580E-01 0.  0.
         14    1    1    2    0    0  0.19545947220E-01  0.85610945197E-03 -0.65917292510E-03  0.19575788236E-01  0.00000000000E+00 0.  1.
     999901    1    3    3    0    0 -0.10567159049E+00 -0.99150895842E-01  0.60989280568E-02  0.89187139325E+00  0.88000000000E+00 0. -1.
        -11    1    4    4    0    0  0.31297707868E-01  0.41477916922E-01 -0.11738359467E-01  0.53273016753E-01  0.51100000000E-03 0.  1.
         11    1    4    4    0    0  0.54827935402E-01  0.56816869468E-01  0.62986043348E-02  0.79209801756E-01  0.51100000000E-03 0. -1.
</event>
<event>
 8    1  0.1118868E+005  0.1043930E+01  0.7957747E-01            NaN
         13   -1    0    0    0    0  0.00000000000E+00  0.00000000000E+00  0.74505805969E-08  0.10566000000E+00  0.10566000000E+00 0. -1.
     999900   -1    0    0    0    0 -0.00000000000E+00 -0.00000000000E+00 -0.74505805969E-08  0.93827000000E+00  0.93827000000E+00 0. -1.
     999902    2    1    2    0    0 -0.10239250015E-01 -0.13083087777E-01  0.15755694524E-01  0.10210334645E+01  0.10207767064E+01 0.  0.
     999903    2    3    3    0    0 -0.45962480100E-01  0.12024650852E+00 -0.92884315696E-03  0.13011747286E+00  0.18918816178E-01 0.  0.
         14    1    1    2    0    0  0.10239250015E-01  0.13083087777E-01 -0.15755694524E-01  0.22896535471E-01  0.00000000000E+00 0. -1.
     999901    1    3    3    0    0  0.35723230085E-01 -0.13332959630E+00  0.16684537681E-01  0.89091599167E+00  0.88000000000E+00 0. -1.
        -11    1    4    4    0    0 -0.12520880410E-01  0.58876885436E-01 -0.17487755519E-02  0.60221087850E-01  0.51100000000E-03 0. -1.
         11    1    4    4    0    0 -0.33441599690E-01  0.61369623083E-01  0.81993239492E-03  0.69896385009E-01  0.51100000000E-03 0.  1.
</event>
<event>
 8    1  0.1118868E+005  0.1043930E+01  0.7957747E-01            NaN
         13   -1    0    0    0    0  0.00000000000E+00  0.00000000000E+00  0.74505805969E-08  0.10566000000E+00  0.10566000000E+00 0.  1.
     999900   -1    0    0    0    0 -0.00000000000E+00 -0.00000000000E+00 -0.74505805969E-08  0.93827000000E+00  0.93827000000E+00 0. -1.
     999902    2    1    2    0    0  0.93315693367E-02  0.21174665143E-01 -0.70188565089E-02  0.10197492437E+01  0.10194625108E+01 0.  0.
     999903    2    3    3    0    0  0.54294568103E-01 -0.92139061778E-02 -0.11736971473E+00  0.13119848629E+00  0.20114588662E-01 0.  0.
         14    1    1    2    0    0 -0.93315693367E-02 -0.21174665143E-01  0.70188565089E-02  0.24180756335E-01  0.00000000000E+00 0.  1.
     999901    1    3    3    0    0 -0.44962998766E-01  0.30388571321E-01  0.11035085822E+00  0.88855075738E+00  0.88000000000E+00 0.  1.
        -11    1    4    4    0    0  0.17984456014E-01 -0.12882866021E-01 -0.43749399369E-01  0.49027338916E-01  0.51100000000E-03 0. -1.
         11    1    4    4    0    0  0.36310112089E-01  0.36689598437E-02 -0.73620315357E-01  0.82171147372E-01  0.51100000000E-03 0.  1.
</event>
<event>
 7    1  0.1118868E+005  0.1043930E+01  0.7957747E-01            NaN
         13   -1    0    0    0    0  0.00000000000E+00  0.00000000000E+00  0.74505805969E-08  0.10566000000E+00  0.10566000000E+00 0.  1.
     999900   -1    0    0    0    0 -0.00000000000E+00 -0.00000000000E+00 -0.74505805969E-08  0.93827000000E+00  0.93827000000E+00 0. -1.
     999903    2    1    2    0    0 -0.81579861879E-01  0.75818024456E-01  0.11833527173E-01  0.11410886183E+00  0.21843838627E-01 0.  0.
         14    1    1    2    0    0 -0.38178309720E-01 -0.61561387290E-02 -0.46748945857E-02  0.38952997530E-01  0.00000000000E+00 0.  1.
     999901    1    1    2    0    0  0.11975817160E+00 -0.69661885727E-01 -0.71586325875E-02  0.89086814064E+00  0.88000000000E+00 0. -1.
        -11    1    3    3    0    0 -0.73758406342E-01  0.68523077928E-01  0.38474124355E-02  0.10075107155E+00  0.51100000000E-03 0. -1.
         11    1    3    3    0    0 -0.78214555370E-02  0.72949465285E-02  0.79861147377E-02  0.13357790280E-01  0.51100000000E-03 0.  1.
</event>
<event>
 8    1  0.1118868E+005  0.1043930E+01  0.7957747E-01            NaN
         13   -1    0    0    0    0  0.00000000000E+00  0.00000000000E+00  0.74505805969E-08  0.10566000000E+00  0.10566000000E+00 0.  1.
     999900   -1    0    0    0    0 -0.00000000000E+00 -0.00000000000E+00 -0.74505805969E-08  0.93827000000E+00  0.93827000000E+00 0.  1.
     999902    2    1    2    0    0 -0.17629406210E-01  0.23612233225E-02 -0.70410269988E-02  0.10248002483E+01  0.10246216870E+01 0.  0.
     999903    2    3    3    0    0 -0.31147795485E-01  0.12295994897E+00  0.42554215085E-01  0.13508878523E+00  0.18675772029E-01 0.  0.
         14    1    1    2    0    0  0.17629406210E-01 -0.23612233225E-02  0.70410269988E-02  0.19129751700E-01  0.00000000000E+00 0. -1.
     999901    1    3    3    0    0  0.13518389274E-01 -0.12059872564E+00 -0.49595242084E-01  0.88971146307E+00  0.88000000000E+00 0.  1.
        -11    1    4    4    0    0 -0.13786207970E-01  0.45462182577E-01  0.25260993871E-01  0.53807513483E-01  0.51100000000E-03 0. -1.
         11    1    4    4    0    0 -0.17361587514E-01  0.77497766389E-01  0.17293221214E-01  0.81281271750E-01  0.51100000000E-03 0.  1.
</event>
<event>
 8    1  0.1118868E+005  0.1043930E+01  0.7957747E-01            NaN
         13   -1    0    0    0    0  0.00000000000E+00  0.00000000000E+00  0.74505805969E-08  0.10566000000E+00  0.10566000000E+00 0. -1.
     999900   -1    0    0    0    0 -0.00000000000E+00 -0.00000000000E+00 -0.74505805969E-08  0.93827000000E+00  0.93827000000E+00 0. -1.
     999902    2    1    2    0    0 -0.75698138803E-02  0.11293130891E-01  0.19020016245E-01  0.10205505666E+01  0.10202827359E+01 0.  0.
     999903    2    3    3    0    0 -0.61818238098E-02  0.37720584099E-01  0.12653149318E+00  0.13361254484E+00  0.19520142435E-01 0.  0.
         14    1    1    2    0    0  0.75698138803E-02 -0.11293130891E-01 -0.19020016245E-01  0.23379433386E-01  0.00000000000E+00 0.  1.
     999901    1    3    3    0    0 -0.13879900706E-02 -0.26427453208E-01 -0.10751147694E+00  0.88693802178E+00  0.88000000000E+00 0. -1.
        -11    1    4    4    0    0  0.10282352829E-02  0.25268581339E-01  0.53538264673E-01  0.59212881840E-01  0.51100000000E-03 0. -1.
         11    1    4    4    0    0 -0.72100590927E-02  0.12452002760E-01  0.72993228509E-01  0.74399662997E-01  0.51100000000E-03 0.  1.
</event>
<event>
 8    1  0.1118868E+005  0.1043930E+01  0.7957747E-01            NaN
         13   -1    0    0    0    0  0.00000000000E+00  0.00000000000E+00  0.74505805969E-08  0.10566000000E+00  0.10566000000E+00 0. -1.
     999900   -1    0    0    0    0 -0.00000000000E+00 -0.00000000000E+00 -0.74505805969E-08  0.93827000000E+00  0.93827000000E+00 0.  1.
     999902    2    1    2    0    0  0.16972044080E-01  0.14221327171E-01 -0.73444838644E-02  0.10206010937E+01  0.10203344327E+01 0.  0.
     999903    2    3    3    0    0 -0.69036812586E-01 -0.94542956156E-01  0.47810532830E-01  0.12803778017E+00  0.20084174164E-01 0.  0.
         14    1    1    2    0    0 -0.16972044080E-01 -0.14221327171E-01  0.73444838644E-02  0.23328906318E-01  0.00000000000E+00 0.  1.
     999901    1    3    3    0    0  0.86008856666E-01  0.10876428333E+00 -0.55155016694E-01  0.89256331351E+00  0.88000000000E+00 0.  1.
        -11    1    4    4    0    0 -0.36008817131E-01 -0.45764922924E-01  0.13198208125E-01  0.59711949391E-01  0.51100000000E-03 0. -1.
         11    1    4    4    0    0 -0.33027995455E-01 -0.48778033232E-01  0.34612324705E-01  0.68325830783E-01  0.51100000000E-03 0.  1.
</event>
<event>
 8    1  0.1118868E+005  0.1043930E+01  0.7957747E-01            NaN
         13   -1    0    0    0    0  0.00000000000E+00  0.00000000000E+00  0.74505805969E-08  0.10566000000E+00  0.10566000000E+00 0. -1.
     999900   -1    0    0    0    0 -0.00000000000E+00 -0.00000000000E+00 -0.74505805969E-08  0.93827000000E+00  0.93827000000E+00 0.  1.
     999902    2    1    2    0    0 -0.11437164892E-01 -0.17577496041E-01 -0.10425702981E-01  0.10205105126E+01  0.10202417527E+01 0.  0.
     999903    2    3    3    0    0 -0.98343051265E-01  0.75069089751E-01  0.34903217419E-01  0.13023486204E+00  0.20884461576E-01 0.  0.
         14    1    1    2    0    0  0.11437164892E-01  0.17577496041E-01  0.10425702981E-01  0.23419487409E-01  0.00000000000E+00 0. -1.
     999901    1    3    3    0    0  0.86905886373E-01 -0.92646585793E-01 -0.45328920400E-01  0.89027565055E+00  0.88000000000E+00 0. -1.
        -11    1    4    4    0    0 -0.54784519109E-01  0.28814468888E-01  0.15792457236E-01  0.63884896321E-01  0.51100000000E-03 0. -1.
         11    1    4    4    0    0 -0.43558532155E-01  0.46254620863E-01  0.19110760183E-01  0.66349965716E-01  0.51100000000E-03 0.  1.
</event>
<event>
 8    1  0.1118868E+005  0.1043930E+01  0.7957747E-01            NaN
         13   -1    0    0    0    0  0.00000000000E+00  0.00000000000E+00  0.74505805969E-08  0.10566000000E+00  0.10566000000E+00 0.  1.
     999900   -1    0    0    0    0 -0.00000000000E+00 -0.00000000000E+00 -0.74505805969E-08  0.93827000000E+00  0.93827000000E+00 0.  1.
     999902    2    1    2    0    0  0.80529148722E-02 -0.69394459806E-02  0.22161626821E-01  0.10193506784E+01  0.10190542981E+01 0.  0.
     999903    2    3    3    0    0 -0.77644542482E-02 -0.11564405282E+00  0.59707067530E-01  0.13172657954E+00  0.18791597630E-01 0.  0.
         14    1    1    2    0    0 -0.80529148722E-02  0.69394459806E-02 -0.22161626821E-01  0.24579321630E-01  0.00000000000E+00 0. -1.
     999901    1    3    3    0    0  0.15817369120E-01  0.10870460684E+00 -0.37545440709E-01  0.88762409883E+00  0.88000000000E+00 0. -1.
        -11    1    4    4    0    0 -0.42301563861E-02 -0.97946032999E-01  0.42737982860E-01  0.10694912764E+00  0.51100000000E-03 0.  1.
         11    1    4    4    0    0 -0.35342978621E-02 -0.17698019817E-01  0.16969084669E-01  0.24777451894E-01  0.51100000000E-03 0. -1.
</event>
<event>
 8    1  0.1118868E+005  0.1043930E+01  0.7957747E-01            NaN
         13   -1    0    0    0    0  0.00000000000E+00  0.00000000000E+00  0.74505805969E-08  0.10566000000E+00  0.10566000000E+00 0. -1.
     999900   -1    0    0    0    0 -0.00000000000E+00 -0.00000000000E+00 -0.74505805969E-08  0.93827000000E+00  0.93827000000E+00 0.  1.
     999902    2    1    2    0    0 -0.29705330914E-02 -0.82398717843E-02 -0.21031221375E-01  0.10211477300E+01  0.10208935570E+01 0.  0.
     999903    2    3    3    0    0 -0.97110558817E-01 -0.56106945812E-01  0.63949198110E-01  0.13076844401E+00  0.20795095772E-01 0.  0.
         14    1    1    2    0    0  0.29705330914E-02  0.82398717843E-02  0.21031221375E-01  0.22782270001E-01  0.00000000000E+00 0. -1.
     999901    1    3    3    0    0  0.94140025726E-01  0.47867074027E-01 -0.84980419485E-01  0.89037928599E+00  0.88000000000E+00 0.  1.
        -11    1    4    4    0    0 -0.24673458417E-01 -0.14808924143E-01  0.27357702515E-01  0.39708799937E-01  0.51100000000E-03 0. -1.
         11    1    4    4    0    0 -0.72437100400E-01 -0.41298021669E-01  0.36591495596E-01  0.91059644075E-01  0.51100000000E-03 0.  1.
</event>
<event>
 8    1  0.1118868E+005  0.1043930E+01  0.7957747E-01            NaN
         13   -1    0    0    0    0  0.00000000000E+00  0.00000000000E+00  0.74505805969E-08  0.10566000000E+00  0.10566000000E+00 0.  1.
     999900   -1    0    0    0    0 -0.00000000000E+00 -0.00000000000E+00 -0.74505805969E-08  0.93827000000E+00  0.93827000000E+00 0. -1.
     999902    2    1    2    0    0 -0.22586260607E-01  0.91467740895E-03 -0.44019308493E-02  0.10209006101E+01  0.10206408296E+01 0.  0.
     999903    2    3    3    0    0 -0.28826304080E-01 -0.10504069360E+00 -0.71895463820E-01  0.13195693599E+00  0.19472342415E-01 0.  0.
         14    1    1    2    0    0  0.22586260607E-01 -0.91467740895E-03  0.44019308493E-02  0.23029389878E-01  0.00000000000E+00 0. -1.
     999901    1    3    3    0    0  0.62400434735E-02  0.10595537101E+00  0.67493532970E-01  0.88894367413E+00  0.88000000000E+00 0.  1.
        -11    1    4    4    0    0 -0.19752517134E-01 -0.36953568061E-01 -0.29279575229E-01  0.51120277505E-01  0.51100000000E-03 0. -1.
         11    1    4    4    0    0 -0.90737869466E-02 -0.68087125538E-01 -0.42615888591E-01  0.80836658484E-01  0.51100000000E-03 0.  1.
</event>
<event>
 8    1  0.1118868E+005  0.1043930E+01  0.7957747E-01            NaN
         13   -1    0    0    0    0  0.00000000000E+00  0.00000000000E+00  0.74505805969E-08  0.10566000000E+00  0.10566000000E+00 0.  1.
     999900   -1    0    0    0    0 -0.00000000000E+00 -0.00000000000E+00 -0.74505805969E-08  0.93827000000E+00  0.93827000000E+00 0.  1.
     999902    2    1    2    0    0  0.21483877704E-01  0.10451098348E-01 -0.67319043729E-03  0.10200294635E+01  0.10197494157E+01 0.  0.
     999903    2    3    3    0    0  0.80063096467E-01  0.10103247638E+00 -0.26462184134E-01  0.13306746711E+00  0.19724170810E-01 0.  0.
         14    1    1    2    0    0 -0.21483877704E-01 -0.10451098348E-01  0.67319043729E-03  0.23900536463E-01  0.00000000000E+00 0.  1.
     999901    1    3    3    0    0 -0.58579218763E-01 -0.90581378029E-01  0.25788993697E-01  0.88696199643E+00  0.88000000000E+00 0. -1.
        -11    1    4    4    0    0  0.41396788810E-01  0.58459912791E-01 -0.23829241462E-01  0.75494035506E-01  0.51100000000E-03 0. -1.
         11    1    4    4    0    0  0.38666307657E-01  0.42572563586E-01 -0.26329426723E-02  0.57573431600E-01  0.51100000000E-03 0.  1.
</event>
<event>
 8    1  0.1118868E+005  0.1043930E+01  0.7957747E-01            NaN
         13   -1    0    0    0    0  0.00000000000E+00  0.00000000000E+00  0.74505805969E-08  0.10566000000E+00  0.10566000000E+00 0.  1.
     999900   -1    0    0    0    0 -0.00000000000E+00 -0.00000000000E+00 -0.74505805969E-08  0.93827000000E+00  0.93827000000E+00 0.  1.
     999902    2    1    2    0    0  0.17034433564E-01  0.94919337127E-02 -0.13453004201E-01  0.10202392412E+01  0.10199641450E+01 0.  0.
     999903    2    3    3    0    0  0.60966051142E-01 -0.18537993936E-01 -0.11408568780E+00  0.13297231352E+00  0.24608441471E-01 0.  0.
         14    1    1    2    0    0 -0.17034433564E-01 -0.94919337127E-02  0.13453004201E-01  0.23690758841E-01  0.00000000000E+00 0. -1.
     999901    1    3    3    0    0 -0.43931617578E-01  0.28029927648E-01  0.10063268360E+00  0.88726692764E+00  0.88000000000E+00 0. -1.
        -11    1    4    4    0    0  0.14103697783E-01 -0.88144844946E-02 -0.12958058207E-01  0.21089851150E-01  0.51100000000E-03 0. -1.
         11    1    4    4    0    0  0.46862353359E-01 -0.97235094411E-02 -0.10112762959E+00  0.11188246237E+00  0.51100000000E-03 0.  1.
</event>
<event>
 8    1  0.1300132E+005  0.1043930E+01  0.7957747E-01            NaN
         13   -1    0    0    0    0  0.00000000000E+00  0.00000000000E+00  0.74505805969E-08  0.10566000000E+00  0.10566000000E+00 0. -1.
     999900   -1    0    0    0    0 -0.00000000000E+00 -0.00000000000E+00 -0.74505805969E-08  0.93827000000E+00  0.93827000000E+00 0. -1.
     999902    2    1    2    0    0  0.10690531033E-01  0.11040423480E-01 -0.18171365725E-01  0.10201313249E+01  0.10198536871E+01 0.  0.
     999903    2    3    3    0    0  0.62092502692E-01  0.24207321200E-01  0.10899954791E+00  0.12940803949E+00  0.20592861659E-01 0.  0.
         14    1    1    2    0    0 -0.10690531033E-01 -0.11040423480E-01  0.18171365725E-01  0.23798675104E-01  0.00000000000E+00 0. -1.
     999901    1    3    3    0    0 -0.51401971659E-01 -0.13166897721E-01 -0.12717091363E+00  0.89072328540E+00  0.88000000000E+00 0. -1.
        -11    1    4    4    0    0  0.33075007716E-01  0.21744009287E-02  0.56381440725E-01  0.65404985544E-01  0.51100000000E-03 0. -1.
         11    1    4    4    0    0  0.29017494976E-01  0.22032920272E-01  0.52618107181E-01  0.64003053948E-01  0.51100000000E-03 0.  1.
</event>
<event>
 8    1  0.1136418E+005  0.1043930E+01  0.7957747E-01            NaN
         13   -1    0    0    0    0  0.00000000000E+00  0.00000000000E+00  0.74505805969E-08  0.10566000000E+00  0.10566000000E+00 0. -1.
     999900   -1    0    0    0    0 -0.00000000000E+00 -0.00000000000E+00 -0.74505805969E-08  0.93827000000E+00  0.93827000000E+00 0.  1.
     999902    2    1    2    0    0  0.18009940650E-02  0.88363059132E-02  0.21383962926E-01  0.10207222911E+01  0.10204584253E+01 0.  0.
     999903    2    3    3    0    0  0.57198153505E-01  0.59113021960E-02 -0.11371632747E+00  0.12868558256E+00  0.17944463467E-01 0.  0.
         14    1    1    2    0    0 -0.18009940650E-02 -0.88363059132E-02 -0.21383962926E-01  0.23207708897E-01  0.00000000000E+00 0.  1.
     999901    1    3    3    0    0 -0.55397159440E-01  0.29250037172E-02  0.13510029039E+00  0.89203670854E+00  0.88000000000E+00 0. -1.
        -11    1    4    4    0    0  0.26625059976E-01 -0.56022980781E-02 -0.58647293022E-01  0.64653272634E-01  0.51100000000E-03 0. -1.
         11    1    4    4    0    0  0.30573093529E-01  0.11513600274E-01 -0.55069034444E-01  0.64032309928E-01  0.51100000000E-03 0.  1.
</event>
<event>
 8    1  0.1118868E+005  0.1043930E+01  0.7957747E-01            NaN
         13   -1    0    0    0    0  0.00000000000E+00  0.00000000000E+00  0.74505805969E-08  0.10566000000E+00  0.10566000000E+00 0. -1.
     999900   -1    0    0    0    0 -0.00000000000E+00 -0.00000000000E+00 -0.74505805969E-08  0.93827000000E+00  0.93827000000E+00 0. -1.
     999902    2    1    2    0    0 -0.14715496636E-01  0.33066351909E-02  0.19563258784E-01  0.10192277578E+01  0.10189283691E+01 0.  0.
     999903    2    3    3    0    0 -0.62713870229E-01  0.15662739481E-02 -0.11106683639E+00  0.12828943526E+00  0.13669466799E-01 0.  0.
         14    1    1    2    0    0  0.14715496636E-01 -0.33066351909E-02 -0.19563258784E-01  0.24702242242E-01  0.00000000000E+00 0.  1.
     999901    1    3    3    0    0  0.47998373593E-01  0.17403612429E-02  0.13063009517E+00  0.89093832249E+00  0.88000000000E+00 0.  1.
        -11    1    4    4    0    0 -0.29473676873E-02  0.31658940703E-02 -0.62347725246E-02  0.76054829552E-02  0.51100000000E-03 0.  1.
         11    1    4    4    0    0 -0.59766502542E-01 -0.15996201222E-02 -0.10483206386E+00  0.12068395231E+00  0.51100000000E-03 0. -1.
</event>
<event>
 8    1  0.1118868E+005  0.1043930E+01  0.7957747E-01            NaN
         13   -1    0    0    0    0  0.00000000000E+00  0.00000000000E+00  0.74505805969E-08  0.10566000000E+00  0.10566000000E+00 0.  1.
     999900   -1    0    0    0    0 -0.00000000000E+00 -0.00000000000E+00 -0.74505805969E-08  0.93827000000E+00  0.93827000000E+00 0.  1.
     999902    2    1    2    0    0 -0.21830117597E-01  0.50832998863E-02  0.61192335308E-02  0.10206955645E+01  0.10204310837E+01 0.  0.
     999903    2    3    3    0    0 -0.10509398652E+00 -0.78376501755E-01 -0.50352828946E-02  0.13276379149E+00  0.20328507746E-01 0.  0.
         14    1    1    2    0    0  0.21830117597E-01 -0.50832998863E-02 -0.61192335308E-02  0.23234435458E-01  0.00000000000E+00 0. -1.
     999901    1    3    3    0    0  0.83263868923E-01  0.83459801641E-01  0.11154516425E-01  0.88793177305E+00  0.88000000000E+00 0. -1.
        -11    1    4    4    0    0 -0.27304360121E-01 -0.11469866182E-01 -0.56597338964E-02  0.30155921817E-01  0.51100000000E-03 0.  1.
         11    1    4    4    0    0 -0.77789626399E-01 -0.66906635573E-01  0.62445100178E-03  0.10260786967E+00  0.51100000000E-03 0. -1.
</event>
<event>
 8    1  0.1118868E+005  0.1043930E+01  0.7957747E-01            NaN
         13   -1    0    0    0    0  0.00000000000E+00  0.00000000000E+00  0.74505805969E-08  0.10566000000E+00  0.10566000000E+00 0. -1.
     999900   -1    0    0    0    0 -0.00000000000E+00 -0.00000000000E+00 -0.74505805969E-08  0.93827000000E+00  0.93827000000E+00 0. -1.
     999902    2    1    2    0    0 -0.88864999221E-02  0.13821282982E-01 -0.16602720210E-01  0.10205708891E+01  0.10203035292E+01 0.  0.
     999903    2    3    3    0    0 -0.12000116042E+00 -0.44880220529E-01  0.13386591432E-01  0.13113753402E+00  0.24562966074E-01 0.  0.
         14    1    1    2    0    0  0.88864999221E-02 -0.13821282982E-01  0.16602720210E-01  0.23359110910E-01  0.00000000000E+00 0. -1.
     999901    1    3    3    0    0  0.11111466050E+00  0.58701503511E-01 -0.29989311641E-01  0.88943335507E+00  0.88000000000E+00 0.  1.
        -11    1    4    4    0    0 -0.61018118550E-01 -0.98037980058E-02  0.75740086509E-02  0.62265174655E-01  0.51100000000E-03 0. -1.
         11    1    4    4    0    0 -0.58983041872E-01 -0.35076422523E-01  0.58125827807E-02  0.68872359369E-01  0.51100000000E-03 0.  1.
</event>
<event>
 8    1  0.1118868E+005  0.1043930E+01  0.7957747E-01            NaN
         13   -1    0    0    0    0  0.00000000000E+00  0.00000000000E+00  0.74505805969E-08  0.10566000000E+00  0.10566000000E+00 0. -1.
     999900   -1    0    0    0    0 -0.00000000000E+00 -0.00000000000E+00 -0.74505805969E-08  0.93827000000E+00  0.93827000000E+00 0.  1.
     999902    2    1    2    0    0 -0.75786229434E-02 -0.12251468468E-01  0.18110606412E-01  0.10207885206E+01  0.10205261759E+01 0.  0.
     999903    2    3    3    0    0  0.61050731005E-01 -0.11160588712E+00 -0.26746447960E-01  0.13141039848E+00  0.19241999782E-01 0.  0.
         14    1    1    2    0    0  0.75786229434E-02  0.12251468468E-01 -0.18110606412E-01  0.23141479424E-01  0.00000000000E+00 0.  1.
     999901    1    3    3    0    0 -0.68629353948E-01  0.99354418650E-01  0.44857054372E-01  0.88937812209E+00  0.88000000000E+00 0. -1.
        -11    1    4    4    0    0  0.22750710130E-01 -0.24572717653E-01 -0.49500252007E-02  0.33855237922E-01  0.51100000000E-03 0.  1.
         11    1    4    4    0    0  0.38300020875E-01 -0.87033169465E-01 -0.21796422760E-01  0.97555160562E-01  0.51100000000E-03 0. -1.
</event>
<event>
 8    1  0.1118868E+005  0.1043930E+01  0.7957747E-01            NaN
         13   -1    0    0    0    0  0.00000000000E+00  0.00000000000E+00  0.74505805969E-08  0.10566000000E+00  0.10566000000E+00 0.  1.
     999900   -1    0    0    0    0 -0.00000000000E+00 -0.00000000000E+00 -0.74505805969E-08  0.93827000000E+00  0.93827000000E+00 0.  1.
     999902    2    1    2    0    0  0.14652659428E-01 -0.17756946425E-01 -0.71701060011E-03  0.10208969004E+01  0.10206370351E+01 0.  0.
     999903    2    3    3    0    0  0.10009238779E+00 -0.61102353164E-01 -0.60788001025E-01  0.13366113950E+00  0.20448361511E-01 0.  0.
         14    1    1    2    0    0 -0.14652659428E-01  0.17756946425E-01  0.71701060011E-03  0.23033099637E-01  0.00000000000E+00 0. -1.
     999901    1    3    3    0    0 -0.85439728358E-01  0.43345406738E-01  0.60070990424E-01  0.88723576087E+00  0.88000000000E+00 0. -1.
        -11    1    4    4    0    0  0.94402736440E-01 -0.50754394653E-01 -0.55712358658E-01  0.12079740582E+00  0.51100000000E-03 0.  1.
         11    1    4    4    0    0  0.56896513470E-02 -0.10347958511E-01 -0.50756423665E-02  0.12863733681E-01  0.51100000000E-03 0. -1.
</event>
<event>
 8    1  0.1118868E+005  0.1043930E+01  0.7957747E-01            NaN
         13   -1    0    0    0    0  0.00000000000E+00  0.00000000000E+00  0.74505805969E-08  0.10566000000E+00  0.10566000000E+00 0. -1.
     999900   -1    0    0    0    0 -0.00000000000E+00 -0.00000000000E+00 -0.74505805969E-08  0.93827000000E+00  0.93827000000E+00 0. -1.
     999902    2    1    2    0    0  0.76496027904E-02 -0.89867030350E-02 -0.19886045159E-01  0.10208057260E+01  0.10205437758E+01 0.  0.
     999903    2    3    3    0    0  0.77449120331E-02  0.12117014999E+00  0.39746792543E-01  0.12923582367E+00  0.19491066922E-01 0.  0.
         14    1    1    2    0    0 -0.76496027904E-02  0.89867030350E-02  0.19886045159E-01  0.23124273964E-01  0.00000000000E+00 0. -1.
     999901    1    3    3    0    0 -0.95309242719E-04 -0.13015685303E+00 -0.59632837702E-01  0.89156990237E+00  0.88000000000E+00 0.  1.
        -11    1    4    4    0    0  0.79848278211E-02  0.81807296073E-01  0.17578254873E-01  0.84056215305E-01  0.51100000000E-03 0. -1.
         11    1    4    4    0    0 -0.23991578799E-03  0.39362853922E-01  0.22168537669E-01  0.45179608363E-01  0.51100000000E-03 0.  1.
</event>
<event>
 8    1  0.1118868E+005  0.1043930E+01  0.7957747E-01            NaN
         13   -1    0    0    0    0  0.00000000000E+00  0.00000000000E+00  0.74505805969E-08  0.10566000000E+00  0.10566000000E+00 0.  1.
     999900   -1    0    0    0    0 -0.00000000000E+00 -0.00000000000E+00 -0.74505805969E-08  0.93827000000E+00  0.93827000000E+00 0. -1.
     999902    2    1    2    0    0 -0.23941605079E-02  0.22468053891E-01 -0.41378622465E-02  0.10209589888E+01  0.10207005386E+01 0.  0.
     999903    2    3    3    0    0  0.10815485187E+00  0.63357951994E-01 -0.37908950673E-01  0.13245825483E+00  0.19909763094E-01 0.  0.
         14    1    1    2    0    0  0.23941605079E-02 -0.22468053891E-01  0.41378622465E-02  0.22971011170E-01  0.00000000000E+00 0.  1.
     999901    1    3    3    0    0 -0.11054901238E+00 -0.40889898103E-01  0.33771088427E-01  0.88850073400E+00  0.88000000000E+00 0. -1.
        -11    1    4    4    0    0  0.30255222504E-01  0.22656679197E-01 -0.19972750212E-01  0.42753660346E-01  0.51100000000E-03 0.  1.
         11    1    4    4    0    0  0.77899629371E-01  0.40701272797E-01 -0.17936200462E-01  0.89704594483E-01  0.51100000000E-03 0. -1.
</event>
<event>
 8    1  0.1118868E+005  0.1043930E+01  0.7957747E-01            NaN
         13   -1    0    0    0    0  0.00000000000E+00  0.00000000000E+00  0.74505805969E-08  0.10566000000E+00  0.10566000000E+00 0. -1.
     999900   -1    0    0    0    0 -0.00000000000E+00 -0.00000000000E+00 -0.74505805969E-08  0.93827000000E+00  0.93827000000E+00 0. -1.
     999902    2    1    2    0    0 -0.25552895601E-01  0.46827717569E-02 -0.22451949905E-02  0.10178547296E+01  0.10175206784E+01 0.  0.
     999903    2    3    3    0    0 -0.28767291344E-01 -0.72983882357E-01 -0.99967236062E-01  0.12903976642E+00  0.22441232045E-01 0.  0.
         14    1    1    2    0    0  0.25552895601E-01 -0.46827717569E-02  0.22451949905E-02  0.26075270381E-01  0.00000000000E+00 0. -1.
     999901    1    3    3    0    0  0.32143957432E-02  0.77666654114E-01  0.97722041072E-01  0.88881496320E+00  0.88000000000E+00 0.  1.
        -11    1    4    4    0    0 -0.17567801013E-01 -0.16841093299E-01 -0.29348872250E-01  0.38129614204E-01  0.51100000000E-03 0. -1.
         11    1    4    4    0    0 -0.11199490331E-01 -0.56142789058E-01 -0.70618363812E-01  0.90910152213E-01  0.51100000000E-03 0.  1.
</event>
<event>
 8    1  0.1118868E+005  0.1043930E+01  0.7957747E-01            NaN
         13   -1    0    0    0    0  0.00000000000E+00  0.00000000000E+00  0.74505805969E-08  0.10566000000E+00  0.10566000000E+00 0.  1.
     999900   -1    0    0    0    0 -0.00000000000E+00 -0.00000000000E+00 -0.74505805969E-08  0.93827000000E+00  0.93827000000E+00 0. -1.
     999902    2    1    2    0    0 -0.21911920268E-01  0.68635292501E-02  0.66195008595E-02  0.10200331786E+01  0.10197532188E+01 0.  0.
     999903    2    3    3    0    0 -0.16238874159E-02  0.12779070238E+00  0.22914992432E-01  0.13138221866E+00  0.20077098281E-01 0.  0.
         14    1    1    2    0    0  0.21911920268E-01 -0.68635292501E-02 -0.66195008595E-02  0.23896821446E-01  0.00000000000E+00 0. -1.
     999901    1    3    3    0    0 -0.20288032853E-01 -0.12092717313E+00 -0.16295491572E-01  0.88865095990E+00  0.88000000000E+00 0.  1.
        -11    1    4    4    0    0  0.12116961553E-02  0.99364406507E-01  0.25792320123E-01  0.10266576054E+00  0.51100000000E-03 0.  1.
         11    1    4    4    0    0 -0.28355835711E-02  0.28426295876E-01 -0.28773276918E-02  0.28716458122E-01  0.51100000000E-03 0. -1.
</event>
<event>
 8    1  0.1118868E+005  0.1043930E+01  0.7957747E-01            NaN
         13   -1    0    0    0    0  0.00000000000E+00  0.00000000000E+00  0.74505805969E-08  0.10566000000E+00  0.10566000000E+00 0.  1.
     999900   -1    0    0    0    0 -0.00000000000E+00 -0.00000000000E+00 -0.74505805969E-08  0.93827000000E+00  0.93827000000E+00 0.  1.
     999902    2    1    2    0    0  0.17216160405E-01 -0.14104357331E-01 -0.48756551881E-02  0.10211462100E+01  0.10208920026E+01 0.  0.
     999903    2    3    3    0    0 -0.33440055949E-01  0.79697209752E-01 -0.94984140598E-01  0.13014434387E+00  0.21111150901E-01 0.  0.
         14    1    1    2    0    0 -0.17216160405E-01  0.14104357331E-01  0.48756551881E-02  0.22783790034E-01  0.00000000000E+00 0. -1.
     999901    1    3    3    0    0  0.50656216354E-01 -0.93801567083E-01  0.90108485410E-01  0.89100186610E+00  0.88000000000E+00 0. -1.
        -11    1    4    4    0    0 -0.23139621991E-01  0.29446481818E-01 -0.44610900110E-01  0.58248870607E-01  0.51100000000E-03 0. -1.
         11    1    4    4    0    0 -0.10300433958E-01  0.50250727934E-01 -0.50373240487E-01  0.71895473264E-01  0.51100000000E-03 0.  1.
</event>
<event>
 8    1  0.1118868E+005  0.1043930E+01  0.7957747E-01            NaN
         13   -1    0    0    0    0  0.00000000000E+00  0.00000000000E+00  0.74505805969E-08  0.10566000000E+00  0.10566000000E+00 0.  1.
     999900   -1    0    0    0    0 -0.00000000000E+00 -0.00000000000E+00 -0.74505805969E-08  0.93827000000E+00  0.93827000000E+00 0. -1.
     999902    2    1    2    0    0  0.94412666643E-02 -0.98623968220E-02  0.18715078761E-01  0.10207641078E+01  0.10205012030E+01 0.  0.
     999903    2    3    3    0    0 -0.91503083516E-01  0.27867648627E-01 -0.83080278428E-01  0.12836531081E+00  0.20637350197E-01 0.  0.
         14    1    1    2    0    0 -0.94412666643E-02  0.98623968220E-02 -0.18715078761E-01  0.23165892177E-01  0.00000000000E+00 0. -1.
     999901    1    3    3    0    0  0.10094435018E+00 -0.37730045449E-01  0.10179535719E+00  0.89239879701E+00  0.88000000000E+00 0.  1.
        -11    1    4    4    0    0 -0.57451151356E-01  0.27022214470E-01 -0.58754159894E-01  0.86505186508E-01  0.51100000000E-03 0.  1.
         11    1    4    4    0    0 -0.34051932161E-01  0.84543415692E-03 -0.24326118533E-01  0.41860124303E-01  0.51100000000E-03 0. -1.
</event>
<event>
 8    1  0.1118868E+005  0.1043930E+01  0.7957747E-01            NaN
         13   -1    0    0    0    0  0.00000000000E+00  0.00000000000E+00  0.74505805969E-08  0.10566000000E+00  0.10566000000E+00 0.  1.
     999900   -1    0    0    0    0 -0.00000000000E+00 -0.00000000000E+00 -0.74505805969E-08  0.93827000000E+00  0.93827000000E+00 0.  1.
     999902    2    1    2    0    0 -0.55595213407E-02  0.21690393580E-01  0.10262877005E-01  0.10192985547E+01  0.10190009007E+01 0.  0.
     999903    2    3    3    0    0 -0.53450373330E-01  0.11948904462E+00  0.87749934154E-02  0.13258534087E+00  0.19165017887E-01 0.  0.
         14    1    1    2    0    0  0.55595213407E-02 -0.21690393580E-01 -0.10262877005E-01  0.24631445260E-01  0.00000000000E+00 0. -1.
     999901    1    3    3    0    0  0.47890851989E-01 -0.97798651043E-01  0.14878835895E-02  0.88671321387E+00  0.88000000000E+00 0.  1.
        -11    1    4    4    0    0 -0.28958302887E-01  0.43715749617E-01  0.72283817770E-02  0.52935438931E-01  0.51100000000E-03 0.  1.
         11    1    4    4    0    0 -0.24492070443E-01  0.75773295006E-01  0.15466116384E-02  0.79649901941E-01  0.51100000000E-03 0. -1.
</event>
<event>
 8    1  0.1118868E+005  0.1043930E+01  0.7957747E-01            NaN
         13   -1    0    0    0    0  0.00000000000E+00  0.00000000000E+00  0.74505805969E-08  0.10566000000E+00  0.10566000000E+00 0. -1.
     999900   -1    0    0    0    0 -0.00000000000E+00 -0.00000000000E+00 -0.74505805969E-08  0.93827000000E+00  0.93827000000E+00 0.  1.
     999902    2    1    2    0    0  0.11443606596E-01  0.17609350384E-01  0.14716884197E-02  0.10228774177E+01  0.10226607456E+01 0.  0.
     999903    2    3    3    0    0 -0.89546988046E-01  0.55672242835E-01 -0.78492122889E-01  0.13268525023E+00  0.18063792014E-01 0.  0.
         14    1    1    2    0    0 -0.11443606596E-01 -0.17609350384E-01 -0.14716884197E-02  0.21052582257E-01  0.00000000000E+00 0.  1.
     999901    1    3    3    0    0  0.10099059464E+00 -0.38062892451E-01  0.79963811309E-01  0.89019216752E+00  0.88000000000E+00 0. -1.
        -11    1    4    4    0    0 -0.33166678621E-01  0.31114445704E-01 -0.33401172333E-01  0.56427269440E-01  0.51100000000E-03 0. -1.
         11    1    4    4    0    0 -0.56380309425E-01  0.24557797131E-01 -0.45090950556E-01  0.76257980787E-01  0.51100000000E-03 0.  1.
</event>
<event>
 8    1  0.1118868E+005  0.1043930E+01  0.7957747E-01            NaN
         13   -1    0    0    0    0  0.00000000000E+00  0.00000000000E+00  0.74505805969E-08  0.10566000000E+00  0.10566000000E+00 0. -1.
     999900   -1    0    0    0    0 -0.00000000000E+00 -0.00000000000E+00 -0.74505805969E-08  0.93827000000E+00  0.93827000000E+00 0.  1.
     999902    2    1    2    0    0 -0.10693095330E-01  0.19572179215E-01  0.88281775427E-02  0.10199435620E+01  0.10196614735E+01 0.  0.
     999903    2    3    3    0    0 -0.51576959145E-01  0.66785711960E-01  0.10070697520E+00  0.13295860081E+00  0.20385795051E-01 0.  0.
         14    1    1    2    0    0  0.10693095330E-01 -0.19572179215E-01 -0.88281775427E-02  0.23986437953E-01  0.00000000000E+00 0.  1.
     999901    1    3    3    0    0  0.40883863815E-01 -0.47213532745E-01 -0.91878797657E-01  0.88698496123E+00  0.88000000000E+00 0.  1.
        -11    1    4    4    0    0 -0.44099681743E-01  0.47849584910E-01  0.65787821732E-01  0.92534660075E-01  0.51100000000E-03 0.  1.
         11    1    4    4    0    0 -0.74772774021E-02  0.18936127050E-01  0.34919153467E-01  0.40423940739E-01  0.51100000000E-03 0. -1.
</event>
<event>
 8    1  0.1118868E+005  0.1043930E+01  0.7957747E-01            NaN
         13   -1    0    0    0    0  0.00000000000E+00  0.00000000000E+00  0.74505805969E-08  0.10566000000E+00  0.10566000000E+00 0.  1.
     999900   -1    0    0    0    0 -0.00000000000E+00 -0.00000000000E+00 -0.74505805969E-08  0.93827000000E+00  0.93827000000E+00 0.  1.
     999902    2    1    2    0    0 -0.18902185071E-01  0.12902602279E-01 -0.75899174102E-02  0.10198182478E+01  0.10195331687E+01 0.  0.
     999903    2    3    3    0    0  0.93205079828E-01  0.52330263287E-01 -0.70458853819E-01  0.12960755229E+00  0.20199608127E-01 0.  0.
         14    1    1    2    0    0  0.18902185071E-01 -0.12902602279E-01  0.75899174102E-02  0.24111752163E-01  0.00000000000E+00 0. -1.
     999901    1    3    3    0    0 -0.11210726490E+00 -0.39427661007E-01  0.62868936409E-01  0.89021069554E+00  0.88000000000E+00 0. -1.
        -11    1    4    4    0    0  0.14331405802E-01  0.10315267552E-01 -0.36758878443E-02  0.18043481077E-01  0.51100000000E-03 0.  1.
         11    1    4    4    0    0  0.78873674027E-01  0.42014995735E-01 -0.66782965975E-01  0.11156407122E+00  0.51100000000E-03 0. -1.
</event>
<event>
 8    1  0.1118868E+005  0.1043930E+01  0.7957747E-01            NaN
         13   -1    0    0    0    0  0.00000000000E+00  0.00000000000E+00  0.74505805969E-08  0.10566000000E+00  0.10566000000E+00 0.  1.
     999900   -1    0    0    0    0 -0.00000000000E+00 -0.00000000000E+00 -0.74505805969E-08  0.93827000000E+00  0.93827000000E+00 0.  1.
     999902    2    1    2    0    0  0.13159287822E-02 -0.23451899078E-01  0.25771905686E-02  0.10203002486E+01  0.10200265841E+01 0.  0.
     999903    2    3    3    0    0  0.28027474399E-01 -0.79725126706E-02 -0.12563479901E+00  0.13047361812E+00  0.19752519421E-01 0.  0.
         14    1    1    2    0    0 -0.13159287822E-02  0.23451899078E-01 -0.25771905686E-02  0.23629751377E-01  0.00000000000E+00 0. -1.
     999901    1    3    3    0    0 -0.26711545617E-01 -0.15479386407E-01  0.12821198958E+00  0.88982663050E+00  0.88000000000E+00 0. -1.
        -11    1    4    4    0    0  0.13581205206E-01 -0.57681379857E-02 -0.98947395396E-01  0.10004283446E+00  0.51100000000E-03 0. -1.
         11    1    4    4    0    0  0.14446269193E-01 -0.22043746848E-02 -0.26687403618E-01  0.30430783661E-01  0.51100000000E-03 0.  1.
</event>
<event>
 8    1  0.1118868E+005  0.1043930E+01  0.7957747E-01            NaN
         13   -1    0    0    0    0  0.00000000000E+00  0.00000000000E+00  0.74505805969E-08  0.10566000000E+00  0.10566000000E+00 0. -1.
     999900   -1    0    0    0    0 -0.00000000000E+00 -0.00000000000E+00 -0.74505805969E-08  0.93827000000E+00  0.93827000000E+00 0. -1.
     999902    2    1    2    0    0  0.95227848821E-02  0.17678034105E-01  0.13425605202E-01  0.10197754311E+01  0.10194893265E+01 0.  0.
     999903    2    3    3    0    0 -0.12640190133E+00 -0.94684111423E-02 -0.96354410907E-02  0.12862770957E+00  0.19625352857E-01 0.  0.
         14    1    1    2    0    0 -0.95227848821E-02 -0.17678034105E-01 -0.13425605202E-01  0.24154568859E-01  0.00000000000E+00 0.  1.
     999901    1    3    3    0    0  0.13592468621E+00  0.27146445248E-01  0.23061046293E-01  0.89114772157E+00  0.88000000000E+00 0.  1.
        -11    1    4    4    0    0 -0.38632273058E-01 -0.91883773634E-02  0.35487797547E-02  0.39871465472E-01  0.51100000000E-03 0. -1.
         11    1    4    4    0    0 -0.87769628269E-01 -0.28003377889E-03 -0.13184220845E-01  0.88756244094E-01  0.51100000000E-03 0.  1.
</event>
<event>
 8    1  0.1399639E+005  0.1043930E+01  0.7957747E-01            NaN
         13   -1    0    0    0    0  0.00000000000E+00  0.00000000000E+00  0.74505805969E-08  0.10566000000E+00  0.10566000000E+00 0. -1.
     999900   -1    0    0    0    0 -0.00000000000E+00 -0.00000000000E+00 -0.74505805969E-08  0.93827000000E+00  0.93827000000E+00 0. -1.
     999902    2    1    2    0    0  0.15053904679E-01 -0.61671859268E-02  0.15842001312E-01  0.10212226612E+01  0.10209701761E+01 0.  0.
     999903    2    3    3    0    0  0.95270391771E-01  0.25808185598E-01  0.88480468413E-01  0.13401724190E+00  0.19731138956E-01 0.  0.
         14    1    1    2    0    0 -0.15053904679E-01  0.61671859268E-02 -0.15842001312E-01  0.22707338768E-01  0.00000000000E+00 0.  1.
     999901    1    3    3    0    0 -0.80216487092E-01 -0.31975371525E-01 -0.72638467101E-01  0.88720541933E+00  0.88000000000E+00 0. -1.
        -11    1    4    4    0    0  0.22620238161E-01  0.82613316613E-02  0.33370357367E-01  0.41155396330E-01  0.51100000000E-03 0.  1.
         11    1    4    4    0    0  0.72650153610E-01  0.17546853937E-01  0.55110111046E-01  0.92861845573E-01  0.51100000000E-03 0. -1.
</event>
<event>
 8    1  0.1118868E+005  0.1043930E+01  0.7957747E-01            NaN
         13   -1    0    0    0    0  0.00000000000E+00  0.00000000000E+00  0.74505805969E-08  0.10566000000E+00  0.10566000000E+00 0. -1.
     999900   -1    0    0    0    0 -0.00000000000E+00 -0.00000000000E+00 -0.74505805969E-08  0.93827000000E+00  0.93827000000E+00 0.  1.
     999902    2    1    2    0    0 -0.19996975497E-01  0.95967254753E-02 -0.99387661515E-02  0.10196245430E+01  0.10193348093E+01 0.  0.
     999903    2    3    3    0    0  0.77491801726E-01  0.40671593391E-01  0.91111729981E-01  0.12795144599E+00  0.20274795881E-01 0.  0.
         14    1    1    2    0    0  0.19996975497E-01 -0.95967254753E-02  0.99387661515E-02  0.24305457031E-01  0.00000000000E+00 0. -1.
     999901    1    3    3    0    0 -0.97488777223E-01 -0.31074867916E-01 -0.10105049613E+00  0.89167309698E+00  0.88000000000E+00 0.  1.
        -11    1    4    4    0    0  0.54949323159E-01  0.34544105273E-01  0.55727559898E-01  0.85548497228E-01  0.51100000000E-03 0. -1.
         11    1    4    4    0    0  0.22542478567E-01  0.61274881183E-02  0.35384170083E-01  0.42402948766E-01  0.51100000000E-03 0.  1.
</event>
<event>
 8    1  0.1118868E+005  0.1043930E+01  0.7957747E-01            NaN
         13   -1    0    0    0    0  0.00000000000E+00  0.00000000000E+00  0.74505805969E-08  0.10566000000E+00  0.10566000000E+00 0.  1.
     999900   -1    0    0    0    0 -0.00000000000E+00 -0.00000000000E+00 -0.74505805969E-08  0.93827000000E+00  0.93827000000E+00 0.  1.
     999902    2    1    2    0    0  0.20042573278E-01  0.13709745621E-01  0.16586633959E-03  0.10196464792E+01  0.10193572746E+01 0.  0.
     999903    2    3    3    0    0  0.78213264069E-01  0.86203524929E-01  0.60653558290E-01  0.13268653754E+00  0.19455095110E-01 0.  0.
         14    1    1    2    0    0 -0.20042573278E-01 -0.13709745621E-01 -0.16586633959E-03  0.24283520754E-01  0.00000000000E+00 0.  1.
     999901    1    3    3    0    0 -0.58170690791E-01 -0.72493779308E-01 -0.60487691950E-01  0.88695994170E+00  0.88000000000E+00 0.  1.
        -11    1    4    4    0    0  0.28691447394E-01  0.27940843004E-01  0.11080197597E-01  0.41556248160E-01  0.51100000000E-03 0.  1.
         11    1    4    4    0    0  0.49521816675E-01  0.58262681925E-01  0.49573360693E-01  0.91130289384E-01  0.51100000000E-03 0. -1.
</event>
<event>
 8    1  0.1118868E+005  0.1043930E+01  0.7957747E-01            NaN
         13   -1    0    0    0    0  0.00000000000E+00  0.00000000000E+00  0.74505805969E-08  0.10566000000E+00  0.10566000000E+00 0.  1.
     999900   -1    0    0    0    0 -0.00000000000E+00 -0.00000000000E+00 -0.74505805969E-08  0.93827000000E+00  0.93827000000E+00 0. -1.
     999902    2    1    2    0    0 -0.46816436068E-04 -0.16281766456E-01 -0.17350055106E-01  0.10201366706E+01  0.10198591590E+01 0.  0.
     999903    2    3    3    0    0  0.39836836818E-01  0.97275543729E-01  0.69418198063E-01  0.12771597484E+00  0.21047067080E-01 0.  0.
         14    1    1    2    0    0  0.46816436068E-04  0.16281766456E-01  0.17350055106E-01  0.23793329378E-01  0.00000000000E+00 0.  1.
     999901    1    3    3    0    0 -0.39883653254E-01 -0.11355731019E+00 -0.86768253169E-01  0.89242069578E+00  0.88000000000E+00 0. -1.
        -11    1    4    4    0    0  0.41030178034E-01  0.82276674334E-01  0.56791493165E-01  0.10806693049E+00  0.51100000000E-03 0. -1.
         11    1    4    4    0    0 -0.11933412164E-02  0.14998869395E-01  0.12626704898E-01  0.19649044353E-01  0.51100000000E-03 0.  1.
</event>
<event>
 8    1  0.1118868E+005  0.1043930E+01  0.7957747E-01            NaN
         13   -1    0    0    0    0  0.00000000000E+00  0.00000000000E+00  0.74505805969E-08  0.10566000000E+00  0.10566000000E+00 0.  1.
     999900   -1    0    0    0    0 -0.00000000000E+00 -0.00000000000E+00 -0.74505805969E-08  0.93827000000E+00  0.93827000000E+00 0. -1.
     999902    2    1    2    0    0 -0.22936321119E-03  0.28009181874E-02 -0.22809352304E-01  0.10209481745E+01  0.10206894781E+01 0.  0.
     999903    2    3    3    0    0  0.72006204784E-02  0.11294811051E+00  0.61115216612E-01  0.13008850998E+00  0.19463456101E-01 0.  0.
         14    1    1    2    0    0  0.22936321119E-03 -0.28009181874E-02  0.22809352304E-01  0.22981825486E-01  0.00000000000E+00 0.  1.
     999901    1    3    3    0    0 -0.74299836896E-02 -0.11014719232E+00 -0.83924568915E-01  0.89085966454E+00  0.88000000000E+00 0. -1.
        -11    1    4    4    0    0  0.13599786215E-01  0.89345999686E-01  0.47733188506E-01  0.10220753520E+00  0.51100000000E-03 0.  1.
         11    1    4    4    0    0 -0.63991657366E-02  0.23602110823E-01  0.13382028106E-01  0.27880974779E-01  0.51100000000E-03 0. -1.
</event>
<event>
 8    1  0.1118868E+005  0.1043930E+01  0.7957747E-01            NaN
         13   -1    0    0    0    0  0.00000000000E+00  0.00000000000E+00  0.74505805969E-08  0.10566000000E+00  0.10566000000E+00 0.  1.
     999900   -1    0    0    0    0 -0.00000000000E+00 -0.00000000000E+00 -0.74505805969E-08  0.93827000000E+00  0.93827000000E+00 0. -1.
     999902    2    1    2    0    0 -0.13674547865E-01  0.14024357935E-01  0.13871235447E-01  0.10199281866E+01  0.10196457320E+01 0.  0.
     999903    2    3    3    0    0  0.49709551079E-01  0.47099774876E-01  0.11077267627E+00  0.13172696138E+00  0.19798441466E-01 0.  0.
         14    1    1    2    0    0  0.13674547865E-01 -0.14024357935E-01 -0.13871235447E-01  0.24001813424E-01  0.00000000000E+00 0. -1.
     999901    1    3    3    0    0 -0.63384098944E-01 -0.33075416940E-01 -0.96901440824E-01  0.88820122520E+00  0.88000000000E+00 0. -1.
        -11    1    4    4    0    0  0.13691675015E-01  0.26367239002E-01  0.45234028633E-01  0.54120899149E-01  0.51100000000E-03 0. -1.
         11    1    4    4    0    0  0.36017876063E-01  0.20732535874E-01  0.65538647637E-01  0.77606062231E-01  0.51100000000E-03 0.  1.
</event>
<event>
 8    1  0.1118868E+005  0.1043930E+01  0.7957747E-01            NaN
         13   -1    0    0    0    0  0.00000000000E+00  0.00000000000E+00  0.74505805969E-08  0.10566000000E+00  0.10566000000E+00 0. -1.
     999900   -1    0    0    0    0 -0.00000000000E+00 -0.00000000000E+00 -0.74505805969E-08  0.93827000000E+00  0.93827000000E+00 0.  1.
     999902    2    1    2    0    0  0.12473782278E-03  0.23245103988E-01  0.53570909801E-02  0.10200752553E+01  0.10197962923E+01 0.  0.
     999903    2    3    3    0    0 -0.76986252771E-01 -0.78138208615E-01  0.64961686390E-01  0.12890894722E+00  0.19105842363E-01 0.  0.
         14    1    1    2    0    0 -0.12473782278E-03 -0.23245103988E-01 -0.53570909801E-02  0.23854744658E-01  0.00000000000E+00 0.  1.
     999901    1    3    3    0    0  0.77110990594E-01  0.10138331260E+00 -0.59604595410E-01  0.89116630813E+00  0.88000000000E+00 0.  1.
        -11    1    4    4    0    0 -0.59912216903E-01 -0.48620543317E-01  0.47284384768E-01  0.90495884606E-01  0.51100000000E-03 0. -1.
         11    1    4    4    0    0 -0.17074035868E-01 -0.29517665298E-01  0.17677301622E-01  0.38413062611E-01  0.51100000000E-03 0.  1.
</event>
<event>
 8    1  0.1118868E+005  0.1043930E+01  0.7957747E-01            NaN
         13   -1    0    0    0    0  0.00000000000E+00  0.00000000000E+00  0.74505805969E-08  0.10566000000E+00  0.10566000000E+00 0.  1.
     999900   -1    0    0    0    0 -0.00000000000E+00 -0.00000000000E+00 -0.74505805969E-08  0.93827000000E+00  0.93827000000E+00 0. -1.
     999902    2    1    2    0    0 -0.17077137206E-01  0.42085891813E-02  0.15793256097E-01  0.10202917307E+01  0.10200178665E+01 0.  0.
     999903    2    3    3    0    0 -0.35293027756E-01 -0.10414698358E+00  0.71327989732E-01  0.13172161220E+00  0.13065565613E-01 0.  0.
         14    1    1    2    0    0  0.17077137206E-01 -0.42085891813E-02 -0.15793256097E-01  0.23638269315E-01  0.00000000000E+00 0.  1.
     999901    1    3    3    0    0  0.18215890551E-01  0.10835557276E+00 -0.55534733635E-01  0.88857011848E+00  0.88000000000E+00 0. -1.
        -11    1    4    4    0    0 -0.46074370566E-02 -0.29659411690E-01  0.22521766204E-01  0.37528659075E-01  0.51100000000E-03 0.  1.
         11    1    4    4    0    0 -0.30685590700E-01 -0.74487571893E-01  0.48806223528E-01  0.94192953129E-01  0.51100000000E-03 0. -1.
</event>
<event>
 7    1  0.1118868E+005  0.1043930E+01  0.7957747E-01            NaN
         13   -1    0    0    0    0  0.00000000000E+00  0.00000000000E+00  0.74505805969E-08  0.10566000000E+00  0.10566000000E+00 0. -1.
     999900   -1    0    0    0    0 -0.00000000000E+00 -0.00000000000E+00 -0.74505805969E-08  0.93827000000E+00  0.93827000000E+00 0.  1.
     999903    2    1    2    0    0 -0.23526267766E-02  0.25550995331E-01  0.80738143371E-02  0.33770862797E-01  0.20418043024E-01 0.  0.
         14    1    1    2    0    0 -0.98634409738E-01  0.21750750461E-01 -0.66936318695E-01  0.12117059334E+00  0.00000000000E+00 0.  1.
     999901    1    1    2    0    0  0.10098703651E+00 -0.47301745793E-01  0.58862504358E-01  0.88898854386E+00  0.88000000000E+00 0.  1.
        -11    1    3    3    0    0  0.84450407918E-02  0.16766373790E-01  0.34498755847E-02  0.19094312415E-01  0.51100000000E-03 0. -1.
         11    1    3    3    0    0 -0.10797667568E-01  0.87846215411E-02  0.46239387523E-02  0.14676550382E-01  0.51100000000E-03 0.  1.
</event>
<event>
 8    1  0.1118868E+005  0.1043930E+01  0.7957747E-01            NaN
         13   -1    0    0    0    0  0.00000000000E+00  0.00000000000E+00  0.74505805969E-08  0.10566000000E+00  0.10566000000E+00 0. -1.
     999900   -1    0    0    0    0 -0.00000000000E+00 -0.00000000000E+00 -0.74505805969E-08  0.93827000000E+00  0.93827000000E+00 0.  1.
     999902    2    1    2    0    0  0.16875356889E-02  0.47934080958E-03  0.24241671350E-01  0.10196249352E+01  0.10193352110E+01 0.  0.
     999903    2    3    3    0    0 -0.52049706763E-01  0.11550667138E+00 -0.17976145938E-01  0.12951184010E+00  0.19980285189E-01 0.  0.
         14    1    1    2    0    0 -0.16875356889E-02 -0.47934080958E-03 -0.24241671350E-01  0.24305064784E-01  0.00000000000E+00 0.  1.
     999901    1    3    3    0    0  0.53737242452E-01 -0.11502733057E+00  0.42217817288E-01  0.89011309512E+00  0.88000000000E+00 0.  1.
        -11    1    4    4    0    0 -0.35157285126E-01  0.96739094222E-01 -0.16154818318E-01  0.10419081689E+00  0.51100000000E-03 0.  1.
         11    1    4    4    0    0 -0.16892421637E-01  0.18767577154E-01 -0.18213276200E-02  0.25321023208E-01  0.51100000000E-03 0. -1.
</event>
<event>
 8    1  0.1118868E+005  0.1043930E+01  0.7957747E-01            NaN
         13   -1    0    0    0    0  0.00000000000E+00  0.00000000000E+00  0.74505805969E-08  0.10566000000E+00  0.10566000000E+00 0. -1.
     999900   -1    0    0    0    0 -0.00000000000E+00 -0.00000000000E+00 -0.74505805969E-08  0.93827000000E+00  0.93827000000E+00 0. -1.
     999902    2    1    2    0    0  0.19967252951E-01  0.40683754278E-02 -0.20115971605E-01  0.10152961881E+01  0.10148923364E+01 0.  0.
     999903    2    3    3    0    0 -0.94234226360E-02 -0.16336222696E-02 -0.12561079650E+00  0.12848984925E+00  0.25300188639E-01 0.  0.
         14    1    1    2    0    0 -0.19967252951E-01 -0.40683754278E-02  0.20115971605E-01  0.28633811878E-01  0.00000000000E+00 0.  1.
     999901    1    3    3    0    0  0.29390675587E-01  0.57019976974E-02  0.10549482490E+00  0.88680633888E+00  0.88000000000E+00 0.  1.
        -11    1    4    4    0    0  0.21716618347E-02  0.44991923594E-02 -0.95622672394E-01  0.95754453911E-01  0.51100000000E-03 0. -1.
         11    1    4    4    0    0 -0.11595084471E-01 -0.61328146290E-02 -0.29988124110E-01  0.32735395336E-01  0.51100000000E-03 0.  1.
</event>
<event>
 8    1  0.1118868E+005  0.1043930E+01  0.7957747E-01            NaN
         13   -1    0    0    0    0  0.00000000000E+00  0.00000000000E+00  0.74505805969E-08  0.10566000000E+00  0.10566000000E+00 0.  1.
     999900   -1    0    0    0    0 -0.00000000000E+00 -0.00000000000E+00 -0.74505805969E-08  0.93827000000E+00  0.93827000000E+00 0.  1.
     999902    2    1    2    0    0  0.57715533009E-02 -0.21269299572E-01 -0.42117608815E-03  0.10218875110E+01  0.10216497511E+01 0.  0.
     999903    2    3    3    0    0  0.29221757202E-02  0.10715165400E+00 -0.70390606732E-01  0.12981364551E+00  0.20167522923E-01 0.  0.
         14    1    1    2    0    0 -0.57715533009E-02  0.21269299572E-01  0.42117608815E-03  0.22042488994E-01  0.00000000000E+00 0. -1.
     999901    1    3    3    0    0  0.28493775807E-02 -0.12842095357E+00  0.69969430644E-01  0.89207386549E+00  0.88000000000E+00 0. -1.
        -11    1    4    4    0    0  0.11220981538E-01  0.75904021216E-01 -0.50174861752E-01  0.91679380104E-01  0.51100000000E-03 0.  1.
         11    1    4    4    0    0 -0.82988058180E-02  0.31247632779E-01 -0.20215744980E-01  0.38134265411E-01  0.51100000000E-03 0. -1.
</event>
<event>
 8    1  0.1539418E+005  0.1043930E+01  0.7957747E-01            NaN
         13   -1    0    0    0    0  0.00000000000E+00  0.00000000000E+00  0.74505805969E-08  0.10566000000E+00  0.10566000000E+00 0. -1.
     999900   -1    0    0    0    0 -0.00000000000E+00 -0.00000000000E+00 -0.74505805969E-08  0.93827000000E+00  0.93827000000E+00 0.  1.
     999902    2    1    2    0    0 -0.56911106664E-02  0.19405201910E-01  0.12862443901E-01  0.10199635012E+01  0.10196818870E+01 0.  0.
     999903    2    3    3    0    0 -0.42122064598E-02 -0.53682208239E-01 -0.11434527131E+00  0.12781678709E+00  0.19046464933E-01 0.  0.
         14    1    1    2    0    0  0.56911106664E-02 -0.19405201910E-01 -0.12862443901E-01  0.23966498803E-01  0.00000000000E+00 0.  1.
     999901    1    3    3    0    0 -0.14789042066E-02  0.73087410149E-01  0.12720771521E+00  0.89214671411E+00  0.88000000000E+00 0. -1.
        -11    1    4    4    0    0  0.64747863313E-02 -0.30095135697E-01 -0.69810806902E-01  0.76298426799E-01  0.51100000000E-03 0. -1.
         11    1    4    4    0    0 -0.10686992791E-01 -0.23587072542E-01 -0.44534464409E-01  0.51518360292E-01  0.51100000000E-03 0.  1.
</event>
<event>
 8    1  0.1118868E+005  0.1043930E+01  0.7957747E-01            NaN
         13   -1    0    0    0    0  0.00000000000E+00  0.00000000000E+00  0.74505805969E-08  0.10566000000E+00  0.10566000000E+00 0.  1.
     999900   -1    0    0    0    0 -0.00000000000E+00 -0.00000000000E+00 -0.74505805969E-08  0.93827000000E+00  0.93827000000E+00 0.  1.
     999902    2    1    2    0    0  0.13921076165E-01  0.19312067554E-01  0.20658345233E-02  0.10200339755E+01  0.10197540346E+01 0.  0.
     999903    2    3    3    0    0 -0.80303350546E-01  0.12442327146E-01 -0.98556779931E-01  0.12927567693E+00  0.19882710127E-01 0.  0.
         14    1    1    2    0    0 -0.13921076165E-01 -0.19312067554E-01 -0.20658345233E-02  0.23896024503E-01  0.00000000000E+00 0. -1.
     999901    1    3    3    0    0  0.94224426711E-01  0.68697404077E-02  0.10062261445E+00  0.89075829856E+00  0.88000000000E+00 0. -1.
        -11    1    4    4    0    0 -0.33015130372E-01  0.10592707068E-01 -0.29328227436E-01  0.45415969901E-01  0.51100000000E-03 0.  1.
         11    1    4    4    0    0 -0.47288220174E-01  0.18496200778E-02 -0.69228552496E-01  0.83859707031E-01  0.51100000000E-03 0. -1.
</event>
<event>
 8    1  0.1118868E+005  0.1043930E+01  0.7957747E-01            NaN
         13   -1    0    0    0    0  0.00000000000E+00  0.00000000000E+00  0.74505805969E-08  0.10566000000E+00  0.10566000000E+00 0. -1.
     999900   -1    0    0    0    0 -0.00000000000E+00 -0.00000000000E+00 -0.74505805969E-08  0.93827000000E+00  0.93827000000E+00 0.  1.
     999902    2    1    2    0    0  0.89272002568E-02 -0.25516505053E-02 -0.22138425691E-01  0.10199234235E+01  0.10196408554E+01 0.  0.
     999903    2    3    3    0    0  0.46797019651E-01  0.11596145167E+00  0.28409575678E-01  0.12973547755E+00  0.19676656814E-01 0.  0.
         14    1    1    2    0    0 -0.89272002568E-02  0.25516505053E-02  0.22138425691E-01  0.24006576532E-01  0.00000000000E+00 0. -1.
     999901    1    3    3    0    0 -0.37869819394E-01 -0.11851310218E+00 -0.50548001369E-01  0.89018794591E+00  0.88000000000E+00 0. -1.
        -11    1    4    4    0    0  0.27132665364E-02  0.28584612359E-01  0.64431070813E-02  0.29431558384E-01  0.51100000000E-03 0. -1.
         11    1    4    4    0    0  0.44083753114E-01  0.87376839314E-01  0.21966468596E-01  0.10030391917E+00  0.51100000000E-03 0.  1.
</event>
<event>
 8    1  0.1118868E+005  0.1043930E+01  0.7957747E-01            NaN
         13   -1    0    0    0    0  0.00000000000E+00  0.00000000000E+00  0.74505805969E-08  0.10566000000E+00  0.10566000000E+00 0.  1.
     999900   -1    0    0    0    0 -0.00000000000E+00 -0.00000000000E+00 -0.74505805969E-08  0.93827000000E+00  0.93827000000E+00 0.  1.
     999902    2    1    2    0    0  0.12792293716E-01 -0.17361885692E-01 -0.86169954376E-02  0.10207065105E+01  0.10204422816E+01 0.  0.
     999903    2    3    3    0    0  0.11416088738E+00 -0.65207119002E-01 -0.11952830619E-01  0.13358989703E+00  0.20462498726E-01 0.  0.
         14    1    1    2    0    0 -0.12792293716E-01  0.17361885692E-01  0.86169954376E-02  0.23223489481E-01  0.00000000000E+00 0.  1.
     999901    1    3    3    0    0 -0.10136859366E+00  0.47845233310E-01  0.33358351814E-02  0.88711661349E+00  0.88000000000E+00 0. -1.
        -11    1    4    4    0    0  0.73213494302E-01 -0.49239209680E-01 -0.15134990466E-01  0.89521196234E-01  0.51100000000E-03 0.  1.
         11    1    4    4    0    0  0.40947393073E-01 -0.15967909322E-01  0.31821598468E-02  0.44068700797E-01  0.51100000000E-03 0. -1.
</event>
<event>
 8    1  0.1118868E+005  0.1043930E+01  0.7957747E-01            NaN
         13   -1    0    0    0    0  0.00000000000E+00  0.00000000000E+00  0.74505805969E-08  0.10566000000E+00  0.10566000000E+00 0.  1.
     999900   -1    0    0    0    0 -0.00000000000E+00 -0.00000000000E+00 -0.74505805969E-08  0.93827000000E+00  0.93827000000E+00 0. -1.
     999902    2    1    2    0    0  0.23392612859E-01  0.14894037961E-01 -0.10560496796E-03  0.10161981076E+01  0.10158196376E+01 0.  0.
     999903    2    3    3    0    0 -0.37074908274E-01 -0.46855992484E-01  0.10824457079E+00  0.12535067513E+00  0.20636661425E-01 0.  0.
         14    1    1    2    0    0 -0.23392612859E-01 -0.14894037961E-01  0.10560496796E-03  0.27731892391E-01  0.00000000000E+00 0. -1.
     999901    1    3    3    0    0  0.60467521133E-01  0.61750030446E-01 -0.10835017576E+00  0.89084743248E+00  0.88000000000E+00 0. -1.
        -11    1    4    4    0    0 -0.58531684823E-02 -0.19427068251E-01  0.48460068575E-01  0.52538651766E-01  0.51100000000E-03 0.  1.
         11    1    4    4    0    0 -0.31221739792E-01 -0.27428924233E-01  0.59784502213E-01  0.72812023362E-01  0.51100000000E-03 0. -1.
</event>
<event>
 8    1  0.1118868E+005  0.1043930E+01  0.7957747E-01            NaN
         13   -1    0    0    0    0  0.00000000000E+00  0.00000000000E+00  0.74505805969E-08  0.10566000000E+00  0.10566000000E+00 0.  1.
     999900   -1    0    0    0    0 -0.00000000000E+00 -0.00000000000E+00 -0.74505805969E-08  0.93827000000E+00  0.93827000000E+00 0.  1.
     999902    2    1    2    0    0  0.84725328971E-02 -0.19659694101E-01  0.10359656363E-01  0.10201474462E+01  0.10198701888E+01 0.  0.
     999903    2    3    3    0    0 -0.92957629964E-01  0.19222102181E-02  0.88592656824E-01  0.13061146665E+00  0.23788243243E-01 0.  0.
         14    1    1    2    0    0 -0.84725328971E-02  0.19659694101E-01 -0.10359656363E-01  0.23782553812E-01  0.00000000000E+00 0. -1.
     999901    1    3    3    0    0  0.10143016286E+00 -0.21581904319E-01 -0.78233000461E-01  0.88953597954E+00  0.88000000000E+00 0.  1.
        -11    1    4    4    0    0 -0.67215178484E-01  0.11836704752E-01  0.66122642965E-01  0.95028694781E-01  0.51100000000E-03 0. -1.
         11    1    4    4    0    0 -0.25742451480E-01 -0.99144945341E-02  0.22470013859E-01  0.35582771869E-01  0.51100000000E-03 0.  1.
</event>
<event>
 8    1  0.1118868E+005  0.1043930E+01  0.7957747E-01            NaN
         13   -1    0    0    0    0  0.00000000000E+00  0.00000000000E+00  0.74505805969E-08  0.10566000000E+00  0.10566000000E+00 0.  1.
     999900   -1    0    0    0    0 -0.00000000000E+00 -0.00000000000E+00 -0.74505805969E-08  0.93827000000E+00  0.93827000000E+00 0. -1.
     999902    2    1    2    0    0  0.18539963734E-01  0.56499154903E-02  0.95349325711E-02  0.10223298440E+01  0.10221016306E+01 0.  0.
     999903    2    3    3    0    0  0.10641070910E-01 -0.70795957369E-01 -0.10817398933E+00  0.13117230782E+00  0.19474660508E-01 0.  0.
         14    1    1    2    0    0 -0.18539963734E-01 -0.56499154903E-02 -0.95349325711E-02  0.21600156005E-01  0.00000000000E+00 0.  1.
     999901    1    3    3    0    0  0.78988928239E-02  0.76445872860E-01  0.11770892190E+00  0.89115753617E+00  0.88000000000E+00 0. -1.
        -11    1    4    4    0    0  0.11911280564E-02 -0.28389269771E-01 -0.59421771349E-01  0.65867878784E-01  0.51100000000E-03 0.  1.
         11    1    4    4    0    0  0.94499428537E-02 -0.42406687598E-01 -0.48752217979E-01  0.65304429037E-01  0.51100000000E-03 0. -1.
</event>
<event>
 8    1  0.1118868E+005  0.1043930E+01  0.7957747E-01            NaN
         13   -1    0    0    0    0  0.00000000000E+00  0.00000000000E+00  0.74505805969E-08  0.10566000000E+00  0.10566000000E+00 0. -1.
     999900   -1    0    0    0    0 -0.00000000000E+00 -0.00000000000E+00 -0.74505805969E-08  0.93827000000E+00  0.93827000000E+00 0.  1.
     999902    2    1    2    0    0 -0.16463279712E-01 -0.13270951871E-01  0.11702552164E-01  0.10197616846E+01  0.10194752503E+01 0.  0.
     999903    2    3    3    0    0  0.20558195097E-01 -0.42534189387E-01 -0.11822590156E+00  0.12897083947E+00  0.20598955830E-01 0.  0.
         14    1    1    2    0    0  0.16463279712E-01  0.13270951871E-01 -0.11702552164E-01  0.24168315407E-01  0.00000000000E+00 0.  1.
     999901    1    3    3    0    0 -0.37021474809E-01  0.29263237516E-01  0.12992845373E+00  0.89079084512E+00  0.88000000000E+00 0.  1.
        -11    1    4    4    0    0  0.14694168299E-01 -0.23431643046E-01 -0.91542381255E-01  0.95630691541E-01  0.51100000000E-03 0. -1.
         11    1    4    4    0    0  0.58640267978E-02 -0.19102546341E-01 -0.26683520307E-01  0.33340147929E-01  0.51100000000E-03 0.  1.
</event>
<event>
 8    1  0.1118868E+005  0.1043930E+01  0.7957747E-01            NaN
         13   -1    0    0    0    0  0.00000000000E+00  0.00000000000E+00  0.74505805969E-08  0.10566000000E+00  0.10566000000E+00 0. -1.
     999900   -1    0    0    0    0 -0.00000000000E+00 -0.00000000000E+00 -0.74505805969E-08  0.93827000000E+00  0.93827000000E+00 0. -1.
     999902    2    1    2    0    0  0.91599674522E-02 -0.84761790545E-02 -0.18750068352E-01  0.10214063307E+01  0.10211579588E+01 0.  0.
     999903    2    3    3    0    0 -0.57833791634E-01 -0.16939118132E-01 -0.11736607211E+00  0.13332699794E+00  0.19225304154E-01 0.  0.
         14    1    1    2    0    0 -0.91599674522E-02  0.84761790545E-02  0.18750068352E-01  0.22523669290E-01  0.00000000000E+00 0. -1.
     999901    1    3    3    0    0  0.66993759086E-01  0.84629390772E-02  0.98616003757E-01  0.88807933277E+00  0.88000000000E+00 0.  1.
        -11    1    4    4    0    0 -0.46281500328E-01 -0.19214258469E-01 -0.82555465329E-01  0.96575519558E-01  0.51100000000E-03 0.  1.
         11    1    4    4    0    0 -0.11552291306E-01  0.22751403376E-02 -0.34810606779E-01  0.36751478383E-01  0.51100000000E-03 0. -1.
</event>
<event>
 8    1  0.1118868E+005  0.1043930E+01  0.7957747E-01            NaN
         13   -1    0    0    0    0  0.00000000000E+00  0.00000000000E+00  0.74505805969E-08  0.10566000000E+00  0.10566000000E+00 0.  1.
     999900   -1    0    0    0    0 -0.00000000000E+00 -0.00000000000E+00 -0.74505805969E-08  0.93827000000E+00  0.93827000000E+00 0.  1.
     999902    2    1    2    0    0 -0.85476828053E-02  0.17465386313E-01 -0.10186784021E-01  0.10219783903E+01  0.10217426080E+01 0.  0.
     999903    2    3    3    0    0  0.12833133631E+00  0.16959943412E-01 -0.10175904131E-01  0.13139648980E+00  0.20122548263E-01 0.  0.
         14    1    1    2    0    0  0.85476828053E-02 -0.17465386313E-01  0.10186784021E-01  0.21951609715E-01  0.00000000000E+00 0.  1.
     999901    1    3    3    0    0 -0.13687901911E+00  0.50544290076E-03 -0.10879890584E-04  0.89058190048E+00  0.88000000000E+00 0.  1.
        -11    1    4    4    0    0  0.10484749381E+00  0.19816943753E-01 -0.13291744736E-01  0.10752971598E+00  0.51100000000E-03 0.  1.
         11    1    4    4    0    0  0.23483842495E-01 -0.28570003413E-02  0.31158406051E-02  0.23866773828E-01  0.51100000000E-03 0. -1.
</event>
<event>
 8    1  0.1118868E+005  0.1043930E+01  0.7957747E-01            NaN
         13   -1    0    0    0    0  0.00000000000E+00  0.00000000000E+00  0.74505805969E-08  0.10566000000E+00  0.10566000000E+00 0.  1.
     999900   -1    0    0    0    0 -0.00000000000E+00 -0.00000000000E+00 -0.74505805969E-08  0.93827000000E+00  0.93827000000E+00 0. -1.
     999902    2    1    2    0    0  0.23206072009E-01  0.36993583017E-02 -0.25498377058E-02  0.10202929803E+01  0.10200191453E+01 0.  0.
     999903    2    3    3    0    0  0.22593413542E-01  0.53394220100E-01 -0.11660418420E+00  0.13154197542E+00  0.18583607049E-01 0.  0.
         14    1    1    2    0    0 -0.23206072009E-01 -0.36993583017E-02  0.25498377058E-02  0.23637019742E-01  0.00000000000E+00 0. -1.
     999901    1    3    3    0    0  0.61265846745E-03 -0.49694861798E-01  0.11405434649E+00  0.88875100483E+00  0.88000000000E+00 0.  1.
        -11    1    4    4    0    0  0.11883005536E-01  0.36624968173E-01 -0.93054208235E-01  0.10070720384E+00  0.51100000000E-03 0.  1.
         11    1    4    4    0    0  0.10710408005E-01  0.16769251926E-01 -0.23549975962E-01  0.30834771584E-01  0.51100000000E-03 0. -1.
</event>
<event>
 8    1  0.1118868E+005  0.1043930E+01  0.7957747E-01            NaN
         13   -1    0    0    0    0  0.00000000000E+00  0.00000000000E+00  0.74505805969E-08  0.10566000000E+00  0.10566000000E+00 0.  1.
     999900   -1    0    0    0    0 -0.00000000000E+00 -0.00000000000E+00 -0.74505805969E-08  0.93827000000E+00  0.93827000000E+00 0. -1.
     999902    2    1    2    0    0 -0.94698887082E-02  0.15140543079E-01 -0.15871330233E-01  0.10200382868E+01  0.10197584481E+01 0.  0.
     999903    2    3    3    0    0 -0.88250962335E-01 -0.93676710962E-01  0.54482109168E-02  0.12958774062E+00  0.14132975149E-01 0.  0.
         14    1    1    2    0    0  0.94698887082E-02 -0.15140543079E-01  0.15871330233E-01  0.23891713213E-01  0.00000000000E+00 0.  1.
     999901    1    3    3    0    0  0.78781073627E-01  0.10881725404E+00 -0.21319541150E-01  0.89045054617E+00  0.88000000000E+00 0. -1.
        -11    1    4    4    0    0 -0.44115235430E-01 -0.55190370408E-01 -0.10689690423E-02  0.70664947454E-01  0.51100000000E-03 0. -1.
         11    1    4    4    0    0 -0.44135726905E-01 -0.38486340554E-01  0.65171799591E-02  0.58922793164E-01  0.51100000000E-03 0.  1.
</event>
<event>
 8    1  0.1118868E+005  0.1043930E+01  0.7957747E-01            NaN
         13   -1    0    0    0    0  0.00000000000E+00  0.00000000000E+00  0.74505805969E-08  0.10566000000E+00  0.10566000000E+00 0. -1.
     999900   -1    0    0    0    0 -0.00000000000E+00 -0.00000000000E+00 -0.74505805969E-08  0.93827000000E+00  0.93827000000E+00 0. -1.
     999902    2    1    2    0    0 -0.17226597665E-01 -0.11580686084E-01  0.10462114917E-01  0.10206851338E+01  0.10204204126E+01 0.  0.
     999903    2    3    3    0    0  0.12628838813E+00 -0.13697804914E-01 -0.76244727242E-02  0.12887340589E+00  0.20342942910E-01 0.  0.
         14    1    1    2    0    0  0.17226597665E-01  0.11580686084E-01 -0.10462114917E-01  0.23244866225E-01  0.00000000000E+00 0.  1.
     999901    1    3    3    0    0 -0.14351498579E+00  0.21171188300E-02  0.18086587641E-01  0.89181172788E+00  0.88000000000E+00 0.  1.
        -11    1    4    4    0    0  0.90730382297E-01 -0.13311414457E-01 -0.13929688441E-01  0.92755018019E-01  0.51100000000E-03 0. -1.
         11    1    4    4    0    0  0.35558005830E-01 -0.38639045759E-03  0.63052157169E-02  0.36118387871E-01  0.51100000000E-03 0.  1.
</event>
<event>
 8    1  0.1118868E+005  0.1043930E+01  0.7957747E-01            NaN
         13   -1    0    0    0    0  0.00000000000E+00  0.00000000000E+00  0.74505805969E-08  0.10566000000E+00  0.10566000000E+00 0.  1.
     999900   -1    0    0    0    0 -0.00000000000E+00 -0.00000000000E+00 -0.74505805969E-08  0.93827000000E+00  0.93827000000E+00 0. -1.
     999902    2    1    2    0    0  0.11971714495E-01 -0.65822281713E-02 -0.17343570332E-01  0.10218517956E+01  0.10216132562E+01 0.  0.
     999903    2    3    3    0    0 -0.61371525660E-01  0.90544921774E-01 -0.70748983670E-01  0.13187142940E+00  0.20489221071E-01 0.  0.
         14    1    1    2    0    0 -0.11971714495E-01  0.65822281713E-02  0.17343570332E-01  0.22078204355E-01  0.00000000000E+00 0.  1.
     999901    1    3    3    0    0  0.73343240155E-01 -0.97127149945E-01  0.53405413337E-01  0.88998036625E+00  0.88000000000E+00 0.  1.
        -11    1    4    4    0    0 -0.38236188413E-01  0.72399943970E-01 -0.51728029332E-01  0.96849409553E-01  0.51100000000E-03 0.  1.
         11    1    4    4    0    0 -0.23135337247E-01  0.18144977804E-01 -0.19020954338E-01  0.35022019844E-01  0.51100000000E-03 0. -1.
</event>
<event>
 8    1  0.1118868E+005  0.1043930E+01  0.7957747E-01            NaN
         13   -1    0    0    0    0  0.00000000000E+00  0.00000000000E+00  0.74505805969E-08  0.10566000000E+00  0.10566000000E+00 0.  1.
     999900   -1    0    0    0    0 -0.00000000000E+00 -0.00000000000E+00 -0.74505805969E-08  0.93827000000E+00  0.93827000000E+00 0.  1.
     999902    2    1    2    0    0 -0.11586583215E-01 -0.12165556619E-01 -0.16044661519E-01  0.10206989681E+01  0.10204345656E+01 0.  0.
     999903    2    3    3    0    0  0.40031869710E-01  0.12985873544E-02  0.12090280405E+00  0.12851044759E+00  0.17123381411E-01 0.  0.
         14    1    1    2    0    0  0.11586583215E-01  0.12165556619E-01  0.16044661519E-01  0.23231031869E-01  0.00000000000E+00 0. -1.
     999901    1    3    3    0    0 -0.51618452925E-01 -0.13464143974E-01 -0.13694746557E+00  0.89218852054E+00  0.88000000000E+00 0.  1.
        -11    1    4    4    0    0  0.11822772951E-01 -0.48869848226E-02  0.21773098259E-01  0.25258454222E-01  0.51100000000E-03 0. -1.
         11    1    4    4    0    0  0.28209096760E-01  0.61855721770E-02  0.99129705793E-01  0.10325199337E+00  0.51100000000E-03 0.  1.
</event>
<event>
 8    1  0.1118868E+005  0.1043930E+01  0.7957747E-01            NaN
         13   -1    0    0    0    0  0.00000000000E+00  0.00000000000E+00  0.74505805969E-08  0.10566000000E+00  0.10566000000E+00 0.  1.
     999900   -1    0    0    0    0 -0.00000000000E+00 -0.00000000000E+00 -0.74505805969E-08  0.93827000000E+00  0.93827000000E+00 0.  1.
     999902    2    1    2    0    0  0.75493825409E-02  0.15066609162E-01 -0.13555785551E-01  0.10223023508E+01  0.10220735498E+01 0.  0.
     999903    2    3    3    0    0 -0.21420619340E-01  0.11820260250E-01 -0.13033223511E+00  0.13410950070E+00  0.20007628123E-01 0.  0.
         14    1    1    2    0    0 -0.75493825409E-02 -0.15066609162E-01  0.13555785551E-01  0.21627649209E-01  0.00000000000E+00 0.  1.
     999901    1    3    3    0    0  0.28970001881E-01  0.32463489115E-02  0.11677644956E+00  0.88819285010E+00  0.88000000000E+00 0. -1.
        -11    1    4    4    0    0 -0.70077433902E-02  0.14957154539E-01 -0.78279743530E-01  0.80005026764E-01  0.51100000000E-03 0. -1.
         11    1    4    4    0    0 -0.14412875950E-01 -0.31368942884E-02 -0.52052491578E-01  0.54104473932E-01  0.51100000000E-03 0.  1.
</event>
<event>
 8    1  0.1118868E+005  0.1043930E+01  0.7957747E-01            NaN
         13   -1    0    0    0    0  0.00000000000E+00  0.00000000000E+00  0.74505805969E-08  0.10566000000E+00  0.10566000000E+00 0. -1.
     999900   -1    0    0    0    0 -0.00000000000E+00 -0.00000000000E+00 -0.74505805969E-08  0.93827000000E+00  0.93827000000E+00 0.  1.
     999902    2    1    2    0    0 -0.14274539335E-01  0.13868467446E-01 -0.14112417610E-01  0.10195321068E+01  0.10192401383E+01 0.  0.
     999903    2    3    3    0    0 -0.88028852270E-01 -0.85508126680E-01 -0.39575051741E-01  0.13050806219E+00  0.20135814243E-01 0.  0.
         14    1    1    2    0    0  0.14274539335E-01 -0.13868467446E-01  0.14112417610E-01  0.24397893215E-01  0.00000000000E+00 0. -1.
     999901    1    3    3    0    0  0.73754312935E-01  0.99376594125E-01  0.25462634130E-01  0.88902404460E+00  0.88000000000E+00 0. -1.
        -11    1    4    4    0    0 -0.19822751428E-01 -0.31750923133E-01 -0.97417645334E-02  0.38681076655E-01  0.51100000000E-03 0.  1.
         11    1    4    4    0    0 -0.68206100842E-01 -0.53757203546E-01 -0.29833287207E-01  0.91826985531E-01  0.51100000000E-03 0. -1.
</event>
<event>
 8    1  0.1118868E+005  0.1043930E+01  0.7957747E-01            NaN
         13   -1    0    0    0    0  0.00000000000E+00  0.00000000000E+00  0.74505805969E-08  0.10566000000E+00  0.10566000000E+00 0. -1.
     999900   -1    0    0    0    0 -0.00000000000E+00 -0.00000000000E+00 -0.74505805969E-08  0.93827000000E+00  0.93827000000E+00 0.  1.
     999902    2    1    2    0    0 -0.17393548423E-01 -0.43089652403E-02 -0.26013225760E-01  0.10123421760E+01  0.10118492431E+01 0.  0.
     999903    2    3    3    0    0  0.47038823528E-02  0.11974676664E+00 -0.21477979002E-01  0.12335472420E+00  0.19841113152E-01 0.  0.
         14    1    1    2    0    0  0.17393548423E-01  0.43089652403E-02  0.26013225760E-01  0.31587823962E-01  0.00000000000E+00 0. -1.
     999901    1    3    3    0    0 -0.22097430776E-01 -0.12405573188E+00 -0.45352467583E-02  0.88898745184E+00  0.88000000000E+00 0.  1.
        -11    1    4    4    0    0  0.19445794598E-03  0.69706978133E-01 -0.22027412308E-01  0.73106556671E-01  0.51100000000E-03 0. -1.
         11    1    4    4    0    0  0.45094244068E-02  0.50039788507E-01  0.54943330566E-03  0.50248167531E-01  0.51100000000E-03 0.  1.
</event>
<event>
 8    1  0.1118868E+005  0.1043930E+01  0.7957747E-01            NaN
         13   -1    0    0    0    0  0.00000000000E+00  0.00000000000E+00  0.74505805969E-08  0.10566000000E+00  0.10566000000E+00 0.  1.
     999900   -1    0    0    0    0 -0.00000000000E+00 -0.00000000000E+00 -0.74505805969E-08  0.93827000000E+00  0.93827000000E+00 0.  1.
     999902    2    1    2    0    0  0.77357986875E-02 -0.16960423655E-01  0.15704752194E-01  0.10195550581E+01  0.10192636453E+01 0.  0.
     999903    2    3    3    0    0 -0.96406960518E-02 -0.98730183076E-01  0.86172489442E-01  0.13278905844E+00  0.19147951208E-01 0.  0.
         14    1    1    2    0    0 -0.77357986875E-02  0.16960423655E-01 -0.15704752194E-01  0.24374941915E-01  0.00000000000E+00 0. -1.
     999901    1    3    3    0    0  0.17376494739E-01  0.81769759421E-01 -0.70467737248E-01  0.88676599964E+00  0.88000000000E+00 0. -1.
        -11    1    4    4    0    0 -0.12722509682E-01 -0.64461036544E-01  0.64780214333E-01  0.92270389481E-01  0.51100000000E-03 0. -1.
         11    1    4    4    0    0  0.30818136300E-02 -0.34269146532E-01  0.21392275109E-01  0.40518668964E-01  0.51100000000E-03 0.  1.
</event>
<event>
 8    1  0.1118868E+005  0.1043930E+01  0.7957747E-01            NaN
         13   -1    0    0    0    0  0.00000000000E+00  0.00000000000E+00  0.74505805969E-08  0.10566000000E+00  0.10566000000E+00 0.  1.
     999900   -1    0    0    0    0 -0.00000000000E+00 -0.00000000000E+00 -0.74505805969E-08  0.93827000000E+00  0.93827000000E+00 0. -1.
     999902    2    1    2    0    0  0.18016326425E-01  0.17293558993E-02  0.13113198114E-01  0.10215797281E+01  0.10213352076E+01 0.  0.
     999903    2    3    3    0    0  0.37614602414E-01  0.12479658324E+00 -0.13975500629E-01  0.13238715476E+00  0.18493204800E-01 0.  0.
         14    1    1    2    0    0 -0.18016326425E-01 -0.17293558993E-02 -0.13113198114E-01  0.22350271910E-01  0.00000000000E+00 0. -1.
     999901    1    3    3    0    0 -0.19598275989E-01 -0.12306722734E+00  0.27088698743E-01  0.88919257333E+00  0.88000000000E+00 0.  1.
        -11    1    4    4    0    0  0.31095522946E-01  0.10918422307E+00 -0.60258906666E-02  0.11368684442E+00  0.51100000000E-03 0.  1.
         11    1    4    4    0    0  0.65190794672E-02  0.15612360170E-01 -0.79496099623E-02  0.18700310338E-01  0.51100000000E-03 0. -1.
</event>
<event>
 8    1  0.1118868E+005  0.1043930E+01  0.7957747E-01            NaN
         13   -1    0    0    0    0  0.00000000000E+00  0.00000000000E+00  0.74505805969E-08  0.10566000000E+00  0.10566000000E+00 0.  1.
     999900   -1    0    0    0    0 -0.00000000000E+00 -0.00000000000E+00 -0.74505805969E-08  0.93827000000E+00  0.93827000000E+00 0. -1.
     999902    2    1    2    0    0  0.11682354690E-01 -0.21760215103E-01  0.41530861614E-03  0.10192286467E+01  0.10189292799E+01 0.  0.
     999903    2    3    3    0    0 -0.77696084028E-01  0.40712411598E-01  0.90947936260E-01  0.12788836879E+00  0.19741474893E-01 0.  0.
         14    1    1    2    0    0 -0.11682354690E-01  0.21760215103E-01 -0.41530861614E-03  0.24701353276E-01  0.00000000000E+00 0.  1.
     999901    1    3    3    0    0  0.89378438718E-01 -0.62472626701E-01 -0.90532627644E-01  0.89134027793E+00  0.88000000000E+00 0. -1.
        -11    1    4    4    0    0 -0.25415564678E-01  0.23138927101E-01  0.29305227690E-01  0.45170990317E-01  0.51100000000E-03 0.  1.
         11    1    4    4    0    0 -0.52280519350E-01  0.17573484497E-01  0.61642708570E-01  0.82717378475E-01  0.51100000000E-03 0. -1.
</event>
<event>
 8    1  0.1118868E+005  0.1043930E+01  0.7957747E-01            NaN
         13   -1    0    0    0    0  0.00000000000E+00  0.00000000000E+00  0.74505805969E-08  0.10566000000E+00  0.10566000000E+00 0.  1.
     999900   -1    0    0    0    0 -0.00000000000E+00 -0.00000000000E+00 -0.74505805969E-08  0.93827000000E+00  0.93827000000E+00 0. -1.
     999902    2    1    2    0    0 -0.15933834564E-01  0.17042729527E-01 -0.50887461561E-03  0.10205933193E+01  0.10203264785E+01 0.  0.
     999903    2    3    3    0    0 -0.10065335669E+00 -0.42722858840E-01  0.70727255226E-01  0.13164792772E+00  0.19300035266E-01 0.  0.
         14    1    1    2    0    0  0.15933834564E-01 -0.17042729527E-01  0.50887461561E-03  0.23336680720E-01  0.00000000000E+00 0.  1.
     999901    1    3    3    0    0  0.84719522123E-01  0.59765588366E-01 -0.71236129842E-01  0.88894539156E+00  0.88000000000E+00 0.  1.
        -11    1    4    4    0    0 -0.22400941505E-01 -0.13556539042E-01  0.86137892364E-02  0.27568830536E-01  0.51100000000E-03 0. -1.
         11    1    4    4    0    0 -0.78252415182E-01 -0.29166319798E-01  0.62113465990E-01  0.10407909718E+00  0.51100000000E-03 0.  1.
</event>
<event>
 8    1  0.1118868E+005  0.1043930E+01  0.7957747E-01            NaN
         13   -1    0    0    0    0  0.00000000000E+00  0.00000000000E+00  0.74505805969E-08  0.10566000000E+00  0.10566000000E+00 0.  1.
     999900   -1    0    0    0    0 -0.00000000000E+00 -0.00000000000E+00 -0.74505805969E-08  0.93827000000E+00  0.93827000000E+00 0. -1.
     999902    2    1    2    0    0  0.10522046529E-01  0.22079087202E-01 -0.24255668150E-02  0.10193519014E+01  0.10190555510E+01 0.  0.
     999903    2    3    3    0    0  0.82034150211E-01  0.79084814709E-01  0.63974598546E-01  0.13212441319E+00  0.19496194037E-01 0.  0.
         14    1    1    2    0    0 -0.10522046529E-01 -0.22079087202E-01  0.24255668150E-02  0.24578098568E-01  0.00000000000E+00 0.  1.
     999901    1    3    3    0    0 -0.71512103682E-01 -0.57005727507E-01 -0.66400165361E-01  0.88722748825E+00  0.88000000000E+00 0. -1.
        -11    1    4    4    0    0  0.97829399092E-02  0.10859950149E-01  0.14041349592E-02  0.14692758301E-01  0.51100000000E-03 0.  1.
         11    1    4    4    0    0  0.72251210302E-01  0.68224864559E-01  0.62570463587E-01  0.11743165488E+00  0.51100000000E-03 0. -1.
</event>
<event>
 8    1  0.1118868E+005  0.1043930E+01  0.7957747E-01            NaN
         13   -1    0    0    0    0  0.00000000000E+00  0.00000000000E+00  0.74505805969E-08  0.10566000000E+00  0.10566000000E+00 0.  1.
     999900   -1    0    0    0    0 -0.00000000000E+00 -0.00000000000E+00 -0.74505805969E-08  0.93827000000E+00  0.93827000000E+00 0.  1.
     999902    2    1    2    0    0 -0.89824553863E-02  0.69824581335E-02 -0.19616665681E-01  0.10212528573E+01  0.10210010509E+01 0.  0.
     999903    2    3    3    0    0 -0.66570541554E-01 -0.65099108450E-01 -0.93697417027E-01  0.13333388716E+00  0.18143554859E-01 0.  0.
         14    1    1    2    0    0  0.89824553863E-02 -0.69824581335E-02  0.19616665681E-01  0.22677142650E-01  0.00000000000E+00 0.  1.
     999901    1    3    3    0    0  0.57588086167E-01  0.72081566583E-01  0.74080751346E-01  0.88791897019E+00  0.88000000000E+00 0. -1.
        -11    1    4    4    0    0 -0.34709083026E-01 -0.44967509888E-01 -0.50551534698E-01  0.76042857465E-01  0.51100000000E-03 0. -1.
         11    1    4    4    0    0 -0.31861458528E-01 -0.20131598561E-01 -0.43145882329E-01  0.57291029692E-01  0.51100000000E-03 0.  1.
</event>
<event>
 8    1  0.1118868E+005  0.1043930E+01  0.7957747E-01            NaN
         13   -1    0    0    0    0  0.00000000000E+00  0.00000000000E+00  0.74505805969E-08  0.10566000000E+00  0.10566000000E+00 0. -1.
     999900   -1    0    0    0    0 -0.00000000000E+00 -0.00000000000E+00 -0.74505805969E-08  0.93827000000E+00  0.93827000000E+00 0. -1.
     999902    2    1    2    0    0 -0.11764428560E-01 -0.82607095409E-02 -0.18860198795E-01  0.10202161180E+01  0.10199404783E+01 0.  0.
     999903    2    3    3    0    0 -0.89871027414E-01  0.59056224055E-01  0.69825076985E-01  0.12976831577E+00  0.19995880434E-01 0.  0.
         14    1    1    2    0    0  0.11764428560E-01  0.82607095409E-02  0.18860198795E-01  0.23713882011E-01  0.00000000000E+00 0. -1.
     999901    1    3    3    0    0  0.78106598854E-01 -0.67316933595E-01 -0.88685275780E-01  0.89044780222E+00  0.88000000000E+00 0. -1.
        -11    1    4    4    0    0 -0.63836302015E-01  0.41810782905E-01  0.59848553552E-01  0.96981057456E-01  0.51100000000E-03 0. -1.
         11    1    4    4    0    0 -0.26034725399E-01  0.17245441149E-01  0.99765234326E-02  0.32787258315E-01  0.51100000000E-03 0.  1.
</event>
<event>
 8    1  0.1118868E+005  0.1043930E+01  0.7957747E-01            NaN
         13   -1    0    0    0    0  0.00000000000E+00  0.00000000000E+00  0.74505805969E-08  0.10566000000E+00  0.10566000000E+00 0. -1.
     999900   -1    0    0    0    0 -0.00000000000E+00 -0.00000000000E+00 -0.74505805969E-08  0.93827000000E+00  0.93827000000E+00 0. -1.
     999902    2    1    2    0    0  0.12781409671E-01 -0.11797113833E-01 -0.16547497323E-01  0.10199225846E+01  0.10196399965E+01 0.  0.
     999903    2    3    3    0    0  0.12222845801E+00  0.40985773441E-02 -0.47165064102E-01  0.13247187339E+00  0.19174453925E-01 0.  0.
         14    1    1    2    0    0 -0.12781409671E-01  0.11797113833E-01  0.16547497323E-01  0.24007415430E-01  0.00000000000E+00 0. -1.
     999901    1    3    3    0    0 -0.10944704834E+00 -0.15895691177E-01  0.30617566779E-01  0.88745071119E+00  0.88000000000E+00 0.  1.
        -11    1    4    4    0    0  0.43274010175E-01 -0.48200212904E-02 -0.23926753374E-01  0.49685241369E-01  0.51100000000E-03 0. -1.
         11    1    4    4    0    0  0.78954447832E-01  0.89185986345E-02 -0.23238310728E-01  0.82786632016E-01  0.51100000000E-03 0.  1.
</event>
<event>
 7    1  0.1691284E+005  0.1043930E+01  0.7957747E-01            NaN
         13   -1    0    0    0    0  0.00000000000E+00  0.00000000000E+00  0.74505805969E-08  0.10566000000E+00  0.10566000000E+00 0. -1.
     999900   -1    0    0    0    0 -0.00000000000E+00 -0.00000000000E+00 -0.74505805969E-08  0.93827000000E+00  0.93827000000E+00 0. -1.
     999903    2    1    2    0    0 -0.42013867015E-02  0.93942391316E-01  0.62164952965E-01  0.11409923705E+00  0.17644545364E-01 0.  0.
         14    1    1    2    0    0 -0.13438966735E-01 -0.14668149917E-01  0.35517152257E-01  0.40709072126E-01  0.00000000000E+00 0. -1.
     999901    1    1    2    0    0  0.17640353437E-01 -0.79274241399E-01 -0.97682105222E-01  0.88912169083E+00  0.88000000000E+00 0. -1.
        -11    1    3    3    0    0  0.34287429908E-02  0.68695325404E-01  0.39485689304E-01  0.79310685230E-01  0.51100000000E-03 0.  1.
         11    1    3    3    0    0 -0.76301296922E-02  0.25247065912E-01  0.22679263661E-01  0.34788551817E-01  0.51100000000E-03 0. -1.
</event>
<event>
 8    1  0.1118868E+005  0.1043930E+01  0.7957747E-01            NaN
         13   -1    0    0    0    0  0.00000000000E+00  0.00000000000E+00  0.74505805969E-08  0.10566000000E+00  0.10566000000E+00 0.  1.
     999900   -1    0    0    0    0 -0.00000000000E+00 -0.00000000000E+00 -0.74505805969E-08  0.93827000000E+00  0.93827000000E+00 0.  1.
     999902    2    1    2    0    0 -0.59372498301E-02 -0.22836837107E-01  0.24808530549E-02  0.10202039237E+01  0.10199279971E+01 0.  0.
     999903    2    3    3    0    0  0.54712496807E-01 -0.11804710361E+00  0.18909126543E-01  0.13284082171E+00  0.18988229676E-01 0.  0.
         14    1    1    2    0    0  0.59372498301E-02  0.22836837107E-01 -0.24808530549E-02  0.23726076297E-01  0.00000000000E+00 0. -1.
     999901    1    3    3    0    0 -0.60649746637E-01  0.95210266508E-01 -0.16428273488E-01  0.88736310200E+00  0.88000000000E+00 0. -1.
        -11    1    4    4    0    0  0.14466872315E-01 -0.33017563030E-01 -0.32316884519E-02  0.36196060480E-01  0.51100000000E-03 0. -1.
         11    1    4    4    0    0  0.40245624491E-01 -0.85029540585E-01  0.22140814995E-01  0.96644761226E-01  0.51100000000E-03 0.  1.
</event>
<event>
 8    1  0.1118868E+005  0.1043930E+01  0.7957747E-01            NaN
         13   -1    0    0    0    0  0.00000000000E+00  0.00000000000E+00  0.74505805969E-08  0.10566000000E+00  0.10566000000E+00 0.  1.
     999900   -1    0    0    0    0 -0.00000000000E+00 -0.00000000000E+00 -0.74505805969E-08  0.93827000000E+00  0.93827000000E+00 0. -1.
     999902    2    1    2    0    0 -0.92247103240E-02  0.18360017831E-01  0.84533943597E-02  0.10217118675E+01  0.10214702613E+01 0.  0.
     999903    2    3    3    0    0 -0.49541841061E-01  0.44379894971E-01  0.11375815550E+00  0.13413561852E+00  0.25049493417E-01 0.  0.
         14    1    1    2    0    0  0.92247103240E-02 -0.18360017831E-01 -0.84533943597E-02  0.22218132494E-01  0.00000000000E+00 0. -1.
     999901    1    3    3    0    0  0.40317130737E-01 -0.26019877140E-01 -0.10530476114E+00  0.88757624898E+00  0.88000000000E+00 0. -1.
        -11    1    4    4    0    0  0.19057612859E-02  0.74351481364E-02  0.10962959940E-01  0.13392571282E-01  0.51100000000E-03 0.  1.
         11    1    4    4    0    0 -0.51447602347E-01  0.36944746834E-01  0.10279519556E+00  0.12074304724E+00  0.51100000000E-03 0. -1.
</event>
<event>
 8    1  0.1118868E+005  0.1043930E+01  0.7957747E-01            NaN
         13   -1    0    0    0    0  0.00000000000E+00  0.00000000000E+00  0.74505805969E-08  0.10566000000E+00  0.10566000000E+00 0.  1.
     999900   -1    0    0    0    0 -0.00000000000E+00 -0.00000000000E+00 -0.74505805969E-08  0.93827000000E+00  0.93827000000E+00 0.  1.
     999902    2    1    2    0    0 -0.26069978671E-02  0.27871026065E-01 -0.63012387955E-02  0.10152368625E+01  0.10148313115E+01 0.  0.
     999903    2    3    3    0    0 -0.10040985100E-02  0.12787391325E+00  0.46297706556E-02  0.12950403948E+00  0.19927758544E-01 0.  0.
         14    1    1    2    0    0  0.26069978671E-02 -0.27871026065E-01  0.63012387955E-02  0.28693137544E-01  0.00000000000E+00 0.  1.
     999901    1    3    3    0    0 -0.16028993570E-02 -0.10000288719E+00 -0.10931009451E-01  0.88573282298E+00  0.88000000000E+00 0.  1.
        -11    1    4    4    0    0  0.53166385094E-02  0.54097498147E-01  0.99542869154E-02  0.55264408979E-01  0.51100000000E-03 0.  1.
         11    1    4    4    0    0 -0.63207370195E-02  0.73776415105E-01 -0.53245162598E-02  0.74239630499E-01  0.51100000000E-03 0. -1.
</event>
<event>
 8    1  0.1118868E+005  0.1043930E+01  0.7957747E-01            NaN
         13   -1    0    0    0    0  0.00000000000E+00  0.00000000000E+00  0.74505805969E-08  0.10566000000E+00  0.10566000000E+00 0.  1.
     999900   -1    0    0    0    0 -0.00000000000E+00 -0.00000000000E+00 -0.74505805969E-08  0.93827000000E+00  0.93827000000E+00 0. -1.
     999902    2    1    2    0    0 -0.18936039949E-01 -0.10229207201E-01 -0.10381252580E-01  0.10200347977E+01  0.10197548763E+01 0.  0.
     999903    2    3    3    0    0 -0.19287108272E-01 -0.33335744069E-01 -0.12505835583E+00  0.13229335260E+00  0.19459558116E-01 0.  0.
         14    1    1    2    0    0  0.18936039949E-01  0.10229207201E-01  0.10381252580E-01  0.23895202322E-01  0.00000000000E+00 0.  1.
     999901    1    3    3    0    0  0.35106832345E-03  0.23106536868E-01  0.11467710325E+00  0.88774144508E+00  0.88000000000E+00 0.  1.
        -11    1    4    4    0    0  0.30965720047E-02 -0.43439072160E-02 -0.28930176535E-01  0.29422347348E-01  0.51100000000E-03 0. -1.
         11    1    4    4    0    0 -0.22383680277E-01 -0.28991836853E-01 -0.96128179293E-01  0.10287100525E+00  0.51100000000E-03 0.  1.
</event>
<event>
 8    1  0.1118868E+005  0.1043930E+01  0.7957747E-01            NaN
         13   -1    0    0    0    0  0.00000000000E+00  0.00000000000E+00  0.74505805969E-08  0.10566000000E+00  0.10566000000E+00 0.  1.
     999900   -1    0    0    0    0 -0.00000000000E+00 -0.00000000000E+00 -0.74505805969E-08  0.93827000000E+00  0.93827000000E+00 0.  1.
     999902    2    1    2    0    0 -0.12885353055E-01 -0.18600229787E-01  0.70240017423E-02  0.10202374385E+01  0.10199623000E+01 0.  0.
     999903    2    3    3    0    0  0.32566014924E-01 -0.11627604472E+00 -0.48324391337E-01  0.13194140882E+00  0.22195149462E-01 0.  0.
         14    1    1    2    0    0  0.12885353055E-01  0.18600229787E-01 -0.70240017423E-02  0.23692561533E-01  0.00000000000E+00 0. -1.
     999901    1    3    3    0    0 -0.45451367979E-01  0.97675814930E-01  0.55348393080E-01  0.88829602965E+00  0.88000000000E+00 0. -1.
        -11    1    4    4    0    0  0.36544159808E-02 -0.33858109025E-01 -0.22651231774E-01  0.40903126100E-01  0.51100000000E-03 0. -1.
         11    1    4    4    0    0  0.28911598943E-01 -0.82417935693E-01 -0.25673159564E-01  0.91038282718E-01  0.51100000000E-03 0.  1.
</event>
<event>
 8    1  0.1118868E+005  0.1043930E+01  0.7957747E-01            NaN
         13   -1    0    0    0    0  0.00000000000E+00  0.00000000000E+00  0.74505805969E-08  0.10566000000E+00  0.10566000000E+00 0. -1.
     999900   -1    0    0    0    0 -0.00000000000E+00 -0.00000000000E+00 -0.74505805969E-08  0.93827000000E+00  0.93827000000E+00 0. -1.
     999902    2    1    2    0    0 -0.44172242729E-02  0.94210414486E-02 -0.21634956312E-01  0.10199229338E+01  0.10196403541E+01 0.  0.
     999903    2    3    3    0    0 -0.97154467835E-02  0.12717217775E+00 -0.23113344052E-01  0.13206281708E+00  0.25282568740E-01 0.  0.
         14    1    1    2    0    0  0.44172242729E-02 -0.94210414486E-02  0.21634956312E-01  0.24007066187E-01  0.00000000000E+00 0. -1.
     999901    1    3    3    0    0  0.52982225106E-02 -0.11775113630E+00  0.14783877400E-02  0.88786011674E+00  0.88000000000E+00 0.  1.
        -11    1    4    4    0    0 -0.56077151982E-03  0.85944070627E-01 -0.49570545009E-02  0.86090250615E-01  0.51100000000E-03 0.  1.
         11    1    4    4    0    0 -0.91546752637E-02  0.41228107119E-01 -0.18156289552E-01  0.45972566462E-01  0.51100000000E-03 0. -1.
</event>
<event>
 8    1  0.1118868E+005  0.1043930E+01  0.7957747E-01            NaN
         13   -1    0    0    0    0  0.00000000000E+00  0.00000000000E+00  0.74505805969E-08  0.10566000000E+00  0.10566000000E+00 0. -1.
     999900   -1    0    0    0    0 -0.00000000000E+00 -0.00000000000E+00 -0.74505805969E-08  0.93827000000E+00  0.93827000000E+00 0. -1.
     999902    2    1    2    0    0  0.33773832292E-02 -0.27437141677E-01  0.65986038563E-02  0.10155091444E+01  0.10151113620E+01 0.  0.
     999903    2    3    3    0    0 -0.70188322955E-01 -0.15093664150E-01  0.10297781424E+00  0.12710989475E+00  0.19956846996E-01 0.  0.
         14    1    1    2    0    0 -0.33773832292E-02  0.27437141677E-01 -0.65986038563E-02  0.28420855612E-01  0.00000000000E+00 0. -1.
     999901    1    3    3    0    0  0.73565706184E-01 -0.12343477526E-01 -0.96379210379E-01  0.88839924964E+00  0.88000000000E+00 0. -1.
        -11    1    4    4    0    0 -0.61480386106E-01 -0.18812960884E-01  0.95026157863E-01  0.11473446375E+00  0.51100000000E-03 0.  1.
         11    1    4    4    0    0 -0.87079368487E-02  0.37192967341E-02  0.79516563724E-02  0.12375430999E-01  0.51100000000E-03 0. -1.
</event>
<event>
 8    1  0.1118868E+005  0.1043930E+01  0.7957747E-01            NaN
         13   -1    0    0    0    0  0.00000000000E+00  0.00000000000E+00  0.74505805969E-08  0.10566000000E+00  0.10566000000E+00 0.  1.
     999900   -1    0    0    0    0 -0.00000000000E+00 -0.00000000000E+00 -0.74505805969E-08  0.93827000000E+00  0.93827000000E+00 0. -1.
     999902    2    1    2    0    0 -0.11207582281E-01 -0.18830132138E-02  0.20988228412E-01  0.10200624201E+01  0.10197831532E+01 0.  0.
     999903    2    3    3    0    0  0.98191224390E-01  0.75609770181E-01 -0.29271284374E-01  0.12849119522E+00  0.17170476552E-01 0.  0.
         14    1    1    2    0    0  0.11207582281E-01  0.18830132138E-02 -0.20988228412E-01  0.23867579920E-01  0.00000000000E+00 0. -1.
     999901    1    3    3    0    0 -0.10939880667E+00 -0.77492783395E-01  0.50259512786E-01  0.89157122486E+00  0.88000000000E+00 0.  1.
        -11    1    4    4    0    0  0.50331468884E-01  0.47635227439E-01 -0.21182140050E-01  0.72465963260E-01  0.51100000000E-03 0. -1.
         11    1    4    4    0    0  0.47859755507E-01  0.27974542742E-01 -0.80891443235E-02  0.56025231956E-01  0.51100000000E-03 0.  1.
</event>
<event>
 8    1  0.1118868E+005  0.1043930E+01  0.7957747E-01            NaN
         13   -1    0    0    0    0  0.00000000000E+00  0.00000000000E+00  0.74505805969E-08  0.10566000000E+00  0.10566000000E+00 0. -1.
     999900   -1    0    0    0    0 -0.00000000000E+00 -0.00000000000E+00 -0.74505805969E-08  0.93827000000E+00  0.93827000000E+00 0. -1.
     999902    2    1    2    0    0 -0.83623810163E-02  0.23480641703E-02 -0.22044978177E-01  0.10202356149E+01  0.10199604336E+01 0.  0.
     999903    2    3    3    0    0  0.10271601055E+00 -0.33599416145E-01 -0.71531734572E-01  0.13114643521E+00  0.20077321277E-01 0.  0.
         14    1    1    2    0    0  0.83623810163E-02 -0.23480641703E-02  0.22044978177E-01  0.23694385083E-01  0.00000000000E+00 0. -1.
     999901    1    3    3    0    0 -0.11107839156E+00  0.35947480315E-01  0.49486756395E-01  0.88908917971E+00  0.88000000000E+00 0.  1.
        -11    1    4    4    0    0  0.27650506294E-01 -0.97758155209E-03 -0.23060624596E-01  0.36021655872E-01  0.51100000000E-03 0.  1.
         11    1    4    4    0    0  0.75065504253E-01 -0.32621834593E-01 -0.48471109976E-01  0.95124779338E-01  0.51100000000E-03 0. -1.
</event>
<event>
 8    1  0.1118868E+005  0.1043930E+01  0.7957747E-01            NaN
         13   -1    0    0    0    0  0.00000000000E+00  0.00000000000E+00  0.74505805969E-08  0.10566000000E+00  0.10566000000E+00 0.  1.
     999900   -1    0    0    0    0 -0.00000000000E+00 -0.00000000000E+00 -0.74505805969E-08  0.93827000000E+00  0.93827000000E+00 0.  1.
     999902    2    1    2    0    0  0.33065805323E-02  0.16108135599E-01 -0.12019945122E-01  0.10235612841E+01  0.10233585968E+01 0.  0.
     999903    2    3    3    0    0  0.23099369646E-01 -0.40848145237E-01 -0.12432548964E+00  0.13437721554E+00  0.19956373292E-01 0.  0.
         14    1    1    2    0    0 -0.33065805323E-02 -0.16108135599E-01  0.12019945122E-01  0.20368715915E-01  0.00000000000E+00 0. -1.
     999901    1    3    3    0    0 -0.19792789114E-01  0.56956280836E-01  0.11230554452E+00  0.88918406855E+00  0.88000000000E+00 0. -1.
        -11    1    4    4    0    0  0.86885872954E-02 -0.19653915056E-01 -0.31925314661E-01  0.38487072679E-01  0.51100000000E-03 0.  1.
         11    1    4    4    0    0  0.14410782351E-01 -0.21194230182E-01 -0.92400174977E-01  0.95890142860E-01  0.51100000000E-03 0. -1.
</event>
<event>
 8    1  0.1486972E+005  0.1043930E+01  0.7957747E-01            NaN
         13   -1    0    0    0    0  0.00000000000E+00  0.00000000000E+00  0.74505805969E-08  0.10566000000E+00  0.10566000000E+00 0. -1.
     999900   -1    0    0    0    0 -0.00000000000E+00 -0.00000000000E+00 -0.74505805969E-08  0.93827000000E+00  0.93827000000E+00 0.  1.
     999902    2    1    2    0    0  0.20267918546E-01 -0.60555559308E-03  0.13439316330E-01  0.10196036677E+01  0.10193134301E+01 0.  0.
     999903    2    3    3    0    0 -0.99804426606E-02  0.11992692484E+00 -0.42656215339E-01  0.12910394795E+00  0.19136356300E-01 0.  0.
         14    1    1    2    0    0 -0.20267918546E-01  0.60555559308E-03 -0.13439316330E-01  0.24326332300E-01  0.00000000000E+00 0.  1.
     999901    1    3    3    0    0  0.30248361206E-01 -0.12053248043E+00  0.56095531669E-01  0.89049971975E+00  0.88000000000E+00 0.  1.
        -11    1    4    4    0    0 -0.48479298568E-02  0.56888990347E-01 -0.10155415287E-01  0.57993561946E-01  0.51100000000E-03 0. -1.
         11    1    4    4    0    0 -0.51325128038E-02  0.63037934495E-01 -0.32500800052E-01  0.71110386007E-01  0.51100000000E-03 0.  1.
</event>
<event>
 8    1  0.1118868E+005  0.1043930E+01  0.7957747E-01            NaN
         13   -1    0    0    0    0  0.00000000000E+00  0.00000000000E+00  0.74505805969E-08  0.10566000000E+00  0.10566000000E+00 0.  1.
     999900   -1    0    0    0    0 -0.00000000000E+00 -0.00000000000E+00 -0.74505805969E-08  0.93827000000E+00  0.93827000000E+00 0. -1.
     999902    2    1    2    0    0 -0.10040669439E-01  0.11216562380E-01 -0.19975580952E-01  0.10189170004E+01  0.10186099369E+01 0.  0.
     999903    2    3    3    0    0  0.74158254591E-01 -0.47829668147E-01  0.87997038758E-01  0.12637344250E+00  0.20967695640E-01 0.  0.
         14    1    1    2    0    0  0.10040669439E-01 -0.11216562380E-01  0.19975580952E-01  0.25012999596E-01  0.00000000000E+00 0.  1.
     999901    1    3    3    0    0 -0.84198924030E-01  0.59046230527E-01 -0.10797261971E+00  0.89254355790E+00  0.88000000000E+00 0. -1.
        -11    1    4    4    0    0  0.20568719220E-01 -0.10650564023E-01  0.11568052205E-01  0.25895707697E-01  0.51100000000E-03 0.  1.
         11    1    4    4    0    0  0.53589535372E-01 -0.37179104124E-01  0.76428986553E-01  0.10047773480E+00  0.51100000000E-03 0. -1.
</event>
<event>
 8    1  0.1118868E+005  0.1043930E+01  0.7957747E-01            NaN
         13   -1    0    0    0    0  0.00000000000E+00  0.00000000000E+00  0.74505805969E-08  0.10566000000E+00  0.10566000000E+00 0.  1.
     999900   -1    0    0    0    0 -0.00000000000E+00 -0.00000000000E+00 -0.74505805969E-08  0.93827000000E+00  0.93827000000E+00 0.  1.
     999902    2    1    2    0    0  0.62661692240E-02  0.18133172645E-01 -0.15159797046E-01  0.10194780824E+01  0.10191848038E+01 0.  0.
     999903    2    3    3    0    0 -0.67407959740E-01  0.87946762719E-02 -0.11043686751E+00  0.13122541288E+00  0.20065590267E-01 0.  0.
         14    1    1    2    0    0 -0.62661692240E-02 -0.18133172645E-01  0.15159797046E-01  0.24451917581E-01  0.00000000000E+00 0.  1.
     999901    1    3    3    0    0  0.73674128964E-01  0.93384963730E-02  0.95277070462E-01  0.88825266954E+00  0.88000000000E+00 0. -1.
        -11    1    4    4    0    0 -0.32900916841E-01  0.13019740732E-01 -0.65044347897E-01  0.74047365193E-01  0.51100000000E-03 0.  1.
         11    1    4    4    0    0 -0.34507042898E-01 -0.42250644600E-02 -0.45392519611E-01  0.57178047684E-01  0.51100000000E-03 0. -1.
</event>
<event>
 8    1  0.1118868E+005  0.1043930E+01  0.7957747E-01            NaN
         13   -1    0    0    0    0  0.00000000000E+00  0.00000000000E+00  0.74505805969E-08  0.10566000000E+00  0.10566000000E+00 0.  1.
     999900   -1    0    0    0    0 -0.00000000000E+00 -0.00000000000E+00 -0.74505805969E-08  0.93827000000E+00  0.93827000000E+00 0.  1.
     999902    2    1    2    0    0  0.20582276104E-01  0.92504581488E-02 -0.91227786818E-02  0.10195901940E+01  0.10192996309E+01 0.  0.
     999903    2    3    3    0    0  0.64886866952E-01  0.88210739483E-01 -0.72181767395E-01  0.13270008871E+00  0.20190738850E-01 0.  0.
         14    1    1    2    0    0 -0.20582276104E-01 -0.92504581488E-02  0.91227786818E-02  0.24339806007E-01  0.00000000000E+00 0.  1.
     999901    1    3    3    0    0 -0.44304590848E-01 -0.78960281334E-01  0.63058988713E-01  0.88689010529E+00  0.88000000000E+00 0. -1.
        -11    1    4    4    0    0  0.32920370977E-01  0.49589010542E-01 -0.50562290323E-01  0.78100109574E-01  0.51100000000E-03 0.  1.
         11    1    4    4    0    0  0.31966495976E-01  0.38621728941E-01 -0.21619477072E-01  0.54599979132E-01  0.51100000000E-03 0. -1.
</event>
<event>
 8    1  0.1118868E+005  0.1043930E+01  0.7957747E-01            NaN
         13   -1    0    0    0    0  0.00000000000E+00  0.00000000000E+00  0.74505805969E-08  0.10566000000E+00  0.10566000000E+00 0.  1.
     999900   -1    0    0    0    0 -0.00000000000E+00 -0.00000000000E+00 -0.74505805969E-08  0.93827000000E+00  0.93827000000E+00 0.  1.
     999902    2    1    2    0    0 -0.11593607628E-02  0.22905445100E-01  0.27558119080E-02  0.10208302591E+01  0.10205688707E+01 0.  0.
     999903    2    3    3    0    0  0.51691899788E-01  0.41553921028E-01 -0.10947393748E+00  0.13193401199E+00  0.31988430328E-01 0.  0.
         14    1    1    2    0    0  0.11593607628E-02 -0.22905445100E-01 -0.27558119080E-02  0.23099740948E-01  0.00000000000E+00 0.  1.
     999901    1    3    3    0    0 -0.52851260551E-01 -0.18648475928E-01  0.11222974939E+00  0.88889624706E+00  0.88000000000E+00 0. -1.
        -11    1    4    4    0    0  0.39469112776E-01  0.24039967152E-01 -0.47035237786E-01  0.65941683316E-01  0.51100000000E-03 0.  1.
         11    1    4    4    0    0  0.12222787012E-01  0.17513953876E-01 -0.62438699697E-01  0.65992328672E-01  0.51100000000E-03 0. -1.
</event>
<event>
 8    1  0.1118868E+005  0.1043930E+01  0.7957747E-01            NaN
         13   -1    0    0    0    0  0.00000000000E+00  0.00000000000E+00  0.74505805969E-08  0.10566000000E+00  0.10566000000E+00 0.  1.
     999900   -1    0    0    0    0 -0.00000000000E+00 -0.00000000000E+00 -0.74505805969E-08  0.93827000000E+00  0.93827000000E+00 0.  1.
     999902    2    1    2    0    0  0.16497207533E-01  0.17115552816E-01 -0.32582389986E-02  0.10199359148E+01  0.10196536442E+01 0.  0.
     999903    2    3    3    0    0  0.11586917287E+00 -0.56094952114E-01 -0.14909391854E-01  0.13124569040E+00  0.20756502839E-01 0.  0.
         14    1    1    2    0    0 -0.16497207533E-01 -0.17115552816E-01  0.32582389986E-02  0.23994085228E-01  0.00000000000E+00 0.  1.
     999901    1    3    3    0    0 -0.99371965335E-01  0.73210504930E-01  0.11651152855E-01  0.88869022437E+00  0.88000000000E+00 0.  1.
        -11    1    4    4    0    0  0.27265382590E-01 -0.94641691616E-02 -0.11466939658E-01  0.31059996971E-01  0.51100000000E-03 0.  1.
         11    1    4    4    0    0  0.88603790277E-01 -0.46630782953E-01 -0.34424521962E-02  0.10018569343E+00  0.51100000000E-03 0. -1.
</event>
<event>
 8    1  0.1118868E+005  0.1043930E+01  0.7957747E-01            NaN
         13   -1    0    0    0    0  0.00000000000E+00  0.00000000000E+00  0.74505805969E-08  0.10566000000E+00  0.10566000000E+00 0.  1.
     999900   -1    0    0    0    0 -0.00000000000E+00 -0.00000000000E+00 -0.74505805969E-08  0.93827000000E+00  0.93827000000E+00 0. -1.
     999902    2    1    2    0    0  0.29395670314E-02 -0.10053796587E-03 -0.23886442202E-01  0.10198631497E+01  0.10195791440E+01 0.  0.
     999903    2    3    3    0    0 -0.53398358870E-01  0.11458842566E+00 -0.27198169423E-01  0.13062837316E+00  0.18497011343E-01 0.  0.
         14    1    1    2    0    0 -0.29395670314E-02  0.10053796587E-03  0.23886442202E-01  0.24066850298E-01  0.00000000000E+00 0.  1.
     999901    1    3    3    0    0  0.56337925901E-01 -0.11468896363E+00  0.33117272208E-02  0.88923477654E+00  0.88000000000E+00 0.  1.
        -11    1    4    4    0    0 -0.14788531151E-01  0.20196465795E-01 -0.11075249000E-01  0.27377365571E-01  0.51100000000E-03 0. -1.
         11    1    4    4    0    0 -0.38609827719E-01  0.94391959868E-01 -0.16122920423E-01  0.10325100759E+00  0.51100000000E-03 0.  1.
</event>
<event>
 8    1  0.1118868E+005  0.1043930E+01  0.7957747E-01            NaN
         13   -1    0    0    0    0  0.00000000000E+00  0.00000000000E+00  0.74505805969E-08  0.10566000000E+00  0.10566000000E+00 0.  1.
     999900   -1    0    0    0    0 -0.00000000000E+00 -0.00000000000E+00 -0.74505805969E-08  0.93827000000E+00  0.93827000000E+00 0. -1.
     999902    2    1    2    0    0 -0.11890044461E-02  0.23078255531E-01 -0.61715039032E-02  0.10200112402E+01  0.10197307601E+01 0.  0.
     999903    2    3    3    0    0  0.29944610060E-01  0.41219624041E-01 -0.11999120398E+00  0.13194967965E+00  0.20422826650E-01 0.  0.
         14    1    1    2    0    0  0.11890044461E-02 -0.23078255531E-01  0.61715039032E-02  0.23918759800E-01  0.00000000000E+00 0.  1.
     999901    1    3    3    0    0 -0.31133614507E-01 -0.18141368510E-01  0.11381970008E+00  0.88806156055E+00  0.88000000000E+00 0.  1.
        -11    1    4    4    0    0  0.23650821164E-01  0.19522922459E-01 -0.52822067869E-01  0.61081403210E-01  0.51100000000E-03 0. -1.
         11    1    4    4    0    0  0.62937888968E-02  0.21696701582E-01 -0.67169136113E-01  0.70868276438E-01  0.51100000000E-03 0.  1.
</event>
<event>
 8    1  0.1118868E+005  0.1043930E+01  0.7957747E-01            NaN
         13   -1    0    0    0    0  0.00000000000E+00  0.00000000000E+00  0.74505805969E-08  0.10566000000E+00  0.10566000000E+00 0.  1.
     999900   -1    0    0    0    0 -0.00000000000E+00 -0.00000000000E+00 -0.74505805969E-08  0.93827000000E+00  0.93827000000E+00 0.  1.
     999902    2    1    2    0    0 -0.20520587354E-01 -0.53613329476E-02  0.11732694616E-01  0.10196917138E+01  0.10194035985E+01 0.  0.
     999903    2    3    3    0    0 -0.64212769386E-01 -0.89929112090E-01  0.70693742955E-01  0.13259694924E+00  0.19334443385E-01 0.  0.
         14    1    1    2    0    0  0.20520587354E-01  0.53613329476E-02 -0.11732694616E-01  0.24238286228E-01  0.00000000000E+00 0.  1.
     999901    1    3    3    0    0  0.43692182032E-01  0.84567779143E-01 -0.58961048339E-01  0.88709476453E+00  0.88000000000E+00 0. -1.
        -11    1    4    4    0    0 -0.34478196482E-01 -0.57113649929E-01  0.32949877888E-01  0.74408807373E-01  0.51100000000E-03 0.  1.
         11    1    4    4    0    0 -0.29734572904E-01 -0.32815462161E-01  0.37743865067E-01  0.58188141866E-01  0.51100000000E-03 0. -1.
</event>
<event>
 8    1  0.1118868E+005  0.1043930E+01  0.7957747E-01            NaN
         13   -1    0    0    0    0  0.00000000000E+00  0.00000000000E+00  0.74505805969E-08  0.10566000000E+00  0.10566000000E+00 0.  1.
     999900   -1    0    0    0    0 -0.00000000000E+00 -0.00000000000E+00 -0.74505805969E-08  0.93827000000E+00  0.93827000000E+00 0. -1.
     999902    2    1    2    0    0  0.59464572459E-02  0.18690168194E-01  0.14988328809E-01  0.10192453339E+01  0.10189463764E+01 0.  0.
     999903    2    3    3    0    0 -0.33783956893E-01 -0.67769036682E-02  0.12502708188E+00  0.13113745489E+00  0.19441674414E-01 0.  0.
         14    1    1    2    0    0 -0.59464572459E-02 -0.18690168194E-01 -0.14988328809E-01  0.24684666119E-01  0.00000000000E+00 0.  1.
     999901    1    3    3    0    0  0.39730414139E-01  0.25467071862E-01 -0.11003875307E+00  0.88810787900E+00  0.88000000000E+00 0. -1.
        -11    1    4    4    0    0 -0.32216013301E-01 -0.10480063407E-01  0.95475049949E-01  0.10130868435E+00  0.51100000000E-03 0. -1.
         11    1    4    4    0    0 -0.15679435917E-02  0.37031597387E-02  0.29552031931E-01  0.29828770531E-01  0.51100000000E-03 0.  1.
</event>
<event>
 8    1  0.1118868E+005  0.1043930E+01  0.7957747E-01            NaN
         13   -1    0    0    0    0  0.00000000000E+00  0.00000000000E+00  0.74505805969E-08  0.10566000000E+00  0.10566000000E+00 0.  1.
     999900   -1    0    0    0    0 -0.00000000000E+00 -0.00000000000E+00 -0.74505805969E-08  0.93827000000E+00  0.93827000000E+00 0.  1.
     999902    2    1    2    0    0 -0.18202387449E-01  0.16372538072E-01 -0.52994957674E-02  0.10188806174E+01  0.10185726489E+01 0.  0.
     999903    2    3    3    0    0 -0.98955765994E-02 -0.65115288816E-01 -0.10909809162E+00  0.12900230129E+00  0.20031896290E-01 0.  0.
         14    1    1    2    0    0  0.18202387449E-01 -0.16372538072E-01  0.52994957674E-02  0.25049382570E-01  0.00000000000E+00 0.  1.
     999901    1    3    3    0    0 -0.83068108496E-02  0.81487826888E-01  0.10379859585E+00  0.88987831614E+00  0.88000000000E+00 0. -1.
        -11    1    4    4    0    0  0.95948371013E-03 -0.40224958164E-01 -0.77594367693E-01  0.87407750726E-01  0.51100000000E-03 0.  1.
         11    1    4    4    0    0 -0.10855060310E-01 -0.24890330652E-01 -0.31503723926E-01  0.41594550562E-01  0.51100000000E-03 0. -1.
</event>
<event>
 8    1  0.1118868E+005  0.1043930E+01  0.7957747E-01            NaN
         13   -1    0    0    0    0  0.00000000000E+00  0.00000000000E+00  0.74505805969E-08  0.10566000000E+00  0.10566000000E+00 0.  1.
     999900   -1    0    0    0    0 -0.00000000000E+00 -0.00000000000E+00 -0.74505805969E-08  0.93827000000E+00  0.93827000000E+00 0.  1.
     999902    2    1    2    0    0 -0.13434198671E-01 -0.19736232384E-01  0.16410867099E-02  0.10199990634E+01  0.10197182942E+01 0.  0.
     999903    2    3    3    0    0 -0.84782860413E-01  0.92281455425E-01  0.27023433851E-01  0.12967167557E+00  0.19505820477E-01 0.  0.
         14    1    1    2    0    0  0.13434198671E-01  0.19736232384E-01 -0.16410867099E-02  0.23930936635E-01  0.00000000000E+00 0.  1.
     999901    1    3    3    0    0  0.71348661742E-01 -0.11201768781E+00 -0.25382347142E-01  0.89032738780E+00  0.88000000000E+00 0.  1.
        -11    1    4    4    0    0 -0.13303157177E-01  0.82339321910E-02 -0.14567995465E-02  0.15721164592E-01  0.51100000000E-03 0. -1.
         11    1    4    4    0    0 -0.71479703236E-01  0.84047523234E-01  0.28480233398E-01  0.11395051098E+00  0.51100000000E-03 0.  1.
</event>
<event>
 8    1  0.1118868E+005  0.1043930E+01  0.7957747E-01            NaN
         13   -1    0    0    0    0  0.00000000000E+00  0.00000000000E+00  0.74505805969E-08  0.10566000000E+00  0.10566000000E+00 0. -1.
     999900   -1    0    0    0    0 -0.00000000000E+00 -0.00000000000E+00 -0.74505805969E-08  0.93827000000E+00  0.93827000000E+00 0.  1.
     999902    2    1    2    0    0  0.16535895960E-01  0.35049093822E-02  0.15635112128E-01  0.10209044278E+01  0.10206447343E+01 0.  0.
     999903    2    3    3    0    0  0.39661085418E-01 -0.94589219583E-01  0.81675757629E-01  0.13269352974E+00  0.20408853324E-01 0.  0.
         14    1    1    2    0    0 -0.16535895960E-01 -0.35049093822E-02 -0.15635112128E-01  0.23025572223E-01  0.00000000000E+00 0.  1.
     999901    1    3    3    0    0 -0.23125189458E-01  0.98094128965E-01 -0.66040645501E-01  0.88821089803E+00  0.88000000000E+00 0. -1.
        -11    1    4    4    0    0  0.20630147516E-01 -0.24948648010E-01  0.25893457693E-01  0.41458054662E-01  0.51100000000E-03 0.  1.
         11    1    4    4    0    0  0.19030937902E-01 -0.69640571573E-01  0.55782299936E-01  0.91235475082E-01  0.51100000000E-03 0. -1.
</event>
<event>
 8    1  0.1118868E+005  0.1043930E+01  0.7957747E-01            NaN
         13   -1    0    0    0    0  0.00000000000E+00  0.00000000000E+00  0.74505805969E-08  0.10566000000E+00  0.10566000000E+00 0. -1.
     999900   -1    0    0    0    0 -0.00000000000E+00 -0.00000000000E+00 -0.74505805969E-08  0.93827000000E+00  0.93827000000E+00 0.  1.
     999902    2    1    2    0    0  0.14025200256E-01  0.13810493944E-01 -0.89839215008E-02  0.10222932990E+01  0.10220643044E+01 0.  0.
     999903    2    3    3    0    0  0.87041752116E-01 -0.84304291751E-01 -0.50435769020E-01  0.13286866267E+00  0.20659973499E-01 0.  0.
         14    1    1    2    0    0 -0.14025200256E-01 -0.13810493944E-01  0.89839215008E-02  0.21636701013E-01  0.00000000000E+00 0. -1.
     999901    1    3    3    0    0 -0.73016551860E-01  0.98114785695E-01  0.41451847520E-01  0.88942463631E+00  0.88000000000E+00 0.  1.
        -11    1    4    4    0    0  0.30752840799E-01 -0.17001338424E-01 -0.15969635741E-01  0.38601465155E-01  0.51100000000E-03 0.  1.
         11    1    4    4    0    0  0.56288911317E-01 -0.67302953327E-01 -0.34466133279E-01  0.94267197518E-01  0.51100000000E-03 0. -1.
</event>
<event>
 8    1  0.1118868E+005  0.1043930E+01  0.7957747E-01            NaN
         13   -1    0    0    0    0  0.00000000000E+00  0.00000000000E+00  0.74505805969E-08  0.10566000000E+00  0.10566000000E+00 0.  1.
     999900   -1    0    0    0    0 -0.00000000000E+00 -0.00000000000E+00 -0.74505805969E-08  0.93827000000E+00  0.93827000000E+00 0.  1.
     999902    2    1    2    0    0 -0.16317914165E-01 -0.16870308705E-01  0.64260694347E-02  0.10195953332E+01  0.10193048943E+01 0.  0.
     999903    2    3    3    0    0  0.67884651890E-01  0.86823141526E-01  0.61768970822E-01  0.12779645429E+00  0.19233931085E-01 0.  0.
         14    1    1    2    0    0  0.16317914165E-01  0.16870308705E-01 -0.64260694347E-02  0.24334666771E-01  0.00000000000E+00 0. -1.
     999901    1    3    3    0    0 -0.84202566054E-01 -0.10369345023E+00 -0.55342901387E-01  0.89179887894E+00  0.88000000000E+00 0.  1.
        -11    1    4    4    0    0  0.44269230988E-01  0.45405050330E-01  0.42658379035E-01  0.76428933204E-01  0.51100000000E-03 0.  1.
         11    1    4    4    0    0  0.23615420901E-01  0.41418091196E-01  0.19110591787E-01  0.51367521082E-01  0.51100000000E-03 0. -1.
</event>
<event>
 8    1  0.1118868E+005  0.1043930E+01  0.7957747E-01            NaN
         13   -1    0    0    0    0  0.00000000000E+00  0.00000000000E+00  0.74505805969E-08  0.10566000000E+00  0.10566000000E+00 0. -1.
     999900   -1    0    0    0    0 -0.00000000000E+00 -0.00000000000E+00 -0.74505805969E-08  0.93827000000E+00  0.93827000000E+00 0. -1.
     999902    2    1    2    0    0  0.12699137338E-01 -0.75912014333E-02  0.19255891842E-01  0.10196465942E+01  0.10193573923E+01 0.  0.
     999903    2    3    3    0    0  0.10536595688E+00 -0.72517167798E-01  0.27029066650E-01  0.13236820335E+00  0.20737558224E-01 0.  0.
         14    1    1    2    0    0 -0.12699137338E-01  0.75912014333E-02 -0.19255891842E-01  0.24283405835E-01  0.00000000000E+00 0.  1.
     999901    1    3    3    0    0 -0.92666819540E-01  0.64925966365E-01 -0.77731748080E-02  0.88727839081E+00  0.88000000000E+00 0.  1.
        -11    1    4    4    0    0  0.31711197347E-01 -0.12109234691E-01  0.11548165489E-01  0.35858818289E-01  0.51100000000E-03 0. -1.
         11    1    4    4    0    0  0.73654759532E-01 -0.60407933107E-01  0.15480901161E-01  0.96509385065E-01  0.51100000000E-03 0.  1.
</event>
<event>
 8    1  0.1118868E+005  0.1043930E+01  0.7957747E-01            NaN
         13   -1    0    0    0    0  0.00000000000E+00  0.00000000000E+00  0.74505805969E-08  0.10566000000E+00  0.10566000000E+00 0. -1.
     999900   -1    0    0    0    0 -0.00000000000E+00 -0.00000000000E+00 -0.74505805969E-08  0.93827000000E+00  0.93827000000E+00 0. -1.
     999902    2    1    2    0    0  0.18055794066E-01  0.56064202304E-02  0.12072565172E-01  0.10214980924E+01  0.10212517625E+01 0.  0.
     999903    2    3    3    0    0  0.92865825157E-01  0.92228715405E-01 -0.17621340657E-01  0.13358948744E+00  0.20135592412E-01 0.  0.
         14    1    1    2    0    0 -0.18055794066E-01 -0.56064202304E-02 -0.12072565172E-01  0.22431907565E-01  0.00000000000E+00 0.  1.
     999901    1    3    3    0    0 -0.74810031091E-01 -0.86622295175E-01  0.29693905829E-01  0.88790860499E+00  0.88000000000E+00 0. -1.
        -11    1    4    4    0    0  0.32413149388E-01  0.37888902402E-01  0.22277950683E-02  0.49913979709E-01  0.51100000000E-03 0.  1.
         11    1    4    4    0    0  0.60452675769E-01  0.54339813003E-01 -0.19849135725E-01  0.83675507736E-01  0.51100000000E-03 0. -1.
</event>
<event>
 8    1  0.1118868E+005  0.1043930E+01  0.7957747E-01            NaN
         13   -1    0    0    0    0  0.00000000000E+00  0.00000000000E+00  0.74505805969E-08  0.10566000000E+00  0.10566000000E+00 0. -1.
     999900   -1    0    0    0    0 -0.00000000000E+00 -0.00000000000E+00 -0.74505805969E-08  0.93827000000E+00  0.93827000000E+00 0.  1.
     999902    2    1    2    0    0 -0.54151395460E-02  0.16419274834E-01 -0.13981512939E-01  0.10216949145E+01  0.10214529354E+01 0.  0.
     999903    2    3    3    0    0 -0.12674077238E+00  0.28260423229E-01  0.18111036917E-01  0.13271231979E+00  0.20559067593E-01 0.  0.
         14    1    1    2    0    0  0.54151395460E-02 -0.16419274834E-01  0.13981512939E-01  0.22235085483E-01  0.00000000000E+00 0. -1.
     999901    1    3    3    0    0  0.12132563283E+00 -0.11841148394E-01 -0.32092549856E-01  0.88898259473E+00  0.88000000000E+00 0. -1.
        -11    1    4    4    0    0 -0.70606033875E-01  0.23733223899E-01  0.37162356657E-02  0.74582501062E-01  0.51100000000E-03 0. -1.
         11    1    4    4    0    0 -0.56134738505E-01  0.45271993293E-02  0.14394801252E-01  0.58129818724E-01  0.51100000000E-03 0.  1.
</event>
<event>
 8    1  0.1118868E+005  0.1043930E+01  0.7957747E-01            NaN
         13   -1    0    0    0    0  0.00000000000E+00  0.00000000000E+00  0.74505805969E-08  0.10566000000E+00  0.10566000000E+00 0. -1.
     999900   -1    0    0    0    0 -0.00000000000E+00 -0.00000000000E+00 -0.74505805969E-08  0.93827000000E+00  0.93827000000E+00 0. -1.
     999902    2    1    2    0    0 -0.75402911256E-02  0.16041432265E-01  0.17434980185E-01  0.10190671346E+01  0.10187637915E+01 0.  0.
     999903    2    3    3    0    0  0.73487747823E-01 -0.52658568648E-03 -0.10180087552E+00  0.12718304375E+00  0.20282553779E-01 0.  0.
         14    1    1    2    0    0  0.75402911256E-02 -0.16041432265E-01 -0.17434980185E-01  0.24862865350E-01  0.00000000000E+00 0.  1.
     999901    1    3    3    0    0 -0.81028038949E-01  0.16568017951E-01  0.11923585571E+00  0.89188409090E+00  0.88000000000E+00 0.  1.
        -11    1    4    4    0    0  0.12105443130E-01 -0.77132990300E-02 -0.21394503578E-01  0.25768636745E-01  0.51100000000E-03 0. -1.
         11    1    4    4    0    0  0.61382304693E-01  0.71867133435E-02 -0.80406371943E-01  0.10141440701E+00  0.51100000000E-03 0.  1.
</event>
<event>
 8    1  0.1118868E+005  0.1043930E+01  0.7957747E-01            NaN
         13   -1    0    0    0    0  0.00000000000E+00  0.00000000000E+00  0.74505805969E-08  0.10566000000E+00  0.10566000000E+00 0. -1.
     999900   -1    0    0    0    0 -0.00000000000E+00 -0.00000000000E+00 -0.74505805969E-08  0.93827000000E+00  0.93827000000E+00 0. -1.
     999902    2    1    2    0    0 -0.18058103724E-01  0.15806957406E-01  0.48699440848E-02  0.10194418117E+01  0.10191476517E+01 0.  0.
     999903    2    3    3    0    0 -0.41846257982E-02 -0.12255713200E+00 -0.29690078494E-01  0.12785250611E+00  0.20663999116E-01 0.  0.
         14    1    1    2    0    0  0.18058103724E-01 -0.15806957406E-01 -0.48699440848E-02  0.24488188335E-01  0.00000000000E+00 0.  1.
     999901    1    3    3    0    0 -0.13873477926E-01  0.13836408941E+00  0.34560022579E-01  0.89158930556E+00  0.88000000000E+00 0.  1.
        -11    1    4    4    0    0  0.64133258946E-02 -0.84500858266E-01 -0.17802620026E-01  0.86595151120E-01  0.51100000000E-03 0.  1.
         11    1    4    4    0    0 -0.10597951693E-01 -0.38056273733E-01 -0.11887458469E-01  0.41257354986E-01  0.51100000000E-03 0. -1.
</event>
<event>
 7    1  0.1118868E+005  0.1043930E+01  0.7957747E-01            NaN
         13   -1    0    0    0    0  0.00000000000E+00  0.00000000000E+00  0.74505805969E-08  0.10566000000E+00  0.10566000000E+00 0.  1.
     999900   -1    0    0    0    0 -0.00000000000E+00 -0.00000000000E+00 -0.74505805969E-08  0.93827000000E+00  0.93827000000E+00 0.  1.
     999902    2    1    2    0    0  0.15104188402E-01  0.18360488704E-01 -0.66690859080E-02  0.10192374756E+01  0.10189383254E+01 0.  0.
         14    1    1    2    0    0 -0.15104188402E-01 -0.18360488704E-01  0.66690859080E-02  0.24692524367E-01  0.00000000000E+00 0.  1.
     999901    1    3    3    0    0 -0.29483317561E-01 -0.21989126682E-01  0.10547720528E+00  0.88706156976E+00  0.88000000000E+00 0. -1.
        -11    1    3    3    0    0  0.32043353843E-01  0.24134183012E-01 -0.38045582108E-01  0.55289806964E-01  0.51100000000E-03 0.  1.
         11    1    3    3    0    0  0.12544152120E-01  0.16215432375E-01 -0.74100709076E-01  0.76886098913E-01  0.51100000000E-03 0. -1.
</event>
<event>
 8    1  0.1118868E+005  0.1043930E+01  0.7957747E-01            NaN
         13   -1    0    0    0    0  0.00000000000E+00  0.00000000000E+00  0.74505805969E-08  0.10566000000E+00  0.10566000000E+00 0.  1.
     999900   -1    0    0    0    0 -0.00000000000E+00 -0.00000000000E+00 -0.74505805969E-08  0.93827000000E+00  0.93827000000E+00 0.  1.
     999902    2    1    2    0    0  0.14708743479E-01 -0.20031615637E-01 -0.13395260682E-02  0.10190421096E+01  0.10187381479E+01 0.  0.
     999903    2    3    3    0    0 -0.72140521067E-01  0.91552626364E-01 -0.44791594270E-01  0.12669580906E+00  0.21433687070E-01 0.  0.
         14    1    1    2    0    0 -0.14708743479E-01  0.20031615637E-01  0.13395260682E-02  0.24887890426E-01  0.00000000000E+00 0. -1.
     999901    1    3    3    0    0  0.86849264545E-01 -0.11158424200E+00  0.43452068202E-01  0.89234630052E+00  0.88000000000E+00 0. -1.
        -11    1    4    4    0    0 -0.63756955135E-01  0.76784792502E-01 -0.45509259860E-01  0.10969141964E+00  0.51100000000E-03 0.  1.
         11    1    4    4    0    0 -0.83835659321E-02  0.14767833862E-01  0.71766558920E-03  0.17004389422E-01  0.51100000000E-03 0. -1.
</event>
<event>
 8    1  0.1118868E+005  0.1043930E+01  0.7957747E-01            NaN
         13   -1    0    0    0    0  0.00000000000E+00  0.00000000000E+00  0.74505805969E-08  0.10566000000E+00  0.10566000000E+00 0.  1.
     999900   -1    0    0    0    0 -0.00000000000E+00 -0.00000000000E+00 -0.74505805969E-08  0.93827000000E+00  0.93827000000E+00 0. -1.
     999902    2    1    2    0    0 -0.91119625421E-02 -0.29246671943E-02  0.19712760901E-01  0.10220171161E+01  0.10217821740E+01 0.  0.
     999903    2    3    3    0    0 -0.55749490550E-01 -0.11840043405E+00 -0.97999307889E-02  0.13275859870E+00  0.20053388898E-01 0.  0.
         14    1    1    2    0    0  0.91119625421E-02  0.29246671943E-02 -0.19712760901E-01  0.21912883925E-01  0.00000000000E+00 0. -1.
     999901    1    3    3    0    0  0.46637528008E-01  0.11547576685E+00  0.29512691690E-01  0.88925851737E+00  0.88000000000E+00 0.  1.
        -11    1    4    4    0    0 -0.24995232800E-01 -0.73429409617E-01 -0.10460620223E-01  0.78270847421E-01  0.51100000000E-03 0. -1.
         11    1    4    4    0    0 -0.30754257750E-01 -0.44971024432E-01  0.66068943404E-03  0.54487751281E-01  0.51100000000E-03 0.  1.
</event>
<event>
 8    1  0.1118868E+005  0.1043930E+01  0.7957747E-01            NaN
         13   -1    0    0    0    0  0.00000000000E+00  0.00000000000E+00  0.74505805969E-08  0.10566000000E+00  0.10566000000E+00 0.  1.
     999900   -1    0    0    0    0 -0.00000000000E+00 -0.00000000000E+00 -0.74505805969E-08  0.93827000000E+00  0.93827000000E+00 0. -1.
     999902    2    1    2    0    0  0.41319872094E-03  0.20676963602E-01 -0.11995214847E-01  0.10200219943E+01  0.10197417693E+01 0.  0.
     999903    2    3    3    0    0 -0.93656769492E-01 -0.79287540315E-01 -0.33388307718E-01  0.12912372549E+00  0.22361861965E-01 0.  0.
         14    1    1    2    0    0 -0.41319872094E-03 -0.20676963602E-01  0.11995214847E-01  0.23908005693E-01  0.00000000000E+00 0.  1.
     999901    1    3    3    0    0  0.94069968213E-01  0.99964503918E-01  0.21393092871E-01  0.89089826882E+00  0.88000000000E+00 0.  1.
        -11    1    4    4    0    0 -0.62363907013E-01 -0.65651977876E-01 -0.25731007014E-01  0.94137054022E-01  0.51100000000E-03 0.  1.
         11    1    4    4    0    0 -0.31292862479E-01 -0.13635562439E-01 -0.76573007043E-02  0.34986671465E-01  0.51100000000E-03 0. -1.
</event>
<event>
 8    1  0.1118868E+005  0.1043930E+01  0.7957747E-01            NaN
         13   -1    0    0    0    0  0.00000000000E+00  0.00000000000E+00  0.74505805969E-08  0.10566000000E+00  0.10566000000E+00 0. -1.
     999900   -1    0    0    0    0 -0.00000000000E+00 -0.00000000000E+00 -0.74505805969E-08  0.93827000000E+00  0.93827000000E+00 0.  1.
     999902    2    1    2    0    0 -0.10575613268E-01 -0.20737265159E-01  0.57594973049E-02  0.10199498088E+01  0.10196678689E+01 0.  0.
     999903    2    3    3    0    0 -0.67032728611E-01 -0.32536004351E-01 -0.10612015552E+00  0.13099330093E+00  0.18595139004E-01 0.  0.
         14    1    1    2    0    0  0.10575613268E-01  0.20737265159E-01 -0.57594973049E-02  0.23980191231E-01  0.00000000000E+00 0.  1.
     999901    1    3    3    0    0  0.56457115342E-01  0.11798739192E-01  0.11187965283E+00  0.88895650784E+00  0.88000000000E+00 0. -1.
        -11    1    4    4    0    0 -0.11561135557E-01 -0.71114273528E-02 -0.33434604855E-01  0.36088310811E-01  0.51100000000E-03 0.  1.
         11    1    4    4    0    0 -0.55471593054E-01 -0.25424576998E-01 -0.72685550669E-01  0.94904990114E-01  0.51100000000E-03 0. -1.
</event>
<event>
 8    1  0.1118868E+005  0.1043930E+01  0.7957747E-01            NaN
         13   -1    0    0    0    0  0.00000000000E+00  0.00000000000E+00  0.74505805969E-08  0.10566000000E+00  0.10566000000E+00 0. -1.
     999900   -1    0    0    0    0 -0.00000000000E+00 -0.00000000000E+00 -0.74505805969E-08  0.93827000000E+00  0.93827000000E+00 0. -1.
     999902    2    1    2    0    0 -0.61785737568E-02 -0.68094252313E-02 -0.18701861505E-01  0.10230900703E+01  0.10228777978E+01 0.  0.
     999903    2    3    3    0    0  0.54274332952E-01 -0.26675688883E-01  0.11443371596E+00  0.13080407112E+00  0.18903282224E-01 0.  0.
         14    1    1    2    0    0  0.61785737568E-02  0.68094252313E-02  0.18701861505E-01  0.20839929688E-01  0.00000000000E+00 0. -1.
     999901    1    3    3    0    0 -0.60452906709E-01  0.19866263651E-01 -0.13313557747E+00  0.89228599919E+00  0.88000000000E+00 0. -1.
        -11    1    4    4    0    0  0.18941163391E-01 -0.37768061620E-03  0.41081341241E-01  0.45242104642E-01  0.51100000000E-03 0.  1.
         11    1    4    4    0    0  0.35333169561E-01 -0.26298008267E-01  0.73352374720E-01  0.85561966481E-01  0.51100000000E-03 0. -1.
</event>
<event>
 8    1  0.1118868E+005  0.1043930E+01  0.7957747E-01            NaN
         13   -1    0    0    0    0  0.00000000000E+00  0.00000000000E+00  0.74505805969E-08  0.10566000000E+00  0.10566000000E+00 0. -1.
     999900   -1    0    0    0    0 -0.00000000000E+00 -0.00000000000E+00 -0.74505805969E-08  0.93827000000E+00  0.93827000000E+00 0. -1.
     999902    2    1    2    0    0 -0.14922977265E-01 -0.14682240452E-01  0.18565869146E-01  0.10159486681E+01  0.10155632631E+01 0.  0.
     999903    2    3    3    0    0  0.52717628514E-01  0.95394929247E-01  0.59052867077E-01  0.12559400182E+00  0.20180963857E-01 0.  0.
         14    1    1    2    0    0  0.14922977265E-01  0.14682240452E-01 -0.18565869146E-01  0.27981331854E-01  0.00000000000E+00 0.  1.
     999901    1    3    3    0    0 -0.67640605780E-01 -0.11007716970E+00 -0.40486997931E-01  0.89035466632E+00  0.88000000000E+00 0. -1.
        -11    1    4    4    0    0  0.51208585938E-01  0.83379499442E-01  0.47194140526E-01  0.10863704811E+00  0.51100000000E-03 0.  1.
         11    1    4    4    0    0  0.15090425762E-02  0.12015429805E-01  0.11858726551E-01  0.16956953716E-01  0.51100000000E-03 0. -1.
</event>
<event>
 8    1  0.1118868E+005  0.1043930E+01  0.7957747E-01            NaN
         13   -1    0    0    0    0  0.00000000000E+00  0.00000000000E+00  0.74505805969E-08  0.10566000000E+00  0.10566000000E+00 0. -1.
     999900   -1    0    0    0    0 -0.00000000000E+00 -0.00000000000E+00 -0.74505805969E-08  0.93827000000E+00  0.93827000000E+00 0.  1.
     999902    2    1    2    0    0  0.15973695069E-02  0.24532062850E-01  0.46680689155E-03  0.10193415554E+01  0.10190449524E+01 0.  0.
     999903    2    3    3    0    0  0.11913737218E+00  0.47141958279E-01 -0.18282440185E-01  0.13104070896E+00  0.20526619415E-01 0.  0.
         14    1    1    2    0    0 -0.15973695069E-02 -0.24532062850E-01 -0.46680689155E-03  0.24588444556E-01  0.00000000000E+00 0. -1.
     999901    1    3    3    0    0 -0.11754000267E+00 -0.22609895429E-01  0.18749247076E-01  0.88830084648E+00  0.88000000000E+00 0. -1.
        -11    1    4    4    0    0  0.78892639116E-01  0.38697861442E-01 -0.19024580870E-01  0.89909781365E-01  0.51100000000E-03 0.  1.
         11    1    4    4    0    0  0.40244733066E-01  0.84440968371E-02  0.74214068523E-03  0.41130927594E-01  0.51100000000E-03 0. -1.
</event>
<event>
 8    1  0.1118868E+005  0.1043930E+01  0.7957747E-01            NaN
         13   -1    0    0    0    0  0.00000000000E+00  0.00000000000E+00  0.74505805969E-08  0.10566000000E+00  0.10566000000E+00 0.  1.
     999900   -1    0    0    0    0 -0.00000000000E+00 -0.00000000000E+00 -0.74505805969E-08  0.93827000000E+00  0.93827000000E+00 0. -1.
     999902    2    1    2    0    0 -0.52016746663E-02  0.21851320710E-01  0.72659854410E-02  0.10203221161E+01  0.10200489638E+01 0.  0.
     999903    2    3    3    0    0  0.12383872051E+00 -0.19244194166E-01  0.26879467511E-01  0.12974648565E+00  0.20131494177E-01 0.  0.
         14    1    1    2    0    0  0.52016746663E-02 -0.21851320710E-01 -0.72659854410E-02  0.23607883864E-01  0.00000000000E+00 0. -1.
     999901    1    3    3    0    0 -0.12904039518E+00  0.41095514876E-01 -0.19613482070E-01  0.89057563048E+00  0.88000000000E+00 0.  1.
        -11    1    4    4    0    0  0.51649712079E-01 -0.65415754209E-02  0.12002802477E-02  0.52078659358E-01  0.51100000000E-03 0.  1.
         11    1    4    4    0    0  0.72189008436E-01 -0.12702618745E-01  0.25679187263E-01  0.77667826295E-01  0.51100000000E-03 0. -1.
</event>
<event>
 8    1  0.1118868E+005  0.1043930E+01  0.7957747E-01            NaN
         13   -1    0    0    0    0  0.00000000000E+00  0.00000000000E+00  0.74505805969E-08  0.10566000000E+00  0.10566000000E+00 0. -1.
     999900   -1    0    0    0    0 -0.00000000000E+00 -0.00000000000E+00 -0.74505805969E-08  0.93827000000E+00  0.93827000000E+00 0. -1.
     999902    2    1    2    0    0  0.39459129526E-02 -0.13415360314E-01  0.14923781721E-01  0.10234785604E+01  0.10232742067E+01 0.  0.
     999903    2    3    3    0    0  0.32421267585E-01  0.12315097400E+00  0.29858557534E-01  0.13236450651E+00  0.20286156305E-01 0.  0.
         14    1    1    2    0    0 -0.39459129526E-02  0.13415360314E-01 -0.14923781721E-01  0.20451439613E-01  0.00000000000E+00 0.  1.
     999901    1    3    3    0    0 -0.28475354632E-01 -0.13656633431E+00 -0.14934775812E-01  0.89111405388E+00  0.88000000000E+00 0.  1.
        -11    1    4    4    0    0  0.18334355082E-01  0.41693765043E-01  0.17414806553E-01  0.48765307628E-01  0.51100000000E-03 0. -1.
         11    1    4    4    0    0  0.14086912503E-01  0.81457208953E-01  0.12443750980E-01  0.83599198882E-01  0.51100000000E-03 0.  1.
</event>
<event>
 8    1  0.1118868E+005  0.1043930E+01  0.7957747E-01            NaN
         13   -1    0    0    0    0  0.00000000000E+00  0.00000000000E+00  0.74505805969E-08  0.10566000000E+00  0.10566000000E+00 0.  1.
     999900   -1    0    0    0    0 -0.00000000000E+00 -0.00000000000E+00 -0.74505805969E-08  0.93827000000E+00  0.93827000000E+00 0. -1.
     999902    2    1    2    0    0  0.16539892770E-01 -0.30728604457E-02 -0.15536885333E-01  0.10210301020E+01  0.10207732676E+01 0.  0.
     999903    2    3    3    0    0 -0.45204274839E-01  0.17384003309E-02  0.11878929199E+00  0.12868543068E+00  0.20064786981E-01 0.  0.
         14    1    1    2    0    0 -0.16539892770E-01  0.30728604457E-02  0.15536885333E-01  0.22899898035E-01  0.00000000000E+00 0. -1.
     999901    1    3    3    0    0  0.61744167609E-01 -0.48112607766E-02 -0.13432617733E+00  0.89234467129E+00  0.88000000000E+00 0.  1.
        -11    1    4    4    0    0 -0.28851847489E-01  0.88023073454E-02  0.88983497430E-01  0.93958680568E-01  0.51100000000E-03 0.  1.
         11    1    4    4    0    0 -0.16352427350E-01 -0.70639070145E-02  0.29805794563E-01  0.34726750108E-01  0.51100000000E-03 0. -1.
</event>
<event>
 8    1  0.1190444E+005  0.1043930E+01  0.7957747E-01            NaN
         13   -1    0    0    0    0  0.00000000000E+00  0.00000000000E+00  0.74505805969E-08  0.10566000000E+00  0.10566000000E+00 0.  1.
     999900   -1    0    0    0    0 -0.00000000000E+00 -0.00000000000E+00 -0.74505805969E-08  0.93827000000E+00  0.93827000000E+00 0.  1.
     999902    2    1    2    0    0 -0.76982907140E-02  0.20398181029E-01  0.60820561862E-03  0.10221190077E+01  0.10218862689E+01 0.  0.
     999903    2    3    3    0    0  0.29194965234E-01  0.10955119638E+00 -0.69284104743E-01  0.13409068188E+00  0.18061372409E-01 0.  0.
         14    1    1    2    0    0  0.76982907140E-02 -0.20398181029E-01 -0.60820561862E-03  0.21810992259E-01  0.00000000000E+00 0.  1.
     999901    1    3    3    0    0 -0.36893255948E-01 -0.89153015355E-01  0.69892310361E-01  0.88802832586E+00  0.88000000000E+00 0. -1.
        -11    1    4    4    0    0  0.14638898987E-01  0.28775449792E-01 -0.24940308170E-01  0.40799558415E-01  0.51100000000E-03 0.  1.
         11    1    4    4    0    0  0.14556066247E-01  0.80775746593E-01 -0.44343796573E-01  0.93291123467E-01  0.51100000000E-03 0. -1.
</event>
<event>
 8    1  0.1118868E+005  0.1043930E+01  0.7957747E-01            NaN
         13   -1    0    0    0    0  0.00000000000E+00  0.00000000000E+00  0.74505805969E-08  0.10566000000E+00  0.10566000000E+00 0.  1.
     999900   -1    0    0    0    0 -0.00000000000E+00 -0.00000000000E+00 -0.74505805969E-08  0.93827000000E+00  0.93827000000E+00 0. -1.
     999902    2    1    2    0    0 -0.57802455128E-02 -0.22614709769E-01 -0.13346120614E-02  0.10205501470E+01  0.10202823065E+01 0.  0.
     999903    2    3    3    0    0  0.91330884365E-01 -0.84139507161E-01 -0.40576268731E-01  0.13220574316E+00  0.20276534154E-01 0.  0.
         14    1    1    2    0    0  0.57802455128E-02  0.22614709769E-01  0.13346120614E-02  0.23379852982E-01  0.00000000000E+00 0.  1.
     999901    1    3    3    0    0 -0.97111129878E-01  0.61524797392E-01  0.39241656670E-01  0.88834440385E+00  0.88000000000E+00 0.  1.
        -11    1    4    4    0    0  0.41421123118E-01 -0.47425383926E-01 -0.28317754733E-01  0.69043702355E-01  0.51100000000E-03 0.  1.
         11    1    4    4    0    0  0.49909761247E-01 -0.36714123235E-01 -0.12258513998E-01  0.63162040809E-01  0.51100000000E-03 0. -1.
</event>
<event>
 7    1  0.1118868E+005  0.1043930E+01  0.7957747E-01            NaN
         13   -1    0    0    0    0  0.00000000000E+00  0.00000000000E+00  0.74505805969E-08  0.10566000000E+00  0.10566000000E+00 0. -1.
     999900   -1    0    0    0    0 -0.00000000000E+00 -0.00000000000E+00 -0.74505805969E-08  0.93827000000E+00  0.93827000000E+00 0.  1.
     999902    2    1    2    0    0  0.12465446491E-01 -0.18192528438E-01 -0.25825178716E-02  0.10217258372E+01  0.10214845381E+01 0.  0.
         14    1    1    2    0    0 -0.12465446491E-01  0.18192528438E-01  0.25825178716E-02  0.22204162802E-01  0.00000000000E+00 0. -1.
     999901    1    3    3    0    0  0.14340582667E-01  0.11057856185E+00  0.14582098748E-01  0.88715607886E+00  0.88000000000E+00 0. -1.
        -11    1    3    3    0    0  0.72731128057E-02 -0.34371789182E-01  0.88298427449E-02  0.36229067133E-01  0.51100000000E-03 0. -1.
         11    1    3    3    0    0 -0.91482489818E-02 -0.94399301103E-01 -0.25994459364E-01  0.98340691206E-01  0.51100000000E-03 0.  1.
</event>
<event>
 8    1  0.1118868E+005  0.1043930E+01  0.7957747E-01            NaN
         13   -1    0    0    0    0  0.00000000000E+00  0.00000000000E+00  0.74505805969E-08  0.10566000000E+00  0.10566000000E+00 0. -1.
     999900   -1    0    0    0    0 -0.00000000000E+00 -0.00000000000E+00 -0.74505805969E-08  0.93827000000E+00  0.93827000000E+00 0. -1.
     999902    2    1    2    0    0 -0.18582390431E-01  0.12575388084E-01 -0.80636538855E-02  0.10200874302E+01  0.10198087552E+01 0.  0.
     999903    2    3    3    0    0  0.25795601606E-01  0.37062314660E-02 -0.12675153382E+00  0.13096714536E+00  0.20181492101E-01 0.  0.
         14    1    1    2    0    0  0.18582390431E-01 -0.12575388084E-01  0.80636538855E-02  0.23842569777E-01  0.00000000000E+00 0. -1.
     999901    1    3    3    0    0 -0.44377992036E-01  0.88691566176E-02  0.11868787993E+00  0.88912028487E+00  0.88000000000E+00 0.  1.
        -11    1    4    4    0    0  0.15434526743E-01  0.94498412327E-02 -0.47499038028E-01  0.50832507804E-01  0.51100000000E-03 0. -1.
         11    1    4    4    0    0  0.10361074863E-01 -0.57436097667E-02 -0.79252495793E-01  0.80134637553E-01  0.51100000000E-03 0.  1.
</event>
<event>
 8    1  0.1118868E+005  0.1043930E+01  0.7957747E-01            NaN
         13   -1    0    0    0    0  0.00000000000E+00  0.00000000000E+00  0.74505805969E-08  0.10566000000E+00  0.10566000000E+00 0. -1.
     999900   -1    0    0    0    0 -0.00000000000E+00 -0.00000000000E+00 -0.74505805969E-08  0.93827000000E+00  0.93827000000E+00 0. -1.
     999902    2    1    2    0    0 -0.94407201904E-02  0.89669648517E-02 -0.23592029790E-01  0.10169834320E+01  0.10166263736E+01 0.  0.
     999903    2    3    3    0    0  0.29136845789E-01 -0.77297635062E-01  0.90996561030E-01  0.12453715636E+00  0.20130797942E-01 0.  0.
         14    1    1    2    0    0  0.94407201904E-02 -0.89669648517E-02  0.23592029790E-01  0.26946567981E-01  0.00000000000E+00 0. -1.
     999901    1    3    3    0    0 -0.38577565979E-01  0.86264599913E-01 -0.11458859082E+00  0.89244627566E+00  0.88000000000E+00 0. -1.
        -11    1    4    4    0    0  0.13408771231E-02 -0.10223019820E-01  0.22336866926E-01  0.24607007758E-01  0.51100000000E-03 0.  1.
         11    1    4    4    0    0  0.27795968666E-01 -0.67074615241E-01  0.68659694104E-01  0.99930148600E-01  0.51100000000E-03 0. -1.
</event>
<event>
 8    1  0.1118868E+005  0.1043930E+01  0.7957747E-01            NaN
         13   -1    0    0    0    0  0.00000000000E+00  0.00000000000E+00  0.74505805969E-08  0.10566000000E+00  0.10566000000E+00 0.  1.
     999900   -1    0    0    0    0 -0.00000000000E+00 -0.00000000000E+00 -0.74505805969E-08  0.93827000000E+00  0.93827000000E+00 0. -1.
     999902    2    1    2    0    0 -0.19574941690E-01  0.12261497062E-01 -0.11464760636E-02  0.10208034555E+01  0.10205414532E+01 0.  0.
     999903    2    3    3    0    0  0.11466659022E+00  0.41546435797E-01  0.38289638127E-01  0.12926904584E+00  0.19231655788E-01 0.  0.
         14    1    1    2    0    0  0.19574941690E-01 -0.12261497062E-01  0.11464760636E-02  0.23126544484E-01  0.00000000000E+00 0.  1.
     999901    1    3    3    0    0 -0.13424153191E+00 -0.29284938735E-01 -0.39436114190E-01  0.89153440967E+00  0.88000000000E+00 0. -1.
        -11    1    4    4    0    0  0.82594825290E-01  0.28296238105E-01  0.18256583008E-01  0.89197232019E-01  0.51100000000E-03 0.  1.
         11    1    4    4    0    0  0.32071764934E-01  0.13250197692E-01  0.20033055118E-01  0.40071813825E-01  0.51100000000E-03 0. -1.
</event>
<event>
 8    1  0.1118868E+005  0.1043930E+01  0.7957747E-01            NaN
         13   -1    0    0    0    0  0.00000000000E+00  0.00000000000E+00  0.74505805969E-08  0.10566000000E+00  0.10566000000E+00 0. -1.
     999900   -1    0    0    0    0 -0.00000000000E+00 -0.00000000000E+00 -0.74505805969E-08  0.93827000000E+00  0.93827000000E+00 0.  1.
     999902    2    1    2    0    0  0.22985023420E-01 -0.20048757740E-01  0.81979813376E-02  0.10123472375E+01  0.10118544650E+01 0.  0.
     999903    2    3    3    0    0 -0.33949077518E-01  0.10604922986E+00 -0.40253339203E-01  0.12022071913E+00  0.20825728655E-01 0.  0.
         14    1    1    2    0    0 -0.22985023420E-01  0.20048757740E-01 -0.81979813376E-02  0.31582762490E-01  0.00000000000E+00 0.  1.
     999901    1    3    3    0    0  0.56934100938E-01 -0.12609798760E+00  0.48451320540E-01  0.89212651838E+00  0.88000000000E+00 0.  1.
        -11    1    4    4    0    0 -0.17133639190E-01  0.68486799613E-01 -0.15796690220E-01  0.72345005744E-01  0.51100000000E-03 0. -1.
         11    1    4    4    0    0 -0.16815438328E-01  0.37562430247E-01 -0.24456648983E-01  0.47875713391E-01  0.51100000000E-03 0.  1.
</event>
<event>
 8    1  0.1118868E+005  0.1043930E+01  0.7957747E-01            NaN
         13   -1    0    0    0    0  0.00000000000E+00  0.00000000000E+00  0.74505805969E-08  0.10566000000E+00  0.10566000000E+00 0. -1.
     999900   -1    0    0    0    0 -0.00000000000E+00 -0.00000000000E+00 -0.74505805969E-08  0.93827000000E+00  0.93827000000E+00 0.  1.
     999902    2    1    2    0    0 -0.20055113100E-01 -0.24441320030E-02 -0.11308860361E-01  0.10207767785E+01  0.10205141645E+01 0.  0.
     999903    2    3    3    0    0 -0.51867163019E-01 -0.10074868344E+00  0.63768841075E-01  0.13155664120E+00  0.20004622854E-01 0.  0.
         14    1    1    2    0    0  0.20055113100E-01  0.24441320030E-02  0.11308860361E-01  0.23153221490E-01  0.00000000000E+00 0. -1.
     999901    1    3    3    0    0  0.31812049920E-01  0.98304551439E-01 -0.75077701436E-01  0.88922013732E+00  0.88000000000E+00 0.  1.
        -11    1    4    4    0    0 -0.34802760374E-01 -0.68672802883E-01  0.32311403026E-01  0.83495352397E-01  0.51100000000E-03 0. -1.
         11    1    4    4    0    0 -0.17064402645E-01 -0.32075880559E-01  0.31457438049E-01  0.48061288798E-01  0.51100000000E-03 0.  1.
</event>
<event>
 8    1  0.1118868E+005  0.1043930E+01  0.7957747E-01            NaN
         13   -1    0    0    0    0  0.00000000000E+00  0.00000000000E+00  0.74505805969E-08  0.10566000000E+00  0.10566000000E+00 0.  1.
     999900   -1    0    0    0    0 -0.00000000000E+00 -0.00000000000E+00 -0.74505805969E-08  0.93827000000E+00  0.93827000000E+00 0.  1.
     999902    2    1    2    0    0  0.55568083906E-03  0.22136397044E-01 -0.34828496958E-02  0.10215144006E+01  0.10212684326E+01 0.  0.
     999903    2    3    3    0    0 -0.15794712271E-01 -0.15917525524E-01 -0.12828040281E+00  0.13174484298E+00  0.19949971239E-01 0.  0.
         14    1    1    2    0    0 -0.55568083906E-03 -0.22136397044E-01  0.34828496958E-02  0.22415599419E-01  0.00000000000E+00 0.  1.
     999901    1    3    3    0    0  0.16350393110E-01  0.38053922568E-01  0.12479755311E+00  0.88976955760E+00  0.88000000000E+00 0. -1.
        -11    1    4    4    0    0 -0.11445435712E-01 -0.86720508784E-02 -0.11565206345E+00  0.11654125178E+00  0.51100000000E-03 0. -1.
         11    1    4    4    0    0 -0.43492765588E-02 -0.72454746454E-02 -0.12628339359E-01  0.15203591200E-01  0.51100000000E-03 0.  1.
</event>
<event>
 8    1  0.1118868E+005  0.1043930E+01  0.7957747E-01            NaN
         13   -1    0    0    0    0  0.00000000000E+00  0.00000000000E+00  0.74505805969E-08  0.10566000000E+00  0.10566000000E+00 0.  1.
     999900   -1    0    0    0    0 -0.00000000000E+00 -0.00000000000E+00 -0.74505805969E-08  0.93827000000E+00  0.93827000000E+00 0. -1.
     999902    2    1    2    0    0 -0.22297558792E-01  0.38042315618E-02 -0.81141135952E-02  0.10198989337E+01  0.10196157820E+01 0.  0.
     999903    2    3    3    0    0 -0.17919884911E-02 -0.12506019084E+00 -0.27414651012E-01  0.13006803491E+00  0.22866308397E-01 0.  0.
         14    1    1    2    0    0  0.22297558792E-01 -0.38042315618E-02  0.81141135952E-02  0.24031066254E-01  0.00000000000E+00 0.  1.
     999901    1    3    3    0    0 -0.20505570301E-01  0.12886442240E+00  0.19300537416E-01  0.88983089883E+00  0.88000000000E+00 0. -1.
        -11    1    4    4    0    0  0.48315433226E-02 -0.29146252342E-01  0.17442207070E-02  0.29599852421E-01  0.51100000000E-03 0. -1.
         11    1    4    4    0    0 -0.66235318137E-02 -0.95913938500E-01 -0.29158871719E-01  0.10046818249E+00  0.51100000000E-03 0.  1.
</event>
<event>
 8    1  0.1118868E+005  0.1043930E+01  0.7957747E-01            NaN
         13   -1    0    0    0    0  0.00000000000E+00  0.00000000000E+00  0.74505805969E-08  0.10566000000E+00  0.10566000000E+00 0.  1.
     999900   -1    0    0    0    0 -0.00000000000E+00 -0.00000000000E+00 -0.74505805969E-08  0.93827000000E+00  0.93827000000E+00 0. -1.
     999902    2    1    2    0    0 -0.10361252048E-01 -0.13603934575E-01  0.13684885736E-01  0.10220279755E+01  0.10217932687E+01 0.  0.
     999903    2    3    3    0    0  0.22860172392E-01 -0.12011556282E+00  0.51430277755E-01  0.13418051978E+00  0.20223810353E-01 0.  0.
         14    1    1    2    0    0  0.10361252048E-01  0.13603934575E-01 -0.13684885736E-01  0.21902024508E-01  0.00000000000E+00 0. -1.
     999901    1    3    3    0    0 -0.33221424440E-01  0.10651162825E+00 -0.37745392019E-01  0.88784745571E+00  0.88000000000E+00 0. -1.
        -11    1    4    4    0    0  0.92000802013E-02 -0.36507212560E-01  0.25895803516E-01  0.45697612688E-01  0.51100000000E-03 0.  1.
         11    1    4    4    0    0  0.13660092191E-01 -0.83608350262E-01  0.25534474238E-01  0.88482907094E-01  0.51100000000E-03 0. -1.
</event>
<event>
 8    1  0.1118868E+005  0.1043930E+01  0.7957747E-01            NaN
         13   -1    0    0    0    0  0.00000000000E+00  0.00000000000E+00  0.74505805969E-08  0.10566000000E+00  0.10566000000E+00 0. -1.
     999900   -1    0    0    0    0 -0.00000000000E+00 -0.00000000000E+00 -0.74505805969E-08  0.93827000000E+00  0.93827000000E+00 0. -1.
     999902    2    1    2    0    0  0.22790360261E-02 -0.32844113541E-01  0.18632372937E-01  0.10061001821E+01  0.10053887215E+01 0.  0.
     999903    2    3    3    0    0 -0.35114989726E-01  0.17478801857E-01 -0.10633348985E+00  0.11506304718E+00  0.19852524941E-01 0.  0.
         14    1    1    2    0    0 -0.22790360261E-02  0.32844113541E-01 -0.18632372937E-01  0.37829817879E-01  0.00000000000E+00 0.  1.
     999901    1    3    3    0    0  0.37394025752E-01 -0.50322915398E-01  0.12496586278E+00  0.89103713494E+00  0.88000000000E+00 0.  1.
        -11    1    4    4    0    0 -0.18303525343E-01  0.18441205698E-01 -0.76603757627E-01  0.80891865544E-01  0.51100000000E-03 0.  1.
         11    1    4    4    0    0 -0.16811464383E-01 -0.96240384062E-03 -0.29729732218E-01  0.34171181639E-01  0.51100000000E-03 0. -1.
</event>
<event>
 8    1  0.1118868E+005  0.1043930E+01  0.7957747E-01            NaN
         13   -1    0    0    0    0  0.00000000000E+00  0.00000000000E+00  0.74505805969E-08  0.10566000000E+00  0.10566000000E+00 0. -1.
     999900   -1    0    0    0    0 -0.00000000000E+00 -0.00000000000E+00 -0.74505805969E-08  0.93827000000E+00  0.93827000000E+00 0. -1.
     999902    2    1    2    0    0  0.23835246532E-01 -0.11188254212E-01  0.21051160742E-02  0.10175154676E+01  0.10171725514E+01 0.  0.
     999903    2    3    3    0    0 -0.21922122076E-01  0.80126772427E-01 -0.93257222790E-01  0.12649013317E+00  0.20049067106E-01 0.  0.
         14    1    1    2    0    0 -0.23835246532E-01  0.11188254212E-01 -0.21051160742E-02  0.26414532425E-01  0.00000000000E+00 0. -1.
     999901    1    3    3    0    0  0.45757368607E-01 -0.91315026640E-01  0.95362338864E-01  0.89102533440E+00  0.88000000000E+00 0.  1.
        -11    1    4    4    0    0 -0.24661943317E-01  0.57583223567E-01 -0.65723600632E-01  0.90795880334E-01  0.51100000000E-03 0.  1.
         11    1    4    4    0    0  0.27398212412E-02  0.22543548860E-01 -0.27533622157E-01  0.35694252839E-01  0.51100000000E-03 0. -1.
</event>
<event>
 8    1  0.1118868E+005  0.1043930E+01  0.7957747E-01            NaN
         13   -1    0    0    0    0  0.00000000000E+00  0.00000000000E+00  0.74505805969E-08  0.10566000000E+00  0.10566000000E+00 0.  1.
     999900   -1    0    0    0    0 -0.00000000000E+00 -0.00000000000E+00 -0.74505805969E-08  0.93827000000E+00  0.93827000000E+00 0. -1.
     999902    2    1    2    0    0 -0.19300122151E-01 -0.66911418221E-02 -0.10148918948E-01  0.10211206456E+01  0.10208658610E+01 0.  0.
     999903    2    3    3    0    0  0.67686083383E-01 -0.95289978868E-01  0.53293377378E-01  0.13014293606E+00  0.20866570791E-01 0.  0.
         14    1    1    2    0    0  0.19300122151E-01  0.66911418221E-02  0.10148918948E-01  0.22809354435E-01  0.00000000000E+00 0. -1.
     999901    1    3    3    0    0 -0.86986205534E-01  0.88598837045E-01 -0.63442296326E-01  0.89097770951E+00  0.88000000000E+00 0.  1.
        -11    1    4    4    0    0  0.24991024106E-02 -0.11432556561E-01  0.10151729243E-01  0.15500567408E-01  0.51100000000E-03 0.  1.
         11    1    4    4    0    0  0.65186980972E-01 -0.83857422307E-01  0.43141648136E-01  0.11464236865E+00  0.51100000000E-03 0. -1.
</event>
<event>
 8    1  0.1118868E+005  0.1043930E+01  0.7957747E-01            NaN
         13   -1    0    0    0    0  0.00000000000E+00  0.00000000000E+00  0.74505805969E-08  0.10566000000E+00  0.10566000000E+00 0.  1.
     999900   -1    0    0    0    0 -0.00000000000E+00 -0.00000000000E+00 -0.74505805969E-08  0.93827000000E+00  0.93827000000E+00 0. -1.
     999902    2    1    2    0    0  0.19289656850E-01  0.91467434933E-02 -0.93677069518E-02  0.10206167482E+01  0.10203504491E+01 0.  0.
     999903    2    3    3    0    0 -0.72570250827E-01  0.51200832471E-01 -0.94162663890E-01  0.13078700390E+00  0.18726093246E-01 0.  0.
         14    1    1    2    0    0 -0.19289656850E-01 -0.91467434933E-02  0.93677069518E-02  0.23313251842E-01  0.00000000000E+00 0.  1.
     999901    1    3    3    0    0  0.91859907677E-01 -0.42054088977E-01  0.84794956938E-01  0.88982974425E+00  0.88000000000E+00 0.  1.
        -11    1    4    4    0    0 -0.48703435918E-01  0.33486088978E-01 -0.74697807453E-01  0.95254219773E-01  0.51100000000E-03 0.  1.
         11    1    4    4    0    0 -0.23866814909E-01  0.17714743493E-01 -0.19464856437E-01  0.35532784130E-01  0.51100000000E-03 0. -1.
</event>
<event>
 8    1  0.1118868E+005  0.1043930E+01  0.7957747E-01            NaN
         13   -1    0    0    0    0  0.00000000000E+00  0.00000000000E+00  0.74505805969E-08  0.10566000000E+00  0.10566000000E+00 0.  1.
     999900   -1    0    0    0    0 -0.00000000000E+00 -0.00000000000E+00 -0.74505805969E-08  0.93827000000E+00  0.93827000000E+00 0.  1.
     999902    2    1    2    0    0 -0.20690572140E-01 -0.12038523724E-01 -0.39069658255E-02  0.10196753054E+01  0.10193867952E+01 0.  0.
     999903    2    3    3    0    0 -0.87976690247E-01 -0.94988953284E-01  0.20808256211E-01  0.13287260035E+00  0.21432338292E-01 0.  0.
         14    1    1    2    0    0  0.20690572140E-01  0.12038523724E-01  0.39069658255E-02  0.24254694616E-01  0.00000000000E+00 0. -1.
     999901    1    3    3    0    0  0.67286118108E-01  0.82950429559E-01 -0.24715222037E-01  0.88680270503E+00  0.88000000000E+00 0.  1.
        -11    1    4    4    0    0 -0.30287872575E-01 -0.19176514701E-01  0.81706826486E-02  0.36771117975E-01  0.51100000000E-03 0. -1.
         11    1    4    4    0    0 -0.57688817672E-01 -0.75812438582E-01  0.12637573563E-01  0.96101482376E-01  0.51100000000E-03 0.  1.
</event>
<event>
 8    1  0.1118868E+005  0.1043930E+01  0.7957747E-01            NaN
         13   -1    0    0    0    0  0.00000000000E+00  0.00000000000E+00  0.74505805969E-08  0.10566000000E+00  0.10566000000E+00 0. -1.
     999900   -1    0    0    0    0 -0.00000000000E+00 -0.00000000000E+00 -0.74505805969E-08  0.93827000000E+00  0.93827000000E+00 0. -1.
     999902    2    1    2    0    0 -0.11518430531E-01 -0.75579293376E-02  0.19459158295E-01  0.10200876977E+01  0.10198090290E+01 0.  0.
     999903    2    3    3    0    0 -0.69513807185E-02  0.47041806454E-01  0.12206830845E+00  0.13243313268E+00  0.19406428215E-01 0.  0.
         14    1    1    2    0    0  0.11518430531E-01  0.75579293376E-02 -0.19459158295E-01  0.23842302308E-01  0.00000000000E+00 0.  1.
     999901    1    3    3    0    0 -0.45670498128E-02 -0.54599735791E-01 -0.10260915015E+00  0.88765456501E+00  0.88000000000E+00 0. -1.
        -11    1    4    4    0    0  0.42690875516E-02  0.98584349754E-02  0.14404560747E-01  0.17976827863E-01  0.51100000000E-03 0.  1.
         11    1    4    4    0    0 -0.11220468270E-01  0.37183371478E-01  0.10766374770E+00  0.11445630482E+00  0.51100000000E-03 0. -1.
</event>
<event>
 8    1  0.1118868E+005  0.1043930E+01  0.7957747E-01            NaN
         13   -1    0    0    0    0  0.00000000000E+00  0.00000000000E+00  0.74505805969E-08  0.10566000000E+00  0.10566000000E+00 0.  1.
     999900   -1    0    0    0    0 -0.00000000000E+00 -0.00000000000E+00 -0.74505805969E-08  0.93827000000E+00  0.93827000000E+00 0.  1.
     999902    2    1    2    0    0 -0.94178728232E-02 -0.17099145545E-01 -0.60025456621E-02  0.10235067862E+01  0.10233030019E+01 0.  0.
     999903    2    3    3    0    0 -0.56260102690E-01 -0.11510493795E+00 -0.41419390721E-01  0.13612091594E+00  0.19974782474E-01 0.  0.
         14    1    1    2    0    0  0.94178728232E-02  0.17099145545E-01  0.60025456621E-02  0.20423213785E-01  0.00000000000E+00 0. -1.
     999901    1    3    3    0    0  0.46842229866E-01  0.98005792403E-01  0.35416845059E-01  0.88738587027E+00  0.88000000000E+00 0. -1.
        -11    1    4    4    0    0 -0.38038650347E-01 -0.58474527684E-01 -0.27763494449E-01  0.75081835707E-01  0.51100000000E-03 0.  1.
         11    1    4    4    0    0 -0.18221452343E-01 -0.56630410264E-01 -0.13655896272E-01  0.61039080236E-01  0.51100000000E-03 0. -1.
</event>
<event>
 8    1  0.1118868E+005  0.1043930E+01  0.7957747E-01            NaN
         13   -1    0    0    0    0  0.00000000000E+00  0.00000000000E+00  0.74505805969E-08  0.10566000000E+00  0.10566000000E+00 0. -1.
     999900   -1    0    0    0    0 -0.00000000000E+00 -0.00000000000E+00 -0.74505805969E-08  0.93827000000E+00  0.93827000000E+00 0.  1.
     999902    2    1    2    0    0 -0.17172212764E-01  0.17710917420E-01 -0.10068826461E-02  0.10192404212E+01  0.10189413432E+01 0.  0.
     999903    2    3    3    0    0  0.25857583157E-01  0.11356771138E-01  0.12439595623E+00  0.12928659630E+00  0.21049446510E-01 0.  0.
         14    1    1    2    0    0  0.17172212764E-01 -0.17710917420E-01  0.10068826461E-02  0.24689578768E-01  0.00000000000E+00 0. -1.
     999901    1    3    3    0    0 -0.43029795921E-01  0.63541462818E-02 -0.12540283888E+00  0.88995382493E+00  0.88000000000E+00 0.  1.
        -11    1    4    4    0    0  0.26664548530E-01  0.38987402489E-02  0.84707241325E-01  0.88891935392E-01  0.51100000000E-03 0.  1.
         11    1    4    4    0    0 -0.80696537265E-03  0.74580308890E-02  0.39688714908E-01  0.40394660908E-01  0.51100000000E-03 0. -1.
</event>
<event>
 8    1  0.1118868E+005  0.1043930E+01  0.7957747E-01            NaN
         13   -1    0    0    0    0  0.00000000000E+00  0.00000000000E+00  0.74505805969E-08  0.10566000000E+00  0.10566000000E+00 0. -1.
     999900   -1    0    0    0    0 -0.00000000000E+00 -0.00000000000E+00 -0.74505805969E-08  0.93827000000E+00  0.93827000000E+00 0.  1.
     999902    2    1    2    0    0  0.19366191356E-01  0.21485104248E-02 -0.16162497008E-01  0.10186141596E+01  0.10182995210E+01 0.  0.
     999903    2    3    3    0    0 -0.82858710102E-01  0.93996934129E-01  0.11412816698E-01  0.12752131297E+00  0.20747130220E-01 0.  0.
         14    1    1    2    0    0 -0.19366191356E-01 -0.21485104248E-02  0.16162497008E-01  0.25315840381E-01  0.00000000000E+00 0. -1.
     999901    1    3    3    0    0  0.10222490146E+00 -0.91848423704E-01 -0.27575313706E-01  0.89109284664E+00  0.88000000000E+00 0. -1.
        -11    1    4    4    0    0 -0.35904233129E-01  0.25863606950E-01  0.47188994412E-02  0.44503586979E-01  0.51100000000E-03 0. -1.
         11    1    4    4    0    0 -0.46954476973E-01  0.68133327179E-01  0.66939172566E-02  0.83017725996E-01  0.51100000000E-03 0.  1.
</event>
<event>
 8    1  0.1118868E+005  0.1043930E+01  0.7957747E-01            NaN
         13   -1    0    0    0    0  0.00000000000E+00  0.00000000000E+00  0.74505805969E-08  0.10566000000E+00  0.10566000000E+00 0.  1.
     999900   -1    0    0    0    0 -0.00000000000E+00 -0.00000000000E+00 -0.74505805969E-08  0.93827000000E+00  0.93827000000E+00 0.  1.
     999902    2    1    2    0    0 -0.15955044560E-01 -0.16635274973E-01  0.96265428013E-03  0.10208600515E+01  0.10205993446E+01 0.  0.
     999903    2    3    3    0    0  0.29495199673E-01 -0.12435952448E+00  0.29917838817E-01  0.13265475916E+00  0.19155936856E-01 0.  0.
         14    1    1    2    0    0  0.15955044560E-01  0.16635274973E-01 -0.96265428013E-03  0.23069948496E-01  0.00000000000E+00 0.  1.
     999901    1    3    3    0    0 -0.45450244233E-01  0.10772424950E+00 -0.28955184537E-01  0.88820529234E+00  0.88000000000E+00 0. -1.
        -11    1    4    4    0    0  0.17881509403E-01 -0.86363640951E-01  0.29229958127E-01  0.92914360730E-01  0.51100000000E-03 0.  1.
         11    1    4    4    0    0  0.11613690270E-01 -0.37995883527E-01  0.68788068976E-03  0.39740398432E-01  0.51100000000E-03 0. -1.
</event>
<event>
 8    1  0.1555861E+005  0.1043930E+01  0.7957747E-01            NaN
         13   -1    0    0    0    0  0.00000000000E+00  0.00000000000E+00  0.74505805969E-08  0.10566000000E+00  0.10566000000E+00 0. -1.
     999900   -1    0    0    0    0 -0.00000000000E+00 -0.00000000000E+00 -0.74505805969E-08  0.93827000000E+00  0.93827000000E+00 0.  1.
     999902    2    1    2    0    0  0.16060592916E-02 -0.23239697909E-01  0.26143804179E-02  0.10204886270E+01  0.10202193587E+01 0.  0.
     999903    2    3    3    0    0 -0.27568564283E-01  0.10169551881E+00 -0.69972192280E-01  0.12822813944E+00  0.21079463239E-01 0.  0.
         14    1    1    2    0    0 -0.16060592916E-02  0.23239697909E-01 -0.26143804179E-02  0.23441373047E-01  0.00000000000E+00 0. -1.
     999901    1    3    3    0    0  0.29174623575E-01 -0.12493521672E+00  0.72586572698E-01  0.89226048751E+00  0.88000000000E+00 0.  1.
        -11    1    4    4    0    0 -0.15934799602E-01  0.52819154192E-01 -0.24149796590E-01  0.60226694117E-01  0.51100000000E-03 0. -1.
         11    1    4    4    0    0 -0.11633764681E-01  0.48876364614E-01 -0.45822395690E-01  0.68001445326E-01  0.51100000000E-03 0.  1.
</event>
<event>
 8    1  0.1118868E+005  0.1043930E+01  0.7957747E-01            NaN
         13   -1    0    0    0    0  0.00000000000E+00  0.00000000000E+00  0.74505805969E-08  0.10566000000E+00  0.10566000000E+00 0.  1.
     999900   -1    0    0    0    0 -0.00000000000E+00 -0.00000000000E+00 -0.74505805969E-08  0.93827000000E+00  0.93827000000E+00 0. -1.
     999902    2    1    2    0    0 -0.13797637376E-01  0.16833312744E-01  0.12200232489E-01  0.10189784292E+01  0.10186728907E+01 0.  0.
     999903    2    3    3    0    0 -0.97530994315E-01  0.35655572924E-01 -0.75965631555E-01  0.13041848625E+00  0.21321107987E-01 0.  0.
         14    1    1    2    0    0  0.13797637376E-01 -0.16833312744E-01 -0.12200232489E-01  0.24951570850E-01  0.00000000000E+00 0. -1.
     999901    1    3    3    0    0  0.83733356939E-01 -0.18822260179E-01  0.88165864043E-01  0.88855994290E+00  0.88000000000E+00 0. -1.
        -11    1    4    4    0    0 -0.72295316391E-01  0.30365209852E-01 -0.46112644626E-01  0.90968653155E-01  0.51100000000E-03 0. -1.
         11    1    4    4    0    0 -0.25235677924E-01  0.52903630717E-02 -0.29852986928E-01  0.39449833096E-01  0.51100000000E-03 0.  1.
</event>
<event>
 7    1  0.1118868E+005  0.1043930E+01  0.7957747E-01            NaN
         13   -1    0    0    0    0  0.00000000000E+00  0.00000000000E+00  0.74505805969E-08  0.10566000000E+00  0.10566000000E+00 0. -1.
     999900   -1    0    0    0    0 -0.00000000000E+00 -0.00000000000E+00 -0.74505805969E-08  0.93827000000E+00  0.93827000000E+00 0.  1.
     999903    2    1    2    0    0 -0.47802093029E-01 -0.47548979314E-01  0.65644123438E-01  0.96437469816E-01  0.21097135136E-01 0.  0.
         14    1    1    2    0    0 -0.36680790781E-01  0.48824713581E-01 -0.84784256348E-03  0.61074150879E-01  0.00000000000E+00 0.  1.
     999901    1    1    2    0    0  0.84482883809E-01 -0.12757342667E-02 -0.64796280874E-01  0.88641837931E+00  0.88000000000E+00 0.  1.
        -11    1    3    3    0    0 -0.41300345813E-01 -0.33055040866E-01  0.58907213399E-01  0.79174965755E-01  0.51100000000E-03 0.  1.
         11    1    3    3    0    0 -0.65017472159E-02 -0.14493938448E-01  0.67369100387E-02  0.17262504061E-01  0.51100000000E-03 0. -1.
</event>
<event>
 8    1  0.1118868E+005  0.1043930E+01  0.7957747E-01            NaN
         13   -1    0    0    0    0  0.00000000000E+00  0.00000000000E+00  0.74505805969E-08  0.10566000000E+00  0.10566000000E+00 0.  1.
     999900   -1    0    0    0    0 -0.00000000000E+00 -0.00000000000E+00 -0.74505805969E-08  0.93827000000E+00  0.93827000000E+00 0.  1.
     999902    2    1    2    0    0  0.29087336328E-04 -0.12647852905E-01  0.20483105386E-01  0.10198566405E+01  0.10195724793E+01 0.  0.
     999903    2    3    3    0    0  0.32510017565E-02 -0.10351442959E+00 -0.76042349894E-01  0.12992165471E+00  0.19271513700E-01 0.  0.
         14    1    1    2    0    0 -0.29087336328E-04  0.12647852905E-01 -0.20483105386E-01  0.24073359455E-01  0.00000000000E+00 0. -1.
     999901    1    3    3    0    0 -0.32219144202E-02  0.90866576684E-01  0.96525455280E-01  0.88993498583E+00  0.88000000000E+00 0. -1.
        -11    1    4    4    0    0 -0.47776778477E-02 -0.64300043320E-01 -0.38845763894E-01  0.75276664844E-01  0.51100000000E-03 0. -1.
         11    1    4    4    0    0  0.80286796042E-02 -0.39214386269E-01 -0.37196586000E-01  0.54644989869E-01  0.51100000000E-03 0.  1.
</event>
<event>
 8    1  0.1319802E+005  0.1043930E+01  0.7957747E-01            NaN
         13   -1    0    0    0    0  0.00000000000E+00  0.00000000000E+00  0.74505805969E-08  0.10566000000E+00  0.10566000000E+00 0.  1.
     999900   -1    0    0    0    0 -0.00000000000E+00 -0.00000000000E+00 -0.74505805969E-08  0.93827000000E+00  0.93827000000E+00 0.  1.
     999902    2    1    2    0    0  0.14826268285E-01 -0.57651058059E-02  0.17632592482E-01  0.10201820950E+01  0.10199056544E+01 0.  0.
     999903    2    3    3    0    0  0.76511783287E-01 -0.10266672661E+00  0.29172426860E-01  0.13264156369E+00  0.18661302018E-01 0.  0.
         14    1    1    2    0    0 -0.14826268285E-01  0.57651058059E-02 -0.17632592482E-01  0.23747905041E-01  0.00000000000E+00 0. -1.
     999901    1    3    3    0    0 -0.61685515003E-01  0.96901620806E-01 -0.11539834378E-01  0.88754053127E+00  0.88000000000E+00 0.  1.
        -11    1    4    4    0    0  0.41942169291E-01 -0.64178671258E-01  0.25399461666E-01  0.80767822697E-01  0.51100000000E-03 0.  1.
         11    1    4    4    0    0  0.34569613997E-01 -0.38488055353E-01  0.37729651940E-02  0.51873740988E-01  0.51100000000E-03 0. -1.
</event>
<event>
 8    1  0.1118868E+005  0.1043930E+01  0.7957747E-01            NaN
         13   -1    0    0    0    0  0.00000000000E+00  0.00000000000E+00  0.74505805969E-08  0.10566000000E+00  0.10566000000E+00 0.  1.
     999900   -1    0    0    0    0 -0.00000000000E+00 -0.00000000000E+00 -0.74505805969E-08  0.93827000000E+00  0.93827000000E+00 0.  1.
     999902    2    1    2    0    0 -0.66856291586E-03  0.18541455132E-01  0.20001054172E-01  0.10166486015E+01  0.10162824924E+01 0.  0.
     999903    2    3    3    0    0  0.95567737978E-01  0.42966532296E-01 -0.68291181696E-01  0.12667470926E+00  0.20086837182E-01 0.  0.
         14    1    1    2    0    0  0.66856291586E-03 -0.18541455132E-01 -0.20001054172E-01  0.27281398476E-01  0.00000000000E+00 0. -1.
     999901    1    3    3    0    0 -0.96236300894E-01 -0.24425077163E-01  0.88292235868E-01  0.88997389227E+00  0.88000000000E+00 0.  1.
        -11    1    4    4    0    0  0.55975764924E-01  0.35110877849E-01 -0.46519015499E-01  0.80810518660E-01  0.51100000000E-03 0.  1.
         11    1    4    4    0    0  0.39591973054E-01  0.78556544466E-02 -0.21772166196E-01  0.45864190596E-01  0.51100000000E-03 0. -1.
</event>
<event>
 8    1  0.1118868E+005  0.1043930E+01  0.7957747E-01            NaN
         13   -1    0    0    0    0  0.00000000000E+00  0.00000000000E+00  0.74505805969E-08  0.10566000000E+00  0.10566000000E+00 0.  1.
     999900   -1    0    0    0    0 -0.00000000000E+00 -0.00000000000E+00 -0.74505805969E-08  0.93827000000E+00  0.93827000000E+00 0. -1.
     999902    2    1    2    0    0  0.38944753771E-02  0.22385918252E-01 -0.36070166759E-02  0.10209233305E+01  0.10206640681E+01 0.  0.
     999903    2    3    3    0    0  0.85430718940E-01  0.10086130190E+00 -0.41331621278E-02  0.13367656563E+00  0.19517459105E-01 0.  0.
         14    1    1    2    0    0 -0.38944753771E-02 -0.22385918252E-01  0.36070166759E-02  0.23006669549E-01  0.00000000000E+00 0. -1.
     999901    1    3    3    0    0 -0.81536243563E-01 -0.78475383650E-01  0.52614545188E-03  0.88724676482E+00  0.88000000000E+00 0.  1.
        -11    1    4    4    0    0  0.59584302872E-01  0.56100660563E-01 -0.24105808932E-03  0.81840653066E-01  0.51100000000E-03 0.  1.
         11    1    4    4    0    0  0.25846416068E-01  0.44760641338E-01 -0.38921040385E-02  0.51835912565E-01  0.51100000000E-03 0. -1.
</event>
<event>
 8    1  0.1118868E+005  0.1043930E+01  0.7957747E-01            NaN
         13   -1    0    0    0    0  0.00000000000E+00  0.00000000000E+00  0.74505805969E-08  0.10566000000E+00  0.10566000000E+00 0. -1.
     999900   -1    0    0    0    0 -0.00000000000E+00 -0.00000000000E+00 -0.74505805969E-08  0.93827000000E+00  0.93827000000E+00 0. -1.
     999902    2    1    2    0    0  0.16711572592E-02  0.95700927848E-02  0.20846888356E-01  0.10209306044E+01  0.10206715078E+01 0.  0.
     999903    2    3    3    0    0 -0.61363068127E-01 -0.72044746602E-02 -0.11127547333E+00  0.12868006891E+00  0.18947257963E-01 0.  0.
         14    1    1    2    0    0 -0.16711572592E-02 -0.95700927848E-02 -0.20846888356E-01  0.22999395571E-01  0.00000000000E+00 0.  1.
     999901    1    3    3    0    0  0.63034225386E-01  0.16774567445E-01  0.13212236168E+00  0.89225053552E+00  0.88000000000E+00 0.  1.
        -11    1    4    4    0    0 -0.52458336221E-01 -0.69988915744E-02 -0.78229470764E-01  0.94450901210E-01  0.51100000000E-03 0.  1.
         11    1    4    4    0    0 -0.89047319054E-02 -0.20558308580E-03 -0.33046002565E-01  0.34229167697E-01  0.51100000000E-03 0. -1.
</event>
<event>
 8    1  0.1118868E+005  0.1043930E+01  0.7957747E-01            NaN
         13   -1    0    0    0    0  0.00000000000E+00  0.00000000000E+00  0.74505805969E-08  0.10566000000E+00  0.10566000000E+00 0. -1.
     999900   -1    0    0    0    0 -0.00000000000E+00 -0.00000000000E+00 -0.74505805969E-08  0.93827000000E+00  0.93827000000E+00 0. -1.
     999902    2    1    2    0    0  0.17092475019E-01  0.16471217960E-01 -0.47540797875E-02  0.10197214272E+01  0.10194340263E+01 0.  0.
     999903    2    3    3    0    0  0.20853958174E-01 -0.19273332561E-01  0.12472372772E+00  0.12952126751E+00  0.20332278788E-01 0.  0.
         14    1    1    2    0    0 -0.17092475019E-01 -0.16471217960E-01  0.47540797875E-02  0.24208572820E-01  0.00000000000E+00 0. -1.
     999901    1    3    3    0    0 -0.37614831555E-02  0.35744550521E-01 -0.12947780751E+00  0.89020015967E+00  0.88000000000E+00 0. -1.
        -11    1    4    4    0    0  0.24700478861E-01 -0.16839686255E-01  0.99891067881E-01  0.10426972357E+00  0.51100000000E-03 0. -1.
         11    1    4    4    0    0 -0.38465206863E-02 -0.24336463060E-02  0.24832659838E-01  0.25251543940E-01  0.51100000000E-03 0.  1.
</event>
<event>
 8    1  0.1118868E+005  0.1043930E+01  0.7957747E-01            NaN
         13   -1    0    0    0    0  0.00000000000E+00  0.00000000000E+00  0.74505805969E-08  0.10566000000E+00  0.10566000000E+00 0.  1.
     999900   -1    0    0    0    0 -0.00000000000E+00 -0.00000000000E+00 -0.74505805969E-08  0.93827000000E+00  0.93827000000E+00 0.  1.
     999902    2    1    2    0    0 -0.68184810165E-02  0.55866356422E-02 -0.22054007478E-01  0.10201796015E+01  0.10199031022E+01 0.  0.
     999903    2    3    3    0    0 -0.38176092436E-01  0.51812378089E-02  0.12037392057E+00  0.12817669861E+00  0.21333683600E-01 0.  0.
         14    1    1    2    0    0  0.68184810165E-02 -0.55866356422E-02  0.22054007478E-01  0.23750398460E-01  0.00000000000E+00 0.  1.
     999901    1    3    3    0    0  0.31357611420E-01  0.40539783328E-03 -0.14242792804E+00  0.89200290293E+00  0.88000000000E+00 0.  1.
        -11    1    4    4    0    0 -0.25203205679E-01  0.31291700992E-02  0.45080770275E-01  0.51744857248E-01  0.51100000000E-03 0. -1.
         11    1    4    4    0    0 -0.12972886757E-01  0.20520677097E-02  0.75293150292E-01  0.76431841366E-01  0.51100000000E-03 0.  1.
</event>
<event>
 8    1  0.1118868E+005  0.1043930E+01  0.7957747E-01            NaN
         13   -1    0    0    0    0  0.00000000000E+00  0.00000000000E+00  0.74505805969E-08  0.10566000000E+00  0.10566000000E+00 0. -1.
     999900   -1    0    0    0    0 -0.00000000000E+00 -0.00000000000E+00 -0.74505805969E-08  0.93827000000E+00  0.93827000000E+00 0.  1.
     999902    2    1    2    0    0 -0.14759188034E-01 -0.72177043593E-02 -0.16721636576E-01  0.10204876875E+01  0.10202183973E+01 0.  0.
     999903    2    3    3    0    0  0.10969023013E-01 -0.56300893884E-01  0.11400481001E+00  0.12910645354E+00  0.19526124105E-01 0.  0.
         14    1    1    2    0    0  0.14759188034E-01  0.72177043593E-02  0.16721636576E-01  0.23442312544E-01  0.00000000000E+00 0. -1.
     999901    1    3    3    0    0 -0.25728211047E-01  0.49083189525E-01 -0.13072644659E+00  0.89138123391E+00  0.88000000000E+00 0.  1.
        -11    1    4    4    0    0  0.13136647710E-01 -0.20037430075E-01  0.51652476682E-01  0.56941281909E-01  0.51100000000E-03 0.  1.
         11    1    4    4    0    0 -0.21676246961E-02 -0.36263463810E-01  0.62352333328E-01  0.72165171632E-01  0.51100000000E-03 0. -1.
</event>
<event>
 8    1  0.1118868E+005  0.1043930E+01  0.7957747E-01            NaN
         13   -1    0    0    0    0  0.00000000000E+00  0.00000000000E+00  0.74505805969E-08  0.10566000000E+00  0.10566000000E+00 0. -1.
     999900   -1    0    0    0    0 -0.00000000000E+00 -0.00000000000E+00 -0.74505805969E-08  0.93827000000E+00  0.93827000000E+00 0. -1.
     999902    2    1    2    0    0 -0.96697736147E-02  0.22189066328E-01  0.17499700542E-02  0.10196622934E+01  0.10193734699E+01 0.  0.
     999903    2    3    3    0    0  0.12484869209E-01  0.70760354314E-01 -0.10801677293E+00  0.13123743107E+00  0.19817678413E-01 0.  0.
         14    1    1    2    0    0  0.96697736147E-02 -0.22189066328E-01 -0.17499700542E-02  0.24267706555E-01  0.00000000000E+00 0. -1.
     999901    1    3    3    0    0 -0.22154642823E-01 -0.48571287986E-01  0.10976674299E+00  0.88842486237E+00  0.88000000000E+00 0.  1.
        -11    1    4    4    0    0  0.17267990298E-02  0.55942772802E-01 -0.76602951776E-01  0.94872804351E-01  0.51100000000E-03 0. -1.
         11    1    4    4    0    0  0.10758070179E-01  0.14817581512E-01 -0.31413821158E-01  0.36364626722E-01  0.51100000000E-03 0.  1.
</event>
<event>
 8    1  0.1118868E+005  0.1043930E+01  0.7957747E-01            NaN
         13   -1    0    0    0    0  0.00000000000E+00  0.00000000000E+00  0.74505805969E-08  0.10566000000E+00  0.10566000000E+00 0. -1.
     999900   -1    0    0    0    0 -0.00000000000E+00 -0.00000000000E+00 -0.74505805969E-08  0.93827000000E+00  0.93827000000E+00 0.  1.
     999902    2    1    2    0    0 -0.13857810537E-01 -0.36860889533E-03  0.19546506727E-01  0.10199666799E+01  0.10196851413E+01 0.  0.
     999903    2    3    3    0    0 -0.64641631255E-02  0.12847099869E+00 -0.43000086377E-02  0.13023471643E+00  0.19899959346E-01 0.  0.
         14    1    1    2    0    0  0.13857810537E-01  0.36860889533E-03 -0.19546506727E-01  0.23963320108E-01  0.00000000000E+00 0.  1.
     999901    1    3    3    0    0 -0.73936474111E-02 -0.12883960758E+00  0.23846515364E-01  0.88973196346E+00  0.88000000000E+00 0. -1.
        -11    1    4    4    0    0  0.40597460525E-02  0.66429464236E-01 -0.88470988083E-02  0.67140803800E-01  0.51100000000E-03 0. -1.
         11    1    4    4    0    0 -0.10523909178E-01  0.62041534451E-01  0.45470901706E-02  0.63093912634E-01  0.51100000000E-03 0.  1.
</event>
<event>
 8    1  0.1166956E+005  0.1043930E+01  0.7957747E-01            NaN
         13   -1    0    0    0    0  0.00000000000E+00  0.00000000000E+00  0.74505805969E-08  0.10566000000E+00  0.10566000000E+00 0. -1.
     999900   -1    0    0    0    0 -0.00000000000E+00 -0.00000000000E+00 -0.74505805969E-08  0.93827000000E+00  0.93827000000E+00 0. -1.
     999902    2    1    2    0    0  0.95431688048E-02  0.10119073106E-02 -0.21847351293E-01  0.10200678378E+01  0.10197886991E+01 0.  0.
     999903    2    3    3    0    0  0.11346466397E+00  0.79568931274E-02 -0.66099067972E-01  0.13282146590E+00  0.18300625681E-01 0.  0.
         14    1    1    2    0    0 -0.95431688048E-02 -0.10119073106E-02  0.21847351293E-01  0.23862162219E-01  0.00000000000E+00 0. -1.
     999901    1    3    3    0    0 -0.10392149516E+00 -0.69449858168E-02  0.44251716679E-01  0.88724637188E+00  0.88000000000E+00 0.  1.
        -11    1    4    4    0    0  0.91010327738E-01  0.37125950815E-02 -0.44512831592E-01  0.10138203201E+00  0.51100000000E-03 0. -1.
         11    1    4    4    0    0  0.22454336228E-01  0.42442980459E-02 -0.21586236380E-01  0.31439433891E-01  0.51100000000E-03 0.  1.
</event>
<event>
 8    1  0.1118868E+005  0.1043930E+01  0.7957747E-01            NaN
         13   -1    0    0    0    0  0.00000000000E+00  0.00000000000E+00  0.74505805969E-08  0.10566000000E+00  0.10566000000E+00 0. -1.
     999900   -1    0    0    0    0 -0.00000000000E+00 -0.00000000000E+00 -0.74505805969E-08  0.93827000000E+00  0.93827000000E+00 0. -1.
     999902    2    1    2    0    0  0.14363062924E-01 -0.18407713262E-01 -0.55052472229E-02  0.10199414771E+01  0.10196593389E+01 0.  0.
     999903    2    3    3    0    0 -0.32608395028E-01  0.47543662557E-01 -0.11419345888E+00  0.12956569733E+00  0.20577089168E-01 0.  0.
         14    1    1    2    0    0 -0.14363062924E-01  0.18407713262E-01  0.55052472229E-02  0.23988522904E-01  0.00000000000E+00 0. -1.
     999901    1    3    3    0    0  0.46971457952E-01 -0.65951375819E-01  0.10868821166E+00  0.89037577976E+00  0.88000000000E+00 0.  1.
        -11    1    4    4    0    0 -0.81741439110E-03 -0.99024116278E-03 -0.11761433686E-01  0.11842347200E-01  0.51100000000E-03 0.  1.
         11    1    4    4    0    0 -0.31790980637E-01  0.48533903720E-01 -0.10243202520E+00  0.11772335013E+00  0.51100000000E-03 0. -1.
</event>
<event>
 8    1  0.1118868E+005  0.1043930E+01  0.7957747E-01            NaN
         13   -1    0    0    0    0  0.00000000000E+00  0.00000000000E+00  0.74505805969E-08  0.10566000000E+00  0.10566000000E+00 0. -1.
     999900   -1    0    0    0    0 -0.00000000000E+00 -0.00000000000E+00 -0.74505805969E-08  0.93827000000E+00  0.93827000000E+00 0. -1.
     999902    2    1    2    0    0  0.18228498933E-01 -0.15268353913E-01  0.25849057166E-02  0.10200117529E+01  0.10197312850E+01 0.  0.
     999903    2    3    3    0    0  0.61864502922E-01  0.80042625163E-01 -0.79281513667E-01  0.13001714948E+00  0.19617904699E-01 0.  0.
         14    1    1    2    0    0 -0.18228498933E-01  0.15268353913E-01 -0.25849057166E-02  0.23918247054E-01  0.00000000000E+00 0.  1.
     999901    1    3    3    0    0 -0.43636003989E-01 -0.95310979076E-01  0.81866419384E-01  0.88999460347E+00  0.88000000000E+00 0.  1.
        -11    1    4    4    0    0  0.47037995614E-01  0.65721483943E-01 -0.53158484235E-01  0.96736611737E-01  0.51100000000E-03 0.  1.
         11    1    4    4    0    0  0.14826507308E-01  0.14321141220E-01 -0.26123029432E-01  0.33280537743E-01  0.51100000000E-03 0. -1.
</event>
<event>
 8    1  0.1118868E+005  0.1043930E+01  0.7957747E-01            NaN
         13   -1    0    0    0    0  0.00000000000E+00  0.00000000000E+00  0.74505805969E-08  0.10566000000E+00  0.10566000000E+00 0. -1.
     999900   -1    0    0    0    0 -0.00000000000E+00 -0.00000000000E+00 -0.74505805969E-08  0.93827000000E+00  0.93827000000E+00 0.  1.
     999902    2    1    2    0    0  0.10320756164E-01 -0.54110005084E-02  0.20241656386E-01  0.10205735964E+01  0.10203062992E+01 0.  0.
     999903    2    3    3    0    0  0.30976357490E-01  0.43743397014E-01  0.12056086813E+00  0.13327051805E+00  0.18790650647E-01 0.  0.
         14    1    1    2    0    0 -0.10320756164E-01  0.54110005084E-02 -0.20241656386E-01  0.23356403566E-01  0.00000000000E+00 0.  1.
     999901    1    3    3    0    0 -0.20655601327E-01 -0.49154397523E-01 -0.10031921174E+00  0.88730307838E+00  0.88000000000E+00 0.  1.
        -11    1    4    4    0    0  0.15446965802E-01  0.24235160136E-01  0.85811878884E-01  0.90498018861E-01  0.51100000000E-03 0.  1.
         11    1    4    4    0    0  0.15529391689E-01  0.19508236879E-01  0.34748989246E-01  0.42772499190E-01  0.51100000000E-03 0. -1.
</event>
<event>
 8    1  0.1118868E+005  0.1043930E+01  0.7957747E-01            NaN
         13   -1    0    0    0    0  0.00000000000E+00  0.00000000000E+00  0.74505805969E-08  0.10566000000E+00  0.10566000000E+00 0. -1.
     999900   -1    0    0    0    0 -0.00000000000E+00 -0.00000000000E+00 -0.74505805969E-08  0.93827000000E+00  0.93827000000E+00 0. -1.
     999902    2    1    2    0    0  0.19641951457E-01 -0.10284331325E-01 -0.18249716070E-02  0.10216835565E+01  0.10214413274E+01 0.  0.
     999903    2    3    3    0    0  0.14839081403E-01 -0.35777506168E-01  0.12486454561E+00  0.13223248796E+00  0.19850638212E-01 0.  0.
         14    1    1    2    0    0 -0.19641951457E-01  0.10284331325E-01  0.18249716070E-02  0.22246443519E-01  0.00000000000E+00 0.  1.
     999901    1    3    3    0    0  0.48028700547E-02  0.25493174842E-01 -0.12668951721E+00  0.88945106852E+00  0.88000000000E+00 0. -1.
        -11    1    4    4    0    0  0.76280360593E-02 -0.15945249308E-02  0.14498394367E-01  0.16467969034E-01  0.51100000000E-03 0. -1.
         11    1    4    4    0    0  0.72110453433E-02 -0.34182981237E-01  0.11036615124E+00  0.11576451892E+00  0.51100000000E-03 0.  1.
</event>
<event>
 8    1  0.1118868E+005  0.1043930E+01  0.7957747E-01            NaN
         13   -1    0    0    0    0  0.00000000000E+00  0.00000000000E+00  0.74505805969E-08  0.10566000000E+00  0.10566000000E+00 0. -1.
     999900   -1    0    0    0    0 -0.00000000000E+00 -0.00000000000E+00 -0.74505805969E-08  0.93827000000E+00  0.93827000000E+00 0. -1.
     999902    2    1    2    0    0 -0.12602084285E-01  0.89635967235E-02 -0.17509970734E-01  0.10205685431E+01  0.10203011288E+01 0.  0.
     999903    2    3    3    0    0 -0.12734606644E+00 -0.24667237789E-01 -0.15123191424E-01  0.13247907056E+00  0.22282279062E-01 0.  0.
         14    1    1    2    0    0  0.12602084285E-01 -0.89635967235E-02  0.17509970734E-01  0.23361456925E-01  0.00000000000E+00 0. -1.
     999901    1    3    3    0    0  0.11474398216E+00  0.33630834513E-01 -0.23867793105E-02  0.88808947251E+00  0.88000000000E+00 0.  1.
        -11    1    4    4    0    0 -0.28607680462E-01 -0.14119991420E-03  0.42029593960E-02  0.28919635328E-01  0.51100000000E-03 0. -1.
         11    1    4    4    0    0 -0.98738385979E-01 -0.24526037875E-01 -0.19326150820E-01  0.10355943523E+00  0.51100000000E-03 0.  1.
</event>
<event>
 8    1  0.1118868E+005  0.1043930E+01  0.7957747E-01            NaN
         13   -1    0    0    0    0  0.00000000000E+00  0.00000000000E+00  0.74505805969E-08  0.10566000000E+00  0.10566000000E+00 0. -1.
     999900   -1    0    0    0    0 -0.00000000000E+00 -0.00000000000E+00 -0.74505805969E-08  0.93827000000E+00  0.93827000000E+00 0. -1.
     999902    2    1    2    0    0  0.60070204504E-02  0.76394429446E-02 -0.23057590689E-01  0.10189080522E+01  0.10186007662E+01 0.  0.
     999903    2    3    3    0    0 -0.38174088056E-01 -0.26205799236E-01  0.11580354325E+00  0.12628277512E+00  0.19821043128E-01 0.  0.
         14    1    1    2    0    0 -0.60070204504E-02 -0.76394429446E-02  0.23057590689E-01  0.25021947797E-01  0.00000000000E+00 0. -1.
     999901    1    3    3    0    0  0.44181108506E-01  0.33845242181E-01 -0.13886113394E+00  0.89262527708E+00  0.88000000000E+00 0. -1.
        -11    1    4    4    0    0 -0.80248235767E-02 -0.16756617022E-01  0.37816866394E-01  0.42137376667E-01  0.51100000000E-03 0. -1.
         11    1    4    4    0    0 -0.30149264479E-01 -0.94491822139E-02  0.77986676855E-01  0.84145398454E-01  0.51100000000E-03 0.  1.
</event>
<event>
 8    1  0.1118868E+005  0.1043930E+01  0.7957747E-01            NaN
         13   -1    0    0    0    0  0.00000000000E+00  0.00000000000E+00  0.74505805969E-08  0.10566000000E+00  0.10566000000E+00 0.  1.
     999900   -1    0    0    0    0 -0.00000000000E+00 -0.00000000000E+00 -0.74505805969E-08  0.93827000000E+00  0.93827000000E+00 0.  1.
     999902    2    1    2    0    0 -0.57500806297E-02  0.73104939421E-02 -0.22333387379E-01  0.10197372957E+01  0.10194502760E+01 0.  0.
     999903    2    3    3    0    0 -0.60597674191E-01 -0.96929000390E-02  0.11123963576E+00  0.12780729485E+00  0.13943372100E-01 0.  0.
         14    1    1    2    0    0  0.57500806297E-02 -0.73104939421E-02  0.22333387379E-01  0.24192704288E-01  0.00000000000E+00 0.  1.
     999901    1    3    3    0    0  0.54847593561E-01  0.17003393981E-01 -0.13357302314E+00  0.89193000086E+00  0.88000000000E+00 0.  1.
        -11    1    4    4    0    0 -0.36228155079E-01 -0.11069398760E-01  0.58571907912E-01  0.69756292382E-01  0.51100000000E-03 0. -1.
         11    1    4    4    0    0 -0.24369519111E-01  0.13764987214E-02  0.52667727844E-01  0.58051002470E-01  0.51100000000E-03 0.  1.
</event>
<event>
 8    1  0.1118868E+005  0.1043930E+01  0.7957747E-01            NaN
         13   -1    0    0    0    0  0.00000000000E+00  0.00000000000E+00  0.74505805969E-08  0.10566000000E+00  0.10566000000E+00 0.  1.
     999900   -1    0    0    0    0 -0.00000000000E+00 -0.00000000000E+00 -0.74505805969E-08  0.93827000000E+00  0.93827000000E+00 0.  1.
     999902    2    1    2    0    0  0.20050387782E-01 -0.10070311771E-01  0.66492121928E-03  0.10214829211E+01  0.10212362542E+01 0.  0.
     999903    2    3    3    0    0 -0.34896941464E-01  0.88891362681E-01 -0.86016689164E-01  0.13000867945E+00  0.19593749915E-01 0.  0.
         14    1    1    2    0    0 -0.20050387782E-01  0.10070311771E-01 -0.66492121928E-03  0.22447078866E-01  0.00000000000E+00 0.  1.
     999901    1    3    3    0    0  0.54947329246E-01 -0.98961674452E-01  0.86681610383E-01  0.89147424168E+00  0.88000000000E+00 0. -1.
        -11    1    4    4    0    0 -0.29320024128E-01  0.64862355747E-01 -0.52784194720E-01  0.88618402948E-01  0.51100000000E-03 0.  1.
         11    1    4    4    0    0 -0.55769173356E-02  0.24029006935E-01 -0.33232494444E-01  0.41390276505E-01  0.51100000000E-03 0. -1.
</event>
<event>
 8    1  0.1118868E+005  0.1043930E+01  0.7957747E-01            NaN
         13   -1    0    0    0    0  0.00000000000E+00  0.00000000000E+00  0.74505805969E-08  0.10566000000E+00  0.10566000000E+00 0. -1.
     999900   -1    0    0    0    0 -0.00000000000E+00 -0.00000000000E+00 -0.74505805969E-08  0.93827000000E+00  0.93827000000E+00 0.  1.
     999902    2    1    2    0    0 -0.91447681008E-02 -0.15137778785E-01  0.16456447968E-01  0.10197723136E+01  0.10194861342E+01 0.  0.
     999903    2    3    3    0    0  0.11902403159E+00  0.43912320680E-01  0.82430773928E-02  0.12849142924E+00  0.18630272652E-01 0.  0.
         14    1    1    2    0    0  0.91447681008E-02  0.15137778785E-01 -0.16456447968E-01  0.24157686351E-01  0.00000000000E+00 0.  1.
     999901    1    3    3    0    0 -0.12816879969E+00 -0.59050099465E-01  0.82133705748E-02  0.89128088441E+00  0.88000000000E+00 0. -1.
        -11    1    4    4    0    0  0.79300623996E-01  0.19838777424E-01  0.39401206661E-02  0.81841014948E-01  0.51100000000E-03 0. -1.
         11    1    4    4    0    0  0.39723407594E-01  0.24073543256E-01  0.43029567267E-02  0.46650414289E-01  0.51100000000E-03 0.  1.
</event>
<event>
 8    1  0.1118868E+005  0.1043930E+01  0.7957747E-01            NaN
         13   -1    0    0    0    0  0.00000000000E+00  0.00000000000E+00  0.74505805969E-08  0.10566000000E+00  0.10566000000E+00 0. -1.
     999900   -1    0    0    0    0 -0.00000000000E+00 -0.00000000000E+00 -0.74505805969E-08  0.93827000000E+00  0.93827000000E+00 0.  1.
     999902    2    1    2    0    0  0.52295670989E-02 -0.19637619409E-02 -0.28423026670E-01  0.10149632401E+01  0.10145498044E+01 0.  0.
     999903    2    3    3    0    0 -0.52544818897E-01 -0.11215687240E+00 -0.11766872860E-01  0.12605501722E+00  0.20280188657E-01 0.  0.
         14    1    1    2    0    0 -0.52295670989E-02  0.19637619409E-02  0.28423026670E-01  0.28966759882E-01  0.00000000000E+00 0. -1.
     999901    1    3    3    0    0  0.57774385996E-01  0.11019311045E+00 -0.16656153810E-01  0.88890822289E+00  0.88000000000E+00 0.  1.
        -11    1    4    4    0    0 -0.42706202425E-01 -0.68936812106E-01 -0.97723224150E-02  0.81681474003E-01  0.51100000000E-03 0. -1.
         11    1    4    4    0    0 -0.98386164719E-02 -0.43220060289E-01 -0.19945504450E-02  0.44373543221E-01  0.51100000000E-03 0.  1.
</event>
<event>
 7    1  0.1118868E+005  0.1043930E+01  0.7957747E-01            NaN
         13   -1    0    0    0    0  0.00000000000E+00  0.00000000000E+00  0.74505805969E-08  0.10566000000E+00  0.10566000000E+00 0.  1.
     999900   -1    0    0    0    0 -0.00000000000E+00 -0.00000000000E+00 -0.74505805969E-08  0.93827000000E+00  0.93827000000E+00 0.  1.
     999902    2    1    2    0    0 -0.14941141799E-01 -0.15866731454E-01 -0.69108582738E-02  0.10210662547E+01  0.10208102398E+01 0.  0.
         14    1    1    2    0    0  0.14941141799E-01  0.15866731454E-01  0.69108582738E-02  0.22863745261E-01  0.00000000000E+00 0.  1.
     999901    1    3    3    0    0  0.32242939085E-01 -0.12036329996E+00  0.44533301550E-01  0.88989333408E+00  0.88000000000E+00 0.  1.
        -11    1    3    3    0    0 -0.26585410042E-01  0.43322634554E-01 -0.41992383897E-01  0.65933725195E-01  0.51100000000E-03 0. -1.
         11    1    3    3    0    0 -0.20598670842E-01  0.61173933949E-01 -0.94517759262E-02  0.65239195461E-01  0.51100000000E-03 0.  1.
</event>
<event>
 8    1  0.1118868E+005  0.1043930E+01  0.7957747E-01            NaN
         13   -1    0    0    0    0  0.00000000000E+00  0.00000000000E+00  0.74505805969E-08  0.10566000000E+00  0.10566000000E+00 0.  1.
     999900   -1    0    0    0    0 -0.00000000000E+00 -0.00000000000E+00 -0.74505805969E-08  0.93827000000E+00  0.93827000000E+00 0.  1.
     999902    2    1    2    0    0 -0.23063373788E-02  0.49100488301E-02  0.23515803286E-01  0.10197966046E+01  0.10195110072E+01 0.  0.
     999903    2    3    3    0    0 -0.10285582574E+00  0.74693827344E-01 -0.17039965560E-01  0.13040088512E+00  0.23569931770E-01 0.  0.
         14    1    1    2    0    0  0.23063373788E-02 -0.49100488301E-02 -0.23515803286E-01  0.24133395447E-01  0.00000000000E+00 0. -1.
     999901    1    3    3    0    0  0.10054948836E+00 -0.69783778514E-01  0.40555768846E-01  0.88939571943E+00  0.88000000000E+00 0.  1.
        -11    1    4    4    0    0 -0.80658472848E-01  0.64873959714E-01 -0.58737067115E-02  0.10367825926E+00  0.51100000000E-03 0. -1.
         11    1    4    4    0    0 -0.22197352888E-01  0.98198676295E-02 -0.11166258849E-01  0.26722625866E-01  0.51100000000E-03 0.  1.
</event>
<event>
 8    1  0.1118868E+005  0.1043930E+01  0.7957747E-01            NaN
         13   -1    0    0    0    0  0.00000000000E+00  0.00000000000E+00  0.74505805969E-08  0.10566000000E+00  0.10566000000E+00 0. -1.
     999900   -1    0    0    0    0 -0.00000000000E+00 -0.00000000000E+00 -0.74505805969E-08  0.93827000000E+00  0.93827000000E+00 0.  1.
     999902    2    1    2    0    0 -0.61958511761E-02  0.15161628287E-02 -0.23006340003E-01  0.10200557670E+01  0.10197763425E+01 0.  0.
     999903    2    3    3    0    0  0.51129833839E-01  0.73708708044E-01 -0.94584487835E-01  0.13235005619E+00  0.22870909106E-01 0.  0.
         14    1    1    2    0    0  0.61958511761E-02 -0.15161628287E-02  0.23006340003E-01  0.23874233011E-01  0.00000000000E+00 0. -1.
     999901    1    3    3    0    0 -0.57325685016E-01 -0.72192545215E-01  0.71578147832E-01  0.88770571080E+00  0.88000000000E+00 0. -1.
        -11    1    4    4    0    0  0.20843375474E-01  0.14840363245E-01 -0.19018006087E-01  0.31884610064E-01  0.51100000000E-03 0. -1.
         11    1    4    4    0    0  0.30286458366E-01  0.58868344799E-01 -0.75566481747E-01  0.10046544612E+00  0.51100000000E-03 0.  1.
</event>
<event>
 8    1  0.1118868E+005  0.1043930E+01  0.7957747E-01            NaN
         13   -1    0    0    0    0  0.00000000000E+00  0.00000000000E+00  0.74505805969E-08  0.10566000000E+00  0.10566000000E+00 0.  1.
     999900   -1    0    0    0    0 -0.00000000000E+00 -0.00000000000E+00 -0.74505805969E-08  0.93827000000E+00  0.93827000000E+00 0. -1.
     999902    2    1    2    0    0 -0.17409108552E-02  0.78173275504E-02 -0.26698734376E-01  0.10160559296E+01  0.10156735147E+01 0.  0.
     999903    2    3    3    0    0 -0.19468680731E-01 -0.12225348879E+00 -0.12934936839E-01  0.12621204828E+00  0.20909889771E-01 0.  0.
         14    1    1    2    0    0  0.17409108552E-02 -0.78173275504E-02  0.26698734376E-01  0.27874070351E-01  0.00000000000E+00 0.  1.
     999901    1    3    3    0    0  0.17727769876E-01  0.13007081634E+00 -0.13763797537E-01  0.88984388137E+00  0.88000000000E+00 0.  1.
        -11    1    4    4    0    0 -0.10579023707E-01 -0.71558258051E-01 -0.17847044751E-01  0.74506900119E-01  0.51100000000E-03 0. -1.
         11    1    4    4    0    0 -0.88896570245E-02 -0.50695230735E-01  0.49121079123E-02  0.51705148162E-01  0.51100000000E-03 0.  1.
</event>
<event>
 8    1  0.1118868E+005  0.1043930E+01  0.7957747E-01            NaN
         13   -1    0    0    0    0  0.00000000000E+00  0.00000000000E+00  0.74505805969E-08  0.10566000000E+00  0.10566000000E+00 0.  1.
     999900   -1    0    0    0    0 -0.00000000000E+00 -0.00000000000E+00 -0.74505805969E-08  0.93827000000E+00  0.93827000000E+00 0.  1.
     999902    2    1    2    0    0 -0.19088834807E-01 -0.11448965933E-01 -0.14315156633E-01  0.10174651904E+01  0.10171209503E+01 0.  0.
     999903    2    3    3    0    0 -0.11893977524E-01 -0.28516210197E-01  0.12143523429E+00  0.12686358174E+00  0.19829556193E-01 0.  0.
         14    1    1    2    0    0  0.19088834807E-01  0.11448965933E-01  0.14315156633E-01  0.26464809552E-01  0.00000000000E+00 0.  1.
     999901    1    3    3    0    0 -0.71948572829E-02  0.17067244264E-01 -0.13575039092E+00  0.89060160871E+00  0.88000000000E+00 0.  1.
        -11    1    4    4    0    0 -0.52837345862E-02 -0.27819335566E-01  0.79329926804E-01  0.84233791855E-01  0.51100000000E-03 0. -1.
         11    1    4    4    0    0 -0.66102429375E-02 -0.69687463161E-03  0.42105307488E-01  0.42629789884E-01  0.51100000000E-03 0.  1.
</event>
<event>
 8    1  0.1118868E+005  0.1043930E+01  0.7957747E-01            NaN
         13   -1    0    0    0    0  0.00000000000E+00  0.00000000000E+00  0.74505805969E-08  0.10566000000E+00  0.10566000000E+00 0.  1.
     999900   -1    0    0    0    0 -0.00000000000E+00 -0.00000000000E+00 -0.74505805969E-08  0.93827000000E+00  0.93827000000E+00 0.  1.
     999902    2    1    2    0    0 -0.18079005875E-01 -0.10645177006E-01 -0.12751960676E-01  0.10193783657E+01  0.10190826609E+01 0.  0.
     999903    2    3    3    0    0  0.98749360890E-01  0.31635540514E-01  0.70627795614E-01  0.12674814542E+00  0.18015636381E-01 0.  0.
         14    1    1    2    0    0  0.18079005875E-01  0.10645177006E-01  0.12751960676E-01  0.24551634325E-01  0.00000000000E+00 0.  1.
     999901    1    3    3    0    0 -0.11682836677E+00 -0.42280717520E-01 -0.83379756290E-01  0.89263022026E+00  0.88000000000E+00 0.  1.
        -11    1    4    4    0    0  0.33327566074E-01  0.13562411018E-01  0.14981944539E-01  0.38979294969E-01  0.51100000000E-03 0.  1.
         11    1    4    4    0    0  0.65421794816E-01  0.18073129496E-01  0.55645851075E-01  0.87768850451E-01  0.51100000000E-03 0. -1.
</event>
<event>
 8    1  0.1118868E+005  0.1043930E+01  0.7957747E-01            NaN
         13   -1    0    0    0    0  0.00000000000E+00  0.00000000000E+00  0.74505805969E-08  0.10566000000E+00  0.10566000000E+00 0. -1.
     999900   -1    0    0    0    0 -0.00000000000E+00 -0.00000000000E+00 -0.74505805969E-08  0.93827000000E+00  0.93827000000E+00 0. -1.
     999902    2    1    2    0    0  0.15111327470E-01  0.92961670480E-02 -0.12530798653E-01  0.10222092299E+01  0.10219784331E+01 0.  0.
     999903    2    3    3    0    0  0.25278564296E-01  0.38148075451E-01  0.12217777750E+00  0.13143304822E+00  0.15904570952E-01 0.  0.
         14    1    1    2    0    0 -0.15111327470E-01 -0.92961670480E-02  0.12530798653E-01  0.21720770119E-01  0.00000000000E+00 0. -1.
     999901    1    3    3    0    0 -0.10167236826E-01 -0.28851908403E-01 -0.13470857615E+00  0.89077618166E+00  0.88000000000E+00 0. -1.
        -11    1    4    4    0    0  0.23378313676E-01  0.27978966782E-01  0.78677699177E-01  0.86716835743E-01  0.51100000000E-03 0. -1.
         11    1    4    4    0    0  0.19002506193E-02  0.10169108669E-01  0.43500078320E-01  0.44716212479E-01  0.51100000000E-03 0.  1.
</event>
<event>
 8    1  0.1357595E+005  0.1043930E+01  0.7957747E-01            NaN
         13   -1    0    0    0    0  0.00000000000E+00  0.00000000000E+00  0.74505805969E-08  0.10566000000E+00  0.10566000000E+00 0.  1.
     999900   -1    0    0    0    0 -0.00000000000E+00 -0.00000000000E+00 -0.74505805969E-08  0.93827000000E+00  0.93827000000E+00 0.  1.
     999902    2    1    2    0    0 -0.37177914372E-03  0.16360389159E-01 -0.19427119099E-01  0.10185289467E+01  0.10182121595E+01 0.  0.
     999903    2    3    3    0    0  0.26414167081E-01  0.41157332911E-01  0.11594527767E+00  0.12742959131E+00  0.20083800744E-01 0.  0.
         14    1    1    2    0    0  0.37177914372E-03 -0.16360389159E-01  0.19427119099E-01  0.25401053318E-01  0.00000000000E+00 0.  1.
     999901    1    3    3    0    0 -0.26785946224E-01 -0.24796943752E-01 -0.13537239677E+00  0.89109935537E+00  0.88000000000E+00 0.  1.
        -11    1    4    4    0    0  0.23105796345E-01  0.22968794493E-01  0.57055920053E-01  0.65704508821E-01  0.51100000000E-03 0.  1.
         11    1    4    4    0    0  0.33083707356E-02  0.18188538418E-01  0.58889357619E-01  0.61725082491E-01  0.51100000000E-03 0. -1.
</event>
<event>
 8    1  0.1118868E+005  0.1043930E+01  0.7957747E-01            NaN
         13   -1    0    0    0    0  0.00000000000E+00  0.00000000000E+00  0.74505805969E-08  0.10566000000E+00  0.10566000000E+00 0. -1.
     999900   -1    0    0    0    0 -0.00000000000E+00 -0.00000000000E+00 -0.74505805969E-08  0.93827000000E+00  0.93827000000E+00 0.  1.
     999902    2    1    2    0    0  0.12775820345E-01  0.29438177307E-02 -0.19398187692E-01  0.10205168128E+01  0.10202481992E+01 0.  0.
     999903    2    3    3    0    0 -0.96612185083E-01 -0.78593839274E-01  0.26453173927E-01  0.12882377561E+00  0.19618584900E-01 0.  0.
         14    1    1    2    0    0 -0.12775820345E-01 -0.29438177307E-02  0.19398187692E-01  0.23413187183E-01  0.00000000000E+00 0. -1.
     999901    1    3    3    0    0  0.10938800543E+00  0.81537657004E-01 -0.45851361619E-01  0.89169303721E+00  0.88000000000E+00 0. -1.
        -11    1    4    4    0    0 -0.64104643047E-01 -0.60291359767E-01  0.25000279678E-01  0.91486219879E-01  0.51100000000E-03 0. -1.
         11    1    4    4    0    0 -0.32507542035E-01 -0.18302479506E-01  0.14528942480E-02  0.37337555731E-01  0.51100000000E-03 0.  1.
</event>
<event>
 7    1  0.1118868E+005  0.1043930E+01  0.7957747E-01            NaN
         13   -1    0    0    0    0  0.00000000000E+00  0.00000000000E+00  0.74505805969E-08  0.10566000000E+00  0.10566000000E+00 0. -1.
     999900   -1    0    0    0    0 -0.00000000000E+00 -0.00000000000E+00 -0.74505805969E-08  0.93827000000E+00  0.93827000000E+00 0. -1.
     999903    2    1    2    0    0 -0.49978682902E-01  0.36084235311E-02 -0.10495888842E+00  0.11864250532E+00  0.23426189289E-01 0.  0.
         14    1    1    2    0    0  0.35350387733E-01 -0.15325511497E-01 -0.21814741205E-02  0.38591191285E-01  0.00000000000E+00 0. -1.
     999901    1    1    2    0    0  0.14628295170E-01  0.11717087966E-01  0.10714036254E+00  0.88669630340E+00  0.88000000000E+00 0.  1.
        -11    1    3    3    0    0 -0.51321574913E-01  0.51804582681E-02 -0.10438701397E+00  0.11643732652E+00  0.51100000000E-03 0. -1.
         11    1    3    3    0    0  0.13428920108E-02 -0.15720347370E-02 -0.57187445153E-03  0.22051788035E-02  0.51100000000E-03 0.  1.
</event>
<event>
 8    1  0.1118868E+005  0.1043930E+01  0.7957747E-01            NaN
         13   -1    0    0    0    0  0.00000000000E+00  0.00000000000E+00  0.74505805969E-08  0.10566000000E+00  0.10566000000E+00 0.  1.
     999900   -1    0    0    0    0 -0.00000000000E+00 -0.00000000000E+00 -0.74505805969E-08  0.93827000000E+00  0.93827000000E+00 0. -1.
     999902    2    1    2    0    0  0.18296222707E-01 -0.13414907942E-01 -0.60559158378E-02  0.10204483979E+01  0.10201781938E+01 0.  0.
     999903    2    3    3    0    0 -0.70264745545E-01  0.78881360075E-01 -0.70949348839E-01  0.12883592388E+00  0.20136577350E-01 0.  0.
         14    1    1    2    0    0 -0.18296222707E-01  0.13414907942E-01  0.60559158378E-02  0.23481602098E-01  0.00000000000E+00 0.  1.
     999901    1    3    3    0    0  0.88560968251E-01 -0.92296268017E-01  0.64893433001E-01  0.89161247402E+00  0.88000000000E+00 0.  1.
        -11    1    4    4    0    0 -0.63193200693E-01  0.63887930129E-01 -0.66103999826E-01  0.11155737602E+00  0.51100000000E-03 0. -1.
         11    1    4    4    0    0 -0.70715448515E-02  0.14993429946E-01 -0.48453490127E-02  0.17278547861E-01  0.51100000000E-03 0.  1.
</event>
<event>
 8    1  0.1118868E+005  0.1043930E+01  0.7957747E-01            NaN
         13   -1    0    0    0    0  0.00000000000E+00  0.00000000000E+00  0.74505805969E-08  0.10566000000E+00  0.10566000000E+00 0. -1.
     999900   -1    0    0    0    0 -0.00000000000E+00 -0.00000000000E+00 -0.74505805969E-08  0.93827000000E+00  0.93827000000E+00 0.  1.
     999902    2    1    2    0    0 -0.17439864076E-01  0.46814532340E-02 -0.14189459536E-01  0.10209646865E+01  0.10207063659E+01 0.  0.
     999903    2    3    3    0    0 -0.70208183482E-01 -0.11920843395E-02  0.10841200148E+00  0.13088035776E+00  0.21116247095E-01 0.  0.
         14    1    1    2    0    0  0.17439864076E-01 -0.46814532340E-02  0.14189459536E-01  0.22965313525E-01  0.00000000000E+00 0. -1.
     999901    1    3    3    0    0  0.52768319406E-01  0.58735375736E-02 -0.12260146101E+00  0.89008432871E+00  0.88000000000E+00 0.  1.
        -11    1    4    4    0    0 -0.59196172740E-01 -0.81890853273E-02  0.82581032478E-01  0.10193692183E+00  0.51100000000E-03 0. -1.
         11    1    4    4    0    0 -0.11012010742E-01  0.69970009877E-02  0.25830968997E-01  0.28943435935E-01  0.51100000000E-03 0.  1.
</event>
<event>
 8    1  0.1118868E+005  0.1043930E+01  0.7957747E-01            NaN
         13   -1    0    0    0    0  0.00000000000E+00  0.00000000000E+00  0.74505805969E-08  0.10566000000E+00  0.10566000000E+00 0.  1.
     999900   -1    0    0    0    0 -0.00000000000E+00 -0.00000000000E+00 -0.74505805969E-08  0.93827000000E+00  0.93827000000E+00 0. -1.
     999902    2    1    2    0    0  0.42924931028E-02 -0.19018474713E-01  0.16909718003E-01  0.10181217370E+01  0.10177945789E+01 0.  0.
     999903    2    3    3    0    0  0.35933920385E-01 -0.46167979926E-01 -0.11178487591E+00  0.12778439975E+00  0.20255007620E-01 0.  0.
         14    1    1    2    0    0 -0.42924931028E-02  0.19018474713E-01 -0.16909718003E-01  0.25808263026E-01  0.00000000000E+00 0.  1.
     999901    1    3    3    0    0 -0.31641427282E-01  0.27149505213E-01  0.12869459391E+00  0.89033733722E+00  0.88000000000E+00 0. -1.
        -11    1    4    4    0    0  0.14067725611E-01 -0.22441592383E-01 -0.30907877988E-01  0.40707296831E-01  0.51100000000E-03 0.  1.
         11    1    4    4    0    0  0.21866194774E-01 -0.23726387543E-01 -0.80876997918E-01  0.87077102920E-01  0.51100000000E-03 0. -1.
</event>
<event>
 8    1  0.1118868E+005  0.1043930E+01  0.7957747E-01            NaN
         13   -1    0    0    0    0  0.00000000000E+00  0.00000000000E+00  0.74505805969E-08  0.10566000000E+00  0.10566000000E+00 0. -1.
     999900   -1    0    0    0    0 -0.00000000000E+00 -0.00000000000E+00 -0.74505805969E-08  0.93827000000E+00  0.93827000000E+00 0. -1.
     999902    2    1    2    0    0 -0.16838472838E-01  0.45112676856E-02 -0.54894825362E-02  0.10256537826E+01  0.10254909369E+01 0.  0.
     999903    2    3    3    0    0 -0.81473604074E-02 -0.99312313107E-01  0.88248166754E-01  0.13456365346E+00  0.19756590842E-01 0.  0.
         14    1    1    2    0    0  0.16838472838E-01 -0.45112676856E-02  0.54894825362E-02  0.18276217392E-01  0.00000000000E+00 0.  1.
     999901    1    3    3    0    0 -0.86911124303E-02  0.10382358079E+00 -0.93737649290E-01  0.89109012914E+00  0.88000000000E+00 0. -1.
        -11    1    4    4    0    0  0.64586118306E-02 -0.23474906216E-01  0.21287064100E-01  0.32344784860E-01  0.51100000000E-03 0. -1.
         11    1    4    4    0    0 -0.14605972238E-01 -0.75837406891E-01  0.66961102654E-01  0.10221886860E+00  0.51100000000E-03 0.  1.
</event>
<event>
 8    1  0.1118868E+005  0.1043930E+01  0.7957747E-01            NaN
         13   -1    0    0    0    0  0.00000000000E+00  0.00000000000E+00  0.74505805969E-08  0.10566000000E+00  0.10566000000E+00 0.  1.
     999900   -1    0    0    0    0 -0.00000000000E+00 -0.00000000000E+00 -0.74505805969E-08  0.93827000000E+00  0.93827000000E+00 0.  1.
     999902    2    1    2    0    0 -0.74864502256E-02  0.58411135390E-02 -0.19971616213E-01  0.10218159547E+01  0.10215766316E+01 0.  0.
     999903    2    3    3    0    0  0.89860413515E-01 -0.78952542690E-01  0.46501085884E-01  0.12991629885E+00  0.20186525331E-01 0.  0.
         14    1    1    2    0    0  0.74864502256E-02 -0.58411135390E-02  0.19971616213E-01  0.22114045277E-01  0.00000000000E+00 0.  1.
     999901    1    3    3    0    0 -0.97346863741E-01  0.84793656229E-01 -0.66472702097E-01  0.89189965587E+00  0.88000000000E+00 0.  1.
        -11    1    4    4    0    0  0.18743100307E-01 -0.19133276872E-01  0.19522908323E-01  0.33148018996E-01  0.51100000000E-03 0. -1.
         11    1    4    4    0    0  0.71117313208E-01 -0.59819265818E-01  0.26978177561E-01  0.96768279857E-01  0.51100000000E-03 0.  1.
</event>
<event>
 8    1  0.1118868E+005  0.1043930E+01  0.7957747E-01            NaN
         13   -1    0    0    0    0  0.00000000000E+00  0.00000000000E+00  0.74505805969E-08  0.10566000000E+00  0.10566000000E+00 0.  1.
     999900   -1    0    0    0    0 -0.00000000000E+00 -0.00000000000E+00 -0.74505805969E-08  0.93827000000E+00  0.93827000000E+00 0. -1.
     999902    2    1    2    0    0  0.15706455758E-01 -0.12601093707E-01  0.13827397356E-01  0.10195030224E+01  0.10192103490E+01 0.  0.
     999903    2    3    3    0    0  0.38006824464E-01  0.32250833056E-01  0.12064047284E+00  0.13163026417E+00  0.16963720716E-01 0.  0.
         14    1    1    2    0    0 -0.15706455758E-01  0.12601093707E-01 -0.13827397356E-01  0.24426977561E-01  0.00000000000E+00 0. -1.
     999901    1    3    3    0    0 -0.22300368706E-01 -0.44851926763E-01 -0.10681307548E+00  0.88787275827E+00  0.88000000000E+00 0. -1.
        -11    1    4    4    0    0  0.65305926998E-02  0.40787474270E-02  0.71029202001E-02  0.10487965387E-01  0.51100000000E-03 0.  1.
         11    1    4    4    0    0  0.31476231764E-01  0.28172085629E-01  0.11353755264E+00  0.12114229879E+00  0.51100000000E-03 0. -1.
</event>
<event>
 8    1  0.1118868E+005  0.1043930E+01  0.7957747E-01            NaN
         13   -1    0    0    0    0  0.00000000000E+00  0.00000000000E+00  0.74505805969E-08  0.10566000000E+00  0.10566000000E+00 0. -1.
     999900   -1    0    0    0    0 -0.00000000000E+00 -0.00000000000E+00 -0.74505805969E-08  0.93827000000E+00  0.93827000000E+00 0. -1.
     999902    2    1    2    0    0 -0.13293114534E-01 -0.18926067044E-01  0.42661124488E-02  0.10204118661E+01  0.10201408108E+01 0.  0.
     999903    2    3    3    0    0  0.52070574998E-01 -0.45654945773E-01 -0.10871007377E+00  0.13038351624E+00  0.19653557270E-01 0.  0.
         14    1    1    2    0    0  0.13293114534E-01  0.18926067044E-01 -0.42661124488E-02  0.23518133922E-01  0.00000000000E+00 0.  1.
     999901    1    3    3    0    0 -0.65363689531E-01  0.26728878729E-01  0.11297618622E+00  0.89002834984E+00  0.88000000000E+00 0.  1.
        -11    1    4    4    0    0  0.31413533683E-01 -0.20141245482E-01 -0.72253650534E-01  0.81322389319E-01  0.51100000000E-03 0.  1.
         11    1    4    4    0    0  0.20657041315E-01 -0.25513700291E-01 -0.36456423236E-01  0.49061126919E-01  0.51100000000E-03 0. -1.
</event>
<event>
 8    1  0.1118868E+005  0.1043930E+01  0.7957747E-01            NaN
         13   -1    0    0    0    0  0.00000000000E+00  0.00000000000E+00  0.74505805969E-08  0.10566000000E+00  0.10566000000E+00 0.  1.
     999900   -1    0    0    0    0 -0.00000000000E+00 -0.00000000000E+00 -0.74505805969E-08  0.93827000000E+00  0.93827000000E+00 0. -1.
     999902    2    1    2    0    0 -0.91089123644E-02  0.30253753439E-02 -0.20982262784E-01  0.10208566272E+01  0.10205958420E+01 0.  0.
     999903    2    3    3    0    0 -0.11351785389E+00  0.64947595993E-01 -0.37905506104E-02  0.13235724992E+00  0.19989496077E-01 0.  0.
         14    1    1    2    0    0  0.91089123644E-02 -0.30253753439E-02  0.20982262784E-01  0.23073372792E-01  0.00000000000E+00 0.  1.
     999901    1    3    3    0    0  0.10440894153E+00 -0.61922220649E-01 -0.17191712174E-01  0.88849937729E+00  0.88000000000E+00 0. -1.
        -11    1    4    4    0    0 -0.93855269499E-01  0.59038518731E-01  0.23993627707E-02  0.11090706185E+00  0.51100000000E-03 0. -1.
         11    1    4    4    0    0 -0.19662584395E-01  0.59090772627E-02 -0.61899133811E-02  0.21450188061E-01  0.51100000000E-03 0.  1.
</event>
<event>
 8    1  0.1118868E+005  0.1043930E+01  0.7957747E-01            NaN
         13   -1    0    0    0    0  0.00000000000E+00  0.00000000000E+00  0.74505805969E-08  0.10566000000E+00  0.10566000000E+00 0.  1.
     999900   -1    0    0    0    0 -0.00000000000E+00 -0.00000000000E+00 -0.74505805969E-08  0.93827000000E+00  0.93827000000E+00 0. -1.
     999902    2    1    2    0    0  0.18203210604E-01 -0.13633199645E-01  0.68913828724E-02  0.10201663267E+01  0.10198895146E+01 0.  0.
     999903    2    3    3    0    0  0.74760210206E-02 -0.12520367861E+00 -0.35997848887E-01  0.13202076965E+00  0.20044611970E-01 0.  0.
         14    1    1    2    0    0 -0.18203210604E-01  0.13633199645E-01 -0.68913828724E-02  0.23763673259E-01  0.00000000000E+00 0. -1.
     999901    1    3    3    0    0  0.10727189583E-01  0.11157047896E+00  0.42889231759E-01  0.88814555709E+00  0.88000000000E+00 0. -1.
        -11    1    4    4    0    0  0.65683570305E-02 -0.72198503745E-01 -0.10717523992E-01  0.73286381399E-01  0.51100000000E-03 0.  1.
         11    1    4    4    0    0  0.90766399009E-03 -0.53005174861E-01 -0.25280324895E-01  0.58734388255E-01  0.51100000000E-03 0. -1.
</event>
<event>
 8    1  0.1118868E+005  0.1043930E+01  0.7957747E-01            NaN
         13   -1    0    0    0    0  0.00000000000E+00  0.00000000000E+00  0.74505805969E-08  0.10566000000E+00  0.10566000000E+00 0.  1.
     999900   -1    0    0    0    0 -0.00000000000E+00 -0.00000000000E+00 -0.74505805969E-08  0.93827000000E+00  0.93827000000E+00 0.  1.
     999902    2    1    2    0    0 -0.19474794435E-01  0.11729421956E-01 -0.89047513716E-02  0.10195139898E+01  0.10192215823E+01 0.  0.
     999903    2    3    3    0    0 -0.33128098301E-01  0.31069757690E-01  0.12007564742E+00  0.12979695355E+00  0.19138633949E-01 0.  0.
         14    1    1    2    0    0  0.19474794435E-01 -0.11729421956E-01  0.89047513716E-02  0.24416010213E-01  0.00000000000E+00 0. -1.
     999901    1    3    3    0    0  0.13653303866E-01 -0.19340335734E-01 -0.12898039879E+00  0.88971703623E+00  0.88000000000E+00 0.  1.
        -11    1    4    4    0    0 -0.17157244445E-01  0.53037865580E-02  0.32693822906E-01  0.37304803524E-01  0.51100000000E-03 0.  1.
         11    1    4    4    0    0 -0.15970853856E-01  0.25765971132E-01  0.87381824511E-01  0.92492150030E-01  0.51100000000E-03 0. -1.
</event>
<event>
 8    1  0.1118868E+005  0.1043930E+01  0.7957747E-01            NaN
         13   -1    0    0    0    0  0.00000000000E+00  0.00000000000E+00  0.74505805969E-08  0.10566000000E+00  0.10566000000E+00 0.  1.
     999900   -1    0    0    0    0 -0.00000000000E+00 -0.00000000000E+00 -0.74505805969E-08  0.93827000000E+00  0.93827000000E+00 0.  1.
     999902    2    1    2    0    0 -0.21080956400E-01  0.79270274664E-02 -0.25805004170E-02  0.10212605609E+01  0.10210089274E+01 0.  0.
     999903    2    3    3    0    0 -0.58802380151E-01 -0.67306821313E-01 -0.94950887561E-01  0.13243249752E+00  0.23125035003E-01 0.  0.
         14    1    1    2    0    0  0.21080956400E-01 -0.79270274664E-02  0.25805004170E-02  0.22669439111E-01  0.00000000000E+00 0. -1.
     999901    1    3    3    0    0  0.37721423751E-01  0.75233848780E-01  0.92370387144E-01  0.88882806337E+00  0.88000000000E+00 0. -1.
        -11    1    4    4    0    0 -0.34523804130E-01 -0.54542500567E-01 -0.61361273475E-01  0.89063148514E-01  0.51100000000E-03 0.  1.
         11    1    4    4    0    0 -0.24278576021E-01 -0.12764320746E-01 -0.33589614086E-01  0.43369349006E-01  0.51100000000E-03 0. -1.
</event>
<event>
 8    1  0.1118868E+005  0.1043930E+01  0.7957747E-01            NaN
         13   -1    0    0    0    0  0.00000000000E+00  0.00000000000E+00  0.74505805969E-08  0.10566000000E+00  0.10566000000E+00 0. -1.
     999900   -1    0    0    0    0 -0.00000000000E+00 -0.00000000000E+00 -0.74505805969E-08  0.93827000000E+00  0.93827000000E+00 0.  1.
     999902    2    1    2    0    0  0.47233284415E-02  0.94143134349E-02 -0.21049893338E-01  0.10203920065E+01  0.10201204879E+01 0.  0.
     999903    2    3    3    0    0 -0.35341174108E-01 -0.67626355266E-01 -0.10583970550E+00  0.13206225845E+00  0.20397900197E-01 0.  0.
         14    1    1    2    0    0 -0.47233284415E-02 -0.94143134349E-02  0.21049893338E-01  0.23537993511E-01  0.00000000000E+00 0. -1.
     999901    1    3    3    0    0  0.40064502550E-01  0.77040668701E-01  0.84789812166E-01  0.88832974804E+00  0.88000000000E+00 0. -1.
        -11    1    4    4    0    0 -0.17006789539E-01 -0.49422829137E-01 -0.61207831078E-01  0.80489170927E-01  0.51100000000E-03 0.  1.
         11    1    4    4    0    0 -0.18334384569E-01 -0.18203526129E-01 -0.44631874426E-01  0.51573087525E-01  0.51100000000E-03 0. -1.
</event>
<event>
 8    1  0.1118868E+005  0.1043930E+01  0.7957747E-01            NaN
         13   -1    0    0    0    0  0.00000000000E+00  0.00000000000E+00  0.74505805969E-08  0.10566000000E+00  0.10566000000E+00 0.  1.
     999900   -1    0    0    0    0 -0.00000000000E+00 -0.00000000000E+00 -0.74505805969E-08  0.93827000000E+00  0.93827000000E+00 0. -1.
     999902    2    1    2    0    0  0.16123107531E-01 -0.99503607556E-02  0.13582399309E-01  0.10206180750E+01  0.10203518066E+01 0.  0.
     999903    2    3    3    0    0  0.11395595229E+00  0.63277204966E-01 -0.42923940643E-02  0.13199382926E+00  0.20346561999E-01 0.  0.
         14    1    1    2    0    0 -0.16123107531E-01  0.99503607556E-02 -0.13582399309E-01  0.23311924987E-01  0.00000000000E+00 0. -1.
     999901    1    3    3    0    0 -0.97832844763E-01 -0.73227565721E-01  0.17874793373E-01  0.88862424575E+00  0.88000000000E+00 0.  1.
        -11    1    4    4    0    0  0.58780424068E-01  0.44129858955E-01 -0.33577759600E-02  0.73580693700E-01  0.51100000000E-03 0. -1.
         11    1    4    4    0    0  0.55175528227E-01  0.19147346011E-01 -0.93461810438E-03  0.58413135564E-01  0.51100000000E-03 0.  1.
</event>
<event>
 8    1  0.1118868E+005  0.1043930E+01  0.7957747E-01            NaN
         13   -1    0    0    0    0  0.00000000000E+00  0.00000000000E+00  0.74505805969E-08  0.10566000000E+00  0.10566000000E+00 0.  1.
     999900   -1    0    0    0    0 -0.00000000000E+00 -0.00000000000E+00 -0.74505805969E-08  0.93827000000E+00  0.93827000000E+00 0. -1.
     999902    2    1    2    0    0 -0.17356330168E-01  0.14790360816E-01 -0.33884456932E-02  0.10208761818E+01  0.10206158435E+01 0.  0.
     999903    2    3    3    0    0  0.44918788815E-01 -0.11388105351E+00 -0.35012302818E-01  0.12878056379E+00  0.19286791471E-01 0.  0.
         14    1    1    2    0    0  0.17356330168E-01 -0.14790360816E-01  0.33884456932E-02  0.23053818213E-01  0.00000000000E+00 0. -1.
     999901    1    3    3    0    0 -0.62275118983E-01  0.12867141432E+00  0.31623857124E-01  0.89209561800E+00  0.88000000000E+00 0. -1.
        -11    1    4    4    0    0  0.20985578827E-01 -0.65144915977E-01 -0.10648234061E-01  0.69266879574E-01  0.51100000000E-03 0. -1.
         11    1    4    4    0    0  0.23933209988E-01 -0.48736137531E-01 -0.24364068756E-01  0.59513684217E-01  0.51100000000E-03 0.  1.
</event>
<event>
 8    1  0.1118868E+005  0.1043930E+01  0.7957747E-01            NaN
         13   -1    0    0    0    0  0.00000000000E+00  0.00000000000E+00  0.74505805969E-08  0.10566000000E+00  0.10566000000E+00 0.  1.
     999900   -1    0    0    0    0 -0.00000000000E+00 -0.00000000000E+00 -0.74505805969E-08  0.93827000000E+00  0.93827000000E+00 0. -1.
     999902    2    1    2    0    0 -0.21950283775E-01 -0.79455391323E-02  0.57533148167E-02  0.10198873882E+01  0.10196039611E+01 0.  0.
     999903    2    3    3    0    0  0.71825633864E-01 -0.50466631074E-01  0.93055653397E-01  0.12959324339E+00  0.20718387290E-01 0.  0.
         14    1    1    2    0    0  0.21950283775E-01  0.79455391323E-02 -0.57533148167E-02  0.24042611782E-01  0.00000000000E+00 0. -1.
     999901    1    3    3    0    0 -0.93775917639E-01  0.42521091942E-01 -0.87302338581E-01  0.89029414483E+00  0.88000000000E+00 0. -1.
        -11    1    4    4    0    0  0.41709266757E-01 -0.34657987616E-01  0.43686041868E-01  0.69638857071E-01  0.51100000000E-03 0. -1.
         11    1    4    4    0    0  0.30116367107E-01 -0.15808643458E-01  0.49369611529E-01  0.59954386322E-01  0.51100000000E-03 0.  1.
</event>
<event>
 8    1  0.1118868E+005  0.1043930E+01  0.7957747E-01            NaN
         13   -1    0    0    0    0  0.00000000000E+00  0.00000000000E+00  0.74505805969E-08  0.10566000000E+00  0.10566000000E+00 0.  1.
     999900   -1    0    0    0    0 -0.00000000000E+00 -0.00000000000E+00 -0.74505805969E-08  0.93827000000E+00  0.93827000000E+00 0.  1.
     999902    2    1    2    0    0  0.13342282457E-01 -0.50132689373E-02  0.20818510347E-01  0.10186998645E+01  0.10183873792E+01 0.  0.
     999903    2    3    3    0    0  0.10691734771E+00  0.56820949148E-01 -0.41110315971E-01  0.12942209970E+00  0.20002057568E-01 0.  0.
         14    1    1    2    0    0 -0.13342282457E-01  0.50132689373E-02 -0.20818510347E-01  0.25230135547E-01  0.00000000000E+00 0. -1.
     999901    1    3    3    0    0 -0.93575065253E-01 -0.61834218085E-01  0.61928826318E-01  0.88927776476E+00  0.88000000000E+00 0.  1.
        -11    1    4    4    0    0  0.36860577370E-01  0.27500441550E-01 -0.85018221996E-02  0.46770915655E-01  0.51100000000E-03 0.  1.
         11    1    4    4    0    0  0.70056770340E-01  0.29320507598E-01 -0.32608493771E-01  0.82651184041E-01  0.51100000000E-03 0. -1.
</event>
<event>
 8    1  0.1118868E+005  0.1043930E+01  0.7957747E-01            NaN
         13   -1    0    0    0    0  0.00000000000E+00  0.00000000000E+00  0.74505805969E-08  0.10566000000E+00  0.10566000000E+00 0.  1.
     999900   -1    0    0    0    0 -0.00000000000E+00 -0.00000000000E+00 -0.74505805969E-08  0.93827000000E+00  0.93827000000E+00 0. -1.
     999902    2    1    2    0    0  0.88032199012E-02  0.12419022189E-01  0.16974658126E-01  0.10211293901E+01  0.10208748031E+01 0.  0.
     999903    2    3    3    0    0  0.10762723434E+00  0.49851947853E-01 -0.54236917970E-01  0.13195083756E+00  0.20013545041E-01 0.  0.
         14    1    1    2    0    0 -0.88032199012E-02 -0.12419022189E-01 -0.16974658126E-01  0.22800609887E-01  0.00000000000E+00 0. -1.
     999901    1    3    3    0    0 -0.98824014438E-01 -0.37432925664E-01  0.71211576096E-01  0.88917855255E+00  0.88000000000E+00 0. -1.
        -11    1    4    4    0    0  0.81868870737E-01  0.28478892713E-01 -0.41868196920E-01  0.96264045002E-01  0.51100000000E-03 0. -1.
         11    1    4    4    0    0  0.25758363602E-01  0.21373055140E-01 -0.12368721050E-01  0.35686792555E-01  0.51100000000E-03 0.  1.
</event>
<event>
 8    1  0.1118868E+005  0.1043930E+01  0.7957747E-01            NaN
         13   -1    0    0    0    0  0.00000000000E+00  0.00000000000E+00  0.74505805969E-08  0.10566000000E+00  0.10566000000E+00 0. -1.
     999900   -1    0    0    0    0 -0.00000000000E+00 -0.00000000000E+00 -0.74505805969E-08  0.93827000000E+00  0.93827000000E+00 0. -1.
     999902    2    1    2    0    0  0.60880203640E-02 -0.22632023829E-01  0.20049544532E-02  0.10204078331E+01  0.10201366837E+01 0.  0.
     999903    2    3    3    0    0 -0.81032273686E-01  0.89443832697E-01 -0.38137991472E-01  0.12812850497E+00  0.19899216233E-01 0.  0.
         14    1    1    2    0    0 -0.60880203640E-02  0.22632023829E-01 -0.20049544532E-02  0.23522166926E-01  0.00000000000E+00 0.  1.
     999901    1    3    3    0    0  0.87120294050E-01 -0.11207585653E+00  0.40142945925E-01  0.89227932810E+00  0.88000000000E+00 0.  1.
        -11    1    4    4    0    0 -0.33092532099E-01  0.27025735563E-01 -0.20860826701E-01  0.47549356201E-01  0.51100000000E-03 0. -1.
         11    1    4    4    0    0 -0.47939741586E-01  0.62418097133E-01 -0.17277164771E-01  0.80579148771E-01  0.51100000000E-03 0.  1.
</event>
<event>
 8    1  0.1118868E+005  0.1043930E+01  0.7957747E-01            NaN
         13   -1    0    0    0    0  0.00000000000E+00  0.00000000000E+00  0.74505805969E-08  0.10566000000E+00  0.10566000000E+00 0. -1.
     999900   -1    0    0    0    0 -0.00000000000E+00 -0.00000000000E+00 -0.74505805969E-08  0.93827000000E+00  0.93827000000E+00 0.  1.
     999902    2    1    2    0    0  0.46171567158E-02  0.75047753732E-02 -0.21831059963E-01  0.10203878045E+01  0.10201161878E+01 0.  0.
     999903    2    3    3    0    0 -0.11071957854E+00  0.10514571431E-02 -0.68342925755E-01  0.13162036503E+00  0.19830137554E-01 0.  0.
         14    1    1    2    0    0 -0.46171567158E-02 -0.75047753732E-02  0.21831059963E-01  0.23542195494E-01  0.00000000000E+00 0. -1.
     999901    1    3    3    0    0  0.11533673526E+00  0.64533182301E-02  0.46511865792E-01  0.88876743948E+00  0.88000000000E+00 0.  1.
        -11    1    4    4    0    0 -0.25903457281E-01  0.85557306125E-02 -0.14874519594E-01  0.31075747450E-01  0.51100000000E-03 0. -1.
         11    1    4    4    0    0 -0.84816121259E-01 -0.75042734694E-02 -0.53468406161E-01  0.10054461758E+00  0.51100000000E-03 0.  1.
</event>
<event>
 8    1  0.1118868E+005  0.1043930E+01  0.7957747E-01            NaN
         13   -1    0    0    0    0  0.00000000000E+00  0.00000000000E+00  0.74505805969E-08  0.10566000000E+00  0.10566000000E+00 0.  1.
     999900   -1    0    0    0    0 -0.00000000000E+00 -0.00000000000E+00 -0.74505805969E-08  0.93827000000E+00  0.93827000000E+00 0. -1.
     999902    2    1    2    0    0  0.13551004200E-01  0.11082350186E-01  0.15683780280E-01  0.10204261883E+01  0.10201554669E+01 0.  0.
     999903    2    3    3    0    0  0.85854204224E-01  0.93089065677E-01  0.36248433942E-01  0.13342237822E+00  0.21238255931E-01 0.  0.
         14    1    1    2    0    0 -0.13551004200E-01 -0.11082350186E-01 -0.15683780280E-01  0.23503811699E-01  0.00000000000E+00 0. -1.
     999901    1    3    3    0    0 -0.72303200023E-01 -0.82006715491E-01 -0.20564653663E-01  0.88700381008E+00  0.88000000000E+00 0.  1.
        -11    1    4    4    0    0  0.33290619126E-01  0.29173453306E-01  0.34397666873E-02  0.44401000162E-01  0.51100000000E-03 0.  1.
         11    1    4    4    0    0  0.52563585098E-01  0.63915612372E-01  0.32808667255E-01  0.89021378057E-01  0.51100000000E-03 0. -1.
</event>
<event>
 8    1  0.1118868E+005  0.1043930E+01  0.7957747E-01            NaN
         13   -1    0    0    0    0  0.00000000000E+00  0.00000000000E+00  0.74505805969E-08  0.10566000000E+00  0.10566000000E+00 0.  1.
     999900   -1    0    0    0    0 -0.00000000000E+00 -0.00000000000E+00 -0.74505805969E-08  0.93827000000E+00  0.93827000000E+00 0. -1.
     999902    2    1    2    0    0  0.21269053352E-01  0.97350353984E-02 -0.49458469594E-02  0.10200217389E+01  0.10197415079E+01 0.  0.
     999903    2    3    3    0    0  0.11938264372E+00 -0.10200112247E-02  0.53864510160E-01  0.13255308837E+00  0.20388225432E-01 0.  0.
         14    1    1    2    0    0 -0.21269053352E-01 -0.97350353984E-02  0.49458469594E-02  0.23908261058E-01  0.00000000000E+00 0. -1.
     999901    1    3    3    0    0 -0.98113590372E-01  0.10755046623E-01 -0.58810357119E-01  0.88746865057E+00  0.88000000000E+00 0.  1.
        -11    1    4    4    0    0  0.67326852704E-01  0.64538477338E-02  0.38192996666E-01  0.77675757871E-01  0.51100000000E-03 0.  1.
         11    1    4    4    0    0  0.52055791020E-01 -0.74738589584E-02  0.15671513494E-01  0.54877330498E-01  0.51100000000E-03 0. -1.
</event>
<event>
 8    1  0.1118868E+005  0.1043930E+01  0.7957747E-01            NaN
         13   -1    0    0    0    0  0.00000000000E+00  0.00000000000E+00  0.74505805969E-08  0.10566000000E+00  0.10566000000E+00 0.  1.
     999900   -1    0    0    0    0 -0.00000000000E+00 -0.00000000000E+00 -0.74505805969E-08  0.93827000000E+00  0.93827000000E+00 0. -1.
     999902    2    1    2    0    0  0.10780570104E-01  0.19047980144E-01  0.10316030863E-01  0.10197335802E+01  0.10194464713E+01 0.  0.
     999903    2    3    3    0    0 -0.81126988121E-01 -0.93634284266E-01  0.23699179713E-01  0.12770028448E+00  0.19918437304E-01 0.  0.
         14    1    1    2    0    0 -0.10780570104E-01 -0.19047980144E-01 -0.10316030863E-01  0.24196419820E-01  0.00000000000E+00 0. -1.
     999901    1    3    3    0    0  0.91907558225E-01  0.11268226441E+00 -0.13383148850E-01  0.89203329570E+00  0.88000000000E+00 0. -1.
        -11    1    4    4    0    0 -0.49737012387E-01 -0.44719098579E-01  0.18194512694E-01  0.69317166647E-01  0.51100000000E-03 0.  1.
         11    1    4    4    0    0 -0.31389975734E-01 -0.48915185687E-01  0.55046670191E-02  0.58383117829E-01  0.51100000000E-03 0. -1.
</event>
<event>
 8    1  0.1118868E+005  0.1043930E+01  0.7957747E-01            NaN
         13   -1    0    0    0    0  0.00000000000E+00  0.00000000000E+00  0.74505805969E-08  0.10566000000E+00  0.10566000000E+00 0.  1.
     999900   -1    0    0    0    0 -0.00000000000E+00 -0.00000000000E+00 -0.74505805969E-08  0.93827000000E+00  0.93827000000E+00 0. -1.
     999902    2    1    2    0    0 -0.18603432053E-01 -0.12211977298E-01  0.80204844517E-02  0.10202752279E+01  0.10200009766E+01 0.  0.
     999903    2    3    3    0    0  0.85254624586E-02 -0.12770008076E+00  0.28990136531E-01  0.13206736635E+00  0.14878410611E-01 0.  0.
         14    1    1    2    0    0  0.18603432053E-01  0.12211977298E-01 -0.80204844517E-02  0.23654772130E-01  0.00000000000E+00 0. -1.
     999901    1    3    3    0    0 -0.27128894511E-01  0.11548810346E+00 -0.20969652079E-01  0.88820786152E+00  0.88000000000E+00 0. -1.
        -11    1    4    4    0    0  0.11661872580E-01 -0.11139749616E+00  0.27855783102E-01  0.11541926700E+00  0.51100000000E-03 0. -1.
         11    1    4    4    0    0 -0.31364101217E-02 -0.16302584601E-01  0.11343534284E-02  0.16648099346E-01  0.51100000000E-03 0.  1.
</event>
<event>
 7    1  0.1118868E+005  0.1043930E+01  0.7957747E-01            NaN
         13   -1    0    0    0    0  0.00000000000E+00  0.00000000000E+00  0.74505805969E-08  0.10566000000E+00  0.10566000000E+00 0. -1.
     999900   -1    0    0    0    0 -0.00000000000E+00 -0.00000000000E+00 -0.74505805969E-08  0.93827000000E+00  0.93827000000E+00 0. -1.
     999903    2    1    2    0    0 -0.55686335813E-01  0.73189510875E-01 -0.88779665323E-02  0.94531414851E-01  0.19992438711E-01 0.  0.
         14    1    1    2    0    0  0.59107838926E-01  0.17549755010E-01  0.19481327626E-01  0.64662606269E-01  0.00000000000E+00 0. -1.
     999901    1    1    2    0    0 -0.34215031130E-02 -0.90739265885E-01 -0.10603361094E-01  0.88473597888E+00  0.88000000000E+00 0. -1.
        -11    1    3    3    0    0 -0.30930006429E-01  0.36306904841E-01  0.50765027499E-02  0.47967579030E-01  0.51100000000E-03 0. -1.
         11    1    3    3    0    0 -0.24756329385E-01  0.36882606034E-01 -0.13954469282E-01  0.46563835821E-01  0.51100000000E-03 0.  1.
</event>
<event>
 8    1  0.1118868E+005  0.1043930E+01  0.7957747E-01            NaN
         13   -1    0    0    0    0  0.00000000000E+00  0.00000000000E+00  0.74505805969E-08  0.10566000000E+00  0.10566000000E+00 0. -1.
     999900   -1    0    0    0    0 -0.00000000000E+00 -0.00000000000E+00 -0.74505805969E-08  0.93827000000E+00  0.93827000000E+00 0. -1.
     999902    2    1    2    0    0  0.29393582735E-02  0.39578371416E-02 -0.22724533079E-01  0.10206768560E+01  0.10204119441E+01 0.  0.
     999903    2    3    3    0    0  0.58661563870E-01 -0.10816546807E-01  0.11190320259E+00  0.12857379367E+00  0.21230094397E-01 0.  0.
         14    1    1    2    0    0 -0.29393582735E-02 -0.39578371416E-02  0.22724533079E-01  0.23253143993E-01  0.00000000000E+00 0. -1.
     999901    1    3    3    0    0 -0.55722205597E-01  0.14774383949E-01 -0.13462773567E+00  0.89210306234E+00  0.88000000000E+00 0. -1.
        -11    1    4    4    0    0  0.48219172774E-01 -0.12586691684E-02  0.94792018303E-01  0.10636005230E+00  0.51100000000E-03 0. -1.
         11    1    4    4    0    0  0.10442391097E-01 -0.95578776386E-02  0.17111184288E-01  0.22213741367E-01  0.51100000000E-03 0.  1.
</event>
<event>
 8    1  0.1118868E+005  0.1043930E+01  0.7957747E-01            NaN
         13   -1    0    0    0    0  0.00000000000E+00  0.00000000000E+00  0.74505805969E-08  0.10566000000E+00  0.10566000000E+00 0.  1.
     999900   -1    0    0    0    0 -0.00000000000E+00 -0.00000000000E+00 -0.74505805969E-08  0.93827000000E+00  0.93827000000E+00 0. -1.
     999902    2    1    2    0    0 -0.95019399936E-02 -0.49737240950E-02 -0.24521559021E-01  0.10171656272E+01  0.10168134448E+01 0.  0.
     999903    2    3    3    0    0  0.38273051101E-01  0.75281192964E-01 -0.96059613868E-01  0.12933625463E+00  0.19192000712E-01 0.  0.
         14    1    1    2    0    0  0.95019399936E-02  0.49737240950E-02  0.24521559021E-01  0.26764372809E-01  0.00000000000E+00 0.  1.
     999901    1    3    3    0    0 -0.47774991095E-01 -0.80254917059E-01  0.71538054847E-01  0.88782937256E+00  0.88000000000E+00 0. -1.
        -11    1    4    4    0    0  0.22786948263E-01  0.31158021944E-01 -0.54404910550E-01  0.66709989923E-01  0.51100000000E-03 0.  1.
         11    1    4    4    0    0  0.15486102838E-01  0.44123171020E-01 -0.41654703318E-01  0.62626264709E-01  0.51100000000E-03 0. -1.
</event>
<event>
 8    1  0.1118868E+005  0.1043930E+01  0.7957747E-01            NaN
         13   -1    0    0    0    0  0.00000000000E+00  0.00000000000E+00  0.74505805969E-08  0.10566000000E+00  0.10566000000E+00 0.  1.
     999900   -1    0    0    0    0 -0.00000000000E+00 -0.00000000000E+00 -0.74505805969E-08  0.93827000000E+00  0.93827000000E+00 0.  1.
     999902    2    1    2    0    0 -0.10226844915E-01 -0.22413621009E-01 -0.62910002609E-03  0.10192854361E+01  0.10189874610E+01 0.  0.
     999903    2    3    3    0    0 -0.98787442722E-01 -0.84707856267E-01 -0.15028914175E-01  0.13253242319E+00  0.20114551519E-01 0.  0.
         14    1    1    2    0    0  0.10226844915E-01  0.22413621009E-01  0.62910002609E-03  0.24644563914E-01  0.00000000000E+00 0. -1.
     999901    1    3    3    0    0  0.88560597807E-01  0.62294235258E-01  0.14399814149E-01  0.88675301289E+00  0.88000000000E+00 0. -1.
        -11    1    4    4    0    0 -0.73448331486E-01 -0.54053923523E-01 -0.16746568177E-01  0.92721047842E-01  0.51100000000E-03 0.  1.
         11    1    4    4    0    0 -0.25339111236E-01 -0.30653932744E-01  0.17176540017E-02  0.39811375349E-01  0.51100000000E-03 0. -1.
</event>
<event>
 8    1  0.1118868E+005  0.1043930E+01  0.7957747E-01            NaN
         13   -1    0    0    0    0  0.00000000000E+00  0.00000000000E+00  0.74505805969E-08  0.10566000000E+00  0.10566000000E+00 0. -1.
     999900   -1    0    0    0    0 -0.00000000000E+00 -0.00000000000E+00 -0.74505805969E-08  0.93827000000E+00  0.93827000000E+00 0. -1.
     999902    2    1    2    0    0  0.20734629320E-01 -0.98818061542E-02 -0.41560711001E-02  0.10205880234E+01  0.10203210600E+01 0.  0.
     999903    2    3    3    0    0 -0.29151230008E-02  0.23370675283E-01  0.12633717079E+00  0.13003003846E+00  0.19800095344E-01 0.  0.
         14    1    1    2    0    0 -0.20734629320E-01  0.98818061542E-02  0.41560711001E-02  0.23341976627E-01  0.00000000000E+00 0.  1.
     999901    1    3    3    0    0  0.23649752320E-01 -0.33252481437E-01 -0.13049324189E+00  0.89055798491E+00  0.88000000000E+00 0. -1.
        -11    1    4    4    0    0  0.71106182842E-02  0.81017387868E-02  0.27964295107E-01  0.29974355466E-01  0.51100000000E-03 0. -1.
         11    1    4    4    0    0 -0.10025741285E-01  0.15268936496E-01  0.98372875679E-01  0.10005568300E+00  0.51100000000E-03 0.  1.
</event>
<event>
 8    1  0.1118868E+005  0.1043930E+01  0.7957747E-01            NaN
         13   -1    0    0    0    0  0.00000000000E+00  0.00000000000E+00  0.74505805969E-08  0.10566000000E+00  0.10566000000E+00 0. -1.
     999900   -1    0    0    0    0 -0.00000000000E+00 -0.00000000000E+00 -0.74505805969E-08  0.93827000000E+00  0.93827000000E+00 0. -1.
     999902    2    1    2    0    0  0.72004337617E-02 -0.25104435028E-01  0.55731432014E-02  0.10172253407E+01  0.10168747489E+01 0.  0.
     999903    2    3    3    0    0 -0.90724762904E-01  0.19062385955E-01  0.84788345874E-01  0.12716067979E+00  0.19657510709E-01 0.  0.
         14    1    1    2    0    0 -0.72004337617E-02  0.25104435028E-01 -0.55731432014E-02  0.26704659324E-01  0.00000000000E+00 0. -1.
     999901    1    3    3    0    0  0.97925196665E-01 -0.44166820983E-01 -0.79215202673E-01  0.89006466088E+00  0.88000000000E+00 0. -1.
        -11    1    4    4    0    0 -0.37251245255E-01  0.65952834802E-02  0.22065348260E-01  0.43798330471E-01  0.51100000000E-03 0. -1.
         11    1    4    4    0    0 -0.53473517649E-01  0.12467102475E-01  0.62722997614E-01  0.83362349322E-01  0.51100000000E-03 0.  1.
</event>
<event>
 8    1  0.1118868E+005  0.1043930E+01  0.7957747E-01            NaN
         13   -1    0    0    0    0  0.00000000000E+00  0.00000000000E+00  0.74505805969E-08  0.10566000000E+00  0.10566000000E+00 0.  1.
     999900   -1    0    0    0    0 -0.00000000000E+00 -0.00000000000E+00 -0.74505805969E-08  0.93827000000E+00  0.93827000000E+00 0.  1.
     999902    2    1    2    0    0  0.13591285099E-01  0.17776602749E-01 -0.26017078936E-02  0.10214022500E+01  0.10211537870E+01 0.  0.
     999903    2    3    3    0    0  0.12945894086E+00 -0.94933171235E-02 -0.21645317586E-01  0.13318402161E+00  0.20487152046E-01 0.  0.
         14    1    1    2    0    0 -0.13591285099E-01 -0.17776602749E-01  0.26017078936E-02  0.22527749996E-01  0.00000000000E+00 0.  1.
     999901    1    3    3    0    0 -0.11586765577E+00  0.27269919873E-01  0.19043609692E-01  0.88821822839E+00  0.88000000000E+00 0.  1.
        -11    1    4    4    0    0  0.10754271020E+00 -0.72739144665E-03 -0.14518111614E-01  0.10852188858E+00  0.51100000000E-03 0.  1.
         11    1    4    4    0    0  0.21916230661E-01 -0.87659256769E-02 -0.71272059723E-02  0.24662133025E-01  0.51100000000E-03 0. -1.
</event>
<event>
 8    1  0.1118868E+005  0.1043930E+01  0.7957747E-01            NaN
         13   -1    0    0    0    0  0.00000000000E+00  0.00000000000E+00  0.74505805969E-08  0.10566000000E+00  0.10566000000E+00 0. -1.
     999900   -1    0    0    0    0 -0.00000000000E+00 -0.00000000000E+00 -0.74505805969E-08  0.93827000000E+00  0.93827000000E+00 0.  1.
     999902    2    1    2    0    0  0.24272080370E-02  0.17215627218E-01  0.16224717022E-01  0.10201495332E+01  0.10198723251E+01 0.  0.
     999903    2    3    3    0    0 -0.10152048365E+00  0.81285973263E-01 -0.60042500675E-02  0.13144021129E+00  0.18073739921E-01 0.  0.
         14    1    1    2    0    0 -0.24272080370E-02 -0.17215627218E-01 -0.16224717022E-01  0.23780466812E-01  0.00000000000E+00 0.  1.
     999901    1    3    3    0    0  0.10394769169E+00 -0.64070346045E-01  0.22228967089E-01  0.88870932190E+00  0.88000000000E+00 0. -1.
        -11    1    4    4    0    0 -0.59357932331E-01  0.56883468831E-01 -0.85323977698E-02  0.82656857486E-01  0.51100000000E-03 0. -1.
         11    1    4    4    0    0 -0.42162551322E-01  0.24402504432E-01  0.25281477023E-02  0.48783353804E-01  0.51100000000E-03 0.  1.
</event>
<event>
 8    1  0.1118868E+005  0.1043930E+01  0.7957747E-01            NaN
         13   -1    0    0    0    0  0.00000000000E+00  0.00000000000E+00  0.74505805969E-08  0.10566000000E+00  0.10566000000E+00 0.  1.
     999900   -1    0    0    0    0 -0.00000000000E+00 -0.00000000000E+00 -0.74505805969E-08  0.93827000000E+00  0.93827000000E+00 0. -1.
     999902    2    1    2    0    0  0.92822746007E-02 -0.16351954060E-01  0.13607735384E-01  0.10207197116E+01  0.10204557865E+01 0.  0.
     999903    2    3    3    0    0 -0.36074062403E-01  0.12191638912E+00  0.10826702037E-02  0.12868147855E+00  0.19819355013E-01 0.  0.
         14    1    1    2    0    0 -0.92822746007E-02  0.16351954060E-01 -0.13607735384E-01  0.23210288357E-01  0.00000000000E+00 0. -1.
     999901    1    3    3    0    0  0.45356337003E-01 -0.13826834318E+00  0.12525065180E-01  0.89203823309E+00  0.88000000000E+00 0.  1.
        -11    1    4    4    0    0 -0.10540861699E-01  0.40140386070E-01  0.95625387699E-02  0.42591825835E-01  0.51100000000E-03 0. -1.
         11    1    4    4    0    0 -0.25533200703E-01  0.81776003053E-01 -0.84798685662E-02  0.86089652720E-01  0.51100000000E-03 0.  1.
</event>
<event>
 8    1  0.1118868E+005  0.1043930E+01  0.7957747E-01            NaN
         13   -1    0    0    0    0  0.00000000000E+00  0.00000000000E+00  0.74505805969E-08  0.10566000000E+00  0.10566000000E+00 0.  1.
     999900   -1    0    0    0    0 -0.00000000000E+00 -0.00000000000E+00 -0.74505805969E-08  0.93827000000E+00  0.93827000000E+00 0.  1.
     999902    2    1    2    0    0 -0.10682945625E-01  0.16988650351E-01  0.12387861529E-01  0.10203461352E+01  0.10200735448E+01 0.  0.
     999903    2    3    3    0    0 -0.65847528482E-01  0.11172788419E+00  0.24177730471E-01  0.13346527808E+00  0.20233652406E-01 0.  0.
         14    1    1    2    0    0  0.10682945625E-01 -0.16988650351E-01 -0.12387861529E-01  0.23583864850E-01  0.00000000000E+00 0. -1.
     999901    1    3    3    0    0  0.55164582857E-01 -0.94739233836E-01 -0.11789868942E-01  0.88688085707E+00  0.88000000000E+00 0.  1.
        -11    1    4    4    0    0 -0.43493952885E-01  0.86714776499E-01  0.11901528402E-01  0.97739878760E-01  0.51100000000E-03 0.  1.
         11    1    4    4    0    0 -0.22353575597E-01  0.25013107689E-01  0.12276202069E-01  0.35725399318E-01  0.51100000000E-03 0. -1.
</event>
<event>
 8    1  0.1118868E+005  0.1043930E+01  0.7957747E-01            NaN
         13   -1    0    0    0    0  0.00000000000E+00  0.00000000000E+00  0.74505805969E-08  0.10566000000E+00  0.10566000000E+00 0. -1.
     999900   -1    0    0    0    0 -0.00000000000E+00 -0.00000000000E+00 -0.74505805969E-08  0.93827000000E+00  0.93827000000E+00 0. -1.
     999902    2    1    2    0    0  0.15918940763E-01 -0.53842649032E-03 -0.16287423781E-01  0.10211488071E+01  0.10208946583E+01 0.  0.
     999903    2    3    3    0    0 -0.48618776678E-01  0.52494452633E-01  0.10606633112E+00  0.12876545638E+00  0.14526636092E-01 0.  0.
         14    1    1    2    0    0 -0.15918940763E-01  0.53842649032E-03  0.16287423781E-01  0.22781192935E-01  0.00000000000E+00 0. -1.
     999901    1    3    3    0    0  0.64537717442E-01 -0.53032879123E-01 -0.12235375490E+00  0.89238335068E+00  0.88000000000E+00 0. -1.
        -11    1    4    4    0    0 -0.34774467692E-01  0.45579520802E-01  0.79507487652E-01  0.98022742431E-01  0.51100000000E-03 0. -1.
         11    1    4    4    0    0 -0.13844308986E-01  0.69149318306E-02  0.26558843470E-01  0.30742713950E-01  0.51100000000E-03 0.  1.
</event>
<event>
 8    1  0.1118868E+005  0.1043930E+01  0.7957747E-01            NaN
         13   -1    0    0    0    0  0.00000000000E+00  0.00000000000E+00  0.74505805969E-08  0.10566000000E+00  0.10566000000E+00 0. -1.
     999900   -1    0    0    0    0 -0.00000000000E+00 -0.00000000000E+00 -0.74505805969E-08  0.93827000000E+00  0.93827000000E+00 0. -1.
     999902    2    1    2    0    0 -0.20432509260E-01 -0.38232372554E-03  0.12731671007E-01  0.10198524367E+01  0.10195681751E+01 0.  0.
     999903    2    3    3    0    0 -0.47079945777E-01 -0.38012978898E-01 -0.11300346589E+00  0.12972015627E+00  0.19900446756E-01 0.  0.
         14    1    1    2    0    0  0.20432509260E-01  0.38232372554E-03 -0.12731671007E-01  0.24077563264E-01  0.00000000000E+00 0. -1.
     999901    1    3    3    0    0  0.26647436517E-01  0.37630655172E-01  0.12573513689E+00  0.89013228047E+00  0.88000000000E+00 0.  1.
        -11    1    4    4    0    0 -0.22385219354E-01 -0.25478959318E-01 -0.78204420636E-01  0.85243580060E-01  0.51100000000E-03 0.  1.
         11    1    4    4    0    0 -0.24694726423E-01 -0.12534019580E-01 -0.34799045250E-01  0.44476576208E-01  0.51100000000E-03 0. -1.
</event>
<event>
 8    1  0.1118868E+005  0.1043930E+01  0.7957747E-01            NaN
         13   -1    0    0    0    0  0.00000000000E+00  0.00000000000E+00  0.74505805969E-08  0.10566000000E+00  0.10566000000E+00 0.  1.
     999900   -1    0    0    0    0 -0.00000000000E+00 -0.00000000000E+00 -0.74505805969E-08  0.93827000000E+00  0.93827000000E+00 0.  1.
     999902    2    1    2    0    0  0.98821044745E-02 -0.15498097432E-01 -0.14994730537E-01  0.10202089343E+01  0.10199331256E+01 0.  0.
     999903    2    3    3    0    0 -0.25821648072E-01  0.48900427188E-01 -0.11713396838E+00  0.13124642003E+00  0.21148213447E-01 0.  0.
         14    1    1    2    0    0 -0.98821044745E-02  0.15498097432E-01  0.14994730537E-01  0.23721065675E-01  0.00000000000E+00 0.  1.
     999901    1    3    3    0    0  0.35703752546E-01 -0.64398524621E-01  0.10213923785E+00  0.88896251430E+00  0.88000000000E+00 0. -1.
        -11    1    4    4    0    0 -0.45398373289E-02  0.20978771603E-01 -0.64470009327E-01  0.67951175153E-01  0.51100000000E-03 0.  1.
         11    1    4    4    0    0 -0.21281810743E-01  0.27921655585E-01 -0.52663959058E-01  0.63295244875E-01  0.51100000000E-03 0. -1.
</event>
<event>
 8    1  0.1118868E+005  0.1043930E+01  0.7957747E-01            NaN
         13   -1    0    0    0    0  0.00000000000E+00  0.00000000000E+00  0.74505805969E-08  0.10566000000E+00  0.10566000000E+00 0.  1.
     999900   -1    0    0    0    0 -0.00000000000E+00 -0.00000000000E+00 -0.74505805969E-08  0.93827000000E+00  0.93827000000E+00 0. -1.
     999902    2    1    2    0    0 -0.72477648148E-02 -0.34751526251E-02  0.28951504814E-01  0.10138834293E+01  0.10134381144E+01 0.  0.
     999903    2    3    3    0    0 -0.11544073058E+00 -0.27765180296E-01 -0.32341130087E-01  0.12480946702E+00  0.20832351022E-01 0.  0.
         14    1    1    2    0    0  0.72477648148E-02  0.34751526251E-02 -0.28951504814E-01  0.30046570713E-01  0.00000000000E+00 0. -1.
     999901    1    3    3    0    0  0.10819296577E+00  0.24290027671E-01  0.61292634901E-01  0.88907396227E+00  0.88000000000E+00 0.  1.
        -11    1    4    4    0    0 -0.53590138281E-01 -0.22639182943E-01 -0.20074356307E-01  0.61544101484E-01  0.51100000000E-03 0. -1.
         11    1    4    4    0    0 -0.61850592300E-01 -0.51259973527E-02 -0.12266773779E-01  0.63265365538E-01  0.51100000000E-03 0.  1.
</event>
<event>
 8    1  0.1118868E+005  0.1043930E+01  0.7957747E-01            NaN
         13   -1    0    0    0    0  0.00000000000E+00  0.00000000000E+00  0.74505805969E-08  0.10566000000E+00  0.10566000000E+00 0.  1.
     999900   -1    0    0    0    0 -0.00000000000E+00 -0.00000000000E+00 -0.74505805969E-08  0.93827000000E+00  0.93827000000E+00 0.  1.
     999902    2    1    2    0    0 -0.24114784000E-01  0.78508390604E-02 -0.81006930123E-02  0.10173070830E+01  0.10169586626E+01 0.  0.
     999903    2    3    3    0    0 -0.49998575100E-01  0.91618638657E-01 -0.75551065982E-01  0.13038173796E+00  0.19939948880E-01 0.  0.
         14    1    1    2    0    0  0.24114784000E-01 -0.78508390604E-02  0.81006930123E-02  0.26622916981E-01  0.00000000000E+00 0.  1.
     999901    1    3    3    0    0  0.25883791100E-01 -0.83767799597E-01  0.67450372970E-01  0.88692534506E+00  0.88000000000E+00 0. -1.
        -11    1    4    4    0    0 -0.93948307411E-02  0.31652650616E-01 -0.31376740321E-01  0.45551224899E-01  0.51100000000E-03 0. -1.
         11    1    4    4    0    0 -0.40603744359E-01  0.59965988042E-01 -0.44174325661E-01  0.84830513062E-01  0.51100000000E-03 0.  1.
</event>
<event>
 8    1  0.1118868E+005  0.1043930E+01  0.7957747E-01            NaN
         13   -1    0    0    0    0  0.00000000000E+00  0.00000000000E+00  0.74505805969E-08  0.10566000000E+00  0.10566000000E+00 0.  1.
     999900   -1    0    0    0    0 -0.00000000000E+00 -0.00000000000E+00 -0.74505805969E-08  0.93827000000E+00  0.93827000000E+00 0.  1.
     999902    2    1    2    0    0  0.13922214747E-01 -0.14370333195E-01  0.12642638479E-01  0.10202620713E+01  0.10199875114E+01 0.  0.
     999903    2    3    3    0    0  0.68571844697E-01 -0.36193746404E-01  0.10639283516E+00  0.13332805868E+00  0.21091483967E-01 0.  0.
         14    1    1    2    0    0 -0.13922214747E-01  0.14370333195E-01 -0.12642638479E-01  0.23667928666E-01  0.00000000000E+00 0.  1.
     999901    1    3    3    0    0 -0.54649629950E-01  0.21823413209E-01 -0.93750196677E-01  0.88693401265E+00  0.88000000000E+00 0.  1.
        -11    1    4    4    0    0  0.10522900504E-01 -0.13466227971E-01  0.31878981920E-01  0.36174595230E-01  0.51100000000E-03 0.  1.
         11    1    4    4    0    0  0.58048944193E-01 -0.22727518432E-01  0.74513853237E-01  0.97153463455E-01  0.51100000000E-03 0. -1.
</event>
<event>
 8    1  0.1118868E+005  0.1043930E+01  0.7957747E-01            NaN
         13   -1    0    0    0    0  0.00000000000E+00  0.00000000000E+00  0.74505805969E-08  0.10566000000E+00  0.10566000000E+00 0.  1.
     999900   -1    0    0    0    0 -0.00000000000E+00 -0.00000000000E+00 -0.74505805969E-08  0.93827000000E+00  0.93827000000E+00 0. -1.
     999902    2    1    2    0    0 -0.11652212552E-01 -0.18366551461E-02  0.21042152460E-01  0.10198069915E+01  0.10195216429E+01 0.  0.
     999903    2    3    3    0    0  0.62610821724E-01  0.54325594040E-01  0.99968019184E-01  0.13138226821E+00  0.19907545698E-01 0.  0.
         14    1    1    2    0    0  0.11652212552E-01  0.18366551461E-02 -0.21042152460E-01  0.24123008511E-01  0.00000000000E+00 0. -1.
     999901    1    3    3    0    0 -0.74263034276E-01 -0.56162249186E-01 -0.78925866724E-01  0.88842472328E+00  0.88000000000E+00 0. -1.
        -11    1    4    4    0    0  0.42599851364E-01  0.28753702490E-01  0.72367966943E-01  0.88763204672E-01  0.51100000000E-03 0.  1.
         11    1    4    4    0    0  0.20010970360E-01  0.25571891550E-01  0.27600052242E-01  0.42619063539E-01  0.51100000000E-03 0. -1.
</event>
<event>
 8    1  0.1118868E+005  0.1043930E+01  0.7957747E-01            NaN
         13   -1    0    0    0    0  0.00000000000E+00  0.00000000000E+00  0.74505805969E-08  0.10566000000E+00  0.10566000000E+00 0.  1.
     999900   -1    0    0    0    0 -0.00000000000E+00 -0.00000000000E+00 -0.74505805969E-08  0.93827000000E+00  0.93827000000E+00 0. -1.
     999902    2    1    2    0    0 -0.12778176104E-01  0.17254784680E-01  0.91297338576E-02  0.10205984458E+01  0.10203317236E+01 0.  0.
     999903    2    3    3    0    0  0.83555876986E-01 -0.82973943412E-01 -0.46063314318E-01  0.12797740627E+00  0.19751651240E-01 0.  0.
         14    1    1    2    0    0  0.12778176104E-01 -0.17254784680E-01 -0.91297338576E-02  0.23331554153E-01  0.00000000000E+00 0. -1.
     999901    1    3    3    0    0 -0.96334053090E-01  0.10022872809E+00  0.55193048176E-01  0.89262103957E+00  0.88000000000E+00 0. -1.
        -11    1    4    4    0    0  0.40085631913E-01 -0.26433435194E-01 -0.16559274311E-01  0.50794242476E-01  0.51100000000E-03 0. -1.
         11    1    4    4    0    0  0.43470245073E-01 -0.56540508218E-01 -0.29504040007E-01  0.77183163799E-01  0.51100000000E-03 0.  1.
</event>
<event>
 8    1  0.1118868E+005  0.1043930E+01  0.7957747E-01            NaN
         13   -1    0    0    0    0  0.00000000000E+00  0.00000000000E+00  0.74505805969E-08  0.10566000000E+00  0.10566000000E+00 0.  1.
     999900   -1    0    0    0    0 -0.00000000000E+00 -0.00000000000E+00 -0.74505805969E-08  0.93827000000E+00  0.93827000000E+00 0. -1.
     999902    2    1    2    0    0  0.17793431710E-02 -0.19738418168E-01  0.13715324388E-01  0.10198285200E+01  0.10195436866E+01 0.  0.
     999903    2    3    3    0    0 -0.91980187755E-01 -0.17047123592E-01  0.90110038394E-01  0.13155252405E+00  0.20863561567E-01 0.  0.
         14    1    1    2    0    0 -0.17793431710E-02  0.19738418168E-01 -0.13715324388E-01  0.24101479974E-01  0.00000000000E+00 0.  1.
     999901    1    3    3    0    0  0.93759530926E-01 -0.26912945755E-02 -0.76394714006E-01  0.88827599598E+00  0.88000000000E+00 0. -1.
        -11    1    4    4    0    0 -0.72561409622E-01 -0.11603725447E-01  0.57936304484E-01  0.93577139883E-01  0.51100000000E-03 0.  1.
         11    1    4    4    0    0 -0.19418778134E-01 -0.54433981455E-02  0.32173733910E-01  0.37975384163E-01  0.51100000000E-03 0. -1.
</event>
<event>
 8    1  0.1118868E+005  0.1043930E+01  0.7957747E-01            NaN
         13   -1    0    0    0    0  0.00000000000E+00  0.00000000000E+00  0.74505805969E-08  0.10566000000E+00  0.10566000000E+00 0. -1.
     999900   -1    0    0    0    0 -0.00000000000E+00 -0.00000000000E+00 -0.74505805969E-08  0.93827000000E+00  0.93827000000E+00 0. -1.
     999902    2    1    2    0    0  0.14963137246E-01 -0.29481966598E-02  0.17849548840E-01  0.10204524845E+01  0.10201823756E+01 0.  0.
     999903    2    3    3    0    0  0.18802145168E-01  0.10597759451E+00  0.73781351699E-01  0.13196616918E+00  0.19662419683E-01 0.  0.
         14    1    1    2    0    0 -0.14963137246E-01  0.29481966598E-02 -0.17849548840E-01  0.23477515490E-01  0.00000000000E+00 0.  1.
     999901    1    3    3    0    0 -0.38390079215E-02 -0.10892579117E+00 -0.55931802858E-01  0.88848631533E+00  0.88000000000E+00 0. -1.
        -11    1    4    4    0    0  0.13935015151E-01  0.53918548049E-01  0.27385403911E-01  0.62061388474E-01  0.51100000000E-03 0. -1.
         11    1    4    4    0    0  0.48671300169E-02  0.52059046460E-01  0.46395947788E-01  0.69904780702E-01  0.51100000000E-03 0.  1.
</event>
<event>
 8    1  0.1118868E+005  0.1043930E+01  0.7957747E-01            NaN
         13   -1    0    0    0    0  0.00000000000E+00  0.00000000000E+00  0.74505805969E-08  0.10566000000E+00  0.10566000000E+00 0.  1.
     999900   -1    0    0    0    0 -0.00000000000E+00 -0.00000000000E+00 -0.74505805969E-08  0.93827000000E+00  0.93827000000E+00 0.  1.
     999902    2    1    2    0    0  0.19332274525E-01  0.54430528588E-02  0.14172113027E-01  0.10193492667E+01  0.10190528519E+01 0.  0.
     999903    2    3    3    0    0 -0.11687740590E+00  0.43709512763E-01 -0.16622479985E-01  0.12751648754E+00  0.20329737782E-01 0.  0.
         14    1    1    2    0    0 -0.19332274525E-01 -0.54430528588E-02 -0.14172113027E-01  0.24580733317E-01  0.00000000000E+00 0. -1.
     999901    1    3    3    0    0  0.13620968042E+00 -0.38266459905E-01  0.30794593012E-01  0.89183277914E+00  0.88000000000E+00 0. -1.
        -11    1    4    4    0    0 -0.52953640878E-01  0.96842157530E-02 -0.10427896501E-01  0.54834972996E-01  0.51100000000E-03 0. -1.
         11    1    4    4    0    0 -0.63923765020E-01  0.34025297010E-01 -0.61945834846E-02  0.72681514545E-01  0.51100000000E-03 0.  1.
</event>
<event>
 8    1  0.1118868E+005  0.1043930E+01  0.7957747E-01            NaN
         13   -1    0    0    0    0  0.00000000000E+00  0.00000000000E+00  0.74505805969E-08  0.10566000000E+00  0.10566000000E+00 0.  1.
     999900   -1    0    0    0    0 -0.00000000000E+00 -0.00000000000E+00 -0.74505805969E-08  0.93827000000E+00  0.93827000000E+00 0.  1.
     999902    2    1    2    0    0 -0.84522671692E-02 -0.26078929900E-01 -0.80521245899E-02  0.10153574937E+01  0.10149553941E+01 0.  0.
     999903    2    3    3    0    0  0.65119561326E-01  0.91832750970E-01 -0.47004710929E-01  0.12359896002E+00  0.19835540093E-01 0.  0.
         14    1    1    2    0    0  0.84522671692E-02  0.26078929900E-01  0.80521245899E-02  0.28572506285E-01  0.00000000000E+00 0.  1.
     999901    1    3    3    0    0 -0.73571828495E-01 -0.11791168087E+00  0.38952586339E-01  0.89175853369E+00  0.88000000000E+00 0. -1.
        -11    1    4    4    0    0  0.14163952648E-01  0.35279566777E-01 -0.18829279864E-01  0.42427211643E-01  0.51100000000E-03 0. -1.
         11    1    4    4    0    0  0.50955608678E-01  0.56553184193E-01 -0.28175431064E-01  0.81171748378E-01  0.51100000000E-03 0.  1.
</event>
<event>
 8    1  0.1118868E+005  0.1043930E+01  0.7957747E-01            NaN
         13   -1    0    0    0    0  0.00000000000E+00  0.00000000000E+00  0.74505805969E-08  0.10566000000E+00  0.10566000000E+00 0.  1.
     999900   -1    0    0    0    0 -0.00000000000E+00 -0.00000000000E+00 -0.74505805969E-08  0.93827000000E+00  0.93827000000E+00 0.  1.
     999902    2    1    2    0    0 -0.27755042261E-01  0.59762322832E-02  0.20364710176E-01  0.10089903500E+01  0.10083852177E+01 0.  0.
     999903    2    3    3    0    0  0.27192192546E-01 -0.66274245968E-01 -0.90815742439E-01  0.11736238762E+00  0.19868063266E-01 0.  0.
         14    1    1    2    0    0  0.27755042261E-01 -0.59762322832E-02 -0.20364710176E-01  0.34939650024E-01  0.00000000000E+00 0. -1.
     999901    1    3    3    0    0 -0.54947234807E-01  0.72250478251E-01  0.11118045262E+00  0.89162796236E+00  0.88000000000E+00 0. -1.
        -11    1    4    4    0    0  0.11731922098E-01 -0.11666027342E-01 -0.29380412136E-01  0.33722454364E-01  0.51100000000E-03 0.  1.
         11    1    4    4    0    0  0.15460270449E-01 -0.54608218626E-01 -0.61435330303E-01  0.83639933251E-01  0.51100000000E-03 0. -1.
</event>
<event>
 8    1  0.1118868E+005  0.1043930E+01  0.7957747E-01            NaN
         13   -1    0    0    0    0  0.00000000000E+00  0.00000000000E+00  0.74505805969E-08  0.10566000000E+00  0.10566000000E+00 0.  1.
     999900   -1    0    0    0    0 -0.00000000000E+00 -0.00000000000E+00 -0.74505805969E-08  0.93827000000E+00  0.93827000000E+00 0.  1.
     999902    2    1    2    0    0  0.11729259506E-01 -0.27093344481E-01 -0.10211569326E-01  0.10126905859E+01  0.10122086355E+01 0.  0.
     999903    2    3    3    0    0 -0.95436397981E-01  0.57851837746E-01 -0.43577269276E-01  0.12150405547E+00  0.20231557239E-01 0.  0.
         14    1    1    2    0    0 -0.11729259506E-01  0.27093344481E-01  0.10211569326E-01  0.31239414076E-01  0.00000000000E+00 0.  1.
     999901    1    3    3    0    0  0.10716565749E+00 -0.84945182226E-01  0.33365699950E-01  0.89118653045E+00  0.88000000000E+00 0. -1.
        -11    1    4    4    0    0 -0.41197822669E-01  0.15783027441E-01 -0.10729599003E-01  0.45406496932E-01  0.51100000000E-03 0.  1.
         11    1    4    4    0    0 -0.54238575312E-01  0.42068810304E-01 -0.32847670273E-01  0.76097558539E-01  0.51100000000E-03 0. -1.
</event>
<event>
 8    1  0.1118868E+005  0.1043930E+01  0.7957747E-01            NaN
         13   -1    0    0    0    0  0.00000000000E+00  0.00000000000E+00  0.74505805969E-08  0.10566000000E+00  0.10566000000E+00 0.  1.
     999900   -1    0    0    0    0 -0.00000000000E+00 -0.00000000000E+00 -0.74505805969E-08  0.93827000000E+00  0.93827000000E+00 0. -1.
     999902    2    1    2    0    0  0.70104526247E-02 -0.17539499075E-01 -0.15315578578E-01  0.10196123640E+01  0.10193223364E+01 0.  0.
     999903    2    3    3    0    0  0.57787115173E-02 -0.12587443993E+00  0.31834258112E-01  0.13171536338E+00  0.21395065496E-01 0.  0.
         14    1    1    2    0    0 -0.70104526247E-02  0.17539499075E-01  0.15315578578E-01  0.24317636007E-01  0.00000000000E+00 0.  1.
     999901    1    3    3    0    0  0.12317411074E-02  0.10833494085E+00 -0.47149836690E-01  0.88789700061E+00  0.88000000000E+00 0.  1.
        -11    1    4    4    0    0  0.10163550461E-01 -0.10865755607E+00  0.32681114511E-01  0.11392137032E+00  0.51100000000E-03 0. -1.
         11    1    4    4    0    0 -0.43848389434E-02 -0.17216883854E-01 -0.84685639911E-03  0.17793993059E-01  0.51100000000E-03 0.  1.
</event>
<event>
 8    1  0.1118868E+005  0.1043930E+01  0.7957747E-01            NaN
         13   -1    0    0    0    0  0.00000000000E+00  0.00000000000E+00  0.74505805969E-08  0.10566000000E+00  0.10566000000E+00 0.  1.
     999900   -1    0    0    0    0 -0.00000000000E+00 -0.00000000000E+00 -0.74505805969E-08  0.93827000000E+00  0.93827000000E+00 0. -1.
     999902    2    1    2    0    0  0.67473203219E-03 -0.21625434188E-01  0.92341367094E-02  0.10204058858E+01  0.10201346910E+01 0.  0.
     999903    2    3    3    0    0  0.60243118301E-01 -0.83627066604E-01  0.82041780621E-01  0.13322295763E+00  0.19869149462E-01 0.  0.
         14    1    1    2    0    0 -0.67473203219E-03  0.21625434188E-01 -0.92341367094E-02  0.23524114179E-01  0.00000000000E+00 0. -1.
     999901    1    3    3    0    0 -0.59568386268E-01  0.62001632415E-01 -0.72807643912E-01  0.88718292819E+00  0.88000000000E+00 0. -1.
        -11    1    4    4    0    0  0.71519544517E-02 -0.23847850668E-01  0.22110830917E-01  0.33301957883E-01  0.51100000000E-03 0. -1.
         11    1    4    4    0    0  0.53091163849E-01 -0.59779215935E-01  0.59930949704E-01  0.99920999745E-01  0.51100000000E-03 0.  1.
</event>
<event>
 8    1  0.1118868E+005  0.1043930E+01  0.7957747E-01            NaN
         13   -1    0    0    0    0  0.00000000000E+00  0.00000000000E+00  0.74505805969E-08  0.10566000000E+00  0.10566000000E+00 0. -1.
     999900   -1    0    0    0    0 -0.00000000000E+00 -0.00000000000E+00 -0.74505805969E-08  0.93827000000E+00  0.93827000000E+00 0. -1.
     999902    2    1    2    0    0 -0.10543739293E-02  0.10194212831E-01  0.19623761533E-01  0.10217912174E+01  0.10215513527E+01 0.  0.
     999903    2    3    3    0    0 -0.10652729697E+00  0.18585457065E-01 -0.71037566019E-01  0.13082857686E+00  0.19398363895E-01 0.  0.
         14    1    1    2    0    0  0.10543739293E-02 -0.10194212831E-01 -0.19623761533E-01  0.22138782630E-01  0.00000000000E+00 0.  1.
     999901    1    3    3    0    0  0.10547292304E+00 -0.83912442332E-02  0.90661327552E-01  0.89096264051E+00  0.88000000000E+00 0.  1.
        -11    1    4    4    0    0 -0.67328213944E-01  0.72416247317E-02 -0.53963738801E-01  0.86590275136E-01  0.51100000000E-03 0. -1.
         11    1    4    4    0    0 -0.39199083029E-01  0.11343832333E-01 -0.17073827218E-01  0.44238301721E-01  0.51100000000E-03 0.  1.
</event>
<event>
 8    1  0.1118868E+005  0.1043930E+01  0.7957747E-01            NaN
         13   -1    0    0    0    0  0.00000000000E+00  0.00000000000E+00  0.74505805969E-08  0.10566000000E+00  0.10566000000E+00 0.  1.
     999900   -1    0    0    0    0 -0.00000000000E+00 -0.00000000000E+00 -0.74505805969E-08  0.93827000000E+00  0.93827000000E+00 0. -1.
     999902    2    1    2    0    0 -0.53155915911E-02  0.19075933448E-02 -0.23013320588E-01  0.10202338537E+01  0.10199586309E+01 0.  0.
     999903    2    3    3    0    0  0.51666871295E-01 -0.11724792070E+00  0.51819378959E-02  0.12993052884E+00  0.20941569837E-01 0.  0.
         14    1    1    2    0    0  0.53155915911E-02 -0.19075933448E-02  0.23013320588E-01  0.23696146328E-01  0.00000000000E+00 0.  1.
     999901    1    3    3    0    0 -0.56982462886E-01  0.11915551404E+00 -0.28195258483E-01  0.89030332483E+00  0.88000000000E+00 0.  1.
        -11    1    4    4    0    0  0.42347899656E-01 -0.89938072016E-01 -0.44360942576E-02  0.99509504353E-01  0.51100000000E-03 0. -1.
         11    1    4    4    0    0  0.93189716389E-02 -0.27309848682E-01  0.96180321535E-02  0.30421024489E-01  0.51100000000E-03 0.  1.
</event>
<event>
 8    1  0.1118868E+005  0.1043930E+01  0.7957747E-01            NaN
         13   -1    0    0    0    0  0.00000000000E+00  0.00000000000E+00  0.74505805969E-08  0.10566000000E+00  0.10566000000E+00 0.  1.
     999900   -1    0    0    0    0 -0.00000000000E+00 -0.00000000000E+00 -0.74505805969E-08  0.93827000000E+00  0.93827000000E+00 0.  1.
     999902    2    1    2    0    0  0.22073897570E-03 -0.19986096039E-01 -0.12806305848E-01  0.10201919666E+01  0.10199157585E+01 0.  0.
     999903    2    3    3    0    0  0.72806433192E-01  0.94491907018E-01  0.42285503517E-01  0.12811069022E+00  0.19869271152E-01 0.  0.
         14    1    1    2    0    0 -0.22073897570E-03  0.19986096039E-01  0.12806305848E-01  0.23738033407E-01  0.00000000000E+00 0. -1.
     999901    1    3    3    0    0 -0.72585694216E-01 -0.11447800306E+00 -0.55091809364E-01  0.89208127637E+00  0.88000000000E+00 0. -1.
        -11    1    4    4    0    0  0.34327756947E-01  0.40553785065E-01  0.87541491395E-02  0.53850725420E-01  0.51100000000E-03 0.  1.
         11    1    4    4    0    0  0.38478676245E-01  0.53938121953E-01  0.33531354377E-01  0.74259964804E-01  0.51100000000E-03 0. -1.
</event>
<event>
 8    1  0.1118868E+005  0.1043930E+01  0.7957747E-01            NaN
         13   -1    0    0    0    0  0.00000000000E+00  0.00000000000E+00  0.74505805969E-08  0.10566000000E+00  0.10566000000E+00 0.  1.
     999900   -1    0    0    0    0 -0.00000000000E+00 -0.00000000000E+00 -0.74505805969E-08  0.93827000000E+00  0.93827000000E+00 0. -1.
     999902    2    1    2    0    0  0.12702046574E-01  0.13364872587E-01  0.14775484764E-01  0.10203021191E+01  0.10200284984E+01 0.  0.
     999903    2    3    3    0    0  0.11680523975E+00 -0.38487838331E-01  0.43980415192E-01  0.13216974921E+00  0.20243219932E-01 0.  0.
         14    1    1    2    0    0 -0.12702046574E-01 -0.13364872587E-01 -0.14775484764E-01  0.23627880913E-01  0.00000000000E+00 0. -1.
     999901    1    3    3    0    0 -0.10410319318E+00  0.51852710918E-01 -0.29204930428E-01  0.88813236988E+00  0.88000000000E+00 0. -1.
        -11    1    4    4    0    0  0.67987244712E-01 -0.32782497582E-01  0.26061976289E-01  0.79852647548E-01  0.51100000000E-03 0.  1.
         11    1    4    4    0    0  0.48817995039E-01 -0.57053407486E-02  0.17918438903E-01  0.52317101663E-01  0.51100000000E-03 0. -1.
</event>
<event>
 8    1  0.1118868E+005  0.1043930E+01  0.7957747E-01            NaN
         13   -1    0    0    0    0  0.00000000000E+00  0.00000000000E+00  0.74505805969E-08  0.10566000000E+00  0.10566000000E+00 0. -1.
     999900   -1    0    0    0    0 -0.00000000000E+00 -0.00000000000E+00 -0.74505805969E-08  0.93827000000E+00  0.93827000000E+00 0.  1.
     999902    2    1    2    0    0 -0.83978090607E-02 -0.18429279608E-01  0.14769254206E-01  0.10188642382E+01  0.10185558618E+01 0.  0.
     999903    2    3    3    0    0 -0.71689902177E-01 -0.94427860112E-01  0.55457050555E-01  0.13238966438E+00  0.19886576854E-01 0.  0.
         14    1    1    2    0    0  0.83978090607E-02  0.18429279608E-01 -0.14769254206E-01  0.25065761782E-01  0.00000000000E+00 0.  1.
     999901    1    3    3    0    0  0.63292093116E-01  0.75998580504E-01 -0.40687796349E-01  0.88647457384E+00  0.88000000000E+00 0.  1.
        -11    1    4    4    0    0 -0.16673657366E-01 -0.36776748926E-01  0.15653088449E-01  0.43310742438E-01  0.51100000000E-03 0.  1.
         11    1    4    4    0    0 -0.55016244811E-01 -0.57651111186E-01  0.39803962106E-01  0.89078921943E-01  0.51100000000E-03 0. -1.
</event>
<event>
 8    1  0.1118868E+005  0.1043930E+01  0.7957747E-01            NaN
         13   -1    0    0    0    0  0.00000000000E+00  0.00000000000E+00  0.74505805969E-08  0.10566000000E+00  0.10566000000E+00 0.  1.
     999900   -1    0    0    0    0 -0.00000000000E+00 -0.00000000000E+00 -0.74505805969E-08  0.93827000000E+00  0.93827000000E+00 0. -1.
     999902    2    1    2    0    0 -0.11691850567E-01 -0.18151272103E-01  0.10254836764E-01  0.10200274954E+01  0.10197474009E+01 0.  0.
     999903    2    3    3    0    0 -0.49841139820E-01 -0.10006191261E+00  0.69054830919E-01  0.13344858713E+00  0.23311588503E-01 0.  0.
         14    1    1    2    0    0  0.11691850567E-01  0.18151272103E-01 -0.10254836764E-01  0.23902504590E-01  0.00000000000E+00 0. -1.
     999901    1    3    3    0    0  0.38149289253E-01  0.81910640510E-01 -0.58799994155E-01  0.88657890828E+00  0.88000000000E+00 0. -1.
        -11    1    4    4    0    0 -0.73517943672E-03 -0.14529614101E-01  0.33463770782E-02  0.14936851585E-01  0.51100000000E-03 0. -1.
         11    1    4    4    0    0 -0.49105960383E-01 -0.85532298512E-01  0.65708453841E-01  0.11851173554E+00  0.51100000000E-03 0.  1.
</event>
<event>
 8    1  0.1118868E+005  0.1043930E+01  0.7957747E-01            NaN
         13   -1    0    0    0    0  0.00000000000E+00  0.00000000000E+00  0.74505805969E-08  0.10566000000E+00  0.10566000000E+00 0.  1.
     999900   -1    0    0    0    0 -0.00000000000E+00 -0.00000000000E+00 -0.74505805969E-08  0.93827000000E+00  0.93827000000E+00 0.  1.
     999902    2    1    2    0    0  0.86445264688E-02  0.12040986819E-01  0.17816278880E-01  0.10207538702E+01  0.10204907302E+01 0.  0.
     999903    2    3    3    0    0  0.12664808024E+00  0.32398665633E-01 -0.50055486212E-02  0.13235074679E+00  0.20056293149E-01 0.  0.
         14    1    1    2    0    0 -0.86445264688E-02 -0.12040986819E-01 -0.17816278880E-01  0.23176129845E-01  0.00000000000E+00 0. -1.
     999901    1    3    3    0    0 -0.11800355378E+00 -0.20357678813E-01  0.22821827502E-01  0.88840312336E+00  0.88000000000E+00 0. -1.
        -11    1    4    4    0    0  0.72473959186E-01  0.27493715543E-01 -0.76253867220E-02  0.77889580806E-01  0.51100000000E-03 0.  1.
         11    1    4    4    0    0  0.54174121059E-01  0.49049500900E-02  0.26198381008E-02  0.54461165986E-01  0.51100000000E-03 0. -1.
</event>
<event>
 8    1  0.1118868E+005  0.1043930E+01  0.7957747E-01            NaN
         13   -1    0    0    0    0  0.00000000000E+00  0.00000000000E+00  0.74505805969E-08  0.10566000000E+00  0.10566000000E+00 0. -1.
     999900   -1    0    0    0    0 -0.00000000000E+00 -0.00000000000E+00 -0.74505805969E-08  0.93827000000E+00  0.93827000000E+00 0.  1.
     999902    2    1    2    0    0  0.11623282441E-01  0.21927642202E-01  0.49157983624E-03  0.10191073523E+01  0.10188050018E+01 0.  0.
     999903    2    3    3    0    0 -0.12299954578E+00  0.11412418762E-01  0.29104659679E-01  0.12834779770E+00  0.19155792704E-01 0.  0.
         14    1    1    2    0    0 -0.11623282441E-01 -0.21927642202E-01 -0.49157983624E-03  0.24822647683E-01  0.00000000000E+00 0. -1.
     999901    1    3    3    0    0  0.13462282823E+00  0.10515223440E-01 -0.28613079843E-01  0.89075955462E+00  0.88000000000E+00 0. -1.
        -11    1    4    4    0    0 -0.24872683541E-01 -0.50717499146E-02  0.37494966754E-02  0.25665012761E-01  0.51100000000E-03 0. -1.
         11    1    4    4    0    0 -0.98126862244E-01  0.16484168677E-01  0.25355163003E-01  0.10268278494E+00  0.51100000000E-03 0.  1.
</event>
<event>
 8    1  0.1118868E+005  0.1043930E+01  0.7957747E-01            NaN
         13   -1    0    0    0    0  0.00000000000E+00  0.00000000000E+00  0.74505805969E-08  0.10566000000E+00  0.10566000000E+00 0.  1.
     999900   -1    0    0    0    0 -0.00000000000E+00 -0.00000000000E+00 -0.74505805969E-08  0.93827000000E+00  0.93827000000E+00 0. -1.
     999902    2    1    2    0    0 -0.12863523727E-02  0.24076097486E-01  0.15771838437E-03  0.10198190471E+01  0.10195339871E+01 0.  0.
     999903    2    3    3    0    0 -0.30665519988E-01 -0.95180687087E-01 -0.76485843006E-01  0.12798971837E+00  0.23055292615E-01 0.  0.
         14    1    1    2    0    0  0.12863523727E-02 -0.24076097486E-01 -0.15771838438E-03  0.24110952857E-01  0.00000000000E+00 0.  1.
     999901    1    3    3    0    0  0.29379167615E-01  0.11925678457E+00  0.76643561391E-01  0.89182932877E+00  0.88000000000E+00 0.  1.
        -11    1    4    4    0    0 -0.13029880640E-01 -0.50038124292E-01 -0.53300982683E-01  0.74262019553E-01  0.51100000000E-03 0.  1.
         11    1    4    4    0    0 -0.17635639347E-01 -0.45142562796E-01 -0.23184860323E-01  0.53727698817E-01  0.51100000000E-03 0. -1.
</event>
<event>
 8    1  0.1118868E+005  0.1043930E+01  0.7957747E-01            NaN
         13   -1    0    0    0    0  0.00000000000E+00  0.00000000000E+00  0.74505805969E-08  0.10566000000E+00  0.10566000000E+00 0.  1.
     999900   -1    0    0    0    0 -0.00000000000E+00 -0.00000000000E+00 -0.74505805969E-08  0.93827000000E+00  0.93827000000E+00 0.  1.
     999902    2    1    2    0    0 -0.22576878045E-01  0.46407383823E-02  0.18820842052E-02  0.10208043840E+01  0.10205424030E+01 0.  0.
     999903    2    3    3    0    0  0.84816558723E-01  0.59562234683E-01 -0.74613187922E-01  0.12928812072E+00  0.20168835189E-01 0.  0.
         14    1    1    2    0    0  0.22576878045E-01 -0.46407383823E-02 -0.18820842052E-02  0.23125616012E-01  0.00000000000E+00 0. -1.
     999901    1    3    3    0    0 -0.10739343677E+00 -0.54921496300E-01  0.76495272127E-01  0.89151626327E+00  0.88000000000E+00 0. -1.
        -11    1    4    4    0    0  0.32547418433E-01  0.18824722084E-01 -0.38498155008E-01  0.53815180649E-01  0.51100000000E-03 0.  1.
         11    1    4    4    0    0  0.52269140289E-01  0.40737512598E-01 -0.36115032914E-01  0.75472940069E-01  0.51100000000E-03 0. -1.
</event>
<event>
 8    1  0.1118868E+005  0.1043930E+01  0.7957747E-01            NaN
         13   -1    0    0    0    0  0.00000000000E+00  0.00000000000E+00  0.74505805969E-08  0.10566000000E+00  0.10566000000E+00 0. -1.
     999900   -1    0    0    0    0 -0.00000000000E+00 -0.00000000000E+00 -0.74505805969E-08  0.93827000000E+00  0.93827000000E+00 0.  1.
     999902    2    1    2    0    0 -0.10132494186E-01 -0.10809242789E-01 -0.17084101432E-01  0.10213164269E+01  0.10210660459E+01 0.  0.
     999903    2    3    3    0    0  0.11475206472E+00 -0.37212673061E-01  0.44336049641E-01  0.12998835643E+00  0.19454257019E-01 0.  0.
         14    1    1    2    0    0  0.10132494186E-01  0.10809242789E-01  0.17084101432E-01  0.22613573133E-01  0.00000000000E+00 0. -1.
     999901    1    3    3    0    0 -0.12488455891E+00  0.26403430272E-01 -0.61420151073E-01  0.89132807043E+00  0.88000000000E+00 0. -1.
        -11    1    4    4    0    0  0.88815240967E-01 -0.21530883571E-01  0.28161796969E-01  0.95629879771E-01  0.51100000000E-03 0.  1.
         11    1    4    4    0    0  0.25936823755E-01 -0.15681789490E-01  0.16174252672E-01  0.34358476663E-01  0.51100000000E-03 0. -1.
</event>
<event>
 8    1  0.1118868E+005  0.1043930E+01  0.7957747E-01            NaN
         13   -1    0    0    0    0  0.00000000000E+00  0.00000000000E+00  0.74505805969E-08  0.10566000000E+00  0.10566000000E+00 0.  1.
     999900   -1    0    0    0    0 -0.00000000000E+00 -0.00000000000E+00 -0.74505805969E-08  0.93827000000E+00  0.93827000000E+00 0. -1.
     999902    2    1    2    0    0 -0.21830437524E-01 -0.93223181219E-02 -0.93719561550E-03  0.10201739070E+01  0.10198972736E+01 0.  0.
     999903    2    3    3    0    0 -0.93861174132E-01  0.86880224690E-01 -0.26044559834E-01  0.13165056125E+00  0.17188883859E-01 0.  0.
         14    1    1    2    0    0  0.21830437524E-01  0.93223181219E-02  0.93719561550E-03  0.23756092971E-01  0.00000000000E+00 0. -1.
     999901    1    3    3    0    0  0.72030736608E-01 -0.96202542812E-01  0.25107364218E-01  0.88852334578E+00  0.88000000000E+00 0.  1.
        -11    1    4    4    0    0 -0.36756901264E-01  0.36988033508E-01 -0.23406902004E-02  0.52200808087E-01  0.51100000000E-03 0.  1.
         11    1    4    4    0    0 -0.57104272868E-01  0.49892191182E-01 -0.23703869633E-01  0.79449753161E-01  0.51100000000E-03 0. -1.
</event>
<event>
 8    1  0.1118868E+005  0.1043930E+01  0.7957747E-01            NaN
         13   -1    0    0    0    0  0.00000000000E+00  0.00000000000E+00  0.74505805969E-08  0.10566000000E+00  0.10566000000E+00 0. -1.
     999900   -1    0    0    0    0 -0.00000000000E+00 -0.00000000000E+00 -0.74505805969E-08  0.93827000000E+00  0.93827000000E+00 0.  1.
     999902    2    1    2    0    0  0.70479359811E-03 -0.90236849110E-02  0.21953237364E-01  0.10201840897E+01  0.10199076962E+01 0.  0.
     999903    2    3    3    0    0 -0.28228597839E-01 -0.50352738092E-01  0.11870847086E+00  0.13344466523E+00  0.19583811029E-01 0.  0.
         14    1    1    2    0    0 -0.70479359811E-03  0.90236849110E-02 -0.21953237364E-01  0.23745910261E-01  0.00000000000E+00 0.  1.
     999901    1    3    3    0    0  0.28933391437E-01  0.41329053181E-01 -0.96755233495E-01  0.88673942451E+00  0.88000000000E+00 0.  1.
        -11    1    4    4    0    0 -0.23519732621E-01 -0.40812144015E-01  0.75893837401E-01  0.89324938277E-01  0.51100000000E-03 0.  1.
         11    1    4    4    0    0 -0.47088652175E-02 -0.95405940767E-02  0.42814633457E-01  0.44119726949E-01  0.51100000000E-03 0. -1.
</event>
<event>
 8    1  0.1118868E+005  0.1043930E+01  0.7957747E-01            NaN
         13   -1    0    0    0    0  0.00000000000E+00  0.00000000000E+00  0.74505805969E-08  0.10566000000E+00  0.10566000000E+00 0.  1.
     999900   -1    0    0    0    0 -0.00000000000E+00 -0.00000000000E+00 -0.74505805969E-08  0.93827000000E+00  0.93827000000E+00 0. -1.
     999902    2    1    2    0    0  0.21056508051E-01 -0.11309573861E-02  0.10653685530E-01  0.10203046617E+01  0.10200311005E+01 0.  0.
     999903    2    3    3    0    0 -0.92894198854E-02  0.11222519088E+00 -0.61183278954E-01  0.12961333402E+00  0.19376169435E-01 0.  0.
         14    1    1    2    0    0 -0.21056508051E-01  0.11309573861E-02 -0.10653685530E-01  0.23625338331E-01  0.00000000000E+00 0.  1.
     999901    1    3    3    0    0  0.30345927936E-01 -0.11335614826E+00  0.71836964484E-01  0.89069132765E+00  0.88000000000E+00 0.  1.
        -11    1    4    4    0    0  0.40400024100E-02  0.19789200708E-01 -0.57436169265E-02  0.21004388602E-01  0.51100000000E-03 0.  1.
         11    1    4    4    0    0 -0.13329422295E-01  0.92435990168E-01 -0.55439662027E-01  0.10860894541E+00  0.51100000000E-03 0. -1.
</event>
<event>
 8    1  0.1118868E+005  0.1043930E+01  0.7957747E-01            NaN
         13   -1    0    0    0    0  0.00000000000E+00  0.00000000000E+00  0.74505805969E-08  0.10566000000E+00  0.10566000000E+00 0. -1.
     999900   -1    0    0    0    0 -0.00000000000E+00 -0.00000000000E+00 -0.74505805969E-08  0.93827000000E+00  0.93827000000E+00 0. -1.
     999902    2    1    2    0    0 -0.39007253328E-02  0.18374400925E-01  0.14102873812E-01  0.10204411661E+01  0.10201707936E+01 0.  0.
     999903    2    3    3    0    0  0.55200226548E-01 -0.11146570113E+00 -0.25518471380E-01  0.12807284215E+00  0.16727013364E-01 0.  0.
         14    1    1    2    0    0  0.39007253328E-02 -0.18374400925E-01 -0.14102873812E-01  0.23488833884E-01  0.00000000000E+00 0.  1.
     999901    1    3    3    0    0 -0.59100951881E-01  0.12984010206E+00  0.39621345192E-01  0.89236832396E+00  0.88000000000E+00 0. -1.
        -11    1    4    4    0    0  0.14094297837E-02 -0.63954890085E-02  0.20018444250E-02  0.68671154114E-02  0.51100000000E-03 0.  1.
         11    1    4    4    0    0  0.53790796764E-01 -0.10507021212E+00 -0.27520315805E-01  0.12120572674E+00  0.51100000000E-03 0. -1.
</event>
<event>
 8    1  0.1118868E+005  0.1043930E+01  0.7957747E-01            NaN
         13   -1    0    0    0    0  0.00000000000E+00  0.00000000000E+00  0.74505805969E-08  0.10566000000E+00  0.10566000000E+00 0. -1.
     999900   -1    0    0    0    0 -0.00000000000E+00 -0.00000000000E+00 -0.74505805969E-08  0.93827000000E+00  0.93827000000E+00 0. -1.
     999902    2    1    2    0    0 -0.95079174803E-02  0.14810789896E-01 -0.15818569470E-01  0.10202659527E+01  0.10199914839E+01 0.  0.
     999903    2    3    3    0    0  0.11972958752E+00 -0.42417850557E-01  0.56098495183E-02  0.12872984741E+00  0.20135913869E-01 0.  0.
         14    1    1    2    0    0  0.95079174803E-02 -0.14810789896E-01  0.15818569470E-01  0.23664047250E-01  0.00000000000E+00 0. -1.
     999901    1    3    3    0    0 -0.12923750501E+00  0.57228640453E-01 -0.21428418989E-01  0.89153610534E+00  0.88000000000E+00 0. -1.
        -11    1    4    4    0    0  0.32502318032E-01 -0.15492354332E-01  0.98799407090E-02  0.37340166974E-01  0.51100000000E-03 0.  1.
         11    1    4    4    0    0  0.87227269493E-01 -0.26925496225E-01 -0.42700911907E-02  0.91389680434E-01  0.51100000000E-03 0. -1.
</event>
<event>
 8    1  0.1118868E+005  0.1043930E+01  0.7957747E-01            NaN
         13   -1    0    0    0    0  0.00000000000E+00  0.00000000000E+00  0.74505805969E-08  0.10566000000E+00  0.10566000000E+00 0.  1.
     999900   -1    0    0    0    0 -0.00000000000E+00 -0.00000000000E+00 -0.74505805969E-08  0.93827000000E+00  0.93827000000E+00 0. -1.
     999902    2    1    2    0    0  0.60557037912E-02  0.37307133610E-02 -0.22531091899E-01  0.10203028996E+01  0.10200292972E+01 0.  0.
     999903    2    3    3    0    0 -0.71787583481E-01  0.90987153679E-01  0.53643270919E-01  0.12930581920E+00  0.20255248398E-01 0.  0.
         14    1    1    2    0    0 -0.60557037912E-02 -0.37307133610E-02  0.22531091899E-01  0.23627100388E-01  0.00000000000E+00 0.  1.
     999901    1    3    3    0    0  0.77843287273E-01 -0.87256440318E-01 -0.76174362818E-01  0.89099708041E+00  0.88000000000E+00 0.  1.
        -11    1    4    4    0    0 -0.39145386277E-02  0.15242214288E-01  0.98413693693E-02  0.18567778035E-01  0.51100000000E-03 0. -1.
         11    1    4    4    0    0 -0.67873044854E-01  0.75744939391E-01  0.43801901550E-01  0.11073804117E+00  0.51100000000E-03 0.  1.
</event>
<event>
 8    1  0.1118868E+005  0.1043930E+01  0.7957747E-01            NaN
         13   -1    0    0    0    0  0.00000000000E+00  0.00000000000E+00  0.74505805969E-08  0.10566000000E+00  0.10566000000E+00 0. -1.
     999900   -1    0    0    0    0 -0.00000000000E+00 -0.00000000000E+00 -0.74505805969E-08  0.93827000000E+00  0.93827000000E+00 0.  1.
     999902    2    1    2    0    0 -0.22572426783E-01 -0.71161568940E-02 -0.30160329939E-02  0.10200710270E+01  0.10197919638E+01 0.  0.
     999903    2    3    3    0    0  0.47096214828E-01 -0.22238846515E-01 -0.11722326181E+00  0.12983189813E+00  0.20060132578E-01 0.  0.
         14    1    1    2    0    0  0.22572426783E-01  0.71161568940E-02  0.30160329939E-02  0.23858973047E-01  0.00000000000E+00 0. -1.
     999901    1    3    3    0    0 -0.69668641611E-01  0.15122689621E-01  0.11420722881E+00  0.89023912882E+00  0.88000000000E+00 0. -1.
        -11    1    4    4    0    0  0.17054727517E-01  0.15436044808E-02 -0.29684125398E-01  0.34273238352E-01  0.51100000000E-03 0.  1.
         11    1    4    4    0    0  0.30041487311E-01 -0.23782450996E-01 -0.87539136410E-01  0.95558659783E-01  0.51100000000E-03 0. -1.
</event>
<event>
 8    1  0.1118868E+005  0.1043930E+01  0.7957747E-01            NaN
         13   -1    0    0    0    0  0.00000000000E+00  0.00000000000E+00  0.74505805969E-08  0.10566000000E+00  0.10566000000E+00 0. -1.
     999900   -1    0    0    0    0 -0.00000000000E+00 -0.00000000000E+00 -0.74505805969E-08  0.93827000000E+00  0.93827000000E+00 0.  1.
     999902    2    1    2    0    0 -0.13988369186E-01 -0.15830946736E-01 -0.97862101625E-02  0.10206477480E+01  0.10203821648E+01 0.  0.
     999903    2    3    3    0    0  0.10211299845E+00  0.33532084022E-01 -0.69233956442E-01  0.12966499236E+00  0.21638031517E-01 0.  0.
         14    1    1    2    0    0  0.13988369186E-01  0.15830946736E-01  0.97862101625E-02  0.23282251961E-01  0.00000000000E+00 0. -1.
     999901    1    3    3    0    0 -0.11610136764E+00 -0.49363030759E-01  0.59447746280E-01  0.89098275568E+00  0.88000000000E+00 0. -1.
        -11    1    4    4    0    0  0.76521843457E-01  0.27321548174E-01 -0.40857808820E-01  0.90948783297E-01  0.51100000000E-03 0. -1.
         11    1    4    4    0    0  0.25591154996E-01  0.62105358488E-02 -0.28376147623E-01  0.38716209066E-01  0.51100000000E-03 0.  1.
</event>
<event>
 8    1  0.2047086E+005  0.1043930E+01  0.7957747E-01            NaN
         13   -1    0    0    0    0  0.00000000000E+00  0.00000000000E+00  0.74505805969E-08  0.10566000000E+00  0.10566000000E+00 0.  1.
     999900   -1    0    0    0    0 -0.00000000000E+00 -0.00000000000E+00 -0.74505805969E-08  0.93827000000E+00  0.93827000000E+00 0. -1.
     999902    2    1    2    0    0  0.19754332304E-02  0.20371475758E-01 -0.12703237969E-03  0.10234625747E+01  0.10232578982E+01 0.  0.
     999903    2    3    3    0    0 -0.69481668246E-03  0.11839755185E+00 -0.63619380422E-01  0.13574216822E+00  0.18974920643E-01 0.  0.
         14    1    1    2    0    0 -0.19754332304E-02 -0.20371475758E-01  0.12703237969E-03  0.20467425295E-01  0.00000000000E+00 0.  1.
     999901    1    3    3    0    0  0.26702499129E-02 -0.98026076093E-01  0.63492348042E-01  0.88772040648E+00  0.88000000000E+00 0.  1.
        -11    1    4    4    0    0 -0.89671194337E-02  0.45945678928E-01 -0.21359970431E-01  0.51457983840E-01  0.51100000000E-03 0. -1.
         11    1    4    4    0    0  0.82723027513E-02  0.72451872923E-01 -0.42259409991E-01  0.84284184380E-01  0.51100000000E-03 0.  1.
</event>
<event>
 8    1  0.1118868E+005  0.1043930E+01  0.7957747E-01            NaN
         13   -1    0    0    0    0  0.00000000000E+00  0.00000000000E+00  0.74505805969E-08  0.10566000000E+00  0.10566000000E+00 0. -1.
     999900   -1    0    0    0    0 -0.00000000000E+00 -0.00000000000E+00 -0.74505805969E-08  0.93827000000E+00  0.93827000000E+00 0.  1.
     999902    2    1    2    0    0 -0.27970054994E-02 -0.16843870961E-01 -0.16183286196E-01  0.10204047374E+01  0.10201335158E+01 0.  0.
     999903    2    3    3    0    0  0.57741735359E-01  0.65965175638E-01 -0.95100527971E-01  0.13093848823E+00  0.20378048996E-01 0.  0.
         14    1    1    2    0    0  0.27970054994E-02  0.16843870961E-01  0.16183286196E-01  0.23525262609E-01  0.00000000000E+00 0. -1.
     999901    1    3    3    0    0 -0.60538740858E-01 -0.82809046599E-01  0.78917241775E-01  0.88946624916E+00  0.88000000000E+00 0.  1.
        -11    1    4    4    0    0  0.37301860355E-01  0.29320945893E-01 -0.57917761333E-01  0.74872390458E-01  0.51100000000E-03 0.  1.
         11    1    4    4    0    0  0.20439875004E-01  0.36644229745E-01 -0.37182766638E-01  0.56066097774E-01  0.51100000000E-03 0. -1.
</event>
<event>
 8    1  0.1118868E+005  0.1043930E+01  0.7957747E-01            NaN
         13   -1    0    0    0    0  0.00000000000E+00  0.00000000000E+00  0.74505805969E-08  0.10566000000E+00  0.10566000000E+00 0.  1.
     999900   -1    0    0    0    0 -0.00000000000E+00 -0.00000000000E+00 -0.74505805969E-08  0.93827000000E+00  0.93827000000E+00 0. -1.
     999902    2    1    2    0    0  0.12616011161E-01 -0.22991961960E-02 -0.19594096326E-01  0.10205125140E+01  0.10202438005E+01 0.  0.
     999903    2    3    3    0    0 -0.47556035358E-01  0.58061804894E-01 -0.10680701598E+00  0.13210370099E+00  0.20270655322E-01 0.  0.
         14    1    1    2    0    0 -0.12616011161E-01  0.22991961960E-02  0.19594096326E-01  0.23417486022E-01  0.00000000000E+00 0.  1.
     999901    1    3    3    0    0  0.60172046519E-01 -0.60361001090E-01  0.87212919653E-01  0.88840881298E+00  0.88000000000E+00 0. -1.
        -11    1    4    4    0    0 -0.36947005642E-01  0.51403345317E-01 -0.98416357943E-01  0.11701891201E+00  0.51100000000E-03 0.  1.
         11    1    4    4    0    0 -0.10609029716E-01  0.66584595767E-02 -0.83906580362E-02  0.15084788985E-01  0.51100000000E-03 0. -1.
</event>
<event>
 8    1  0.1118868E+005  0.1043930E+01  0.7957747E-01            NaN
         13   -1    0    0    0    0  0.00000000000E+00  0.00000000000E+00  0.74505805969E-08  0.10566000000E+00  0.10566000000E+00 0.  1.
     999900   -1    0    0    0    0 -0.00000000000E+00 -0.00000000000E+00 -0.74505805969E-08  0.93827000000E+00  0.93827000000E+00 0.  1.
     999902    2    1    2    0    0  0.18216345226E-01  0.82003569466E-02  0.34040491234E-02  0.10236650392E+01  0.10234644321E+01 0.  0.
     999903    2    3    3    0    0 -0.49208798257E-01 -0.88957823275E-01  0.82330441567E-01  0.13225310443E+00  0.19431466091E-01 0.  0.
         14    1    1    2    0    0 -0.18216345226E-01 -0.82003569466E-02 -0.34040491234E-02  0.20264960841E-01  0.00000000000E+00 0. -1.
     999901    1    3    3    0    0  0.67425143483E-01  0.97158180221E-01 -0.78926392444E-01  0.89141193473E+00  0.88000000000E+00 0.  1.
        -11    1    4    4    0    0 -0.36078293881E-01 -0.79310846620E-01  0.71058950761E-01  0.11243437768E+00  0.51100000000E-03 0. -1.
         11    1    4    4    0    0 -0.13130504376E-01 -0.96469766545E-02  0.11271490806E-01  0.19818726743E-01  0.51100000000E-03 0.  1.
</event>
<event>
 8    1  0.1118868E+005  0.1043930E+01  0.7957747E-01            NaN
         13   -1    0    0    0    0  0.00000000000E+00  0.00000000000E+00  0.74505805969E-08  0.10566000000E+00  0.10566000000E+00 0.  1.
     999900   -1    0    0    0    0 -0.00000000000E+00 -0.00000000000E+00 -0.74505805969E-08  0.93827000000E+00  0.93827000000E+00 0.  1.
     999902    2    1    2    0    0  0.19125715521E-01 -0.37531670310E-02 -0.14392431946E-01  0.10197014764E+01  0.10194135960E+01 0.  0.
     999903    2    3    3    0    0 -0.49747777801E-01  0.48874290664E-01  0.10477009927E+00  0.12744987726E+00  0.20078840305E-01 0.  0.
         14    1    1    2    0    0 -0.19125715521E-01  0.37531670310E-02  0.14392431946E-01  0.24228523567E-01  0.00000000000E+00 0.  1.
     999901    1    3    3    0    0  0.68873493322E-01 -0.52627457695E-01 -0.11916253121E+00  0.89225159918E+00  0.88000000000E+00 0.  1.
        -11    1    4    4    0    0 -0.21317842563E-01  0.32008699378E-01  0.45453128672E-01  0.59542046274E-01  0.51100000000E-03 0. -1.
         11    1    4    4    0    0 -0.28429935238E-01  0.16865591286E-01  0.59316970597E-01  0.67907830984E-01  0.51100000000E-03 0.  1.
</event>
<event>
 8    1  0.1118868E+005  0.1043930E+01  0.7957747E-01            NaN
         13   -1    0    0    0    0  0.00000000000E+00  0.00000000000E+00  0.74505805969E-08  0.10566000000E+00  0.10566000000E+00 0. -1.
     999900   -1    0    0    0    0 -0.00000000000E+00 -0.00000000000E+00 -0.74505805969E-08  0.93827000000E+00  0.93827000000E+00 0. -1.
     999902    2    1    2    0    0 -0.18264622296E-01  0.14693905747E-01  0.16318918138E-02  0.10204316944E+01  0.10201611013E+01 0.  0.
     999903    2    3    3    0    0 -0.12220601120E+00 -0.21065650401E-01  0.41326311774E-01  0.13270526970E+00  0.22907504498E-01 0.  0.
         14    1    1    2    0    0  0.18264622296E-01 -0.14693905747E-01 -0.16318918138E-02  0.23498305569E-01  0.00000000000E+00 0.  1.
     999901    1    3    3    0    0  0.10394138890E+00  0.35759556148E-01 -0.39694419960E-01  0.88772642473E+00  0.88000000000E+00 0. -1.
        -11    1    4    4    0    0 -0.43869586000E-01 -0.15348352892E-01  0.70728663046E-02  0.47014881378E-01  0.51100000000E-03 0.  1.
         11    1    4    4    0    0 -0.78336425199E-01 -0.57172975096E-02  0.34253445470E-01  0.85690388325E-01  0.51100000000E-03 0. -1.
</event>
<event>
 8    1  0.1118868E+005  0.1043930E+01  0.7957747E-01            NaN
         13   -1    0    0    0    0  0.00000000000E+00  0.00000000000E+00  0.74505805969E-08  0.10566000000E+00  0.10566000000E+00 0.  1.
     999900   -1    0    0    0    0 -0.00000000000E+00 -0.00000000000E+00 -0.74505805969E-08  0.93827000000E+00  0.93827000000E+00 0. -1.
     999902    2    1    2    0    0 -0.17645382191E-01  0.91812742296E-02  0.11304355133E-01  0.10210511068E+01  0.10207947487E+01 0.  0.
     999903    2    3    3    0    0 -0.10285595070E+00  0.32112545190E-01 -0.74397475228E-01  0.13249526280E+00  0.20234826190E-01 0.  0.
         14    1    1    2    0    0  0.17645382191E-01 -0.91812742296E-02 -0.11304355133E-01  0.22878893202E-01  0.00000000000E+00 0.  1.
     999901    1    3    3    0    0  0.85210568512E-01 -0.22931270960E-01  0.85701830361E-01  0.88855584400E+00  0.88000000000E+00 0.  1.
        -11    1    4    4    0    0 -0.66603466335E-01  0.29583904731E-01 -0.44140791847E-01  0.85205045466E-01  0.51100000000E-03 0.  1.
         11    1    4    4    0    0 -0.36252484368E-01  0.25286404587E-02 -0.30256683380E-01  0.47290217335E-01  0.51100000000E-03 0. -1.
</event>
<event>
 8    1  0.1118868E+005  0.1043930E+01  0.7957747E-01            NaN
         13   -1    0    0    0    0  0.00000000000E+00  0.00000000000E+00  0.74505805969E-08  0.10566000000E+00  0.10566000000E+00 0. -1.
     999900   -1    0    0    0    0 -0.00000000000E+00 -0.00000000000E+00 -0.74505805969E-08  0.93827000000E+00  0.93827000000E+00 0.  1.
     999902    2    1    2    0    0  0.17576481110E-01 -0.15095473285E-02 -0.15496177856E-01  0.10204493069E+01  0.10201791240E+01 0.  0.
     999903    2    3    3    0    0  0.91837457942E-01  0.38235760130E-01  0.82855809286E-01  0.13097334007E+00  0.19820157513E-01 0.  0.
         14    1    1    2    0    0 -0.17576481110E-01  0.15095473285E-02  0.15496177856E-01  0.23480693122E-01  0.00000000000E+00 0. -1.
     999901    1    3    3    0    0 -0.74260976832E-01 -0.39745307459E-01 -0.98351987142E-01  0.88947596680E+00  0.88000000000E+00 0.  1.
        -11    1    4    4    0    0  0.53167255434E-01  0.15278216665E-01  0.55340356739E-01  0.78249582490E-01  0.51100000000E-03 0. -1.
         11    1    4    4    0    0  0.38670202508E-01  0.22957543465E-01  0.27515452547E-01  0.52723757584E-01  0.51100000000E-03 0.  1.
</event>
<event>
 8    1  0.1118868E+005  0.1043930E+01  0.7957747E-01            NaN
         13   -1    0    0    0    0  0.00000000000E+00  0.00000000000E+00  0.74505805969E-08  0.10566000000E+00  0.10566000000E+00 0.  1.
     999900   -1    0    0    0    0 -0.00000000000E+00 -0.00000000000E+00 -0.74505805969E-08  0.93827000000E+00  0.93827000000E+00 0.  1.
     999902    2    1    2    0    0 -0.11741514797E-01 -0.79907191526E-02 -0.13037865083E-01  0.10246504593E+01  0.10244690640E+01 0.  0.
     999903    2    3    3    0    0  0.36474041158E-01  0.12398808520E+00  0.22440057902E-01  0.13279742904E+00  0.20692994228E-01 0.  0.
         14    1    1    2    0    0  0.11741514797E-01  0.79907191526E-02  0.13037865083E-01  0.19279540665E-01  0.00000000000E+00 0.  1.
     999901    1    3    3    0    0 -0.48215555955E-01 -0.13197880435E+00 -0.35477922985E-01  0.89185303030E+00  0.88000000000E+00 0.  1.
        -11    1    4    4    0    0  0.16130198904E-01  0.46192290305E-01 -0.13171992840E-02  0.48948004406E-01  0.51100000000E-03 0.  1.
         11    1    4    4    0    0  0.20343842254E-01  0.77795794894E-01  0.23757257186E-01  0.83849424631E-01  0.51100000000E-03 0. -1.
</event>
<event>
 8    1  0.1118868E+005  0.1043930E+01  0.7957747E-01            NaN
         13   -1    0    0    0    0  0.00000000000E+00  0.00000000000E+00  0.74505805969E-08  0.10566000000E+00  0.10566000000E+00 0.  1.
     999900   -1    0    0    0    0 -0.00000000000E+00 -0.00000000000E+00 -0.74505805969E-08  0.93827000000E+00  0.93827000000E+00 0. -1.
     999902    2    1    2    0    0 -0.20633996754E-01  0.54216049871E-02  0.13660605170E-01  0.10185968645E+01  0.10182817903E+01 0.  0.
     999903    2    3    3    0    0  0.48758486287E-02 -0.15101605725E-01 -0.12459665718E+00  0.12720075443E+00  0.20096580618E-01 0.  0.
         14    1    1    2    0    0  0.20633996754E-01 -0.54216049871E-02 -0.13660605170E-01  0.25333135540E-01  0.00000000000E+00 0. -1.
     999901    1    3    3    0    0 -0.25509845382E-01  0.20523210712E-01  0.13825726235E+00  0.89139611003E+00  0.88000000000E+00 0.  1.
        -11    1    4    4    0    0 -0.14421948206E-02 -0.18397855927E-01 -0.89363914828E-01  0.91250925601E-01  0.51100000000E-03 0. -1.
         11    1    4    4    0    0  0.63180434492E-02  0.32962502018E-02 -0.35232742347E-01  0.35949828827E-01  0.51100000000E-03 0.  1.
</event>
<event>
 8    1  0.1118868E+005  0.1043930E+01  0.7957747E-01            NaN
         13   -1    0    0    0    0  0.00000000000E+00  0.00000000000E+00  0.74505805969E-08  0.10566000000E+00  0.10566000000E+00 0. -1.
     999900   -1    0    0    0    0 -0.00000000000E+00 -0.00000000000E+00 -0.74505805969E-08  0.93827000000E+00  0.93827000000E+00 0.  1.
     999902    2    1    2    0    0 -0.30445579156E-02  0.13773818942E-01 -0.19008484309E-01  0.10202591340E+01  0.10199845051E+01 0.  0.
     999903    2    3    3    0    0 -0.66122245719E-01 -0.10908370117E+00 -0.99714105176E-02  0.12944241119E+00  0.19608762013E-01 0.  0.
         14    1    1    2    0    0  0.30445579156E-02 -0.13773818942E-01  0.19008484309E-01  0.23670865994E-01  0.00000000000E+00 0. -1.
     999901    1    3    3    0    0  0.63077687804E-01  0.12285752011E+00 -0.90370737914E-02  0.89081672282E+00  0.88000000000E+00 0.  1.
        -11    1    4    4    0    0 -0.34909817606E-01 -0.45289592055E-01 -0.11830678326E-01  0.58395792523E-01  0.51100000000E-03 0.  1.
         11    1    4    4    0    0 -0.31212428113E-01 -0.63794109113E-01  0.18592678083E-02  0.71046618667E-01  0.51100000000E-03 0. -1.
</event>
<event>
 8    1  0.1302606E+005  0.1043930E+01  0.7957747E-01            NaN
         13   -1    0    0    0    0  0.00000000000E+00  0.00000000000E+00  0.74505805969E-08  0.10566000000E+00  0.10566000000E+00 0.  1.
     999900   -1    0    0    0    0 -0.00000000000E+00 -0.00000000000E+00 -0.74505805969E-08  0.93827000000E+00  0.93827000000E+00 0.  1.
     999902    2    1    2    0    0  0.23231674483E-01  0.26756530118E-02  0.40730013363E-02  0.10201927053E+01  0.10199165146E+01 0.  0.
     999903    2    3    3    0    0 -0.95902483802E-01 -0.29671130528E-01 -0.76786005196E-01  0.12790494849E+00  0.19644919629E-01 0.  0.
         14    1    1    2    0    0 -0.23231674483E-01 -0.26756530118E-02 -0.40730013363E-02  0.23737294670E-01  0.00000000000E+00 0. -1.
     999901    1    3    3    0    0  0.11913415829E+00  0.32346783540E-01  0.80859006532E-01  0.89228775684E+00  0.88000000000E+00 0. -1.
        -11    1    4    4    0    0 -0.54687545696E-01 -0.68149005167E-02 -0.43333862212E-01  0.70108881453E-01  0.51100000000E-03 0. -1.
         11    1    4    4    0    0 -0.41214938105E-01 -0.22856230011E-01 -0.33452142984E-01  0.57796067034E-01  0.51100000000E-03 0.  1.
</event>
<event>
 8    1  0.1118868E+005  0.1043930E+01  0.7957747E-01            NaN
         13   -1    0    0    0    0  0.00000000000E+00  0.00000000000E+00  0.74505805969E-08  0.10566000000E+00  0.10566000000E+00 0.  1.
     999900   -1    0    0    0    0 -0.00000000000E+00 -0.00000000000E+00 -0.74505805969E-08  0.93827000000E+00  0.93827000000E+00 0.  1.
     999902    2    1    2    0    0 -0.71806183398E-03  0.11563915151E-01 -0.21810761291E-01  0.10192328533E+01  0.10189335897E+01 0.  0.
     999903    2    3    3    0    0  0.11676507895E+00  0.16432482265E-01  0.47566968417E-01  0.12870533510E+00  0.19958373235E-01 0.  0.
         14    1    1    2    0    0  0.71806183398E-03 -0.11563915151E-01  0.21810761291E-01  0.24697146688E-01  0.00000000000E+00 0.  1.
     999901    1    3    3    0    0 -0.11748314079E+00 -0.48685671132E-02 -0.69377729708E-01  0.89052751821E+00  0.88000000000E+00 0.  1.
        -11    1    4    4    0    0  0.50276738447E-01 -0.22370481763E-02  0.16370880237E-01  0.52924679065E-01  0.51100000000E-03 0. -1.
         11    1    4    4    0    0  0.66488340507E-01  0.18669530441E-01  0.31196088180E-01  0.75780656035E-01  0.51100000000E-03 0.  1.
</event>
<event>
 8    1  0.1118868E+005  0.1043930E+01  0.7957747E-01            NaN
         13   -1    0    0    0    0  0.00000000000E+00  0.00000000000E+00  0.74505805969E-08  0.10566000000E+00  0.10566000000E+00 0.  1.
     999900   -1    0    0    0    0 -0.00000000000E+00 -0.00000000000E+00 -0.74505805969E-08  0.93827000000E+00  0.93827000000E+00 0.  1.
     999902    2    1    2    0    0  0.18903177330E-01  0.13918936909E-02 -0.23794254244E-01  0.10135090530E+01  0.10130524007E+01 0.  0.
     999903    2    3    3    0    0  0.67831145162E-01 -0.79156955655E-01  0.64197047397E-01  0.12411345355E+00  0.20396092130E-01 0.  0.
         14    1    1    2    0    0 -0.18903177330E-01 -0.13918936909E-02  0.23794254244E-01  0.30420946998E-01  0.00000000000E+00 0.  1.
     999901    1    3    3    0    0 -0.48927967832E-01  0.80548849346E-01 -0.87991301641E-01  0.88939559946E+00  0.88000000000E+00 0.  1.
        -11    1    4    4    0    0  0.30546413888E-01 -0.20776145691E-01  0.22715358691E-01  0.43370269456E-01  0.51100000000E-03 0. -1.
         11    1    4    4    0    0  0.37284731274E-01 -0.58380809964E-01  0.41481688706E-01  0.80743184090E-01  0.51100000000E-03 0.  1.
</event>
<event>
 8    1  0.1118868E+005  0.1043930E+01  0.7957747E-01            NaN
         13   -1    0    0    0    0  0.00000000000E+00  0.00000000000E+00  0.74505805969E-08  0.10566000000E+00  0.10566000000E+00 0. -1.
     999900   -1    0    0    0    0 -0.00000000000E+00 -0.00000000000E+00 -0.74505805969E-08  0.93827000000E+00  0.93827000000E+00 0.  1.
     999902    2    1    2    0    0  0.96489440771E-02 -0.19119664460E-02 -0.22044154553E-01  0.10197907687E+01  0.10195050316E+01 0.  0.
     999903    2    3    3    0    0  0.10043546299E+00  0.61336245599E-01 -0.56596409550E-01  0.13218928906E+00  0.20528938558E-01 0.  0.
         14    1    1    2    0    0 -0.96489440771E-02  0.19119664460E-02  0.22044154553E-01  0.24139231294E-01  0.00000000000E+00 0. -1.
     999901    1    3    3    0    0 -0.90786518913E-01 -0.63248212045E-01  0.34552254996E-01  0.88760147965E+00  0.88000000000E+00 0. -1.
        -11    1    4    4    0    0  0.23641020501E-01  0.17433282654E-01 -0.50564541355E-02  0.29810166787E-01  0.51100000000E-03 0. -1.
         11    1    4    4    0    0  0.76794442489E-01  0.43902962945E-01 -0.51539955414E-01  0.10237912227E+00  0.51100000000E-03 0.  1.
</event>
<event>
 8    1  0.1118868E+005  0.1043930E+01  0.7957747E-01            NaN
         13   -1    0    0    0    0  0.00000000000E+00  0.00000000000E+00  0.74505805969E-08  0.10566000000E+00  0.10566000000E+00 0. -1.
     999900   -1    0    0    0    0 -0.00000000000E+00 -0.00000000000E+00 -0.74505805969E-08  0.93827000000E+00  0.93827000000E+00 0.  1.
     999902    2    1    2    0    0  0.11218805403E-01 -0.72238044196E-02 -0.18251269542E-01  0.10213212896E+01  0.10210710175E+01 0.  0.
     999903    2    3    3    0    0  0.10736705789E-01 -0.89114863900E-01 -0.97358591358E-01  0.13398575759E+00  0.20414507264E-01 0.  0.
         14    1    1    2    0    0 -0.11218805403E-01  0.72238044196E-02  0.18251269542E-01  0.22608710376E-01  0.00000000000E+00 0. -1.
     999901    1    3    3    0    0  0.48209961373E-03  0.81891059481E-01  0.79107321816E-01  0.88733553203E+00  0.88000000000E+00 0. -1.
        -11    1    4    4    0    0 -0.27895894627E-02 -0.17904736757E-01 -0.29903329670E-01  0.34969009910E-01  0.51100000000E-03 0. -1.
         11    1    4    4    0    0  0.13526295252E-01 -0.71210127143E-01 -0.67455261689E-01  0.99016747682E-01  0.51100000000E-03 0.  1.
</event>
<event>
 8    1  0.1118868E+005  0.1043930E+01  0.7957747E-01            NaN
         13   -1    0    0    0    0  0.00000000000E+00  0.00000000000E+00  0.74505805969E-08  0.10566000000E+00  0.10566000000E+00 0. -1.
     999900   -1    0    0    0    0 -0.00000000000E+00 -0.00000000000E+00 -0.74505805969E-08  0.93827000000E+00  0.93827000000E+00 0.  1.
     999902    2    1    2    0    0 -0.12955263759E-01  0.15050141556E-01 -0.26334065988E-02  0.10238980143E+01  0.10237020383E+01 0.  0.
     999903    2    3    3    0    0 -0.12451241105E+00  0.17889533484E-01 -0.46953787120E-01  0.13574411134E+00  0.19960704512E-01 0.  0.
         14    1    1    2    0    0  0.12955263759E-01 -0.15050141556E-01  0.26334065988E-02  0.20031985679E-01  0.00000000000E+00 0. -1.
     999901    1    3    3    0    0  0.11155714729E+00 -0.28393919278E-02  0.44320380521E-01  0.88815390298E+00  0.88000000000E+00 0. -1.
        -11    1    4    4    0    0 -0.59092202298E-01  0.65751282344E-02 -0.32626902257E-01  0.67822537225E-01  0.51100000000E-03 0. -1.
         11    1    4    4    0    0 -0.65420208749E-01  0.11314405249E-01 -0.14326884863E-01  0.67921574112E-01  0.51100000000E-03 0.  1.
</event>
<event>
 8    1  0.1118868E+005  0.1043930E+01  0.7957747E-01            NaN
         13   -1    0    0    0    0  0.00000000000E+00  0.00000000000E+00  0.74505805969E-08  0.10566000000E+00  0.10566000000E+00 0.  1.
     999900   -1    0    0    0    0 -0.00000000000E+00 -0.00000000000E+00 -0.74505805969E-08  0.93827000000E+00  0.93827000000E+00 0. -1.
     999902    2    1    2    0    0  0.20693238473E-01 -0.88061147341E-02  0.74060882264E-02  0.10202528397E+01  0.10199780630E+01 0.  0.
     999903    2    3    3    0    0  0.11112964403E+00 -0.60126738170E-01  0.38572058068E-01  0.13358273902E+00  0.19786916741E-01 0.  0.
         14    1    1    2    0    0 -0.20693238473E-01  0.88061147341E-02 -0.74060882264E-02  0.23677160261E-01  0.00000000000E+00 0. -1.
     999901    1    3    3    0    0 -0.90436405557E-01  0.51320623436E-01 -0.31165969842E-01  0.88667010072E+00  0.88000000000E+00 0. -1.
        -11    1    4    4    0    0  0.39261056497E-01 -0.13170291000E-01  0.64184576045E-02  0.41908768072E-01  0.51100000000E-03 0. -1.
         11    1    4    4    0    0  0.71868587533E-01 -0.46956447171E-01  0.32153600463E-01  0.91673970944E-01  0.51100000000E-03 0.  1.
</event>
<event>
 8    1  0.1118868E+005  0.1043930E+01  0.7957747E-01            NaN
         13   -1    0    0    0    0  0.00000000000E+00  0.00000000000E+00  0.74505805969E-08  0.10566000000E+00  0.10566000000E+00 0.  1.
     999900   -1    0    0    0    0 -0.00000000000E+00 -0.00000000000E+00 -0.74505805969E-08  0.93827000000E+00  0.93827000000E+00 0.  1.
     999902    2    1    2    0    0 -0.42874314315E-02 -0.18645892197E-01 -0.12155448796E-01  0.10212627042E+01  0.10210111188E+01 0.  0.
     999903    2    3    3    0    0  0.31876756921E-01  0.10208358669E+00 -0.71884535664E-01  0.13027952847E+00  0.19188089205E-01 0.  0.
         14    1    1    2    0    0  0.42874314315E-02  0.18645892197E-01  0.12155448796E-01  0.22667295814E-01  0.00000000000E+00 0.  1.
     999901    1    3    3    0    0 -0.36164188352E-01 -0.12072947889E+00  0.59729086868E-01  0.89098317572E+00  0.88000000000E+00 0. -1.
        -11    1    4    4    0    0  0.94071552391E-02  0.52289214622E-01 -0.43768030426E-01  0.68837185764E-01  0.51100000000E-03 0. -1.
         11    1    4    4    0    0  0.22469601682E-01  0.49794372068E-01 -0.28116505237E-01  0.61442342706E-01  0.51100000000E-03 0.  1.
</event>
<event>
 8    1  0.1118868E+005  0.1043930E+01  0.7957747E-01            NaN
         13   -1    0    0    0    0  0.00000000000E+00  0.00000000000E+00  0.74505805969E-08  0.10566000000E+00  0.10566000000E+00 0. -1.
     999900   -1    0    0    0    0 -0.00000000000E+00 -0.00000000000E+00 -0.74505805969E-08  0.93827000000E+00  0.93827000000E+00 0. -1.
     999902    2    1    2    0    0 -0.11095221497E-01 -0.64147735107E-02  0.20919494085E-01  0.10193967880E+01  0.10191015322E+01 0.  0.
     999903    2    3    3    0    0  0.46982824056E-01  0.10767110555E+00 -0.45682490178E-01  0.12764319450E+00  0.20135601946E-01 0.  0.
         14    1    1    2    0    0  0.11095221497E-01  0.64147735107E-02 -0.20919494085E-01  0.24533212020E-01  0.00000000000E+00 0.  1.
     999901    1    3    3    0    0 -0.58078045554E-01 -0.11408587906E+00  0.66601984262E-01  0.89175359348E+00  0.88000000000E+00 0.  1.
        -11    1    4    4    0    0  0.92665887844E-02  0.14645279162E-01 -0.14285991322E-01  0.22465630160E-01  0.51100000000E-03 0. -1.
         11    1    4    4    0    0  0.37716235272E-01  0.93025826392E-01 -0.31396498855E-01  0.10517756434E+00  0.51100000000E-03 0.  1.
</event>
<event>
 8    1  0.1118868E+005  0.1043930E+01  0.7957747E-01            NaN
         13   -1    0    0    0    0  0.00000000000E+00  0.00000000000E+00  0.74505805969E-08  0.10566000000E+00  0.10566000000E+00 0.  1.
     999900   -1    0    0    0    0 -0.00000000000E+00 -0.00000000000E+00 -0.74505805969E-08  0.93827000000E+00  0.93827000000E+00 0. -1.
     999902    2    1    2    0    0  0.44179634895E-02  0.12534614386E-01  0.21036892155E-01  0.10190465559E+01  0.10187427042E+01 0.  0.
     999903    2    3    3    0    0 -0.11549775913E-01 -0.65858984341E-01  0.11058026239E+00  0.13089198591E+00  0.20830612159E-01 0.  0.
         14    1    1    2    0    0 -0.44179634895E-02 -0.12534614386E-01 -0.21036892155E-01  0.24883444109E-01  0.00000000000E+00 0. -1.
     999901    1    3    3    0    0  0.15967739403E-01  0.78393598727E-01 -0.89543370236E-01  0.88815456998E+00  0.88000000000E+00 0. -1.
        -11    1    4    4    0    0 -0.62522011918E-02 -0.33890008184E-01  0.76266522243E-01  0.83692689110E-01  0.51100000000E-03 0.  1.
         11    1    4    4    0    0 -0.52975747213E-02 -0.31968976157E-01  0.34313740149E-01  0.47199296801E-01  0.51100000000E-03 0. -1.
</event>
<event>
 8    1  0.1118868E+005  0.1043930E+01  0.7957747E-01            NaN
         13   -1    0    0    0    0  0.00000000000E+00  0.00000000000E+00  0.74505805969E-08  0.10566000000E+00  0.10566000000E+00 0.  1.
     999900   -1    0    0    0    0 -0.00000000000E+00 -0.00000000000E+00 -0.74505805969E-08  0.93827000000E+00  0.93827000000E+00 0. -1.
     999902    2    1    2    0    0 -0.17509004666E-01  0.77040917348E-02  0.15250447423E-01  0.10194658544E+01  0.10191722788E+01 0.  0.
     999903    2    3    3    0    0 -0.11156582296E+00 -0.12896735032E-02 -0.65280039960E-01  0.13075176523E+00  0.19645467207E-01 0.  0.
         14    1    1    2    0    0  0.17509004666E-01 -0.77040917348E-02 -0.15250447423E-01  0.24464145611E-01  0.00000000000E+00 0. -1.
     999901    1    3    3    0    0  0.94056818294E-01  0.89937652380E-02  0.80530487383E-01  0.88871408916E+00  0.88000000000E+00 0.  1.
        -11    1    4    4    0    0 -0.72062601668E-01 -0.90678410934E-02 -0.36725848442E-01  0.81389762047E-01  0.51100000000E-03 0.  1.
         11    1    4    4    0    0 -0.39503221292E-01  0.77781675902E-02 -0.28554191518E-01  0.49362003178E-01  0.51100000000E-03 0. -1.
</event>
<event>
 8    1  0.1118868E+005  0.1043930E+01  0.7957747E-01            NaN
         13   -1    0    0    0    0  0.00000000000E+00  0.00000000000E+00  0.74505805969E-08  0.10566000000E+00  0.10566000000E+00 0. -1.
     999900   -1    0    0    0    0 -0.00000000000E+00 -0.00000000000E+00 -0.74505805969E-08  0.93827000000E+00  0.93827000000E+00 0.  1.
     999902    2    1    2    0    0 -0.22345428440E-01 -0.29457329009E-02  0.70914448528E-02  0.10203019636E+01  0.10200283392E+01 0.  0.
     999903    2    3    3    0    0 -0.71161102744E-01  0.84455344437E-01  0.70212121567E-01  0.13237959187E+00  0.19950102260E-01 0.  0.
         14    1    1    2    0    0  0.22345428440E-01  0.29457329009E-02 -0.70914448528E-02  0.23628036410E-01  0.00000000000E+00 0. -1.
     999901    1    3    3    0    0  0.48815674304E-01 -0.87401077338E-01 -0.63120676714E-01  0.88792237172E+00  0.88000000000E+00 0.  1.
        -11    1    4    4    0    0 -0.54422973767E-01  0.54576340933E-01  0.40670418400E-01  0.87148041384E-01  0.51100000000E-03 0. -1.
         11    1    4    4    0    0 -0.16738128977E-01  0.29879003505E-01  0.29541703167E-01  0.45231550483E-01  0.51100000000E-03 0.  1.
</event>
<event>
 8    1  0.1344773E+005  0.1043930E+01  0.7957747E-01            NaN
         13   -1    0    0    0    0  0.00000000000E+00  0.00000000000E+00  0.74505805969E-08  0.10566000000E+00  0.10566000000E+00 0.  1.
     999900   -1    0    0    0    0 -0.00000000000E+00 -0.00000000000E+00 -0.74505805969E-08  0.93827000000E+00  0.93827000000E+00 0.  1.
     999902    2    1    2    0    0  0.77747760510E-03  0.14496185177E-01 -0.17309115321E-01  0.10213390875E+01  0.10210892137E+01 0.  0.
     999903    2    3    3    0    0  0.77155854842E-01  0.10369861368E+00 -0.26001395730E-01  0.13349547201E+00  0.20941347879E-01 0.  0.
         14    1    1    2    0    0 -0.77747760510E-03 -0.14496185177E-01  0.17309115321E-01  0.22590912539E-01  0.00000000000E+00 0.  1.
     999901    1    3    3    0    0 -0.76378377237E-01 -0.89202428505E-01  0.86922804091E-02  0.88784361545E+00  0.88000000000E+00 0.  1.
        -11    1    4    4    0    0  0.35340961298E-01  0.53940700557E-01 -0.30354569494E-02  0.64560497535E-01  0.51100000000E-03 0. -1.
         11    1    4    4    0    0  0.41814893544E-01  0.49757913125E-01 -0.22965938781E-01  0.68934974474E-01  0.51100000000E-03 0.  1.
</event>
<event>
 8    1  0.1118868E+005  0.1043930E+01  0.7957747E-01            NaN
         13   -1    0    0    0    0  0.00000000000E+00  0.00000000000E+00  0.74505805969E-08  0.10566000000E+00  0.10566000000E+00 0. -1.
     999900   -1    0    0    0    0 -0.00000000000E+00 -0.00000000000E+00 -0.74505805969E-08  0.93827000000E+00  0.93827000000E+00 0.  1.
     999902    2    1    2    0    0  0.23372354475E-02  0.13436304142E-01  0.17519990263E-01  0.10217275903E+01  0.10214863297E+01 0.  0.
     999903    2    3    3    0    0 -0.11907015257E+00 -0.26812080885E-01 -0.41813049132E-01  0.13050365887E+00  0.19654134077E-01 0.  0.
         14    1    1    2    0    0 -0.23372354475E-02 -0.13436304142E-01 -0.17519990263E-01  0.22202409720E-01  0.00000000000E+00 0.  1.
     999901    1    3    3    0    0  0.12140738801E+00  0.40248385027E-01  0.59333039395E-01  0.89122393141E+00  0.88000000000E+00 0.  1.
        -11    1    4    4    0    0 -0.10177156121E+00 -0.27008350212E-01 -0.29784773956E-01  0.10942712430E+00  0.51100000000E-03 0. -1.
         11    1    4    4    0    0 -0.17298591356E-01  0.19626932705E-03 -0.12028275176E-01  0.21076534565E-01  0.51100000000E-03 0.  1.
</event>
<event>
 8    1  0.1118868E+005  0.1043930E+01  0.7957747E-01            NaN
         13   -1    0    0    0    0  0.00000000000E+00  0.00000000000E+00  0.74505805969E-08  0.10566000000E+00  0.10566000000E+00 0.  1.
     999900   -1    0    0    0    0 -0.00000000000E+00 -0.00000000000E+00 -0.74505805969E-08  0.93827000000E+00  0.93827000000E+00 0.  1.
     999902    2    1    2    0    0 -0.99420449302E-03  0.21913249989E-01 -0.33040689525E-02  0.10217467667E+01  0.10215059273E+01 0.  0.
     999903    2    3    3    0    0  0.11764626151E+00 -0.21509378954E-01  0.50225744330E-01  0.13111411191E+00  0.19104677960E-01 0.  0.
         14    1    1    2    0    0  0.99420449302E-03 -0.21913249989E-01  0.33040689525E-02  0.22183233293E-01  0.00000000000E+00 0. -1.
     999901    1    3    3    0    0 -0.11864046600E+00  0.43422628943E-01 -0.53529813282E-01  0.89063265479E+00  0.88000000000E+00 0. -1.
        -11    1    4    4    0    0  0.40878080289E-01 -0.47045691409E-02  0.26802981387E-01  0.49110196000E-01  0.51100000000E-03 0.  1.
         11    1    4    4    0    0  0.76768181216E-01 -0.16804809813E-01  0.23422762942E-01  0.82003915912E-01  0.51100000000E-03 0. -1.
</event>
<event>
 8    1  0.1118868E+005  0.1043930E+01  0.7957747E-01            NaN
         13   -1    0    0    0    0  0.00000000000E+00  0.00000000000E+00  0.74505805969E-08  0.10566000000E+00  0.10566000000E+00 0.  1.
     999900   -1    0    0    0    0 -0.00000000000E+00 -0.00000000000E+00 -0.74505805969E-08  0.93827000000E+00  0.93827000000E+00 0.  1.
     999902    2    1    2    0    0 -0.20924557896E-01 -0.94500954629E-02  0.86730746106E-02  0.10193869022E+01  0.10190914055E+01 0.  0.
     999903    2    3    3    0    0  0.31445556372E-01  0.66488096519E-01  0.10452312255E+00  0.12938888557E+00  0.20172024392E-01 0.  0.
         14    1    1    2    0    0  0.20924557896E-01  0.94500954629E-02 -0.86730746106E-02  0.24543097820E-01  0.00000000000E+00 0.  1.
     999901    1    3    3    0    0 -0.52370114268E-01 -0.75938191982E-01 -0.95850047941E-01  0.88999801660E+00  0.88000000000E+00 0.  1.
        -11    1    4    4    0    0  0.40254467791E-02  0.18623925939E-01  0.41275822136E-01  0.45464375649E-01  0.51100000000E-03 0. -1.
         11    1    4    4    0    0  0.27420109593E-01  0.47864170581E-01  0.63247300416E-01  0.83924509926E-01  0.51100000000E-03 0.  1.
</event>
<event>
 8    1  0.1118868E+005  0.1043930E+01  0.7957747E-01            NaN
         13   -1    0    0    0    0  0.00000000000E+00  0.00000000000E+00  0.74505805969E-08  0.10566000000E+00  0.10566000000E+00 0.  1.
     999900   -1    0    0    0    0 -0.00000000000E+00 -0.00000000000E+00 -0.74505805969E-08  0.93827000000E+00  0.93827000000E+00 0. -1.
     999902    2    1    2    0    0  0.16287630043E-01  0.15935327647E-01 -0.58212638197E-02  0.10204117375E+01  0.10201406792E+01 0.  0.
     999903    2    3    3    0    0  0.96284353790E-01 -0.75865286411E-01  0.40912525458E-01  0.13079897025E+00  0.20206865476E-01 0.  0.
         14    1    1    2    0    0 -0.16287630043E-01 -0.15935327647E-01  0.58212638197E-02  0.23518262523E-01  0.00000000000E+00 0.  1.
     999901    1    3    3    0    0 -0.79996723747E-01  0.91800614058E-01 -0.46733789277E-01  0.88961276723E+00  0.88000000000E+00 0.  1.
        -11    1    4    4    0    0  0.83514133489E-01 -0.63786151419E-01  0.27343960852E-01  0.10858746208E+00  0.51100000000E-03 0. -1.
         11    1    4    4    0    0  0.12770220302E-01 -0.12079134992E-01  0.13568564606E-01  0.22211508170E-01  0.51100000000E-03 0.  1.
</event>
<event>
 8    1  0.1118868E+005  0.1043930E+01  0.7957747E-01            NaN
         13   -1    0    0    0    0  0.00000000000E+00  0.00000000000E+00  0.74505805969E-08  0.10566000000E+00  0.10566000000E+00 0. -1.
     999900   -1    0    0    0    0 -0.00000000000E+00 -0.00000000000E+00 -0.74505805969E-08  0.93827000000E+00  0.93827000000E+00 0. -1.
     999902    2    1    2    0    0  0.20263652629E-01  0.27635821424E-02 -0.11684085005E-01  0.10203764260E+01  0.10201045436E+01 0.  0.
     999903    2    3    3    0    0 -0.37489213230E-01 -0.69256884040E-01  0.99682412650E-01  0.12856655960E+00  0.19769161871E-01 0.  0.
         14    1    1    2    0    0 -0.20263652629E-01 -0.27635821424E-02  0.11684085005E-01  0.23553573965E-01  0.00000000000E+00 0.  1.
     999901    1    3    3    0    0  0.57752865859E-01  0.72020466183E-01 -0.11136649765E+00  0.89180986643E+00  0.88000000000E+00 0. -1.
        -11    1    4    4    0    0 -0.80971139171E-03 -0.18733969470E-01  0.23395193015E-01  0.29986887499E-01  0.51100000000E-03 0. -1.
         11    1    4    4    0    0 -0.36679501838E-01 -0.50522914571E-01  0.76287219634E-01  0.98579672105E-01  0.51100000000E-03 0.  1.
</event>
<event>
 8    1  0.1118868E+005  0.1043930E+01  0.7957747E-01            NaN
         13   -1    0    0    0    0  0.00000000000E+00  0.00000000000E+00  0.74505805969E-08  0.10566000000E+00  0.10566000000E+00 0. -1.
     999900   -1    0    0    0    0 -0.00000000000E+00 -0.00000000000E+00 -0.74505805969E-08  0.93827000000E+00  0.93827000000E+00 0.  1.
     999902    2    1    2    0    0  0.14221581831E-01  0.40258555752E-02 -0.19571659350E-01  0.10194042839E+01  0.10191092106E+01 0.  0.
     999903    2    3    3    0    0 -0.63969933032E-01  0.92766913566E-01 -0.62665146640E-01  0.13044650250E+00  0.19786784167E-01 0.  0.
         14    1    1    2    0    0 -0.14221581831E-01 -0.40258555752E-02  0.19571659350E-01  0.24525716148E-01  0.00000000000E+00 0. -1.
     999901    1    3    3    0    0  0.78191514863E-01 -0.88741057990E-01  0.43093487290E-01  0.88895778135E+00  0.88000000000E+00 0.  1.
        -11    1    4    4    0    0 -0.29791120504E-01  0.29527636173E-01 -0.29473309559E-01  0.51267233748E-01  0.51100000000E-03 0.  1.
         11    1    4    4    0    0 -0.34178812528E-01  0.63239277393E-01 -0.33191837081E-01  0.79179268757E-01  0.51100000000E-03 0. -1.
</event>
<event>
 8    1  0.1118868E+005  0.1043930E+01  0.7957747E-01            NaN
         13   -1    0    0    0    0  0.00000000000E+00  0.00000000000E+00  0.74505805969E-08  0.10566000000E+00  0.10566000000E+00 0.  1.
     999900   -1    0    0    0    0 -0.00000000000E+00 -0.00000000000E+00 -0.74505805969E-08  0.93827000000E+00  0.93827000000E+00 0.  1.
     999902    2    1    2    0    0  0.15853672620E-01 -0.17103470417E-01 -0.26766865308E-02  0.10204559231E+01  0.10201858942E+01 0.  0.
     999903    2    3    3    0    0 -0.33615280081E-01  0.82673382810E-02 -0.12412231787E+00  0.13037733298E+00  0.19838427964E-01 0.  0.
         14    1    1    2    0    0 -0.15853672620E-01  0.17103470417E-01  0.26766865308E-02  0.23474076907E-01  0.00000000000E+00 0. -1.
     999901    1    3    3    0    0  0.49468952701E-01 -0.25370808698E-01  0.12144563134E+00  0.89007859012E+00  0.88000000000E+00 0. -1.
        -11    1    4    4    0    0 -0.36009149656E-01  0.87212979651E-02 -0.11100994201E+00  0.11703071496E+00  0.51100000000E-03 0. -1.
         11    1    4    4    0    0  0.23938695757E-02 -0.45395968410E-03 -0.13112375858E-01  0.13346618020E-01  0.51100000000E-03 0.  1.
</event>
<event>
 8    1  0.1118868E+005  0.1043930E+01  0.7957747E-01            NaN
         13   -1    0    0    0    0  0.00000000000E+00  0.00000000000E+00  0.74505805969E-08  0.10566000000E+00  0.10566000000E+00 0. -1.
     999900   -1    0    0    0    0 -0.00000000000E+00 -0.00000000000E+00 -0.74505805969E-08  0.93827000000E+00  0.93827000000E+00 0. -1.
     999902    2    1    2    0    0 -0.11722306149E-01  0.16489142565E-02 -0.20272468785E-01  0.10204543878E+01  0.10201843231E+01 0.  0.
     999903    2    3    3    0    0  0.80534189819E-01  0.42408559604E-01 -0.92756960385E-01  0.13173249016E+00  0.21572056160E-01 0.  0.
         14    1    1    2    0    0  0.11722306149E-01 -0.16489142565E-02  0.20272468785E-01  0.23475612246E-01  0.00000000000E+00 0. -1.
     999901    1    3    3    0    0 -0.92256495968E-01 -0.40759645348E-01  0.72484491600E-01  0.88872189759E+00  0.88000000000E+00 0.  1.
        -11    1    4    4    0    0  0.12785560580E-01  0.15646860491E-01 -0.14896774600E-01  0.25109158032E-01  0.51100000000E-03 0.  1.
         11    1    4    4    0    0  0.67748629239E-01  0.26761699113E-01 -0.77860185785E-01  0.10662333213E+00  0.51100000000E-03 0. -1.
</event>
<event>
 8    1  0.1118868E+005  0.1043930E+01  0.7957747E-01            NaN
         13   -1    0    0    0    0  0.00000000000E+00  0.00000000000E+00  0.74505805969E-08  0.10566000000E+00  0.10566000000E+00 0.  1.
     999900   -1    0    0    0    0 -0.00000000000E+00 -0.00000000000E+00 -0.74505805969E-08  0.93827000000E+00  0.93827000000E+00 0.  1.
     999902    2    1    2    0    0 -0.14910133087E-01 -0.13749393303E-01 -0.11352110391E-01  0.10206871883E+01  0.10204225145E+01 0.  0.
     999903    2    3    3    0    0 -0.13822294257E-01  0.64223708378E-01 -0.11223166919E+00  0.13149785338E+00  0.19493520376E-01 0.  0.
         14    1    1    2    0    0  0.14910133087E-01  0.13749393303E-01  0.11352110391E-01  0.23242811689E-01  0.00000000000E+00 0.  1.
     999901    1    3    3    0    0 -0.10878388302E-02 -0.77973101681E-01  0.10087955880E+00  0.88918933494E+00  0.88000000000E+00 0. -1.
        -11    1    4    4    0    0 -0.14326523716E-01  0.64555054077E-01 -0.10409786994E+00  0.12332571482E+00  0.51100000000E-03 0.  1.
         11    1    4    4    0    0  0.50422945920E-03 -0.33134569903E-03 -0.81337992533E-02  0.81721385581E-02  0.51100000000E-03 0. -1.
</event>
<event>
 8    1  0.1118868E+005  0.1043930E+01  0.7957747E-01            NaN
         13   -1    0    0    0    0  0.00000000000E+00  0.00000000000E+00  0.74505805969E-08  0.10566000000E+00  0.10566000000E+00 0. -1.
     999900   -1    0    0    0    0 -0.00000000000E+00 -0.00000000000E+00 -0.74505805969E-08  0.93827000000E+00  0.93827000000E+00 0.  1.
     999902    2    1    2    0    0 -0.14385819836E-01 -0.20759639756E-01 -0.12405635167E-01  0.10157908060E+01  0.10154009786E+01 0.  0.
     999903    2    3    3    0    0 -0.66084394717E-01 -0.14157453861E-01 -0.10809171927E+00  0.12907091889E+00  0.20196574059E-01 0.  0.
         14    1    1    2    0    0  0.14385819836E-01  0.20759639756E-01  0.12405635167E-01  0.28139194002E-01  0.00000000000E+00 0. -1.
     999901    1    3    3    0    0  0.51698574882E-01 -0.66021858954E-02  0.95686084101E-01  0.88671988711E+00  0.88000000000E+00 0. -1.
        -11    1    4    4    0    0 -0.27925306958E-01 -0.40776519301E-02 -0.63672008052E-01  0.69647941422E-01  0.51100000000E-03 0. -1.
         11    1    4    4    0    0 -0.38159087760E-01 -0.10079801931E-01 -0.44419711216E-01  0.59422977468E-01  0.51100000000E-03 0.  1.
</event>
<event>
 8    1  0.1118868E+005  0.1043930E+01  0.7957747E-01            NaN
         13   -1    0    0    0    0  0.00000000000E+00  0.00000000000E+00  0.74505805969E-08  0.10566000000E+00  0.10566000000E+00 0.  1.
     999900   -1    0    0    0    0 -0.00000000000E+00 -0.00000000000E+00 -0.74505805969E-08  0.93827000000E+00  0.93827000000E+00 0.  1.
     999902    2    1    2    0    0  0.19660770056E-01 -0.35580870760E-02  0.79884724388E-02  0.10224120643E+01  0.10221856034E+01 0.  0.
     999903    2    3    3    0    0  0.12820584712E-01 -0.46444548671E-02  0.13165459115E+00  0.13373817745E+00  0.19158037069E-01 0.  0.
         14    1    1    2    0    0 -0.19660770056E-01  0.35580870760E-02 -0.79884724388E-02  0.21517935652E-01  0.00000000000E+00 0. -1.
     999901    1    3    3    0    0  0.68401853443E-02  0.10863677912E-02 -0.12366611871E+00  0.88867388689E+00  0.88000000000E+00 0.  1.
        -11    1    4    4    0    0  0.11921602800E-01  0.56262660416E-02  0.74132773118E-01  0.75297467780E-01  0.51100000000E-03 0.  1.
         11    1    4    4    0    0  0.89898191206E-03 -0.10270720909E-01  0.57521818031E-01  0.58440709673E-01  0.51100000000E-03 0. -1.
</event>
<event>
 8    1  0.1118868E+005  0.1043930E+01  0.7957747E-01            NaN
         13   -1    0    0    0    0  0.00000000000E+00  0.00000000000E+00  0.74505805969E-08  0.10566000000E+00  0.10566000000E+00 0. -1.
     999900   -1    0    0    0    0 -0.00000000000E+00 -0.00000000000E+00 -0.74505805969E-08  0.93827000000E+00  0.93827000000E+00 0.  1.
     999902    2    1    2    0    0  0.22041427067E-01 -0.23393472892E-02 -0.40540365423E-02  0.10213970848E+01  0.10211485067E+01 0.  0.
     999903    2    3    3    0    0  0.32908629884E-01  0.11344430518E+00  0.55109233417E-01  0.13177680474E+00  0.19378089698E-01 0.  0.
         14    1    1    2    0    0 -0.22041427067E-01  0.23393472892E-02  0.40540365423E-02  0.22532915150E-01  0.00000000000E+00 0. -1.
     999901    1    3    3    0    0 -0.10867202817E-01 -0.11578365247E+00 -0.59163269959E-01  0.88962028011E+00  0.88000000000E+00 0.  1.
        -11    1    4    4    0    0  0.16813067250E-01  0.69982781868E-01  0.23658468508E-01  0.75764458960E-01  0.51100000000E-03 0. -1.
         11    1    4    4    0    0  0.16095562634E-01  0.43461523311E-01  0.31450764909E-01  0.56012345777E-01  0.51100000000E-03 0.  1.
</event>
<event>
 8    1  0.1118868E+005  0.1043930E+01  0.7957747E-01            NaN
         13   -1    0    0    0    0  0.00000000000E+00  0.00000000000E+00  0.74505805969E-08  0.10566000000E+00  0.10566000000E+00 0. -1.
     999900   -1    0    0    0    0 -0.00000000000E+00 -0.00000000000E+00 -0.74505805969E-08  0.93827000000E+00  0.93827000000E+00 0. -1.
     999902    2    1    2    0    0 -0.13657893460E-01  0.14405432632E-01 -0.12567929812E-01  0.10204351622E+01  0.10201646499E+01 0.  0.
     999903    2    3    3    0    0  0.13137656975E-01 -0.12707282775E+00 -0.50710783537E-02  0.12870072726E+00  0.14766847348E-01 0.  0.
         14    1    1    2    0    0  0.13657893460E-01 -0.14405432632E-01  0.12567929812E-01  0.23494837791E-01  0.00000000000E+00 0. -1.
     999901    1    3    3    0    0 -0.26795550435E-01  0.14147826038E+00 -0.74968514579E-02  0.89173443494E+00  0.88000000000E+00 0. -1.
        -11    1    4    4    0    0 -0.21045265125E-02 -0.85483759635E-02  0.18057775913E-02  0.90014286180E-02  0.51100000000E-03 0.  1.
         11    1    4    4    0    0  0.15242183488E-01 -0.11852445178E+00 -0.68768559450E-02  0.11969929865E+00  0.51100000000E-03 0. -1.
</event>
<event>
 8    1  0.1118868E+005  0.1043930E+01  0.7957747E-01            NaN
         13   -1    0    0    0    0  0.00000000000E+00  0.00000000000E+00  0.74505805969E-08  0.10566000000E+00  0.10566000000E+00 0.  1.
     999900   -1    0    0    0    0 -0.00000000000E+00 -0.00000000000E+00 -0.74505805969E-08  0.93827000000E+00  0.93827000000E+00 0.  1.
     999902    2    1    2    0    0 -0.47098443354E-02 -0.17421116448E-01  0.14498563213E-01  0.10207807826E+01  0.10205182604E+01 0.  0.
     999903    2    3    3    0    0 -0.11822683922E+00 -0.30223418940E-01  0.49273269581E-01  0.13271587094E+00  0.17164112021E-01 0.  0.
         14    1    1    2    0    0  0.47098443354E-02  0.17421116448E-01 -0.14498563213E-01  0.23149217421E-01  0.00000000000E+00 0. -1.
     999901    1    3    3    0    0  0.11351699488E+00  0.12802302492E-01 -0.34774706368E-01  0.88806491164E+00  0.88000000000E+00 0. -1.
        -11    1    4    4    0    0 -0.89592590260E-01 -0.19732279981E-01  0.44062375272E-01  0.10177401013E+00  0.51100000000E-03 0. -1.
         11    1    4    4    0    0 -0.28634248956E-01 -0.10491138959E-01  0.52108943091E-02  0.30941860811E-01  0.51100000000E-03 0.  1.
</event>
<event>
 8    1  0.1118868E+005  0.1043930E+01  0.7957747E-01            NaN
         13   -1    0    0    0    0  0.00000000000E+00  0.00000000000E+00  0.74505805969E-08  0.10566000000E+00  0.10566000000E+00 0.  1.
     999900   -1    0    0    0    0 -0.00000000000E+00 -0.00000000000E+00 -0.74505805969E-08  0.93827000000E+00  0.93827000000E+00 0.  1.
     999902    2    1    2    0    0  0.72453743210E-02 -0.21046255472E-01 -0.87102764492E-02  0.10200279241E+01  0.10197478397E+01 0.  0.
     999903    2    3    3    0    0 -0.52562858798E-01  0.10650769462E+00 -0.43400383960E-01  0.12814764146E+00  0.20772133833E-01 0.  0.
         14    1    1    2    0    0 -0.72453743210E-02  0.21046255472E-01  0.87102764492E-02  0.23902075941E-01  0.00000000000E+00 0.  1.
     999901    1    3    3    0    0  0.59808233119E-01 -0.12755395010E+00  0.34690107511E-01  0.89188028260E+00  0.88000000000E+00 0. -1.
        -11    1    4    4    0    0 -0.89641426416E-02  0.40325392415E-01 -0.15555824658E-01  0.44144511873E-01  0.51100000000E-03 0.  1.
         11    1    4    4    0    0 -0.43598716156E-01  0.66182302210E-01 -0.27844559303E-01  0.84003129585E-01  0.51100000000E-03 0. -1.
</event>
<event>
 8    1  0.1118868E+005  0.1043930E+01  0.7957747E-01            NaN
         13   -1    0    0    0    0  0.00000000000E+00  0.00000000000E+00  0.74505805969E-08  0.10566000000E+00  0.10566000000E+00 0. -1.
     999900   -1    0    0    0    0 -0.00000000000E+00 -0.00000000000E+00 -0.74505805969E-08  0.93827000000E+00  0.93827000000E+00 0. -1.
     999902    2    1    2    0    0  0.46702275970E-02  0.60642059839E-02 -0.22878156324E-01  0.10198054139E+01  0.10195200275E+01 0.  0.
     999903    2    3    3    0    0  0.84199774223E-01 -0.45219604952E-01  0.83259829553E-01  0.12839066745E+00  0.20434030949E-01 0.  0.
         14    1    1    2    0    0 -0.46702275970E-02 -0.60642059839E-02  0.22878156324E-01  0.24124586148E-01  0.00000000000E+00 0. -1.
     999901    1    3    3    0    0 -0.79529546626E-01  0.51283810936E-01 -0.10613798588E+00  0.89141474640E+00  0.88000000000E+00 0. -1.
        -11    1    4    4    0    0  0.46080477333E-01 -0.35739664635E-01  0.53002666331E-01  0.78805315675E-01  0.51100000000E-03 0. -1.
         11    1    4    4    0    0  0.38119296889E-01 -0.94799403176E-02  0.30257163223E-01  0.49585351779E-01  0.51100000000E-03 0.  1.
</event>
<event>
 8    1  0.1118868E+005  0.1043930E+01  0.7957747E-01            NaN
         13   -1    0    0    0    0  0.00000000000E+00  0.00000000000E+00  0.74505805969E-08  0.10566000000E+00  0.10566000000E+00 0.  1.
     999900   -1    0    0    0    0 -0.00000000000E+00 -0.00000000000E+00 -0.74505805969E-08  0.93827000000E+00  0.93827000000E+00 0. -1.
     999902    2    1    2    0    0 -0.12137853419E-01 -0.18033544267E-01  0.97229395043E-02  0.10201167315E+01  0.10198387491E+01 0.  0.
     999903    2    3    3    0    0  0.20156522653E-01  0.11544225735E+00 -0.46243153358E-01  0.12770935821E+00  0.20929662026E-01 0.  0.
         14    1    1    2    0    0  0.12137853419E-01  0.18033544267E-01 -0.97229395043E-02  0.23813268509E-01  0.00000000000E+00 0. -1.
     999901    1    3    3    0    0 -0.32294376072E-01 -0.13347580162E+00  0.55966092862E-01  0.89240737329E+00  0.88000000000E+00 0.  1.
        -11    1    4    4    0    0  0.93122641935E-02  0.21531777144E-01 -0.26743253785E-02  0.23616706557E-01  0.51100000000E-03 0.  1.
         11    1    4    4    0    0  0.10844258460E-01  0.93910480210E-01 -0.43568827979E-01  0.10409265165E+00  0.51100000000E-03 0. -1.
</event>
<event>
 8    1  0.1118868E+005  0.1043930E+01  0.7957747E-01            NaN
         13   -1    0    0    0    0  0.00000000000E+00  0.00000000000E+00  0.74505805969E-08  0.10566000000E+00  0.10566000000E+00 0. -1.
     999900   -1    0    0    0    0 -0.00000000000E+00 -0.00000000000E+00 -0.74505805969E-08  0.93827000000E+00  0.93827000000E+00 0. -1.
     999902    2    1    2    0    0 -0.93192538753E-02 -0.92689938118E-02  0.18951655577E-01  0.10208664359E+01  0.10206058750E+01 0.  0.
     999903    2    3    3    0    0 -0.10133469858E+00 -0.78711809751E-01  0.29544723025E-01  0.13328468767E+00  0.20679631956E-01 0.  0.
         14    1    1    2    0    0  0.93192538753E-02  0.92689938118E-02 -0.18951655577E-01  0.23063564083E-01  0.00000000000E+00 0.  1.
     999901    1    3    3    0    0  0.92015444702E-01  0.69442815939E-01 -0.10593067447E-01  0.88758174825E+00  0.88000000000E+00 0. -1.
        -11    1    4    4    0    0 -0.86749638358E-01 -0.66145409015E-01  0.17278670599E-01  0.11045147562E+00  0.51100000000E-03 0.  1.
         11    1    4    4    0    0 -0.14585060219E-01 -0.12566400737E-01  0.12266052426E-01  0.22833212042E-01  0.51100000000E-03 0. -1.
</event>
<event>
 8    1  0.1118868E+005  0.1043930E+01  0.7957747E-01            NaN
         13   -1    0    0    0    0  0.00000000000E+00  0.00000000000E+00  0.74505805969E-08  0.10566000000E+00  0.10566000000E+00 0. -1.
     999900   -1    0    0    0    0 -0.00000000000E+00 -0.00000000000E+00 -0.74505805969E-08  0.93827000000E+00  0.93827000000E+00 0.  1.
     999902    2    1    2    0    0 -0.84455252115E-03  0.22117274773E-01 -0.73991759454E-02  0.10205925855E+01  0.10203257277E+01 0.  0.
     999903    2    3    3    0    0  0.10920028486E+00  0.23834150780E-02  0.68207450156E-01  0.13030293970E+00  0.19905199213E-01 0.  0.
         14    1    1    2    0    0  0.84455252115E-03 -0.22117274773E-01  0.73991759454E-02  0.23337414531E-01  0.00000000000E+00 0. -1.
     999901    1    3    3    0    0 -0.11004483738E+00  0.19733859695E-01 -0.75606626102E-01  0.89028964577E+00  0.88000000000E+00 0.  1.
        -11    1    4    4    0    0  0.48497477607E-01  0.51128260080E-02  0.41043692660E-01  0.63741604563E-01  0.51100000000E-03 0. -1.
         11    1    4    4    0    0  0.60702807257E-01 -0.27294109301E-02  0.27163757496E-01  0.66561335137E-01  0.51100000000E-03 0.  1.
</event>
<event>
 8    1  0.1118868E+005  0.1043930E+01  0.7957747E-01            NaN
         13   -1    0    0    0    0  0.00000000000E+00  0.00000000000E+00  0.74505805969E-08  0.10566000000E+00  0.10566000000E+00 0.  1.
     999900   -1    0    0    0    0 -0.00000000000E+00 -0.00000000000E+00 -0.74505805969E-08  0.93827000000E+00  0.93827000000E+00 0. -1.
     999902    2    1    2    0    0 -0.88403545547E-02 -0.15583820172E-01 -0.26051290207E-02  0.10258249174E+01  0.10256651340E+01 0.  0.
     999903    2    3    3    0    0  0.12255811981E+00 -0.50316201674E-01  0.15966045553E-01  0.13519773054E+00  0.21709418464E-01 0.  0.
         14    1    1    2    0    0  0.88403545547E-02  0.15583820172E-01  0.26051290207E-02  0.18105082630E-01  0.00000000000E+00 0.  1.
     999901    1    3    3    0    0 -0.13139847437E+00  0.34732381501E-01 -0.18571174574E-01  0.89062718683E+00  0.88000000000E+00 0. -1.
        -11    1    4    4    0    0  0.22908065243E-01 -0.19085432236E-01  0.35246165508E-02  0.30028606688E-01  0.51100000000E-03 0. -1.
         11    1    4    4    0    0  0.99650054571E-01 -0.31230769438E-01  0.12441429002E-01  0.10516912385E+00  0.51100000000E-03 0.  1.
</event>
<event>
 8    1  0.1118868E+005  0.1043930E+01  0.7957747E-01            NaN
         13   -1    0    0    0    0  0.00000000000E+00  0.00000000000E+00  0.74505805969E-08  0.10566000000E+00  0.10566000000E+00 0.  1.
     999900   -1    0    0    0    0 -0.00000000000E+00 -0.00000000000E+00 -0.74505805969E-08  0.93827000000E+00  0.93827000000E+00 0. -1.
     999902    2    1    2    0    0 -0.22273593365E-01  0.51563546101E-02 -0.67070953066E-02  0.10201038362E+01  0.10198255491E+01 0.  0.
     999903    2    3    3    0    0  0.44066189039E-01 -0.10841125271E+00 -0.51108198764E-01  0.12922223567E+00  0.19786598497E-01 0.  0.
         14    1    1    2    0    0  0.22273593365E-01 -0.51563546101E-02  0.67070953066E-02  0.23826163806E-01  0.00000000000E+00 0.  1.
     999901    1    3    3    0    0 -0.66339782404E-01  0.11356760732E+00  0.44401103457E-01  0.89088160052E+00  0.88000000000E+00 0.  1.
        -11    1    4    4    0    0  0.19494245982E-01 -0.63425167528E-01 -0.37354701939E-01  0.76147307112E-01  0.51100000000E-03 0.  1.
         11    1    4    4    0    0  0.24571943056E-01 -0.44986085183E-01 -0.13753496825E-01  0.53074928560E-01  0.51100000000E-03 0. -1.
</event>
<event>
 8    1  0.1118868E+005  0.1043930E+01  0.7957747E-01            NaN
         13   -1    0    0    0    0  0.00000000000E+00  0.00000000000E+00  0.74505805969E-08  0.10566000000E+00  0.10566000000E+00 0.  1.
     999900   -1    0    0    0    0 -0.00000000000E+00 -0.00000000000E+00 -0.74505805969E-08  0.93827000000E+00  0.93827000000E+00 0. -1.
     999902    2    1    2    0    0  0.11285782983E-01  0.14747831633E-01  0.14184178779E-01  0.10205621083E+01  0.10202945450E+01 0.  0.
     999903    2    3    3    0    0 -0.21089712681E-01  0.10079224006E+00 -0.78891045103E-01  0.13089092732E+00  0.17458127627E-01 0.  0.
         14    1    1    2    0    0 -0.11285782983E-01 -0.14747831633E-01 -0.14184178779E-01  0.23367891712E-01  0.00000000000E+00 0. -1.
     999901    1    3    3    0    0  0.32375495664E-01 -0.86044408428E-01  0.93075223882E-01  0.88967118097E+00  0.88000000000E+00 0.  1.
        -11    1    4    4    0    0 -0.17840224019E-01  0.63082593971E-01 -0.40953596501E-01  0.77299064952E-01  0.51100000000E-03 0.  1.
         11    1    4    4    0    0 -0.32494886627E-02  0.37709646090E-01 -0.37937448602E-01  0.53591862370E-01  0.51100000000E-03 0. -1.
</event>
<event>
 8    1  0.1118868E+005  0.1043930E+01  0.7957747E-01            NaN
         13   -1    0    0    0    0  0.00000000000E+00  0.00000000000E+00  0.74505805969E-08  0.10566000000E+00  0.10566000000E+00 0. -1.
     999900   -1    0    0    0    0 -0.00000000000E+00 -0.00000000000E+00 -0.74505805969E-08  0.93827000000E+00  0.93827000000E+00 0. -1.
     999902    2    1    2    0    0 -0.19294433380E-01 -0.11633058781E-01  0.69945870897E-02  0.10203391657E+01  0.10200664123E+01 0.  0.
     999903    2    3    3    0    0 -0.84393985746E-01 -0.91060859294E-01  0.44734521950E-01  0.13356352894E+00  0.20581882384E-01 0.  0.
         14    1    1    2    0    0  0.19294433380E-01  0.11633058781E-01 -0.69945870897E-02  0.23590834335E-01  0.00000000000E+00 0.  1.
     999901    1    3    3    0    0  0.65099552366E-01  0.79427800512E-01 -0.37739934861E-01  0.88677563673E+00  0.88000000000E+00 0. -1.
        -11    1    4    4    0    0 -0.62828134826E-01 -0.79082412796E-01  0.38685753897E-01  0.10815845420E+00  0.51100000000E-03 0. -1.
         11    1    4    4    0    0 -0.21565850920E-01 -0.11978446497E-01  0.60487680538E-02  0.25405074736E-01  0.51100000000E-03 0.  1.
</event>
<event>
 8    1  0.1118868E+005  0.1043930E+01  0.7957747E-01            NaN
         13   -1    0    0    0    0  0.00000000000E+00  0.00000000000E+00  0.74505805969E-08  0.10566000000E+00  0.10566000000E+00 0. -1.
     999900   -1    0    0    0    0 -0.00000000000E+00 -0.00000000000E+00 -0.74505805969E-08  0.93827000000E+00  0.93827000000E+00 0. -1.
     999902    2    1    2    0    0  0.88998934312E-02  0.81443292821E-02  0.19762847413E-01  0.10207759865E+01  0.10205133543E+01 0.  0.
     999903    2    3    3    0    0  0.83230025357E-01  0.95240138571E-01 -0.27041643535E-01  0.13212458755E+00  0.26976564546E-01 0.  0.
         14    1    1    2    0    0 -0.88998934312E-02 -0.81443292821E-02 -0.19762847413E-01  0.23154013484E-01  0.00000000000E+00 0.  1.
     999901    1    3    3    0    0 -0.74330131925E-01 -0.87095809289E-01  0.46804490948E-01  0.88865139896E+00  0.88000000000E+00 0.  1.
        -11    1    4    4    0    0  0.13311883709E-01  0.33217982399E-01 -0.94922154371E-02  0.37027069522E-01  0.51100000000E-03 0.  1.
         11    1    4    4    0    0  0.69918141648E-01  0.62022156173E-01 -0.17549428098E-01  0.95097518029E-01  0.51100000000E-03 0. -1.
</event>
<event>
 8    1  0.1118868E+005  0.1043930E+01  0.7957747E-01            NaN
         13   -1    0    0    0    0  0.00000000000E+00  0.00000000000E+00  0.74505805969E-08  0.10566000000E+00  0.10566000000E+00 0.  1.
     999900   -1    0    0    0    0 -0.00000000000E+00 -0.00000000000E+00 -0.74505805969E-08  0.93827000000E+00  0.93827000000E+00 0. -1.
     999902    2    1    2    0    0  0.10441995669E-01 -0.19342688701E-01 -0.85169324961E-02  0.10203564339E+01  0.10200840844E+01 0.  0.
     999903    2    3    3    0    0  0.10752689291E+00 -0.63111168426E-01 -0.42647616934E-01  0.13327917643E+00  0.19986679594E-01 0.  0.
         14    1    1    2    0    0 -0.10441995669E-01  0.19342688701E-01  0.85169324961E-02  0.23573566104E-01  0.00000000000E+00 0.  1.
     999901    1    3    3    0    0 -0.97084897241E-01  0.43768479725E-01  0.34130684438E-01  0.88707725746E+00  0.88000000000E+00 0.  1.
        -11    1    4    4    0    0  0.97308055451E-01 -0.61762500333E-01 -0.35058938560E-01  0.12046930894E+00  0.51100000000E-03 0.  1.
         11    1    4    4    0    0  0.10218837459E-01 -0.13486680934E-02 -0.75886783741E-02  0.12809867490E-01  0.51100000000E-03 0. -1.
</event>
<event>
 8    1  0.1118868E+005  0.1043930E+01  0.7957747E-01            NaN
         13   -1    0    0    0    0  0.00000000000E+00  0.00000000000E+00  0.74505805969E-08  0.10566000000E+00  0.10566000000E+00 0.  1.
     999900   -1    0    0    0    0 -0.00000000000E+00 -0.00000000000E+00 -0.74505805969E-08  0.93827000000E+00  0.93827000000E+00 0.  1.
     999902    2    1    2    0    0  0.14403455015E-01 -0.13959459773E-01  0.11883189330E-01  0.10206161367E+01  0.10203498235E+01 0.  0.
     999903    2    3    3    0    0  0.16321100097E-02 -0.13043872897E+00  0.14980769706E-01  0.13284357438E+00  0.20151079242E-01 0.  0.
         14    1    1    2    0    0 -0.14403455015E-01  0.13959459773E-01 -0.11883189330E-01  0.23313863304E-01  0.00000000000E+00 0. -1.
     999901    1    3    3    0    0  0.12771345006E-01  0.11647926919E+00 -0.30975803769E-02  0.88777256232E+00  0.88000000000E+00 0.  1.
        -11    1    4    4    0    0 -0.84655056450E-02 -0.76479070682E-01  0.56230405875E-02  0.77153047539E-01  0.51100000000E-03 0.  1.
         11    1    4    4    0    0  0.10097615655E-01 -0.53959658284E-01  0.93577291189E-02  0.55690526836E-01  0.51100000000E-03 0. -1.
</event>
<event>
 8    1  0.1118868E+005  0.1043930E+01  0.7957747E-01            NaN
         13   -1    0    0    0    0  0.00000000000E+00  0.00000000000E+00  0.74505805969E-08  0.10566000000E+00  0.10566000000E+00 0. -1.
     999900   -1    0    0    0    0 -0.00000000000E+00 -0.00000000000E+00 -0.74505805969E-08  0.93827000000E+00  0.93827000000E+00 0.  1.
     999902    2    1    2    0    0  0.11528110818E-01 -0.22290349435E-02 -0.20778962097E-01  0.10200630521E+01  0.10197838002E+01 0.  0.
     999903    2    3    3    0    0 -0.12350272052E+00  0.24763129866E-02 -0.33459819533E-01  0.12966074424E+00  0.20815738597E-01 0.  0.
         14    1    1    2    0    0 -0.11528110818E-01  0.22290349435E-02  0.20778962097E-01  0.23866947891E-01  0.00000000000E+00 0. -1.
     999901    1    3    3    0    0  0.13503083133E+00 -0.47053479300E-02  0.12680857436E-01  0.89040230787E+00  0.88000000000E+00 0. -1.
        -11    1    4    4    0    0 -0.56607319454E-01 -0.57533006070E-02 -0.73300738767E-02  0.57371423093E-01  0.51100000000E-03 0.  1.
         11    1    4    4    0    0 -0.66895401061E-01  0.82296135936E-02 -0.26129745656E-01  0.72289321148E-01  0.51100000000E-03 0. -1.
</event>
<event>
 8    1  0.1118868E+005  0.1043930E+01  0.7957747E-01            NaN
         13   -1    0    0    0    0  0.00000000000E+00  0.00000000000E+00  0.74505805969E-08  0.10566000000E+00  0.10566000000E+00 0. -1.
     999900   -1    0    0    0    0 -0.00000000000E+00 -0.00000000000E+00 -0.74505805969E-08  0.93827000000E+00  0.93827000000E+00 0. -1.
     999902    2    1    2    0    0  0.17186135732E-01 -0.14448066609E-01 -0.64619190142E-02  0.10205662185E+01  0.10202987504E+01 0.  0.
     999903    2    3    3    0    0  0.46106840557E-01  0.10689280788E+00 -0.53944047782E-01  0.13050185701E+00  0.23850812748E-01 0.  0.
         14    1    1    2    0    0 -0.17186135732E-01  0.14448066609E-01  0.64619190142E-02  0.23363781533E-01  0.00000000000E+00 0. -1.
     999901    1    3    3    0    0 -0.28920704825E-01 -0.12134087449E+00  0.47482128768E-01  0.89006436146E+00  0.88000000000E+00 0. -1.
        -11    1    4    4    0    0  0.60238029195E-02  0.42041799892E-01 -0.16546314466E-01  0.45583338877E-01  0.51100000000E-03 0. -1.
         11    1    4    4    0    0  0.40083037638E-01  0.64851007987E-01 -0.37397733316E-01  0.84918518130E-01  0.51100000000E-03 0.  1.
</event>
<event>
 8    1  0.1118868E+005  0.1043930E+01  0.7957747E-01            NaN
         13   -1    0    0    0    0  0.00000000000E+00  0.00000000000E+00  0.74505805969E-08  0.10566000000E+00  0.10566000000E+00 0.  1.
     999900   -1    0    0    0    0 -0.00000000000E+00 -0.00000000000E+00 -0.74505805969E-08  0.93827000000E+00  0.93827000000E+00 0.  1.
     999902    2    1    2    0    0  0.20731106801E-01 -0.74061330390E-02 -0.60795921276E-02  0.10210916324E+01  0.10208361919E+01 0.  0.
     999903    2    3    3    0    0 -0.14157641256E-01  0.95344625219E-01  0.84611119328E-01  0.12980057541E+00  0.19952731610E-01 0.  0.
         14    1    1    2    0    0 -0.20731106801E-01  0.74061330390E-02  0.60795921276E-02  0.22838367635E-01  0.00000000000E+00 0. -1.
     999901    1    3    3    0    0  0.34888748057E-01 -0.10275075826E+00 -0.90690711456E-01  0.89129105696E+00  0.88000000000E+00 0.  1.
        -11    1    4    4    0    0 -0.12855868790E-01  0.84332739167E-01  0.64939779635E-01  0.10721343366E+00  0.51100000000E-03 0.  1.
         11    1    4    4    0    0 -0.13017724659E-02  0.11011886053E-01  0.19671339694E-01  0.22587141748E-01  0.51100000000E-03 0. -1.
</event>
<event>
 8    1  0.1118868E+005  0.1043930E+01  0.7957747E-01            NaN
         13   -1    0    0    0    0  0.00000000000E+00  0.00000000000E+00  0.74505805969E-08  0.10566000000E+00  0.10566000000E+00 0. -1.
     999900   -1    0    0    0    0 -0.00000000000E+00 -0.00000000000E+00 -0.74505805969E-08  0.93827000000E+00  0.93827000000E+00 0.  1.
     999902    2    1    2    0    0 -0.14571515080E-01  0.18130379015E-01  0.49436091232E-02  0.10201501984E+01  0.10198730059E+01 0.  0.
     999903    2    3    3    0    0  0.11091265478E+00 -0.53406525255E-01  0.29033181506E-01  0.12804924384E+00  0.19995231654E-01 0.  0.
         14    1    1    2    0    0  0.14571515080E-01 -0.18130379015E-01 -0.49436091232E-02  0.23779801642E-01  0.00000000000E+00 0. -1.
     999901    1    3    3    0    0 -0.12548416986E+00  0.71536904270E-01 -0.24089572383E-01  0.89210095452E+00  0.88000000000E+00 0. -1.
        -11    1    4    4    0    0  0.49083197868E-01 -0.12753323801E-01  0.11840244050E-01  0.52079363294E-01  0.51100000000E-03 0. -1.
         11    1    4    4    0    0  0.61829456912E-01 -0.40653201454E-01  0.17192937456E-01  0.75969880544E-01  0.51100000000E-03 0.  1.
</event>
<event>
 8    1  0.1118868E+005  0.1043930E+01  0.7957747E-01            NaN
         13   -1    0    0    0    0  0.00000000000E+00  0.00000000000E+00  0.74505805969E-08  0.10566000000E+00  0.10566000000E+00 0. -1.
     999900   -1    0    0    0    0 -0.00000000000E+00 -0.00000000000E+00 -0.74505805969E-08  0.93827000000E+00  0.93827000000E+00 0.  1.
     999902    2    1    2    0    0 -0.20292702990E-02  0.24219080110E-01  0.12628735517E-01  0.10165408281E+01  0.10161717809E+01 0.  0.
     999903    2    3    3    0    0  0.33040900587E-01  0.48959482175E-01  0.11371357189E+00  0.12971494406E+00  0.20160810341E-01 0.  0.
         14    1    1    2    0    0  0.20292702990E-02 -0.24219080110E-01 -0.12628735517E-01  0.27389171950E-01  0.00000000000E+00 0.  1.
     999901    1    3    3    0    0 -0.35070170886E-01 -0.24740402065E-01 -0.10108483637E+00  0.88682588400E+00  0.88000000000E+00 0.  1.
        -11    1    4    4    0    0  0.21959345615E-01  0.19118700398E-01  0.40530897416E-01  0.49907437633E-01  0.51100000000E-03 0.  1.
         11    1    4    4    0    0  0.11081554972E-01  0.29840781778E-01  0.73182674470E-01  0.79807506422E-01  0.51100000000E-03 0. -1.
</event>
<event>
 8    1  0.1118868E+005  0.1043930E+01  0.7957747E-01            NaN
         13   -1    0    0    0    0  0.00000000000E+00  0.00000000000E+00  0.74505805969E-08  0.10566000000E+00  0.10566000000E+00 0.  1.
     999900   -1    0    0    0    0 -0.00000000000E+00 -0.00000000000E+00 -0.74505805969E-08  0.93827000000E+00  0.93827000000E+00 0. -1.
     999902    2    1    2    0    0 -0.16660728997E-01  0.14900920637E-01  0.18345544309E-01  0.10150132865E+01  0.10146012987E+01 0.  0.
     999903    2    3    3    0    0  0.42733001479E-01  0.42174954269E-01  0.11099611987E+00  0.12773902373E+00  0.19806144871E-01 0.  0.
         14    1    1    2    0    0  0.16660728997E-01 -0.14900920637E-01 -0.18345544309E-01  0.28916713550E-01  0.00000000000E+00 0. -1.
     999901    1    3    3    0    0 -0.59393730475E-01 -0.27274033632E-01 -0.92650575562E-01  0.88727426272E+00  0.88000000000E+00 0. -1.
        -11    1    4    4    0    0  0.22134543598E-02  0.81203571499E-02  0.28503060750E-01  0.29724151351E-01  0.51100000000E-03 0. -1.
         11    1    4    4    0    0  0.40519547119E-01  0.34054597119E-01  0.82493059121E-01  0.98014872381E-01  0.51100000000E-03 0.  1.
</event>
<event>
 8    1  0.1118868E+005  0.1043930E+01  0.7957747E-01            NaN
         13   -1    0    0    0    0  0.00000000000E+00  0.00000000000E+00  0.74505805969E-08  0.10566000000E+00  0.10566000000E+00 0.  1.
     999900   -1    0    0    0    0 -0.00000000000E+00 -0.00000000000E+00 -0.74505805969E-08  0.93827000000E+00  0.93827000000E+00 0. -1.
     999902    2    1    2    0    0 -0.49482501413E-02  0.15110421423E-01  0.18700453647E-01  0.10193837787E+01  0.10190882058E+01 0.  0.
     999903    2    3    3    0    0  0.72022336854E-01 -0.40565420471E-01  0.99199897026E-01  0.13061810032E+00  0.19690053737E-01 0.  0.
         14    1    1    2    0    0  0.49482501413E-02 -0.15110421423E-01 -0.18700453647E-01  0.24546221332E-01  0.00000000000E+00 0. -1.
     999901    1    3    3    0    0 -0.76970586996E-01  0.55675841894E-01 -0.80499443378E-01  0.88876567835E+00  0.88000000000E+00 0. -1.
        -11    1    4    4    0    0  0.39933346341E-01 -0.24538055929E-01  0.70585012522E-01  0.84730711389E-01  0.51100000000E-03 0. -1.
         11    1    4    4    0    0  0.32088990513E-01 -0.16027364543E-01  0.28614884504E-01  0.45887388927E-01  0.51100000000E-03 0.  1.
</event>
<event>
 8    1  0.1118868E+005  0.1043930E+01  0.7957747E-01            NaN
         13   -1    0    0    0    0  0.00000000000E+00  0.00000000000E+00  0.74505805969E-08  0.10566000000E+00  0.10566000000E+00 0. -1.
     999900   -1    0    0    0    0 -0.00000000000E+00 -0.00000000000E+00 -0.74505805969E-08  0.93827000000E+00  0.93827000000E+00 0.  1.
     999902    2    1    2    0    0  0.11556072276E-01 -0.22419359261E-01  0.27104305939E-02  0.10185623649E+01  0.10182464212E+01 0.  0.
     999903    2    3    3    0    0 -0.73680557570E-01  0.22866211797E-01  0.10048880037E+00  0.12790155651E+00  0.17581835886E-01 0.  0.
         14    1    1    2    0    0 -0.11556072276E-01  0.22419359261E-01 -0.27104305939E-02  0.25367635091E-01  0.00000000000E+00 0.  1.
     999901    1    3    3    0    0  0.85236629846E-01 -0.45285571058E-01 -0.97778369777E-01  0.89066080839E+00  0.88000000000E+00 0.  1.
        -11    1    4    4    0    0 -0.31179527524E-01  0.94111163008E-02  0.56822918707E-01  0.65496849222E-01  0.51100000000E-03 0.  1.
         11    1    4    4    0    0 -0.42501030046E-01  0.13455095496E-01  0.43665881664E-01  0.62404707292E-01  0.51100000000E-03 0. -1.
</event>
<event>
 8    1  0.1118868E+005  0.1043930E+01  0.7957747E-01            NaN
         13   -1    0    0    0    0  0.00000000000E+00  0.00000000000E+00  0.74505805969E-08  0.10566000000E+00  0.10566000000E+00 0.  1.
     999900   -1    0    0    0    0 -0.00000000000E+00 -0.00000000000E+00 -0.74505805969E-08  0.93827000000E+00  0.93827000000E+00 0. -1.
     999902    2    1    2    0    0  0.16136011745E-01 -0.17603343814E-01 -0.66555347155E-04  0.10200500289E+01  0.10197704685E+01 0.  0.
     999903    2    3    3    0    0 -0.75838592439E-02  0.12597667177E+00  0.87685225712E-02  0.12805456271E+00  0.19835505857E-01 0.  0.
         14    1    1    2    0    0 -0.16136011745E-01  0.17603343814E-01  0.66555347155E-04  0.23879971066E-01  0.00000000000E+00 0.  1.
     999901    1    3    3    0    0  0.23719870989E-01 -0.14358001558E+00 -0.88350779184E-02  0.89199546622E+00  0.88000000000E+00 0.  1.
        -11    1    4    4    0    0  0.51714087187E-02  0.56041342514E-01 -0.10328345483E-02  0.56291237392E-01  0.51100000000E-03 0.  1.
         11    1    4    4    0    0 -0.12755267963E-01  0.69935329256E-01  0.98013571195E-02  0.71763325323E-01  0.51100000000E-03 0. -1.
</event>
<event>
 8    1  0.1118868E+005  0.1043930E+01  0.7957747E-01            NaN
         13   -1    0    0    0    0  0.00000000000E+00  0.00000000000E+00  0.74505805969E-08  0.10566000000E+00  0.10566000000E+00 0.  1.
     999900   -1    0    0    0    0 -0.00000000000E+00 -0.00000000000E+00 -0.74505805969E-08  0.93827000000E+00  0.93827000000E+00 0. -1.
     999902    2    1    2    0    0  0.11952996248E-02  0.23227962731E-01 -0.87526703068E-03  0.10206548397E+01  0.10203894201E+01 0.  0.
     999903    2    3    3    0    0 -0.32465304433E-01 -0.11100873490E+00 -0.51836339137E-01  0.12838270739E+00  0.20449407956E-01 0.  0.
         14    1    1    2    0    0 -0.11952996248E-02 -0.23227962731E-01  0.87526703068E-03  0.23275160283E-01  0.00000000000E+00 0. -1.
     999901    1    3    3    0    0  0.33660604057E-01  0.13423669763E+00  0.50961072106E-01  0.89227213233E+00  0.88000000000E+00 0. -1.
        -11    1    4    4    0    0 -0.34086211496E-01 -0.88243602145E-01 -0.42792887717E-01  0.10382820182E+00  0.51100000000E-03 0.  1.
         11    1    4    4    0    0  0.16209070636E-02 -0.22765132754E-01 -0.90434514197E-02  0.24554505566E-01  0.51100000000E-03 0. -1.
</event>
<event>
 8    1  0.1118868E+005  0.1043930E+01  0.7957747E-01            NaN
         13   -1    0    0    0    0  0.00000000000E+00  0.00000000000E+00  0.74505805969E-08  0.10566000000E+00  0.10566000000E+00 0. -1.
     999900   -1    0    0    0    0 -0.00000000000E+00 -0.00000000000E+00 -0.74505805969E-08  0.93827000000E+00  0.93827000000E+00 0.  1.
     999902    2    1    2    0    0  0.10111404482E-01  0.13598722125E-01 -0.18935540594E-01  0.10185189701E+01  0.10182019308E+01 0.  0.
     999903    2    3    3    0    0  0.10136316172E+00 -0.16858931882E-01  0.74210003222E-01  0.12838940411E+00  0.20445057353E-01 0.  0.
         14    1    1    2    0    0 -0.10111404482E-01 -0.13598722125E-01  0.18935540594E-01  0.25411029921E-01  0.00000000000E+00 0. -1.
     999901    1    3    3    0    0 -0.91251757238E-01  0.30457654007E-01 -0.93145543817E-01  0.89012956597E+00  0.88000000000E+00 0.  1.
        -11    1    4    4    0    0  0.23907609660E-01  0.65289470942E-03  0.87385728772E-02  0.25468094708E-01  0.51100000000E-03 0.  1.
         11    1    4    4    0    0  0.77455552061E-01 -0.17511826591E-01  0.65471430345E-01  0.10292130940E+00  0.51100000000E-03 0. -1.
</event>
<event>
 8    1  0.1118868E+005  0.1043930E+01  0.7957747E-01            NaN
         13   -1    0    0    0    0  0.00000000000E+00  0.00000000000E+00  0.74505805969E-08  0.10566000000E+00  0.10566000000E+00 0.  1.
     999900   -1    0    0    0    0 -0.00000000000E+00 -0.00000000000E+00 -0.74505805969E-08  0.93827000000E+00  0.93827000000E+00 0.  1.
     999902    2    1    2    0    0  0.20985863383E-01 -0.94889896095E-02  0.56066785405E-02  0.10202259449E+01  0.10199505362E+01 0.  0.
     999903    2    3    3    0    0 -0.57464588060E-01 -0.60374208166E-01 -0.96854491265E-01  0.12936003457E+00  0.20149495621E-01 0.  0.
         14    1    1    2    0    0 -0.20985863383E-01  0.94889896095E-02 -0.56066785405E-02  0.23704055138E-01  0.00000000000E+00 0. -1.
     999901    1    3    3    0    0  0.78450451442E-01  0.50885218557E-01  0.10246116981E+00  0.89086591029E+00  0.88000000000E+00 0. -1.
        -11    1    4    4    0    0 -0.20105529408E-01 -0.85420581539E-02 -0.24052422277E-01  0.32495833713E-01  0.51100000000E-03 0.  1.
         11    1    4    4    0    0 -0.37359058651E-01 -0.51832150012E-01 -0.72802068988E-01  0.96864200859E-01  0.51100000000E-03 0. -1.
</event>
<event>
 8    1  0.1118868E+005  0.1043930E+01  0.7957747E-01            NaN
         13   -1    0    0    0    0  0.00000000000E+00  0.00000000000E+00  0.74505805969E-08  0.10566000000E+00  0.10566000000E+00 0. -1.
     999900   -1    0    0    0    0 -0.00000000000E+00 -0.00000000000E+00 -0.74505805969E-08  0.93827000000E+00  0.93827000000E+00 0.  1.
     999902    2    1    2    0    0  0.26003810083E-02  0.20039319523E-01 -0.13721861153E-01  0.10195040756E+01  0.10192114277E+01 0.  0.
     999903    2    3    3    0    0  0.79537805062E-01 -0.35354369463E-01  0.91783483797E-01  0.12814600738E+00  0.20518222043E-01 0.  0.
         14    1    1    2    0    0 -0.26003810083E-02 -0.20039319523E-01  0.13721861153E-01  0.24425924380E-01  0.00000000000E+00 0. -1.
     999901    1    3    3    0    0 -0.76937424054E-01  0.55393688986E-01 -0.10550534495E+00  0.89135806824E+00  0.88000000000E+00 0. -1.
        -11    1    4    4    0    0  0.25151670893E-01 -0.13364001457E-01  0.17280624619E-01  0.33317925984E-01  0.51100000000E-03 0. -1.
         11    1    4    4    0    0  0.54386134169E-01 -0.21990368005E-01  0.74502859179E-01  0.94828081398E-01  0.51100000000E-03 0.  1.
</event>
<event>
 8    1  0.1118868E+005  0.1043930E+01  0.7957747E-01            NaN
         13   -1    0    0    0    0  0.00000000000E+00  0.00000000000E+00  0.74505805969E-08  0.10566000000E+00  0.10566000000E+00 0. -1.
     999900   -1    0    0    0    0 -0.00000000000E+00 -0.00000000000E+00 -0.74505805969E-08  0.93827000000E+00  0.93827000000E+00 0. -1.
     999902    2    1    2    0    0  0.18742868098E-01 -0.85839743006E-02  0.11381290319E-01  0.10203818899E+01  0.10201101351E+01 0.  0.
     999903    2    3    3    0    0  0.11995386216E+00 -0.43314958653E-01  0.34520551866E-01  0.13359818911E+00  0.19791233964E-01 0.  0.
         14    1    1    2    0    0 -0.18742868098E-01  0.85839743006E-02 -0.11381290319E-01  0.23548110087E-01  0.00000000000E+00 0. -1.
     999901    1    3    3    0    0 -0.10121099406E+00  0.34730984352E-01 -0.23139261546E-01  0.88678370081E+00  0.88000000000E+00 0.  1.
        -11    1    4    4    0    0  0.46481650632E-01 -0.83699557648E-02  0.72286778882E-02  0.47781951718E-01  0.51100000000E-03 0.  1.
         11    1    4    4    0    0  0.73472211525E-01 -0.34945002888E-01  0.27291873978E-01  0.85816237388E-01  0.51100000000E-03 0. -1.
</event>
<event>
 8    1  0.1118868E+005  0.1043930E+01  0.7957747E-01            NaN
         13   -1    0    0    0    0  0.00000000000E+00  0.00000000000E+00  0.74505805969E-08  0.10566000000E+00  0.10566000000E+00 0. -1.
     999900   -1    0    0    0    0 -0.00000000000E+00 -0.00000000000E+00 -0.74505805969E-08  0.93827000000E+00  0.93827000000E+00 0. -1.
     999902    2    1    2    0    0 -0.99680904220E-02 -0.21979245663E-01 -0.21903363296E-03  0.10197950038E+01  0.10195093681E+01 0.  0.
     999903    2    3    3    0    0 -0.16809978376E-01 -0.12853845612E+00 -0.22634528937E-01  0.13305708805E+00  0.19676298057E-01 0.  0.
         14    1    1    2    0    0  0.99680904220E-02  0.21979245663E-01  0.21903363296E-03  0.24134996215E-01  0.00000000000E+00 0.  1.
     999901    1    3    3    0    0  0.68418879536E-02  0.10655921046E+00  0.22415495304E-01  0.88673791573E+00  0.88000000000E+00 0.  1.
        -11    1    4    4    0    0 -0.60272933143E-02 -0.45564663989E-01  0.14482902719E-02  0.45987232303E-01  0.51100000000E-03 0. -1.
         11    1    4    4    0    0 -0.10782685061E-01 -0.82973792136E-01 -0.24082819209E-01  0.87069855751E-01  0.51100000000E-03 0.  1.
</event>
<event>
 8    1  0.1118868E+005  0.1043930E+01  0.7957747E-01            NaN
         13   -1    0    0    0    0  0.00000000000E+00  0.00000000000E+00  0.74505805969E-08  0.10566000000E+00  0.10566000000E+00 0. -1.
     999900   -1    0    0    0    0 -0.00000000000E+00 -0.00000000000E+00 -0.74505805969E-08  0.93827000000E+00  0.93827000000E+00 0. -1.
     999902    2    1    2    0    0 -0.42723601947E-02 -0.18516957176E-01 -0.15381714107E-01  0.10194815257E+01  0.10191883307E+01 0.  0.
     999903    2    3    3    0    0  0.55740893315E-01  0.60663514708E-01 -0.98600405392E-01  0.12998926141E+00  0.19699211522E-01 0.  0.
         14    1    1    2    0    0  0.42723601947E-02  0.18516957176E-01  0.15381714107E-01  0.24448474258E-01  0.00000000000E+00 0. -1.
     999901    1    3    3    0    0 -0.60013253510E-01 -0.79180471884E-01  0.83218691285E-01  0.88949226433E+00  0.88000000000E+00 0. -1.
        -11    1    4    4    0    0  0.11556547684E-01  0.24636605474E-01 -0.38499745078E-01  0.47148781699E-01  0.51100000000E-03 0.  1.
         11    1    4    4    0    0  0.44184345631E-01  0.36026909233E-01 -0.60100660314E-01  0.82840479712E-01  0.51100000000E-03 0. -1.
</event>
<event>
 8    1  0.1253668E+005  0.1043930E+01  0.7957747E-01            NaN
         13   -1    0    0    0    0  0.00000000000E+00  0.00000000000E+00  0.74505805969E-08  0.10566000000E+00  0.10566000000E+00 0. -1.
     999900   -1    0    0    0    0 -0.00000000000E+00 -0.00000000000E+00 -0.74505805969E-08  0.93827000000E+00  0.93827000000E+00 0.  1.
     999902    2    1    2    0    0 -0.55036134475E-02 -0.22479645889E-01  0.42357220689E-02  0.10204020256E+01  0.10201307407E+01 0.  0.
     999903    2    3    3    0    0 -0.54942544735E-02  0.46141820408E-02 -0.12849732124E+00  0.13003573217E+00  0.18607863045E-01 0.  0.
         14    1    1    2    0    0  0.55036134475E-02  0.22479645889E-01 -0.42357220689E-02  0.23527974450E-01  0.00000000000E+00 0.  1.
     999901    1    3    3    0    0 -0.93589739878E-05 -0.27093827930E-01  0.13273304331E+00  0.89036629338E+00  0.88000000000E+00 0. -1.
        -11    1    4    4    0    0 -0.11110022417E-01  0.76863897055E-02 -0.86208631783E-01  0.87262262747E-01  0.51100000000E-03 0. -1.
         11    1    4    4    0    0  0.56157679433E-02 -0.30722076647E-02 -0.42288689458E-01  0.42773469424E-01  0.51100000000E-03 0.  1.
</event>
<event>
 8    1  0.1118868E+005  0.1043930E+01  0.7957747E-01            NaN
         13   -1    0    0    0    0  0.00000000000E+00  0.00000000000E+00  0.74505805969E-08  0.10566000000E+00  0.10566000000E+00 0. -1.
     999900   -1    0    0    0    0 -0.00000000000E+00 -0.00000000000E+00 -0.74505805969E-08  0.93827000000E+00  0.93827000000E+00 0. -1.
     999902    2    1    2    0    0  0.18100695572E-01  0.89002277025E-03 -0.14908838085E-01  0.10204629854E+01  0.10201931208E+01 0.  0.
     999903    2    3    3    0    0 -0.31976506784E-01 -0.10435352661E+00  0.66084082161E-01  0.12909113034E+00  0.19628003358E-01 0.  0.
         14    1    1    2    0    0 -0.18100695572E-01 -0.89002277025E-03  0.14908838085E-01  0.23467014590E-01  0.00000000000E+00 0. -1.
     999901    1    3    3    0    0  0.50077202357E-01  0.10524354938E+00 -0.80992920246E-01  0.89137185507E+00  0.88000000000E+00 0. -1.
        -11    1    4    4    0    0 -0.20792248413E-01 -0.50327953834E-01  0.23113325356E-01  0.59158325376E-01  0.51100000000E-03 0.  1.
         11    1    4    4    0    0 -0.11184258371E-01 -0.54025572773E-01  0.42970756805E-01  0.69932804964E-01  0.51100000000E-03 0. -1.
</event>
<event>
 8    1  0.1118868E+005  0.1043930E+01  0.7957747E-01            NaN
         13   -1    0    0    0    0  0.00000000000E+00  0.00000000000E+00  0.74505805969E-08  0.10566000000E+00  0.10566000000E+00 0.  1.
     999900   -1    0    0    0    0 -0.00000000000E+00 -0.00000000000E+00 -0.74505805969E-08  0.93827000000E+00  0.93827000000E+00 0.  1.
     999902    2    1    2    0    0 -0.77142958146E-02  0.13343893470E-02 -0.22702152217E-01  0.10199158652E+01  0.10196331171E+01 0.  0.
     999903    2    3    3    0    0 -0.20063716827E-01  0.12742385055E+00 -0.40529388051E-02  0.13064714677E+00  0.20318962140E-01 0.  0.
         14    1    1    2    0    0  0.77142958146E-02 -0.13343893470E-02  0.22702152217E-01  0.24014134799E-01  0.00000000000E+00 0.  1.
     999901    1    3    3    0    0  0.12349421012E-01 -0.12608946121E+00 -0.18649213412E-01  0.88926871844E+00  0.88000000000E+00 0. -1.
        -11    1    4    4    0    0 -0.18413347579E-01  0.55425322790E-01 -0.50190840664E-02  0.58621413334E-01  0.51100000000E-03 0.  1.
         11    1    4    4    0    0 -0.16503692479E-02  0.71998527763E-01  0.96614526135E-03  0.72025733432E-01  0.51100000000E-03 0. -1.
</event>
<event>
 8    1  0.1118868E+005  0.1043930E+01  0.7957747E-01            NaN
         13   -1    0    0    0    0  0.00000000000E+00  0.00000000000E+00  0.74505805969E-08  0.10566000000E+00  0.10566000000E+00 0. -1.
     999900   -1    0    0    0    0 -0.00000000000E+00 -0.00000000000E+00 -0.74505805969E-08  0.93827000000E+00  0.93827000000E+00 0.  1.
     999902    2    1    2    0    0  0.53791565856E-02 -0.17624755628E-01  0.18931787887E-01  0.10175106902E+01  0.10171676483E+01 0.  0.
     999903    2    3    3    0    0 -0.11284352445E+00 -0.16437733356E-01 -0.51049358765E-01  0.12685061353E+00  0.21935839044E-01 0.  0.
         14    1    1    2    0    0 -0.53791565856E-02  0.17624755628E-01 -0.18931787887E-01  0.26419309777E-01  0.00000000000E+00 0.  1.
     999901    1    3    3    0    0  0.11822268103E+00 -0.11870222718E-02  0.69981146652E-01  0.89066007670E+00  0.88000000000E+00 0.  1.
        -11    1    4    4    0    0 -0.10410264762E+00 -0.93488166029E-02 -0.48838745733E-01  0.11537003866E+00  0.51100000000E-03 0. -1.
         11    1    4    4    0    0 -0.87408768230E-02 -0.70889167529E-02 -0.22106130323E-02  0.11480574870E-01  0.51100000000E-03 0.  1.
</event>
<event>
 8    1  0.1118868E+005  0.1043930E+01  0.7957747E-01            NaN
         13   -1    0    0    0    0  0.00000000000E+00  0.00000000000E+00  0.74505805969E-08  0.10566000000E+00  0.10566000000E+00 0.  1.
     999900   -1    0    0    0    0 -0.00000000000E+00 -0.00000000000E+00 -0.74505805969E-08  0.93827000000E+00  0.93827000000E+00 0. -1.
     999902    2    1    2    0    0  0.47905942798E-02  0.14744753645E-02 -0.23550009909E-01  0.10198524827E+01  0.10195682222E+01 0.  0.
     999903    2    3    3    0    0  0.33387949237E-01  0.32724710965E-01  0.11683321968E+00  0.12771917594E+00  0.21829448454E-01 0.  0.
         14    1    1    2    0    0 -0.47905942798E-02 -0.14744753645E-02  0.23550009909E-01  0.24077517269E-01  0.00000000000E+00 0.  1.
     999901    1    3    3    0    0 -0.28597354957E-01 -0.31250235600E-01 -0.14038322959E+00  0.89213330679E+00  0.88000000000E+00 0. -1.
        -11    1    4    4    0    0  0.11973814038E-01  0.25451301501E-01  0.75984814315E-01  0.81025268269E-01  0.51100000000E-03 0.  1.
         11    1    4    4    0    0  0.21414135200E-01  0.72734094633E-02  0.40848405366E-01  0.46693907671E-01  0.51100000000E-03 0. -1.
</event>
<event>
 8    1  0.1118868E+005  0.1043930E+01  0.7957747E-01            NaN
         13   -1    0    0    0    0  0.00000000000E+00  0.00000000000E+00  0.74505805969E-08  0.10566000000E+00  0.10566000000E+00 0.  1.
     999900   -1    0    0    0    0 -0.00000000000E+00 -0.00000000000E+00 -0.74505805969E-08  0.93827000000E+00  0.93827000000E+00 0. -1.
     999902    2    1    2    0    0  0.21402600709E-02  0.15994102278E-01  0.16500567888E-01  0.10208505554E+01  0.10205896314E+01 0.  0.
     999903    2    3    3    0    0 -0.84610349116E-01  0.61731475430E-01 -0.76122441857E-01  0.13057161183E+00  0.16871082486E-01 0.  0.
         14    1    1    2    0    0 -0.21402600709E-02 -0.15994102278E-01 -0.16500567888E-01  0.23079444567E-01  0.00000000000E+00 0. -1.
     999901    1    3    3    0    0  0.86750609187E-01 -0.45737373151E-01  0.92623009745E-01  0.89027894361E+00  0.88000000000E+00 0.  1.
        -11    1    4    4    0    0 -0.54701188160E-01  0.41987676133E-01 -0.40175605342E-01  0.79809305966E-01  0.51100000000E-03 0. -1.
         11    1    4    4    0    0 -0.29909160955E-01  0.19743799297E-01 -0.35946836515E-01  0.50762305860E-01  0.51100000000E-03 0.  1.
</event>
<event>
 8    1  0.1118868E+005  0.1043930E+01  0.7957747E-01            NaN
         13   -1    0    0    0    0  0.00000000000E+00  0.00000000000E+00  0.74505805969E-08  0.10566000000E+00  0.10566000000E+00 0.  1.
     999900   -1    0    0    0    0 -0.00000000000E+00 -0.00000000000E+00 -0.74505805969E-08  0.93827000000E+00  0.93827000000E+00 0.  1.
     999902    2    1    2    0    0  0.19461272627E-01 -0.10292133679E-01  0.62853314421E-02  0.10210351416E+01  0.10207784216E+01 0.  0.
     999903    2    3    3    0    0  0.81323644643E-02  0.19522801375E-01 -0.12695860078E+00  0.13043353599E+00  0.21145824000E-01 0.  0.
         14    1    1    2    0    0 -0.19461272627E-01  0.10292133679E-01 -0.62853314421E-02  0.22894858359E-01  0.00000000000E+00 0.  1.
     999901    1    3    3    0    0  0.11328908163E-01 -0.29814935054E-01  0.13324393223E+00  0.89060160565E+00  0.88000000000E+00 0. -1.
        -11    1    4    4    0    0  0.14256016534E-01  0.17494696261E-01 -0.10977512206E+00  0.11207201680E+00  0.51100000000E-03 0.  1.
         11    1    4    4    0    0 -0.61236520697E-02  0.20281051144E-02 -0.17183478722E-01  0.18361519191E-01  0.51100000000E-03 0. -1.
</event>
<event>
 8    1  0.1118868E+005  0.1043930E+01  0.7957747E-01            NaN
         13   -1    0    0    0    0  0.00000000000E+00  0.00000000000E+00  0.74505805969E-08  0.10566000000E+00  0.10566000000E+00 0.  1.
     999900   -1    0    0    0    0 -0.00000000000E+00 -0.00000000000E+00 -0.74505805969E-08  0.93827000000E+00  0.93827000000E+00 0.  1.
     999902    2    1    2    0    0 -0.90097851717E-02  0.21327992821E-01  0.58823643884E-02  0.10200414731E+01  0.10197617100E+01 0.  0.
     999903    2    3    3    0    0  0.32432184406E-01  0.75275190955E-01  0.10179435981E+00  0.13222006770E+00  0.20046287810E-01 0.  0.
         14    1    1    2    0    0  0.90097851717E-02 -0.21327992821E-01 -0.58823643884E-02  0.23888526899E-01  0.00000000000E+00 0. -1.
     999901    1    3    3    0    0 -0.41441969577E-01 -0.53947198134E-01 -0.95911995417E-01  0.88782140540E+00  0.88000000000E+00 0.  1.
        -11    1    4    4    0    0  0.22684686417E-01  0.31418050247E-01  0.55649165980E-01  0.67814302875E-01  0.51100000000E-03 0.  1.
         11    1    4    4    0    0  0.97474979888E-02  0.43857140708E-01  0.46145193826E-01  0.64405764822E-01  0.51100000000E-03 0. -1.
</event>
<event>
 8    1  0.1118868E+005  0.1043930E+01  0.7957747E-01            NaN
         13   -1    0    0    0    0  0.00000000000E+00  0.00000000000E+00  0.74505805969E-08  0.10566000000E+00  0.10566000000E+00 0. -1.
     999900   -1    0    0    0    0 -0.00000000000E+00 -0.00000000000E+00 -0.74505805969E-08  0.93827000000E+00  0.93827000000E+00 0.  1.
     999902    2    1    2    0    0 -0.18710119995E-01 -0.14435886989E-01  0.97601872132E-04  0.10202979677E+01  0.10200242497E+01 0.  0.
     999903    2    3    3    0    0  0.89674407942E-01  0.38097454536E-01  0.81802711828E-01  0.12834355024E+00  0.16954873786E-01 0.  0.
         14    1    1    2    0    0  0.18710119995E-01  0.14435886989E-01 -0.97601872132E-04  0.23632032276E-01  0.00000000000E+00 0. -1.
     999901    1    3    3    0    0 -0.10838452794E+00 -0.52533341526E-01 -0.81705109956E-01  0.89195441748E+00  0.88000000000E+00 0.  1.
        -11    1    4    4    0    0  0.45284645083E-01  0.11081839684E-01  0.33667469675E-01  0.57508833116E-01  0.51100000000E-03 0.  1.
         11    1    4    4    0    0  0.44389762859E-01  0.27015614852E-01  0.48135242154E-01  0.70834717128E-01  0.51100000000E-03 0. -1.
</event>
<event>
 8    1  0.1118868E+005  0.1043930E+01  0.7957747E-01            NaN
         13   -1    0    0    0    0  0.00000000000E+00  0.00000000000E+00  0.74505805969E-08  0.10566000000E+00  0.10566000000E+00 0.  1.
     999900   -1    0    0    0    0 -0.00000000000E+00 -0.00000000000E+00 -0.74505805969E-08  0.93827000000E+00  0.93827000000E+00 0. -1.
     999902    2    1    2    0    0 -0.87294584988E-02  0.23118826735E-01 -0.20082190172E-02  0.10191365223E+01  0.10188348907E+01 0.  0.
     999903    2    3    3    0    0 -0.11914684705E+00  0.48593439058E-01  0.10877082645E-01  0.13177696347E+00  0.26259544755E-01 0.  0.
         14    1    1    2    0    0  0.87294584988E-02 -0.23118826735E-01  0.20082190172E-02  0.24793477749E-01  0.00000000000E+00 0.  1.
     999901    1    3    3    0    0  0.11041738856E+00 -0.25474612324E-01 -0.12885301663E-01  0.88735955879E+00  0.88000000000E+00 0.  1.
        -11    1    4    4    0    0 -0.92941974914E-01  0.46520799772E-01  0.15489754100E-01  0.10508372431E+00  0.51100000000E-03 0.  1.
         11    1    4    4    0    0 -0.26204872141E-01  0.20726392862E-02 -0.46126714550E-02  0.26693239153E-01  0.51100000000E-03 0. -1.
</event>
<event>
 8    1  0.1118868E+005  0.1043930E+01  0.7957747E-01            NaN
         13   -1    0    0    0    0  0.00000000000E+00  0.00000000000E+00  0.74505805969E-08  0.10566000000E+00  0.10566000000E+00 0.  1.
     999900   -1    0    0    0    0 -0.00000000000E+00 -0.00000000000E+00 -0.74505805969E-08  0.93827000000E+00  0.93827000000E+00 0. -1.
     999902    2    1    2    0    0  0.21296702468E-01 -0.59144956887E-02  0.17527895717E-01  0.10157208185E+01  0.10153290221E+01 0.  0.
     999903    2    3    3    0    0  0.47875396442E-01  0.10271060586E+00  0.55321431099E-01  0.12783896202E+00  0.20995650332E-01 0.  0.
         14    1    1    2    0    0 -0.21296702468E-01  0.59144956887E-02 -0.17527895717E-01  0.28209181547E-01  0.00000000000E+00 0. -1.
     999901    1    3    3    0    0 -0.26578693974E-01 -0.10862510154E+00 -0.37793535382E-01  0.88788185643E+00  0.88000000000E+00 0. -1.
        -11    1    4    4    0    0  0.93201514895E-02  0.31591575617E-01  0.72331434183E-02  0.33726434120E-01  0.51100000000E-03 0.  1.
         11    1    4    4    0    0  0.38555244953E-01  0.71119030239E-01  0.48088287680E-01  0.94112527904E-01  0.51100000000E-03 0. -1.
</event>
<event>
 7    1  0.1118868E+005  0.1043930E+01  0.7957747E-01            NaN
         13   -1    0    0    0    0  0.00000000000E+00  0.00000000000E+00  0.74505805969E-08  0.10566000000E+00  0.10566000000E+00 0.  1.
     999900   -1    0    0    0    0 -0.00000000000E+00 -0.00000000000E+00 -0.74505805969E-08  0.93827000000E+00  0.93827000000E+00 0. -1.
     999903    2    1    2    0    0 -0.58809410520E-01 -0.25518360070E-01  0.58656935313E-01  0.88256866288E-01  0.15456549430E-01 0.  0.
         14    1    1    2    0    0 -0.15136379711E-01 -0.62106711451E-01 -0.21551562234E-01  0.67459791229E-01  0.00000000000E+00 0.  1.
     999901    1    1    2    0    0  0.73945790231E-01  0.87625071521E-01 -0.37105373079E-01  0.88821334248E+00  0.88000000000E+00 0.  1.
        -11    1    3    3    0    0 -0.28828286170E-01 -0.16431224793E-01  0.39258732569E-01  0.51405879387E-01  0.51100000000E-03 0.  1.
         11    1    3    3    0    0 -0.29981124350E-01 -0.90871352771E-02  0.19398202745E-01  0.36850986901E-01  0.51100000000E-03 0. -1.
</event>
<event>
 8    1  0.1118868E+005  0.1043930E+01  0.7957747E-01            NaN
         13   -1    0    0    0    0  0.00000000000E+00  0.00000000000E+00  0.74505805969E-08  0.10566000000E+00  0.10566000000E+00 0. -1.
     999900   -1    0    0    0    0 -0.00000000000E+00 -0.00000000000E+00 -0.74505805969E-08  0.93827000000E+00  0.93827000000E+00 0.  1.
     999902    2    1    2    0    0 -0.13296534520E-01 -0.19870261810E-01  0.81132081406E-02  0.10186822421E+01  0.10183693146E+01 0.  0.
     999903    2    3    3    0    0  0.62689241724E-01 -0.11016434549E+00  0.24854622301E-01  0.13064669396E+00  0.19613320673E-01 0.  0.
         14    1    1    2    0    0  0.13296534520E-01  0.19870261810E-01 -0.81132081406E-02  0.25247757939E-01  0.00000000000E+00 0. -1.
     999901    1    3    3    0    0 -0.75985776244E-01  0.90294083682E-01 -0.16741414161E-01  0.88803554810E+00  0.88000000000E+00 0.  1.
        -11    1    4    4    0    0  0.31335924844E-01 -0.39524627131E-01  0.15647826365E-01  0.52813368825E-01  0.51100000000E-03 0.  1.
         11    1    4    4    0    0  0.31353316880E-01 -0.70639718360E-01  0.92067959362E-02  0.77833325137E-01  0.51100000000E-03 0. -1.
</event>
<event>
 8    1  0.1118868E+005  0.1043930E+01  0.7957747E-01            NaN
         13   -1    0    0    0    0  0.00000000000E+00  0.00000000000E+00  0.74505805969E-08  0.10566000000E+00  0.10566000000E+00 0.  1.
     999900   -1    0    0    0    0 -0.00000000000E+00 -0.00000000000E+00 -0.74505805969E-08  0.93827000000E+00  0.93827000000E+00 0. -1.
     999902    2    1    2    0    0 -0.99385954940E-02  0.14516298638E-01 -0.11020093834E-01  0.10231708797E+01  0.10229602671E+01 0.  0.
     999903    2    3    3    0    0 -0.10456503351E+00 -0.12831860138E-01  0.78953021052E-01  0.13311624884E+00  0.19693991571E-01 0.  0.
         14    1    1    2    0    0  0.99385954940E-02 -0.14516298638E-01  0.11020093834E-01  0.20759120276E-01  0.00000000000E+00 0.  1.
     999901    1    3    3    0    0  0.94626438015E-01  0.27348158775E-01 -0.89973114886E-01  0.89005463089E+00  0.88000000000E+00 0. -1.
        -11    1    4    4    0    0 -0.28404630044E-01 -0.78889479513E-02  0.12910393726E-01  0.32186921177E-01  0.51100000000E-03 0.  1.
         11    1    4    4    0    0 -0.76160403465E-01 -0.49429121862E-02  0.66042627326E-01  0.10092932766E+00  0.51100000000E-03 0. -1.
</event>
<event>
 7    1  0.1118868E+005  0.1043930E+01  0.7957747E-01            NaN
         13   -1    0    0    0    0  0.00000000000E+00  0.00000000000E+00  0.74505805969E-08  0.10566000000E+00  0.10566000000E+00 0.  1.
     999900   -1    0    0    0    0 -0.00000000000E+00 -0.00000000000E+00 -0.74505805969E-08  0.93827000000E+00  0.93827000000E+00 0. -1.
     999902    2    1    2    0    0 -0.36417804090E-02 -0.24124257839E-01 -0.75178658673E-02  0.10184003959E+01  0.10180803532E+01 0.  0.
         14    1    1    2    0    0  0.36417804090E-02  0.24124257839E-01  0.75178658673E-02  0.25529604149E-01  0.00000000000E+00 0.  1.
     999901    1    3    3    0    0 -0.92400109803E-01  0.67463442897E-01  0.20931756851E-01  0.88765265440E+00  0.88000000000E+00 0.  1.
        -11    1    3    3    0    0  0.27621552545E-01 -0.25794497412E-01 -0.88836329317E-02  0.38826361107E-01  0.51100000000E-03 0.  1.
         11    1    3    3    0    0  0.61136776848E-01 -0.65793203324E-01 -0.19565989786E-01  0.91921380344E-01  0.51100000000E-03 0. -1.
</event>
<event>
 8    1  0.1118868E+005  0.1043930E+01  0.7957747E-01            NaN
         13   -1    0    0    0    0  0.00000000000E+00  0.00000000000E+00  0.74505805969E-08  0.10566000000E+00  0.10566000000E+00 0. -1.
     999900   -1    0    0    0    0 -0.00000000000E+00 -0.00000000000E+00 -0.74505805969E-08  0.93827000000E+00  0.93827000000E+00 0.  1.
     999902    2    1    2    0    0 -0.17069510310E-01 -0.10740534714E-01 -0.13515779791E-01  0.10196523648E+01  0.10193633020E+01 0.  0.
     999903    2    3    3    0    0 -0.52046697394E-01 -0.19257745589E-01 -0.11892211562E+00  0.13263125899E+00  0.19205775238E-01 0.  0.
         14    1    1    2    0    0  0.17069510310E-01  0.10740534714E-01  0.13515779791E-01  0.24277635213E-01  0.00000000000E+00 0. -1.
     999901    1    3    3    0    0  0.34977187084E-01  0.85172108743E-02  0.10540633583E+00  0.88702110580E+00  0.88000000000E+00 0. -1.
        -11    1    4    4    0    0 -0.29765709064E-01 -0.15147490269E-01 -0.89241774188E-01  0.95287980768E-01  0.51100000000E-03 0. -1.
         11    1    4    4    0    0 -0.22280988330E-01 -0.41102553194E-02 -0.29680341433E-01  0.37343278221E-01  0.51100000000E-03 0.  1.
</event>
<event>
 8    1  0.1118868E+005  0.1043930E+01  0.7957747E-01            NaN
         13   -1    0    0    0    0  0.00000000000E+00  0.00000000000E+00  0.74505805969E-08  0.10566000000E+00  0.10566000000E+00 0. -1.
     999900   -1    0    0    0    0 -0.00000000000E+00 -0.00000000000E+00 -0.74505805969E-08  0.93827000000E+00  0.93827000000E+00 0.  1.
     999902    2    1    2    0    0  0.64699482763E-02  0.22967498151E-01  0.15824525574E-02  0.10200161890E+01  0.10197358263E+01 0.  0.
     999903    2    3    3    0    0 -0.43596707512E-01  0.76966136361E-01 -0.95526362190E-01  0.13161726683E+00  0.19322525788E-01 0.  0.
         14    1    1    2    0    0 -0.64699482763E-02 -0.22967498151E-01 -0.15824525574E-02  0.23913811033E-01  0.00000000000E+00 0.  1.
     999901    1    3    3    0    0  0.50066655788E-01 -0.53998638210E-01  0.97108814747E-01  0.88839892214E+00  0.88000000000E+00 0. -1.
        -11    1    4    4    0    0 -0.42125722823E-02  0.22742315314E-01 -0.30032790645E-01  0.37910266499E-01  0.51100000000E-03 0.  1.
         11    1    4    4    0    0 -0.39384135229E-01  0.54223821046E-01 -0.65493571545E-01  0.93707000332E-01  0.51100000000E-03 0. -1.
</event>
<event>
 8    1  0.1118868E+005  0.1043930E+01  0.7957747E-01            NaN
         13   -1    0    0    0    0  0.00000000000E+00  0.00000000000E+00  0.74505805969E-08  0.10566000000E+00  0.10566000000E+00 0.  1.
     999900   -1    0    0    0    0 -0.00000000000E+00 -0.00000000000E+00 -0.74505805969E-08  0.93827000000E+00  0.93827000000E+00 0.  1.
     999902    2    1    2    0    0 -0.89682989806E-02  0.20713473979E-01  0.73390351663E-02  0.10201952190E+01  0.10199190875E+01 0.  0.
     999903    2    3    3    0    0  0.65550147161E-01  0.57575181267E-01  0.96588883445E-01  0.13178240974E+00  0.20626871334E-01 0.  0.
         14    1    1    2    0    0  0.89682989806E-02 -0.20713473979E-01 -0.73390351663E-02  0.23734780977E-01  0.00000000000E+00 0. -1.
     999901    1    3    3    0    0 -0.74518446142E-01 -0.36861707288E-01 -0.89249848279E-01  0.88841280928E+00  0.88000000000E+00 0.  1.
        -11    1    4    4    0    0  0.48040579266E-01  0.30484266014E-01  0.54872981887E-01  0.79047409779E-01  0.51100000000E-03 0.  1.
         11    1    4    4    0    0  0.17509567896E-01  0.27090915252E-01  0.41715901557E-01  0.52734999961E-01  0.51100000000E-03 0. -1.
</event>
<event>
 8    1  0.1118868E+005  0.1043930E+01  0.7957747E-01            NaN
         13   -1    0    0    0    0  0.00000000000E+00  0.00000000000E+00  0.74505805969E-08  0.10566000000E+00  0.10566000000E+00 0. -1.
     999900   -1    0    0    0    0 -0.00000000000E+00 -0.00000000000E+00 -0.74505805969E-08  0.93827000000E+00  0.93827000000E+00 0.  1.
     999902    2    1    2    0    0 -0.18620976805E-01  0.13021836861E-01  0.45847589587E-02  0.10207496414E+01  0.10204864043E+01 0.  0.
     999903    2    3    3    0    0  0.57405277205E-01  0.74328982507E-01 -0.88343561443E-01  0.13048325979E+00  0.20028298613E-01 0.  0.
         14    1    1    2    0    0  0.18620976805E-01 -0.13021836861E-01 -0.45847589587E-02  0.23180358649E-01  0.00000000000E+00 0. -1.
     999901    1    3    3    0    0 -0.76026254010E-01 -0.61307145646E-01  0.92928320402E-01  0.89026638156E+00  0.88000000000E+00 0. -1.
        -11    1    4    4    0    0  0.32316789554E-01  0.44754730780E-01 -0.64733012326E-01  0.85076347007E-01  0.51100000000E-03 0. -1.
         11    1    4    4    0    0  0.25088487651E-01  0.29574251726E-01 -0.23610549117E-01  0.45406912782E-01  0.51100000000E-03 0.  1.
</event>
<event>
 8    1  0.1118868E+005  0.1043930E+01  0.7957747E-01            NaN
         13   -1    0    0    0    0  0.00000000000E+00  0.00000000000E+00  0.74505805969E-08  0.10566000000E+00  0.10566000000E+00 0.  1.
     999900   -1    0    0    0    0 -0.00000000000E+00 -0.00000000000E+00 -0.74505805969E-08  0.93827000000E+00  0.93827000000E+00 0. -1.
     999902    2    1    2    0    0  0.79502804047E-02  0.38907399290E-02  0.21785407058E-01  0.10204151371E+01  0.10201441581E+01 0.  0.
     999903    2    3    3    0    0 -0.12547127324E+00 -0.20726937651E-01 -0.12377605271E-01  0.12936269622E+00  0.20220180669E-01 0.  0.
         14    1    1    2    0    0 -0.79502804047E-02 -0.38907399290E-02 -0.21785407058E-01  0.23514862882E-01  0.00000000000E+00 0. -1.
     999901    1    3    3    0    0  0.13342155365E+00  0.24617677580E-01  0.34163012328E-01  0.89105244090E+00  0.88000000000E+00 0.  1.
        -11    1    4    4    0    0 -0.10671949064E+00 -0.24320870783E-01 -0.13169805268E-01  0.11024635744E+00  0.51100000000E-03 0.  1.
         11    1    4    4    0    0 -0.18751782605E-01  0.35939331321E-02  0.79219999754E-03  0.19116338772E-01  0.51100000000E-03 0. -1.
</event>
<event>
 8    1  0.1118868E+005  0.1043930E+01  0.7957747E-01            NaN
         13   -1    0    0    0    0  0.00000000000E+00  0.00000000000E+00  0.74505805969E-08  0.10566000000E+00  0.10566000000E+00 0.  1.
     999900   -1    0    0    0    0 -0.00000000000E+00 -0.00000000000E+00 -0.74505805969E-08  0.93827000000E+00  0.93827000000E+00 0. -1.
     999902    2    1    2    0    0  0.72126897733E-02 -0.22147021288E-01 -0.72802661158E-04  0.10206379682E+01  0.10203721592E+01 0.  0.
     999903    2    3    3    0    0 -0.83568008022E-02  0.30069605733E-01 -0.12475310444E+00  0.13018069082E+00  0.20240007074E-01 0.  0.
         14    1    1    2    0    0 -0.72126897733E-02  0.22147021288E-01  0.72802661158E-04  0.23292031812E-01  0.00000000000E+00 0. -1.
     999901    1    3    3    0    0  0.15569490575E-01 -0.52216627021E-01  0.12468030178E+00  0.89045727737E+00  0.88000000000E+00 0.  1.
        -11    1    4    4    0    0  0.24744742496E-02  0.35900631938E-02 -0.49122235807E-01  0.49318016467E-01  0.51100000000E-03 0. -1.
         11    1    4    4    0    0 -0.10831275052E-01  0.26479542539E-01 -0.75630868629E-01  0.80862674349E-01  0.51100000000E-03 0.  1.
</event>
<event>
 8    1  0.1118868E+005  0.1043930E+01  0.7957747E-01            NaN
         13   -1    0    0    0    0  0.00000000000E+00  0.00000000000E+00  0.74505805969E-08  0.10566000000E+00  0.10566000000E+00 0. -1.
     999900   -1    0    0    0    0 -0.00000000000E+00 -0.00000000000E+00 -0.74505805969E-08  0.93827000000E+00  0.93827000000E+00 0. -1.
     999902    2    1    2    0    0 -0.10504882796E-01 -0.57341956100E-02 -0.21499142268E-01  0.10193241739E+01  0.10190271462E+01 0.  0.
     999903    2    3    3    0    0  0.12155329001E+00  0.16960877692E-01 -0.34706266649E-01  0.12908327641E+00  0.19876962048E-01 0.  0.
         14    1    1    2    0    0  0.10504882796E-01  0.57341956100E-02  0.21499142268E-01  0.24605826142E-01  0.00000000000E+00 0. -1.
     999901    1    3    3    0    0 -0.13205817280E+00 -0.22695073302E-01  0.13207124380E-01  0.89024089745E+00  0.88000000000E+00 0.  1.
        -11    1    4    4    0    0  0.14120630389E-01  0.13886564143E-02  0.23193937719E-02  0.14386148813E-01  0.51100000000E-03 0.  1.
         11    1    4    4    0    0  0.10743265962E+00  0.15572221278E-01 -0.37025660421E-01  0.11469712760E+00  0.51100000000E-03 0. -1.
</event>
<event>
 8    1  0.1118868E+005  0.1043930E+01  0.7957747E-01            NaN
         13   -1    0    0    0    0  0.00000000000E+00  0.00000000000E+00  0.74505805969E-08  0.10566000000E+00  0.10566000000E+00 0.  1.
     999900   -1    0    0    0    0 -0.00000000000E+00 -0.00000000000E+00 -0.74505805969E-08  0.93827000000E+00  0.93827000000E+00 0.  1.
     999902    2    1    2    0    0  0.18712078774E-01  0.10157884133E-01  0.10557693794E-01  0.10201647018E+01  0.10198878513E+01 0.  0.
     999903    2    3    3    0    0  0.10319809991E+00 -0.72207322382E-02  0.81440514893E-01  0.13311099516E+00  0.19595733370E-01 0.  0.
         14    1    1    2    0    0 -0.18712078774E-01 -0.10157884133E-01 -0.10557693794E-01  0.23765298238E-01  0.00000000000E+00 0.  1.
     999901    1    3    3    0    0 -0.84486021137E-01  0.17378616371E-01 -0.70882821099E-01  0.88705370660E+00  0.88000000000E+00 0.  1.
        -11    1    4    4    0    0  0.16246379062E-01  0.57553509169E-02  0.15878460751E-01  0.23440467863E-01  0.51100000000E-03 0.  1.
         11    1    4    4    0    0  0.86951720849E-01 -0.12976083155E-01  0.65562054143E-01  0.10967052729E+00  0.51100000000E-03 0. -1.
</event>
<event>
 7    1  0.1118868E+005  0.1043930E+01  0.7957747E-01            NaN
         13   -1    0    0    0    0  0.00000000000E+00  0.00000000000E+00  0.74505805969E-08  0.10566000000E+00  0.10566000000E+00 0.  1.
     999900   -1    0    0    0    0 -0.00000000000E+00 -0.00000000000E+00 -0.74505805969E-08  0.93827000000E+00  0.93827000000E+00 0. -1.
     999903    2    1    2    0    0  0.50408621684E-01  0.70017414561E-01  0.62883579717E-01  0.10877367818E+00  0.20830290080E-01 0.  0.
         14    1    1    2    0    0  0.35909314968E-01  0.22436455979E-01 -0.14650691747E-01  0.44805314718E-01  0.00000000000E+00 0. -1.
     999901    1    1    2    0    0 -0.86317936651E-01 -0.92453870540E-01 -0.48232887971E-01  0.89035100710E+00  0.88000000000E+00 0. -1.
        -11    1    3    3    0    0  0.19786174661E-01  0.20613504677E-01  0.10256482209E-01  0.30362243512E-01  0.51100000000E-03 0.  1.
         11    1    3    3    0    0  0.30622447023E-01  0.49403909884E-01  0.52627097509E-01  0.78411434668E-01  0.51100000000E-03 0. -1.
</event>
<event>
 8    1  0.1118868E+005  0.1043930E+01  0.7957747E-01            NaN
         13   -1    0    0    0    0  0.00000000000E+00  0.00000000000E+00  0.74505805969E-08  0.10566000000E+00  0.10566000000E+00 0.  1.
     999900   -1    0    0    0    0 -0.00000000000E+00 -0.00000000000E+00 -0.74505805969E-08  0.93827000000E+00  0.93827000000E+00 0. -1.
     999902    2    1    2    0    0 -0.29097441251E-02 -0.22882966584E-01 -0.47949409862E-02  0.10203696895E+01  0.10200976498E+01 0.  0.
     999903    2    3    3    0    0 -0.70860714222E-01  0.88378809872E-02 -0.10797492678E+00  0.13117361667E+00  0.21179800244E-01 0.  0.
         14    1    1    2    0    0  0.29097441251E-02  0.22882966584E-01  0.47949409862E-02  0.23560310474E-01  0.00000000000E+00 0.  1.
     999901    1    3    3    0    0  0.67950970097E-01 -0.31720847571E-01  0.10317998579E+00  0.88919607285E+00  0.88000000000E+00 0.  1.
        -11    1    4    4    0    0 -0.32681045718E-01  0.13902406909E-01 -0.44649477793E-01  0.57054050297E-01  0.51100000000E-03 0. -1.
         11    1    4    4    0    0 -0.38179668504E-01 -0.50645259215E-02 -0.63325448984E-01  0.74119566377E-01  0.51100000000E-03 0.  1.
</event>
<event>
 8    1  0.1118868E+005  0.1043930E+01  0.7957747E-01            NaN
         13   -1    0    0    0    0  0.00000000000E+00  0.00000000000E+00  0.74505805969E-08  0.10566000000E+00  0.10566000000E+00 0. -1.
     999900   -1    0    0    0    0 -0.00000000000E+00 -0.00000000000E+00 -0.74505805969E-08  0.93827000000E+00  0.93827000000E+00 0.  1.
     999902    2    1    2    0    0 -0.12628426037E-01  0.66450393434E-02  0.20287241928E-01  0.10191266559E+01  0.10188247813E+01 0.  0.
     999903    2    3    3    0    0 -0.42831933756E-01 -0.11724567096E+00 -0.24493749897E-01  0.12880845595E+00  0.20262098418E-01 0.  0.
         14    1    1    2    0    0  0.12628426037E-01 -0.66450393434E-02 -0.20287241928E-01  0.24803344071E-01  0.00000000000E+00 0.  1.
     999901    1    3    3    0    0  0.30203507718E-01  0.12389071031E+00  0.44780991825E-01  0.89031819998E+00  0.88000000000E+00 0.  1.
        -11    1    4    4    0    0 -0.20920377179E-01 -0.82703113559E-01 -0.20247223868E-01  0.87679406756E-01  0.51100000000E-03 0.  1.
         11    1    4    4    0    0 -0.21911556576E-01 -0.34542557404E-01 -0.42465260293E-02  0.41129049198E-01  0.51100000000E-03 0. -1.
</event>
<event>
 8    1  0.1118868E+005  0.1043930E+01  0.7957747E-01            NaN
         13   -1    0    0    0    0  0.00000000000E+00  0.00000000000E+00  0.74505805969E-08  0.10566000000E+00  0.10566000000E+00 0. -1.
     999900   -1    0    0    0    0 -0.00000000000E+00 -0.00000000000E+00 -0.74505805969E-08  0.93827000000E+00  0.93827000000E+00 0. -1.
     999902    2    1    2    0    0  0.13673142889E-01  0.15345044369E-01 -0.10588774509E-01  0.10208097195E+01  0.10205478608E+01 0.  0.
     999903    2    3    3    0    0 -0.16776413147E-01  0.84889710320E-01 -0.99322580570E-01  0.13309505572E+00  0.19015990336E-01 0.  0.
         14    1    1    2    0    0 -0.13673142889E-01 -0.15345044369E-01  0.10588774509E-01  0.23120280464E-01  0.00000000000E+00 0.  1.
     999901    1    3    3    0    0  0.30449556036E-01 -0.69544665951E-01  0.88733806061E-01  0.88771466382E+00  0.88000000000E+00 0.  1.
        -11    1    4    4    0    0 -0.12872353100E-01  0.70522954039E-01 -0.91591463323E-01  0.11631182999E+00  0.51100000000E-03 0. -1.
         11    1    4    4    0    0 -0.39040600472E-02  0.14366756282E-01 -0.77311172467E-02  0.16783225727E-01  0.51100000000E-03 0.  1.
</event>
<event>
 8    1  0.1118868E+005  0.1043930E+01  0.7957747E-01            NaN
         13   -1    0    0    0    0  0.00000000000E+00  0.00000000000E+00  0.74505805969E-08  0.10566000000E+00  0.10566000000E+00 0.  1.
     999900   -1    0    0    0    0 -0.00000000000E+00 -0.00000000000E+00 -0.74505805969E-08  0.93827000000E+00  0.93827000000E+00 0. -1.
     999902    2    1    2    0    0 -0.52981548397E-02 -0.21264035167E-01  0.10703681214E-01  0.10195415103E+01  0.10192497696E+01 0.  0.
     999903    2    3    3    0    0 -0.16718983907E-01 -0.12992092137E+00  0.84388208172E-02  0.13278230749E+00  0.20023917001E-01 0.  0.
         14    1    1    2    0    0  0.52981548397E-02  0.21264035167E-01 -0.10703681214E-01  0.24388489658E-01  0.00000000000E+00 0.  1.
     999901    1    3    3    0    0  0.11420829067E-01  0.10865688620E+00  0.22648603970E-02  0.88675920286E+00  0.88000000000E+00 0. -1.
        -11    1    4    4    0    0 -0.79736356221E-02 -0.78239935524E-01  0.14642429327E-01  0.79998301441E-01  0.51100000000E-03 0.  1.
         11    1    4    4    0    0 -0.87453482846E-02 -0.51680985846E-01 -0.62036085103E-02  0.52784006046E-01  0.51100000000E-03 0. -1.
</event>
<event>
 8    1  0.1118868E+005  0.1043930E+01  0.7957747E-01            NaN
         13   -1    0    0    0    0  0.00000000000E+00  0.00000000000E+00  0.74505805969E-08  0.10566000000E+00  0.10566000000E+00 0. -1.
     999900   -1    0    0    0    0 -0.00000000000E+00 -0.00000000000E+00 -0.74505805969E-08  0.93827000000E+00  0.93827000000E+00 0.  1.
     999902    2    1    2    0    0 -0.44546792556E-02 -0.12236278214E-01  0.20617995486E-01  0.10195440940E+01  0.10192524159E+01 0.  0.
     999903    2    3    3    0    0  0.10779559080E+00  0.40215457838E-01  0.57284164513E-01  0.13010847765E+00  0.20237786617E-01 0.  0.
         14    1    1    2    0    0  0.44546792556E-02  0.12236278214E-01 -0.20617995486E-01  0.24385905963E-01  0.00000000000E+00 0.  1.
     999901    1    3    3    0    0 -0.11225027006E+00 -0.52451736052E-01 -0.36666169027E-01  0.88943561639E+00  0.88000000000E+00 0.  1.
        -11    1    4    4    0    0  0.41136135062E-01  0.19126826125E-01  0.32973207019E-01  0.56084851677E-01  0.51100000000E-03 0. -1.
         11    1    4    4    0    0  0.66659455741E-01  0.21088631713E-01  0.24310957493E-01  0.74023625975E-01  0.51100000000E-03 0.  1.
</event>
<event>
 8    1  0.1118868E+005  0.1043930E+01  0.7957747E-01            NaN
         13   -1    0    0    0    0  0.00000000000E+00  0.00000000000E+00  0.74505805969E-08  0.10566000000E+00  0.10566000000E+00 0. -1.
     999900   -1    0    0    0    0 -0.00000000000E+00 -0.00000000000E+00 -0.74505805969E-08  0.93827000000E+00  0.93827000000E+00 0. -1.
     999902    2    1    2    0    0 -0.15732927856E-01  0.16205780537E-01 -0.67491938477E-02  0.10203566261E+01  0.10200842810E+01 0.  0.
     999903    2    3    3    0    0 -0.61068540586E-01  0.11408862637E+00 -0.26457149345E-01  0.13355068741E+00  0.19754089210E-01 0.  0.
         14    1    1    2    0    0  0.15732927856E-01 -0.16205780537E-01  0.67491938477E-02  0.23573373949E-01  0.00000000000E+00 0. -1.
     999901    1    3    3    0    0  0.45335612729E-01 -0.97882845836E-01  0.19707955498E-01  0.88680593864E+00  0.88000000000E+00 0. -1.
        -11    1    4    4    0    0 -0.12542240390E-01  0.31314544223E-01 -0.14989096873E-01  0.36916698389E-01  0.51100000000E-03 0. -1.
         11    1    4    4    0    0 -0.48526300196E-01  0.82774082150E-01 -0.11468052472E-01  0.96633989026E-01  0.51100000000E-03 0.  1.
</event>
<event>
 8    1  0.1118868E+005  0.1043930E+01  0.7957747E-01            NaN
         13   -1    0    0    0    0  0.00000000000E+00  0.00000000000E+00  0.74505805969E-08  0.10566000000E+00  0.10566000000E+00 0. -1.
     999900   -1    0    0    0    0 -0.00000000000E+00 -0.00000000000E+00 -0.74505805969E-08  0.93827000000E+00  0.93827000000E+00 0. -1.
     999902    2    1    2    0    0 -0.27082867057E-02 -0.75062748868E-02 -0.21661057103E-01  0.10208457982E+01  0.10205847653E+01 0.  0.
     999903    2    3    3    0    0 -0.61533572935E-01 -0.26292470537E-01  0.10861337444E+00  0.12911446925E+00  0.19899910985E-01 0.  0.
         14    1    1    2    0    0  0.27082867057E-02  0.75062748868E-02  0.21661057103E-01  0.23084201836E-01  0.00000000000E+00 0. -1.
     999901    1    3    3    0    0  0.58825286229E-01  0.18786195651E-01 -0.13027443155E+00  0.89173132891E+00  0.88000000000E+00 0. -1.
        -11    1    4    4    0    0 -0.13243158015E-01  0.18850113091E-02  0.15273701846E-01  0.20309642806E-01  0.51100000000E-03 0. -1.
         11    1    4    4    0    0 -0.48290414920E-01 -0.28177481847E-01  0.93339672598E-01  0.10880482645E+00  0.51100000000E-03 0.  1.
</event>
<event>
 8    1  0.1118868E+005  0.1043930E+01  0.7957747E-01            NaN
         13   -1    0    0    0    0  0.00000000000E+00  0.00000000000E+00  0.74505805969E-08  0.10566000000E+00  0.10566000000E+00 0. -1.
     999900   -1    0    0    0    0 -0.00000000000E+00 -0.00000000000E+00 -0.74505805969E-08  0.93827000000E+00  0.93827000000E+00 0. -1.
     999902    2    1    2    0    0 -0.27768475952E-02  0.27238198368E-01 -0.23275788488E-02  0.10164518640E+01  0.10160803826E+01 0.  0.
     999903    2    3    3    0    0  0.26586325631E-03  0.32030377576E-01 -0.12280505006E+00  0.12822495376E+00  0.18290507801E-01 0.  0.
         14    1    1    2    0    0  0.27768475952E-02 -0.27238198368E-01  0.23275788488E-02  0.27478135967E-01  0.00000000000E+00 0. -1.
     999901    1    3    3    0    0 -0.30427108515E-02 -0.47921792076E-02  0.12047747121E+00  0.88822691028E+00  0.88000000000E+00 0.  1.
        -11    1    4    4    0    0  0.52950951524E-02  0.19444449600E-01 -0.96999555324E-01  0.99072193410E-01  0.51100000000E-03 0. -1.
         11    1    4    4    0    0 -0.50292318961E-02  0.12585927975E-01 -0.25805494732E-01  0.29152760347E-01  0.51100000000E-03 0.  1.
</event>
<event>
 7    1  0.1118868E+005  0.1043930E+01  0.7957747E-01            NaN
         13   -1    0    0    0    0  0.00000000000E+00  0.00000000000E+00  0.74505805969E-08  0.10566000000E+00  0.10566000000E+00 0. -1.
     999900   -1    0    0    0    0 -0.00000000000E+00 -0.00000000000E+00 -0.74505805969E-08  0.93827000000E+00  0.93827000000E+00 0.  1.
     999902    2    1    2    0    0  0.19233002797E-01  0.13243353056E-01  0.17235737404E-02  0.10205149300E+01  0.10202462726E+01 0.  0.
         14    1    1    2    0    0 -0.19233002797E-01 -0.13243353056E-01 -0.17235737404E-02  0.23415070002E-01  0.00000000000E+00 0.  1.
     999901    1    3    3    0    0 -0.84322757622E-01  0.27916303898E-01  0.74906479764E-01  0.88763766717E+00  0.88000000000E+00 0. -1.
        -11    1    3    3    0    0  0.35427981884E-01 -0.72707587174E-02 -0.47474311488E-01  0.59683140039E-01  0.51100000000E-03 0. -1.
         11    1    3    3    0    0  0.68127778534E-01 -0.74021921247E-02 -0.25708594536E-01  0.73194122785E-01  0.51100000000E-03 0.  1.
</event>
<event>
 8    1  0.1118868E+005  0.1043930E+01  0.7957747E-01            NaN
         13   -1    0    0    0    0  0.00000000000E+00  0.00000000000E+00  0.74505805969E-08  0.10566000000E+00  0.10566000000E+00 0. -1.
     999900   -1    0    0    0    0 -0.00000000000E+00 -0.00000000000E+00 -0.74505805969E-08  0.93827000000E+00  0.93827000000E+00 0.  1.
     999902    2    1    2    0    0 -0.17665302890E-01  0.92236041252E-02 -0.23177419420E-01  0.10133631786E+01  0.10129020689E+01 0.  0.
     999903    2    3    3    0    0  0.24017644714E-01 -0.11820005425E+00  0.10437875541E-01  0.12257462632E+00  0.19170020538E-01 0.  0.
         14    1    1    2    0    0  0.17665302890E-01 -0.92236041252E-02  0.23177419420E-01  0.30566821395E-01  0.00000000000E+00 0. -1.
     999901    1    3    3    0    0 -0.41682947604E-01  0.12742365838E+00 -0.33615294961E-01  0.89078855229E+00  0.88000000000E+00 0.  1.
        -11    1    4    4    0    0  0.95114159816E-02 -0.27323667113E-01  0.97786692717E-02  0.30543957049E-01  0.51100000000E-03 0.  1.
         11    1    4    4    0    0  0.14506228732E-01 -0.90876387140E-01  0.65920626936E-03  0.92030669266E-01  0.51100000000E-03 0. -1.
</event>
<event>
 8    1  0.1118868E+005  0.1043930E+01  0.7957747E-01            NaN
         13   -1    0    0    0    0  0.00000000000E+00  0.00000000000E+00  0.74505805969E-08  0.10566000000E+00  0.10566000000E+00 0. -1.
     999900   -1    0    0    0    0 -0.00000000000E+00 -0.00000000000E+00 -0.74505805969E-08  0.93827000000E+00  0.93827000000E+00 0.  1.
     999902    2    1    2    0    0 -0.12434491723E-01 -0.14384775241E-01  0.14004923441E-01  0.10203148306E+01  0.10200415077E+01 0.  0.
     999903    2    3    3    0    0 -0.97914669809E-01  0.64357445960E-01  0.56668809988E-01  0.13164874855E+00  0.19770572970E-01 0.  0.
         14    1    1    2    0    0  0.12434491723E-01  0.14384775241E-01 -0.14004923441E-01  0.23615169356E-01  0.00000000000E+00 0. -1.
     999901    1    3    3    0    0  0.85480178085E-01 -0.78742221201E-01 -0.42663886547E-01  0.88866608209E+00  0.88000000000E+00 0. -1.
        -11    1    4    4    0    0 -0.43571494446E-02 -0.12116337021E-02  0.27392439057E-02  0.53120039237E-02  0.51100000000E-03 0.  1.
         11    1    4    4    0    0 -0.93557520364E-01  0.65569079662E-01  0.53929566083E-01  0.12633674463E+00  0.51100000000E-03 0. -1.
</event>
<event>
 8    1  0.1118868E+005  0.1043930E+01  0.7957747E-01            NaN
         13   -1    0    0    0    0  0.00000000000E+00  0.00000000000E+00  0.74505805969E-08  0.10566000000E+00  0.10566000000E+00 0.  1.
     999900   -1    0    0    0    0 -0.00000000000E+00 -0.00000000000E+00 -0.74505805969E-08  0.93827000000E+00  0.93827000000E+00 0. -1.
     999902    2    1    2    0    0 -0.15136433056E-01 -0.76122720571E-02  0.17246969143E-01  0.10197532294E+01  0.10194665922E+01 0.  0.
     999903    2    3    3    0    0  0.96904645243E-01  0.57758142978E-01  0.59577755819E-01  0.12923742950E+00  0.20646811991E-01 0.  0.
         14    1    1    2    0    0  0.15136433056E-01  0.76122720571E-02 -0.17246969143E-01  0.24176770590E-01  0.00000000000E+00 0. -1.
     999901    1    3    3    0    0 -0.11204107830E+00 -0.65370415035E-01 -0.42330786677E-01  0.89051579991E+00  0.88000000000E+00 0. -1.
        -11    1    4    4    0    0  0.31504958769E-01  0.17367766979E-01  0.30105074010E-01  0.46912454199E-01  0.51100000000E-03 0.  1.
         11    1    4    4    0    0  0.65399686474E-01  0.40390375999E-01  0.29472681810E-01  0.82324975301E-01  0.51100000000E-03 0. -1.
</event>
<event>
 8    1  0.1118868E+005  0.1043930E+01  0.7957747E-01            NaN
         13   -1    0    0    0    0  0.00000000000E+00  0.00000000000E+00  0.74505805969E-08  0.10566000000E+00  0.10566000000E+00 0.  1.
     999900   -1    0    0    0    0 -0.00000000000E+00 -0.00000000000E+00 -0.74505805969E-08  0.93827000000E+00  0.93827000000E+00 0.  1.
     999902    2    1    2    0    0  0.11839636473E-01 -0.80269370068E-02 -0.21319570176E-01  0.10182564186E+01  0.10179327096E+01 0.  0.
     999903    2    3    3    0    0 -0.75875633523E-01  0.96049296917E-01 -0.30649512957E-01  0.12774371297E+00  0.19911914957E-01 0.  0.
         14    1    1    2    0    0 -0.11839636473E-01  0.80269370068E-02  0.21319570176E-01  0.25673581402E-01  0.00000000000E+00 0.  1.
     999901    1    3    3    0    0  0.87715269996E-01 -0.10407623392E+00  0.93299427808E-02  0.89051270563E+00  0.88000000000E+00 0. -1.
        -11    1    4    4    0    0 -0.14359700538E-01  0.24364973240E-01 -0.14922722148E-01  0.31981270736E-01  0.51100000000E-03 0. -1.
         11    1    4    4    0    0 -0.61515932984E-01  0.71684323677E-01 -0.15726790809E-01  0.95762442231E-01  0.51100000000E-03 0.  1.
</event>
<event>
 8    1  0.1118868E+005  0.1043930E+01  0.7957747E-01            NaN
         13   -1    0    0    0    0  0.00000000000E+00  0.00000000000E+00  0.74505805969E-08  0.10566000000E+00  0.10566000000E+00 0.  1.
     999900   -1    0    0    0    0 -0.00000000000E+00 -0.00000000000E+00 -0.74505805969E-08  0.93827000000E+00  0.93827000000E+00 0. -1.
     999902    2    1    2    0    0 -0.12774471849E-01 -0.13076183963E-01  0.14566079536E-01  0.10205559890E+01  0.10202882839E+01 0.  0.
     999903    2    3    3    0    0  0.75833144451E-01  0.22877698880E-01 -0.98923774241E-01  0.12813011628E+00  0.18903933034E-01 0.  0.
         14    1    1    2    0    0  0.12774471849E-01  0.13076183963E-01 -0.14566079536E-01  0.23374011019E-01  0.00000000000E+00 0. -1.
     999901    1    3    3    0    0 -0.88607616300E-01 -0.35953882844E-01  0.11348985378E+00  0.89242587270E+00  0.88000000000E+00 0.  1.
        -11    1    4    4    0    0  0.43391043973E-01  0.47011403422E-02 -0.45649630697E-01  0.63158794489E-01  0.51100000000E-03 0.  1.
         11    1    4    4    0    0  0.32442100478E-01  0.18176558538E-01 -0.53274143544E-01  0.64971321790E-01  0.51100000000E-03 0. -1.
</event>
<event>
 8    1  0.1118868E+005  0.1043930E+01  0.7957747E-01            NaN
         13   -1    0    0    0    0  0.00000000000E+00  0.00000000000E+00  0.74505805969E-08  0.10566000000E+00  0.10566000000E+00 0.  1.
     999900   -1    0    0    0    0 -0.00000000000E+00 -0.00000000000E+00 -0.74505805969E-08  0.93827000000E+00  0.93827000000E+00 0.  1.
     999902    2    1    2    0    0 -0.13192432688E-01 -0.60683716440E-02  0.20414195119E-01  0.10188779586E+01  0.10185699239E+01 0.  0.
     999903    2    3    3    0    0  0.94449312585E-01  0.72015106716E-01  0.44963344976E-01  0.12854856134E+00  0.19904320824E-01 0.  0.
         14    1    1    2    0    0  0.13192432688E-01  0.60683716440E-02 -0.20414195119E-01  0.25052041374E-01  0.00000000000E+00 0. -1.
     999901    1    3    3    0    0 -0.10764174527E+00 -0.78083478360E-01 -0.24549149857E-01  0.89032939729E+00  0.88000000000E+00 0. -1.
        -11    1    4    4    0    0  0.77321386991E-01  0.48296617880E-01  0.34232013477E-01  0.97381990391E-01  0.51100000000E-03 0.  1.
         11    1    4    4    0    0  0.17127925594E-01  0.23718488836E-01  0.10731331499E-01  0.31166570946E-01  0.51100000000E-03 0. -1.
</event>
<event>
 8    1  0.1118868E+005  0.1043930E+01  0.7957747E-01            NaN
         13   -1    0    0    0    0  0.00000000000E+00  0.00000000000E+00  0.74505805969E-08  0.10566000000E+00  0.10566000000E+00 0. -1.
     999900   -1    0    0    0    0 -0.00000000000E+00 -0.00000000000E+00 -0.74505805969E-08  0.93827000000E+00  0.93827000000E+00 0. -1.
     999902    2    1    2    0    0  0.73692058199E-02 -0.20022412343E-01  0.91358438305E-02  0.10207208244E+01  0.10204569249E+01 0.  0.
     999903    2    3    3    0    0  0.33632883296E-01  0.12101986949E+00 -0.18862440589E-01  0.12866330945E+00  0.20529877817E-01 0.  0.
         14    1    1    2    0    0 -0.73692058199E-02  0.20022412343E-01 -0.91358438305E-02  0.23209175619E-01  0.00000000000E+00 0.  1.
     999901    1    3    3    0    0 -0.26263677476E-01 -0.14104228183E+00  0.27998284419E-01  0.89205751493E+00  0.88000000000E+00 0.  1.
        -11    1    4    4    0    0  0.20569786835E-01  0.38608011687E-01 -0.42972149782E-02  0.43959320678E-01  0.51100000000E-03 0. -1.
         11    1    4    4    0    0  0.13063096461E-01  0.82411857801E-01 -0.14565225611E-01  0.84703988770E-01  0.51100000000E-03 0.  1.
</event>
<event>
 8    1  0.1118868E+005  0.1043930E+01  0.7957747E-01            NaN
         13   -1    0    0    0    0  0.00000000000E+00  0.00000000000E+00  0.74505805969E-08  0.10566000000E+00  0.10566000000E+00 0.  1.
     999900   -1    0    0    0    0 -0.00000000000E+00 -0.00000000000E+00 -0.74505805969E-08  0.93827000000E+00  0.93827000000E+00 0. -1.
     999902    2    1    2    0    0  0.99522372816E-02 -0.85846890560E-02 -0.14864424028E-01  0.10240882507E+01  0.10238960153E+01 0.  0.
     999903    2    3    3    0    0 -0.28282847360E-01 -0.12089899589E+00 -0.50109905032E-01  0.13542708404E+00  0.20322545295E-01 0.  0.
         14    1    1    2    0    0 -0.99522372816E-02  0.85846890560E-02  0.14864424028E-01  0.19841749288E-01  0.00000000000E+00 0.  1.
     999901    1    3    3    0    0  0.38235084642E-01  0.11231430684E+00  0.35245481004E-01  0.88866116667E+00  0.88000000000E+00 0.  1.
        -11    1    4    4    0    0 -0.11990534753E-01 -0.33566117849E-01 -0.56843082339E-02  0.36097502299E-01  0.51100000000E-03 0.  1.
         11    1    4    4    0    0 -0.16292312607E-01 -0.87332878043E-01 -0.44425596798E-01  0.99329581743E-01  0.51100000000E-03 0. -1.
</event>
<event>
 8    1  0.1118868E+005  0.1043930E+01  0.7957747E-01            NaN
         13   -1    0    0    0    0  0.00000000000E+00  0.00000000000E+00  0.74505805969E-08  0.10566000000E+00  0.10566000000E+00 0. -1.
     999900   -1    0    0    0    0 -0.00000000000E+00 -0.00000000000E+00 -0.74505805969E-08  0.93827000000E+00  0.93827000000E+00 0.  1.
     999902    2    1    2    0    0 -0.23079922978E-01 -0.18987840725E-02  0.36963041262E-02  0.10204789683E+01  0.10202094754E+01 0.  0.
     999903    2    3    3    0    0 -0.12173250597E+00 -0.39407560223E-01  0.33674198385E-01  0.13366562005E+00  0.18994407923E-01 0.  0.
         14    1    1    2    0    0  0.23079922978E-01  0.18987840725E-02 -0.36963041262E-02  0.23451031743E-01  0.00000000000E+00 0. -1.
     999901    1    3    3    0    0  0.98652582994E-01  0.37508776151E-01 -0.29977894259E-01  0.88681334821E+00  0.88000000000E+00 0. -1.
        -11    1    4    4    0    0 -0.78189071207E-01 -0.16502336755E-01  0.24764226007E-01  0.83662333133E-01  0.51100000000E-03 0. -1.
         11    1    4    4    0    0 -0.43543434766E-01 -0.22905223468E-01  0.89099723780E-02  0.50003286913E-01  0.51100000000E-03 0.  1.
</event>
<event>
 8    1  0.1118868E+005  0.1043930E+01  0.7957747E-01            NaN
         13   -1    0    0    0    0  0.00000000000E+00  0.00000000000E+00  0.74505805969E-08  0.10566000000E+00  0.10566000000E+00 0.  1.
     999900   -1    0    0    0    0 -0.00000000000E+00 -0.00000000000E+00 -0.74505805969E-08  0.93827000000E+00  0.93827000000E+00 0.  1.
     999902    2    1    2    0    0  0.61697495683E-02 -0.11805008563E-01  0.19994172094E-01  0.10199052013E+01  0.10196221990E+01 0.  0.
     999903    2    3    3    0    0  0.95261735155E-02  0.21426163178E-01  0.12895728612E+00  0.13255603854E+00  0.19781133918E-01 0.  0.
         14    1    1    2    0    0 -0.61697495683E-02  0.11805008563E-01 -0.19994172094E-01  0.24024798743E-01  0.00000000000E+00 0. -1.
     999901    1    3    3    0    0 -0.33564239472E-02 -0.33231171741E-01 -0.10896311403E+00  0.88734916272E+00  0.88000000000E+00 0.  1.
        -11    1    4    4    0    0  0.76258866395E-02 -0.12582926534E-02  0.27134323752E-01  0.28218258166E-01  0.51100000000E-03 0.  1.
         11    1    4    4    0    0  0.19002868759E-02  0.22684455831E-01  0.10182296237E+00  0.10433778037E+00  0.51100000000E-03 0. -1.
</event>
<event>
 8    1  0.1118868E+005  0.1043930E+01  0.7957747E-01            NaN
         13   -1    0    0    0    0  0.00000000000E+00  0.00000000000E+00  0.74505805969E-08  0.10566000000E+00  0.10566000000E+00 0.  1.
     999900   -1    0    0    0    0 -0.00000000000E+00 -0.00000000000E+00 -0.74505805969E-08  0.93827000000E+00  0.93827000000E+00 0. -1.
     999902    2    1    2    0    0  0.62998804609E-02  0.85304661813E-02 -0.20176124415E-01  0.10211367259E+01  0.10208823045E+01 0.  0.
     999903    2    3    3    0    0 -0.45725573835E-01 -0.11075909857E+00 -0.49233084034E-01  0.13109124671E+00  0.20065203281E-01 0.  0.
         14    1    1    2    0    0 -0.62998804609E-02 -0.85304661813E-02  0.20176124415E-01  0.22793274084E-01  0.00000000000E+00 0.  1.
     999901    1    3    3    0    0  0.52025454296E-01  0.11928956475E+00  0.29056959619E-01  0.89004547921E+00  0.88000000000E+00 0. -1.
        -11    1    4    4    0    0 -0.35916283462E-01 -0.77431043786E-01 -0.25757442265E-01  0.89158582944E-01  0.51100000000E-03 0. -1.
         11    1    4    4    0    0 -0.98092903728E-02 -0.33328054780E-01 -0.23475641768E-01  0.41932663766E-01  0.51100000000E-03 0.  1.
</event>
<event>
 7    1  0.1127451E+005  0.1043930E+01  0.7957747E-01            NaN
         13   -1    0    0    0    0  0.00000000000E+00  0.00000000000E+00  0.74505805969E-08  0.10566000000E+00  0.10566000000E+00 0.  1.
     999900   -1    0    0    0    0 -0.00000000000E+00 -0.00000000000E+00 -0.74505805969E-08  0.93827000000E+00  0.93827000000E+00 0.  1.
     999903    2    1    2    0    0  0.42166668138E-01 -0.94911759629E-01 -0.47479497129E-01  0.11597311676E+00  0.20228473652E-01 0.  0.
         14    1    1    2    0    0 -0.39855690799E-01  0.15993536742E-01 -0.24306963990E-02  0.43013690745E-01  0.00000000000E+00 0. -1.
     999901    1    1    2    0    0 -0.23109773386E-02  0.78918222888E-01  0.49910193528E-01  0.88494319249E+00  0.88000000000E+00 0. -1.
        -11    1    3    3    0    0  0.18283225315E-01 -0.24593457851E-01 -0.71833008216E-02  0.31479762208E-01  0.51100000000E-03 0. -1.
         11    1    3    3    0    0  0.23883442823E-01 -0.70318301778E-01 -0.40296196307E-01  0.84493354554E-01  0.51100000000E-03 0.  1.
</event>
<event>
 7    1  0.1118868E+005  0.1043930E+01  0.7957747E-01            NaN
         13   -1    0    0    0    0  0.00000000000E+00  0.00000000000E+00  0.74505805969E-08  0.10566000000E+00  0.10566000000E+00 0. -1.
     999900   -1    0    0    0    0 -0.00000000000E+00 -0.00000000000E+00 -0.74505805969E-08  0.93827000000E+00  0.93827000000E+00 0. -1.
     999903    2    1    2    0    0 -0.19070091918E-01  0.34703852839E-01  0.54551277223E-01  0.70275384293E-01  0.19868618049E-01 0.  0.
         14    1    1    2    0    0 -0.29643153090E-01 -0.83569941978E-01  0.60363961867E-02  0.88876823786E-01  0.00000000000E+00 0. -1.
     999901    1    1    2    0    0  0.48713245008E-01  0.48866089140E-01 -0.60587673410E-01  0.88477779192E+00  0.88000000000E+00 0. -1.
        -11    1    3    3    0    0 -0.23240382769E-01  0.29758249967E-01  0.45293888170E-01  0.58970045437E-01  0.51100000000E-03 0. -1.
         11    1    3    3    0    0  0.41702908512E-02  0.49456028723E-02  0.92573890533E-02  0.11305338856E-01  0.51100000000E-03 0.  1.
</event>
<event>
 8    1  0.1118868E+005  0.1043930E+01  0.7957747E-01            NaN
         13   -1    0    0    0    0  0.00000000000E+00  0.00000000000E+00  0.74505805969E-08  0.10566000000E+00  0.10566000000E+00 0. -1.
     999900   -1    0    0    0    0 -0.00000000000E+00 -0.00000000000E+00 -0.74505805969E-08  0.93827000000E+00  0.93827000000E+00 0.  1.
     999902    2    1    2    0    0  0.90944299017E-02 -0.19760215164E-01  0.71541644876E-02  0.10210311610E+01  0.10207743506E+01 0.  0.
     999903    2    3    3    0    0 -0.41408214069E-01 -0.28107645036E-01 -0.11898516541E+00  0.13056424572E+00  0.19618174548E-01 0.  0.
         14    1    1    2    0    0 -0.90944299017E-02  0.19760215164E-01 -0.71541644876E-02  0.22898839011E-01  0.00000000000E+00 0.  1.
     999901    1    3    3    0    0  0.50502643971E-01  0.83474298722E-02  0.12613932990E+00  0.89046691526E+00  0.88000000000E+00 0. -1.
        -11    1    4    4    0    0 -0.23751463373E-02  0.29026247971E-02 -0.64172509875E-02  0.74504216037E-02  0.51100000000E-03 0. -1.
         11    1    4    4    0    0 -0.39033067732E-01 -0.31010269833E-01 -0.11256791442E+00  0.12311382412E+00  0.51100000000E-03 0.  1.
</event>
<event>
 8    1  0.1118868E+005  0.1043930E+01  0.7957747E-01            NaN
         13   -1    0    0    0    0  0.00000000000E+00  0.00000000000E+00  0.74505805969E-08  0.10566000000E+00  0.10566000000E+00 0.  1.
     999900   -1    0    0    0    0 -0.00000000000E+00 -0.00000000000E+00 -0.74505805969E-08  0.93827000000E+00  0.93827000000E+00 0.  1.
     999902    2    1    2    0    0  0.93879642904E-02  0.21685990781E-01  0.29533606108E-02  0.10201153321E+01  0.10198373166E+01 0.  0.
     999903    2    3    3    0    0 -0.10773537783E+00 -0.19305561248E-01  0.65647713234E-01  0.12920076464E+00  0.20089773500E-01 0.  0.
         14    1    1    2    0    0 -0.93879642904E-02 -0.21685990781E-01 -0.29533606108E-02  0.23814667929E-01  0.00000000000E+00 0.  1.
     999901    1    3    3    0    0  0.11712334212E+00  0.40991552028E-01 -0.62694352623E-01  0.89091456743E+00  0.88000000000E+00 0. -1.
        -11    1    4    4    0    0 -0.63160937593E-01 -0.10984728250E-01  0.49741837961E-01  0.81144807949E-01  0.51100000000E-03 0.  1.
         11    1    4    4    0    0 -0.44574440239E-01 -0.83208329972E-02  0.15905875273E-01  0.48055956693E-01  0.51100000000E-03 0. -1.
</event>
<event>
 8    1  0.1118868E+005  0.1043930E+01  0.7957747E-01            NaN
         13   -1    0    0    0    0  0.00000000000E+00  0.00000000000E+00  0.74505805969E-08  0.10566000000E+00  0.10566000000E+00 0.  1.
     999900   -1    0    0    0    0 -0.00000000000E+00 -0.00000000000E+00 -0.74505805969E-08  0.93827000000E+00  0.93827000000E+00 0. -1.
     999902    2    1    2    0    0 -0.16658642737E-01  0.68717223646E-02 -0.15319741339E-01  0.10202778242E+01  0.10200036339E+01 0.  0.
     999903    2    3    3    0    0  0.69378328974E-02 -0.16066777159E-01  0.12568072411E+00  0.12844594559E+00  0.19910843083E-01 0.  0.
         14    1    1    2    0    0  0.16658642737E-01 -0.68717223646E-02  0.15319741339E-01  0.23652175815E-01  0.00000000000E+00 0.  1.
     999901    1    3    3    0    0 -0.23596475634E-01  0.22938499523E-01 -0.14100046545E+00  0.89183187860E+00  0.88000000000E+00 0. -1.
        -11    1    4    4    0    0  0.13888110913E-02 -0.19528362182E-01  0.84048675155E-01  0.86300212295E-01  0.51100000000E-03 0. -1.
         11    1    4    4    0    0  0.55490218061E-02  0.34615850232E-02  0.41632048954E-01  0.42145733295E-01  0.51100000000E-03 0.  1.
</event>
<event>
 8    1  0.1118868E+005  0.1043930E+01  0.7957747E-01            NaN
         13   -1    0    0    0    0  0.00000000000E+00  0.00000000000E+00  0.74505805969E-08  0.10566000000E+00  0.10566000000E+00 0.  1.
     999900   -1    0    0    0    0 -0.00000000000E+00 -0.00000000000E+00 -0.74505805969E-08  0.93827000000E+00  0.93827000000E+00 0. -1.
     999902    2    1    2    0    0  0.16849798667E-01 -0.15662299658E-01 -0.10531059753E-03  0.10209249041E+01  0.10206656776E+01 0.  0.
     999903    2    3    3    0    0 -0.75329604547E-01 -0.84581985453E-01  0.63293504191E-01  0.13116854693E+00  0.19247297099E-01 0.  0.
         14    1    1    2    0    0 -0.16849798667E-01  0.15662299658E-01  0.10531059753E-03  0.23005095870E-01  0.00000000000E+00 0. -1.
     999901    1    3    3    0    0  0.92179403214E-01  0.68919685795E-01 -0.63398814788E-01  0.88975635720E+00  0.88000000000E+00 0. -1.
        -11    1    4    4    0    0 -0.52768727627E-01 -0.59246071970E-01  0.33903861204E-01  0.86280754429E-01  0.51100000000E-03 0. -1.
         11    1    4    4    0    0 -0.22560876920E-01 -0.25335913483E-01  0.29389642987E-01  0.44887792498E-01  0.51100000000E-03 0.  1.
</event>
<event>
 8    1  0.1118868E+005  0.1043930E+01  0.7957747E-01            NaN
         13   -1    0    0    0    0  0.00000000000E+00  0.00000000000E+00  0.74505805969E-08  0.10566000000E+00  0.10566000000E+00 0.  1.
     999900   -1    0    0    0    0 -0.00000000000E+00 -0.00000000000E+00 -0.74505805969E-08  0.93827000000E+00  0.93827000000E+00 0. -1.
     999902    2    1    2    0    0 -0.21210318870E-01  0.71833599410E-02 -0.90626142792E-02  0.10197719938E+01  0.10194858067E+01 0.  0.
     999903    2    3    3    0    0  0.46932263574E-02 -0.51747672722E-01 -0.11818480453E+00  0.13069859262E+00  0.20362369313E-01 0.  0.
         14    1    1    2    0    0  0.21210318870E-01 -0.71833599410E-02  0.90626142792E-02  0.24158006213E-01  0.00000000000E+00 0. -1.
     999901    1    3    3    0    0 -0.25903545228E-01  0.58931032663E-01  0.10912219025E+00  0.88907340117E+00  0.88000000000E+00 0.  1.
        -11    1    4    4    0    0 -0.63522983098E-02 -0.29781604935E-01 -0.54531410742E-01  0.62459839616E-01  0.51100000000E-03 0. -1.
         11    1    4    4    0    0  0.11045524667E-01 -0.21966067787E-01 -0.63653393788E-01  0.68238752999E-01  0.51100000000E-03 0.  1.
</event>
<event>
 8    1  0.1118868E+005  0.1043930E+01  0.7957747E-01            NaN
         13   -1    0    0    0    0  0.00000000000E+00  0.00000000000E+00  0.74505805969E-08  0.10566000000E+00  0.10566000000E+00 0.  1.
     999900   -1    0    0    0    0 -0.00000000000E+00 -0.00000000000E+00 -0.74505805969E-08  0.93827000000E+00  0.93827000000E+00 0. -1.
     999902    2    1    2    0    0  0.27401991684E-01 -0.10505166578E-01  0.39330309159E-02  0.10143209405E+01  0.10138886891E+01 0.  0.
     999903    2    3    3    0    0 -0.49446485867E-02  0.11918438117E+00  0.26777038980E-01  0.12393476998E+00  0.20333497656E-01 0.  0.
         14    1    1    2    0    0 -0.27401991684E-01  0.10505166578E-01 -0.39330309159E-02  0.29609059514E-01  0.00000000000E+00 0. -1.
     999901    1    3    3    0    0  0.32346640271E-01 -0.12968954775E+00 -0.22844008064E-01  0.89038617051E+00  0.88000000000E+00 0.  1.
        -11    1    4    4    0    0 -0.11101208371E-01  0.82630552148E-01  0.23993413209E-01  0.86758227125E-01  0.51100000000E-03 0. -1.
         11    1    4    4    0    0  0.61565597842E-02  0.36553829026E-01  0.27836257709E-02  0.37176542850E-01  0.51100000000E-03 0.  1.
</event>
<event>
 8    1  0.1118868E+005  0.1043930E+01  0.7957747E-01            NaN
         13   -1    0    0    0    0  0.00000000000E+00  0.00000000000E+00  0.74505805969E-08  0.10566000000E+00  0.10566000000E+00 0. -1.
     999900   -1    0    0    0    0 -0.00000000000E+00 -0.00000000000E+00 -0.74505805969E-08  0.93827000000E+00  0.93827000000E+00 0.  1.
     999902    2    1    2    0    0  0.19195812635E-01  0.90449322820E-02  0.42672256807E-02  0.10222851568E+01  0.10220559880E+01 0.  0.
     999903    2    3    3    0    0 -0.78323337409E-01  0.10397509965E+00  0.67939382801E-02  0.13182005046E+00  0.19621457034E-01 0.  0.
         14    1    1    2    0    0 -0.19195812635E-01 -0.90449322820E-02 -0.42672256807E-02  0.21644843213E-01  0.00000000000E+00 0.  1.
     999901    1    3    3    0    0  0.97519150044E-01 -0.94930167371E-01 -0.25267125994E-02  0.89046510632E+00  0.88000000000E+00 0. -1.
        -11    1    4    4    0    0 -0.69928757798E-01  0.92896814265E-01 -0.14550576996E-03  0.11627610056E+00  0.51100000000E-03 0. -1.
         11    1    4    4    0    0 -0.83945796114E-02  0.11078285388E-01  0.69394440500E-02  0.15543949907E-01  0.51100000000E-03 0.  1.
</event>
<event>
 8    1  0.1118868E+005  0.1043930E+01  0.7957747E-01            NaN
         13   -1    0    0    0    0  0.00000000000E+00  0.00000000000E+00  0.74505805969E-08  0.10566000000E+00  0.10566000000E+00 0. -1.
     999900   -1    0    0    0    0 -0.00000000000E+00 -0.00000000000E+00 -0.74505805969E-08  0.93827000000E+00  0.93827000000E+00 0. -1.
     999902    2    1    2    0    0  0.17591125383E-01 -0.15413912178E-01  0.76199421701E-02  0.10193312216E+01  0.10190343662E+01 0.  0.
     999903    2    3    3    0    0  0.39163303335E-01  0.25238471046E-01  0.12067703889E+00  0.13090571416E+00  0.20065232005E-01 0.  0.
         14    1    1    2    0    0 -0.17591125383E-01  0.15413912178E-01 -0.76199421701E-02  0.24598778416E-01  0.00000000000E+00 0. -1.
     999901    1    3    3    0    0 -0.21572177952E-01 -0.40652383225E-01 -0.11305709672E+00  0.88842550742E+00  0.88000000000E+00 0. -1.
        -11    1    4    4    0    0  0.31808219755E-01  0.16780672534E-01  0.66745333406E-01  0.75819222280E-01  0.51100000000E-03 0. -1.
         11    1    4    4    0    0  0.73550835798E-02  0.84577985125E-02  0.53931705485E-01  0.55086491880E-01  0.51100000000E-03 0.  1.
</event>
<event>
 8    1  0.1118868E+005  0.1043930E+01  0.7957747E-01            NaN
         13   -1    0    0    0    0  0.00000000000E+00  0.00000000000E+00  0.74505805969E-08  0.10566000000E+00  0.10566000000E+00 0.  1.
     999900   -1    0    0    0    0 -0.00000000000E+00 -0.00000000000E+00 -0.74505805969E-08  0.93827000000E+00  0.93827000000E+00 0. -1.
     999902    2    1    2    0    0  0.22742023994E-01  0.35322988357E-02 -0.41476607016E-02  0.10205445370E+01  0.10202765665E+01 0.  0.
     999903    2    3    3    0    0  0.11043177968E+00  0.66712744938E-01 -0.28240285363E-01  0.13360501449E+00  0.20174684145E-01 0.  0.
         14    1    1    2    0    0 -0.22742023994E-01 -0.35322988357E-02  0.41476607016E-02  0.23385463000E-01  0.00000000000E+00 0.  1.
     999901    1    3    3    0    0 -0.87689755684E-01 -0.63180446102E-01  0.24092624661E-01  0.88693952251E+00  0.88000000000E+00 0.  1.
        -11    1    4    4    0    0  0.36273369181E-01  0.11717642243E-01 -0.54789463447E-02  0.38514158767E-01  0.51100000000E-03 0. -1.
         11    1    4    4    0    0  0.74158410497E-01  0.54995102695E-01 -0.22761339018E-01  0.95090855726E-01  0.51100000000E-03 0.  1.
</event>
<event>
 8    1  0.1118868E+005  0.1043930E+01  0.7957747E-01            NaN
         13   -1    0    0    0    0  0.00000000000E+00  0.00000000000E+00  0.74505805969E-08  0.10566000000E+00  0.10566000000E+00 0.  1.
     999900   -1    0    0    0    0 -0.00000000000E+00 -0.00000000000E+00 -0.74505805969E-08  0.93827000000E+00  0.93827000000E+00 0. -1.
     999902    2    1    2    0    0  0.20971060208E-01  0.76523812378E-02 -0.68665826959E-02  0.10205741814E+01  0.10203068977E+01 0.  0.
     999903    2    3    3    0    0 -0.89105834363E-01  0.74875884997E-01  0.52369015333E-01  0.12920176862E+00  0.20108092317E-01 0.  0.
         14    1    1    2    0    0 -0.20971060208E-01 -0.76523812378E-02  0.68665826959E-02  0.23355818606E-01  0.00000000000E+00 0.  1.
     999901    1    3    3    0    0  0.11007689457E+00 -0.67223503759E-01 -0.59235598029E-01  0.89137241277E+00  0.88000000000E+00 0. -1.
        -11    1    4    4    0    0 -0.50239183651E-01  0.35913730430E-01  0.18046098933E-01  0.64340457063E-01  0.51100000000E-03 0.  1.
         11    1    4    4    0    0 -0.38866650712E-01  0.38962154566E-01  0.34322916400E-01  0.64861311560E-01  0.51100000000E-03 0. -1.
</event>
<event>
 8    1  0.1118868E+005  0.1043930E+01  0.7957747E-01            NaN
         13   -1    0    0    0    0  0.00000000000E+00  0.00000000000E+00  0.74505805969E-08  0.10566000000E+00  0.10566000000E+00 0. -1.
     999900   -1    0    0    0    0 -0.00000000000E+00 -0.00000000000E+00 -0.74505805969E-08  0.93827000000E+00  0.93827000000E+00 0. -1.
     999902    2    1    2    0    0 -0.91566003362E-03 -0.22621562391E-01 -0.10408611756E-01  0.10190118797E+01  0.10187071701E+01 0.  0.
     999903    2    3    3    0    0  0.96856966755E-01 -0.85970495028E-01 -0.42947323432E-02  0.13131263263E+00  0.21268867786E-01 0.  0.
         14    1    1    2    0    0  0.91566003362E-03  0.22621562391E-01  0.10408611756E-01  0.24918120254E-01  0.00000000000E+00 0. -1.
     999901    1    3    3    0    0 -0.97772626789E-01  0.63348932637E-01 -0.61138794131E-02  0.88769924712E+00  0.88000000000E+00 0.  1.
        -11    1    4    4    0    0  0.88865775618E-01 -0.85230573381E-01 -0.50462866225E-02  0.12323596409E+00  0.51100000000E-03 0.  1.
         11    1    4    4    0    0  0.79911911374E-02 -0.73992164677E-03  0.75155427924E-03  0.80766685380E-02  0.51100000000E-03 0. -1.
</event>
<event>
 8    1  0.1118868E+005  0.1043930E+01  0.7957747E-01            NaN
         13   -1    0    0    0    0  0.00000000000E+00  0.00000000000E+00  0.74505805969E-08  0.10566000000E+00  0.10566000000E+00 0.  1.
     999900   -1    0    0    0    0 -0.00000000000E+00 -0.00000000000E+00 -0.74505805969E-08  0.93827000000E+00  0.93827000000E+00 0. -1.
     999902    2    1    2    0    0 -0.16451685749E-01  0.18921278899E-01  0.40685527306E-02  0.10185287032E+01  0.10182119098E+01 0.  0.
     999903    2    3    3    0    0  0.73904257255E-01  0.21996609863E-01  0.10173943424E+00  0.12852125647E+00  0.14869794879E-01 0.  0.
         14    1    1    2    0    0  0.16451685749E-01 -0.18921278899E-01 -0.40685527306E-02  0.25401296826E-01  0.00000000000E+00 0. -1.
     999901    1    3    3    0    0 -0.90355943005E-01 -0.30753309647E-02 -0.97670881505E-01  0.89000744671E+00  0.88000000000E+00 0. -1.
        -11    1    4    4    0    0  0.37256236922E-01  0.50678177763E-02  0.41474328296E-01  0.55982952719E-01  0.51100000000E-03 0.  1.
         11    1    4    4    0    0  0.36648020334E-01  0.16928792087E-01  0.60265105939E-01  0.72538303749E-01  0.51100000000E-03 0. -1.
</event>
<event>
 8    1  0.1118868E+005  0.1043930E+01  0.7957747E-01            NaN
         13   -1    0    0    0    0  0.00000000000E+00  0.00000000000E+00  0.74505805969E-08  0.10566000000E+00  0.10566000000E+00 0.  1.
     999900   -1    0    0    0    0 -0.00000000000E+00 -0.00000000000E+00 -0.74505805969E-08  0.93827000000E+00  0.93827000000E+00 0. -1.
     999902    2    1    2    0    0  0.21582280287E-01 -0.27714161259E-02  0.92838116035E-02  0.10202727658E+01  0.10199984569E+01 0.  0.
     999903    2    3    3    0    0 -0.56781634914E-01 -0.28364984427E-02 -0.11338817812E+00  0.12831462529E+00  0.19379482449E-01 0.  0.
         14    1    1    2    0    0 -0.21582280287E-01  0.27714161259E-02 -0.92838116035E-02  0.23657234150E-01  0.00000000000E+00 0. -1.
     999901    1    3    3    0    0  0.78363915201E-01  0.65082316742E-04  0.12267198972E+00  0.89195814056E+00  0.88000000000E+00 0.  1.
        -11    1    4    4    0    0 -0.32198972211E-02 -0.53021205941E-02 -0.15486944965E-01  0.16690919874E-01  0.51100000000E-03 0. -1.
         11    1    4    4    0    0 -0.53561737692E-01  0.24656221514E-02 -0.97901233155E-01  0.11162370542E+00  0.51100000000E-03 0.  1.
</event>
<event>
 8    1  0.1118868E+005  0.1043930E+01  0.7957747E-01            NaN
         13   -1    0    0    0    0  0.00000000000E+00  0.00000000000E+00  0.74505805969E-08  0.10566000000E+00  0.10566000000E+00 0.  1.
     999900   -1    0    0    0    0 -0.00000000000E+00 -0.00000000000E+00 -0.74505805969E-08  0.93827000000E+00  0.93827000000E+00 0.  1.
     999902    2    1    2    0    0 -0.18779708802E-01 -0.95823878794E-02  0.99046394320E-02  0.10206361918E+01  0.10203703418E+01 0.  0.
     999903    2    3    3    0    0  0.12092917116E+00 -0.37004857859E-01  0.16662398776E-01  0.12916761109E+00  0.20332542395E-01 0.  0.
         14    1    1    2    0    0  0.18779708802E-01  0.95823878794E-02 -0.99046394320E-02  0.23293808243E-01  0.00000000000E+00 0. -1.
     999901    1    3    3    0    0 -0.13970887996E+00  0.27422469980E-01 -0.67577593438E-02  0.89146858066E+00  0.88000000000E+00 0. -1.
        -11    1    4    4    0    0  0.85000162114E-01 -0.17767755565E-01  0.60430808074E-02  0.87048840565E-01  0.51100000000E-03 0.  1.
         11    1    4    4    0    0  0.35929009045E-01 -0.19237102294E-01  0.10619317968E-01  0.42118770528E-01  0.51100000000E-03 0. -1.
</event>
<event>
 8    1  0.1118868E+005  0.1043930E+01  0.7957747E-01            NaN
         13   -1    0    0    0    0  0.00000000000E+00  0.00000000000E+00  0.74505805969E-08  0.10566000000E+00  0.10566000000E+00 0.  1.
     999900   -1    0    0    0    0 -0.00000000000E+00 -0.00000000000E+00 -0.74505805969E-08  0.93827000000E+00  0.93827000000E+00 0. -1.
     999902    2    1    2    0    0  0.23694953438E-01  0.53744317258E-02  0.30605000951E-02  0.10194411863E+01  0.10191470112E+01 0.  0.
     999903    2    3    3    0    0 -0.66147259269E-01  0.10870703378E+00 -0.31214525775E-02  0.12883045970E+00  0.19871204743E-01 0.  0.
         14    1    1    2    0    0 -0.23694953438E-01 -0.53744317258E-02 -0.30605000951E-02  0.24488813684E-01  0.00000000000E+00 0.  1.
     999901    1    3    3    0    0  0.89842212707E-01 -0.10333260205E+00  0.61819526726E-02  0.89061072662E+00  0.88000000000E+00 0.  1.
        -11    1    4    4    0    0 -0.15948425675E-01  0.18763368768E-01 -0.74548635163E-02  0.25734265097E-01  0.51100000000E-03 0.  1.
         11    1    4    4    0    0 -0.50198833594E-01  0.89943665009E-01  0.43334109388E-02  0.10309619460E+00  0.51100000000E-03 0. -1.
</event>
<event>
 8    1  0.1118868E+005  0.1043930E+01  0.7957747E-01            NaN
         13   -1    0    0    0    0  0.00000000000E+00  0.00000000000E+00  0.74505805969E-08  0.10566000000E+00  0.10566000000E+00 0.  1.
     999900   -1    0    0    0    0 -0.00000000000E+00 -0.00000000000E+00 -0.74505805969E-08  0.93827000000E+00  0.93827000000E+00 0.  1.
     999902    2    1    2    0    0  0.19806563651E-01  0.95551855908E-02 -0.91512173888E-02  0.10201109674E+01  0.10198328488E+01 0.  0.
     999903    2    3    3    0    0 -0.68020185836E-01  0.32369339345E-01  0.10201406802E+00  0.12848787200E+00  0.20681957472E-01 0.  0.
         14    1    1    2    0    0 -0.19806563651E-01 -0.95551855908E-02  0.91512173888E-02  0.23819032621E-01  0.00000000000E+00 0. -1.
     999901    1    3    3    0    0  0.87826749487E-01 -0.22814153754E-01 -0.11116528541E+00  0.89162309538E+00  0.88000000000E+00 0.  1.
        -11    1    4    4    0    0 -0.48608724613E-01  0.31839063083E-01  0.82875153255E-01  0.10121801319E+00  0.51100000000E-03 0. -1.
         11    1    4    4    0    0 -0.19411461223E-01  0.53027626119E-03  0.19138914768E-01  0.27269858805E-01  0.51100000000E-03 0.  1.
</event>
<event>
 8    1  0.1118868E+005  0.1043930E+01  0.7957747E-01            NaN
         13   -1    0    0    0    0  0.00000000000E+00  0.00000000000E+00  0.74505805969E-08  0.10566000000E+00  0.10566000000E+00 0. -1.
     999900   -1    0    0    0    0 -0.00000000000E+00 -0.00000000000E+00 -0.74505805969E-08  0.93827000000E+00  0.93827000000E+00 0.  1.
     999902    2    1    2    0    0 -0.68469319432E-02 -0.19814565333E-01  0.10824229127E-01  0.10203363269E+01  0.10200635071E+01 0.  0.
     999903    2    3    3    0    0  0.94311610616E-01 -0.82537528405E-01  0.36247131710E-01  0.13195941090E+00  0.19806768410E-01 0.  0.
         14    1    1    2    0    0  0.68469319432E-02  0.19814565333E-01 -0.10824229127E-01  0.23593673147E-01  0.00000000000E+00 0.  1.
     999901    1    3    3    0    0 -0.10115854256E+00  0.62722963072E-01 -0.25422902584E-01  0.88837691596E+00  0.88000000000E+00 0.  1.
        -11    1    4    4    0    0  0.67522275144E-01 -0.61022417740E-01  0.17043925735E-01  0.92594544293E-01  0.51100000000E-03 0. -1.
         11    1    4    4    0    0  0.26789335472E-01 -0.21515110665E-01  0.19203205976E-01  0.39364866603E-01  0.51100000000E-03 0.  1.
</event>
<event>
 8    1  0.1118868E+005  0.1043930E+01  0.7957747E-01            NaN
         13   -1    0    0    0    0  0.00000000000E+00  0.00000000000E+00  0.74505805969E-08  0.10566000000E+00  0.10566000000E+00 0. -1.
     999900   -1    0    0    0    0 -0.00000000000E+00 -0.00000000000E+00 -0.74505805969E-08  0.93827000000E+00  0.93827000000E+00 0. -1.
     999902    2    1    2    0    0 -0.24621057936E-04  0.21170696979E-01 -0.11115887553E-01  0.10200184552E+01  0.10197381463E+01 0.  0.
     999903    2    3    3    0    0  0.57324194979E-01 -0.69118070877E-01 -0.91615903500E-01  0.12989419376E+00  0.20387661644E-01 0.  0.
         14    1    1    2    0    0  0.24621057936E-04 -0.21170696979E-01  0.11115887553E-01  0.23911544761E-01  0.00000000000E+00 0. -1.
     999901    1    3    3    0    0 -0.57348816037E-01  0.90288767856E-01  0.80500015947E-01  0.89012426148E+00  0.88000000000E+00 0. -1.
        -11    1    4    4    0    0  0.94608425579E-02 -0.25373199542E-01 -0.30467361416E-01  0.40765525013E-01  0.51100000000E-03 0.  1.
         11    1    4    4    0    0  0.47863352421E-01 -0.43744871335E-01 -0.61148542084E-01  0.89128668750E-01  0.51100000000E-03 0. -1.
</event>
<event>
 8    1  0.1118868E+005  0.1043930E+01  0.7957747E-01            NaN
         13   -1    0    0    0    0  0.00000000000E+00  0.00000000000E+00  0.74505805969E-08  0.10566000000E+00  0.10566000000E+00 0. -1.
     999900   -1    0    0    0    0 -0.00000000000E+00 -0.00000000000E+00 -0.74505805969E-08  0.93827000000E+00  0.93827000000E+00 0.  1.
     999902    2    1    2    0    0  0.10961226156E-01 -0.16051442660E-02 -0.21817118658E-01  0.10194614154E+01  0.10191677319E+01 0.  0.
     999903    2    3    3    0    0  0.93191222475E-01  0.80171160095E-01  0.37045135804E-01  0.12990315351E+00  0.19760271968E-01 0.  0.
         14    1    1    2    0    0 -0.10961226156E-01  0.16051442660E-02  0.21817118658E-01  0.24468584624E-01  0.00000000000E+00 0. -1.
     999901    1    3    3    0    0 -0.82229996319E-01 -0.81776304361E-01 -0.58862254462E-01  0.88955826186E+00  0.88000000000E+00 0.  1.
        -11    1    4    4    0    0  0.47094890315E-01  0.41033698582E-01  0.29100276336E-01  0.68911394681E-01  0.51100000000E-03 0. -1.
         11    1    4    4    0    0  0.46096332160E-01  0.39137461513E-01  0.79448594681E-02  0.60991758831E-01  0.51100000000E-03 0.  1.
</event>
<event>
 8    1  0.1118868E+005  0.1043930E+01  0.7957747E-01            NaN
         13   -1    0    0    0    0  0.00000000000E+00  0.00000000000E+00  0.74505805969E-08  0.10566000000E+00  0.10566000000E+00 0.  1.
     999900   -1    0    0    0    0 -0.00000000000E+00 -0.00000000000E+00 -0.74505805969E-08  0.93827000000E+00  0.93827000000E+00 0. -1.
     999902    2    1    2    0    0 -0.19509379346E-01  0.14996684118E-02 -0.13299470098E-01  0.10202711583E+01  0.10199968116E+01 0.  0.
     999903    2    3    3    0    0  0.46512933281E-01  0.94823274660E-01 -0.74465767790E-01  0.13077154768E+00  0.20028497930E-01 0.  0.
         14    1    1    2    0    0  0.19509379346E-01 -0.14996684118E-02  0.13299470098E-01  0.23658841745E-01  0.00000000000E+00 0.  1.
     999901    1    3    3    0    0 -0.66022312627E-01 -0.93323606249E-01  0.61166297692E-01  0.88949961058E+00  0.88000000000E+00 0. -1.
        -11    1    4    4    0    0  0.13547490018E-01  0.50317238766E-01 -0.36087348413E-01  0.63387039995E-01  0.51100000000E-03 0.  1.
         11    1    4    4    0    0  0.32965443263E-01  0.44506035894E-01 -0.38378419376E-01  0.67384507681E-01  0.51100000000E-03 0. -1.
</event>
<event>
 8    1  0.1118868E+005  0.1043930E+01  0.7957747E-01            NaN
         13   -1    0    0    0    0  0.00000000000E+00  0.00000000000E+00  0.74505805969E-08  0.10566000000E+00  0.10566000000E+00 0.  1.
     999900   -1    0    0    0    0 -0.00000000000E+00 -0.00000000000E+00 -0.74505805969E-08  0.93827000000E+00  0.93827000000E+00 0.  1.
     999902    2    1    2    0    0 -0.13979658645E-01 -0.56368438442E-02  0.17822076581E-01  0.10205883788E+01  0.10203214237E+01 0.  0.
     999903    2    3    3    0    0 -0.35535926444E-01  0.91911033274E-01 -0.81397283508E-01  0.12939550274E+00  0.20180145212E-01 0.  0.
         14    1    1    2    0    0  0.13979658645E-01  0.56368438442E-02 -0.17822076581E-01  0.23341621152E-01  0.00000000000E+00 0. -1.
     999901    1    3    3    0    0  0.21556267799E-01 -0.97547877118E-01  0.99219360089E-01  0.89119287611E+00  0.88000000000E+00 0. -1.
        -11    1    4    4    0    0 -0.28155892377E-01  0.51796590297E-01 -0.56189370403E-01  0.81444137353E-01  0.51100000000E-03 0. -1.
         11    1    4    4    0    0 -0.73800340661E-02  0.40114442977E-01 -0.25207913104E-01  0.47951365385E-01  0.51100000000E-03 0.  1.
</event>
<event>
 8    1  0.1328771E+005  0.1043930E+01  0.7957747E-01            NaN
         13   -1    0    0    0    0  0.00000000000E+00  0.00000000000E+00  0.74505805969E-08  0.10566000000E+00  0.10566000000E+00 0.  1.
     999900   -1    0    0    0    0 -0.00000000000E+00 -0.00000000000E+00 -0.74505805969E-08  0.93827000000E+00  0.93827000000E+00 0.  1.
     999902    2    1    2    0    0  0.98215664150E-02  0.17095530044E-02  0.21757561008E-01  0.10199972359E+01  0.10197164233E+01 0.  0.
     999903    2    3    3    0    0 -0.82287285869E-01 -0.69045312396E-01 -0.66653951798E-01  0.12797319625E+00  0.19898167974E-01 0.  0.
         14    1    1    2    0    0 -0.98215664150E-02 -0.17095530044E-02 -0.21757561008E-01  0.23932764139E-01  0.00000000000E+00 0. -1.
     999901    1    3    3    0    0  0.92108852284E-01  0.70754865400E-01  0.88411512806E-01  0.89202403961E+00  0.88000000000E+00 0.  1.
        -11    1    4    4    0    0 -0.29258094418E-01 -0.36683205096E-01 -0.24928479617E-01  0.53135523354E-01  0.51100000000E-03 0.  1.
         11    1    4    4    0    0 -0.53029191451E-01 -0.32362107300E-01 -0.41725472181E-01  0.74837672896E-01  0.51100000000E-03 0. -1.
</event>
<event>
 8    1  0.1118868E+005  0.1043930E+01  0.7957747E-01            NaN
         13   -1    0    0    0    0  0.00000000000E+00  0.00000000000E+00  0.74505805969E-08  0.10566000000E+00  0.10566000000E+00 0.  1.
     999900   -1    0    0    0    0 -0.00000000000E+00 -0.00000000000E+00 -0.74505805969E-08  0.93827000000E+00  0.93827000000E+00 0.  1.
     999902    2    1    2    0    0  0.19129926356E-01  0.16484060683E-01 -0.55208678702E-03  0.10186716719E+01  0.10183584791E+01 0.  0.
     999903    2    3    3    0    0  0.92879975778E-01  0.85495518789E-01  0.34075907612E-01  0.13221764086E+00  0.19600087782E-01 0.  0.
         14    1    1    2    0    0 -0.19129926356E-01 -0.16484060683E-01  0.55208678702E-03  0.25258328108E-01  0.00000000000E+00 0.  1.
     999901    1    3    3    0    0 -0.73750049422E-01 -0.69011458106E-01 -0.34627994399E-01  0.88645403103E+00  0.88000000000E+00 0.  1.
        -11    1    4    4    0    0  0.75143476529E-01  0.61543374084E-01  0.19635957993E-01  0.99095715981E-01  0.51100000000E-03 0.  1.
         11    1    4    4    0    0  0.17736499249E-01  0.23952144705E-01  0.14439949619E-01  0.33121924877E-01  0.51100000000E-03 0. -1.
</event>
<event>
 8    1  0.1118868E+005  0.1043930E+01  0.7957747E-01            NaN
         13   -1    0    0    0    0  0.00000000000E+00  0.00000000000E+00  0.74505805969E-08  0.10566000000E+00  0.10566000000E+00 0. -1.
     999900   -1    0    0    0    0 -0.00000000000E+00 -0.00000000000E+00 -0.74505805969E-08  0.93827000000E+00  0.93827000000E+00 0. -1.
     999902    2    1    2    0    0 -0.33158530220E-02  0.20101359701E-01 -0.22994159016E-02  0.10234276378E+01  0.10232222549E+01 0.  0.
     999903    2    3    3    0    0 -0.32106880897E-01  0.10909192699E+00  0.70849805410E-01  0.13545294618E+00  0.19897370837E-01 0.  0.
         14    1    1    2    0    0  0.33158530220E-02 -0.20101359701E-01  0.22994159016E-02  0.20502362220E-01  0.00000000000E+00 0. -1.
     999901    1    3    3    0    0  0.28791027875E-01 -0.88990567286E-01 -0.73149221312E-01  0.88797469160E+00  0.88000000000E+00 0. -1.
        -11    1    4    4    0    0 -0.22408433714E-01  0.63826611782E-01  0.31187439003E-01  0.74490883641E-01  0.51100000000E-03 0.  1.
         11    1    4    4    0    0 -0.96984471826E-02  0.45265315205E-01  0.39662366408E-01  0.60962062534E-01  0.51100000000E-03 0. -1.
</event>
<event>
 8    1  0.1118868E+005  0.1043930E+01  0.7957747E-01            NaN
         13   -1    0    0    0    0  0.00000000000E+00  0.00000000000E+00  0.74505805969E-08  0.10566000000E+00  0.10566000000E+00 0. -1.
     999900   -1    0    0    0    0 -0.00000000000E+00 -0.00000000000E+00 -0.74505805969E-08  0.93827000000E+00  0.93827000000E+00 0.  1.
     999902    2    1    2    0    0  0.71328768596E-02 -0.57629668527E-02 -0.21616322955E-01  0.10204490474E+01  0.10201788584E+01 0.  0.
     999903    2    3    3    0    0 -0.12043619607E+00  0.43034349950E-01  0.57512441197E-02  0.12949224131E+00  0.19450736523E-01 0.  0.
         14    1    1    2    0    0 -0.71328768596E-02  0.57629668527E-02  0.21616322955E-01  0.23480952649E-01  0.00000000000E+00 0. -1.
     999901    1    3    3    0    0  0.12756907293E+00 -0.48797316802E-01 -0.27367567075E-01  0.89095680604E+00  0.88000000000E+00 0. -1.
        -11    1    4    4    0    0 -0.27498738146E-01  0.90770436451E-02 -0.68029709391E-02  0.29750879912E-01  0.51100000000E-03 0.  1.
         11    1    4    4    0    0 -0.92937457927E-01  0.33957306304E-01  0.12554215059E-01  0.99741361401E-01  0.51100000000E-03 0. -1.
</event>
<event>
 8    1  0.1118868E+005  0.1043930E+01  0.7957747E-01            NaN
         13   -1    0    0    0    0  0.00000000000E+00  0.00000000000E+00  0.74505805969E-08  0.10566000000E+00  0.10566000000E+00 0. -1.
     999900   -1    0    0    0    0 -0.00000000000E+00 -0.00000000000E+00 -0.74505805969E-08  0.93827000000E+00  0.93827000000E+00 0.  1.
     999902    2    1    2    0    0  0.16909792327E-02 -0.12954456626E-01 -0.20716484771E-01  0.10194381626E+01  0.10191439139E+01 0.  0.
     999903    2    3    3    0    0  0.47948531863E-01 -0.12061303969E+00 -0.65441655174E-02  0.13155811085E+00  0.20448554421E-01 0.  0.
         14    1    1    2    0    0 -0.16909792327E-02  0.12954456626E-01  0.20716484771E-01  0.24491837385E-01  0.00000000000E+00 0. -1.
     999901    1    3    3    0    0 -0.46257552630E-01  0.10765858306E+00 -0.14172319253E-01  0.88788005176E+00  0.88000000000E+00 0. -1.
        -11    1    4    4    0    0  0.30705527495E-01 -0.52014614732E-01 -0.71172831235E-02  0.60821594886E-01  0.51100000000E-03 0. -1.
         11    1    4    4    0    0  0.17243004368E-01 -0.68598424959E-01  0.57311760607E-03  0.70736515968E-01  0.51100000000E-03 0.  1.
</event>
<event>
 8    1  0.1118868E+005  0.1043930E+01  0.7957747E-01            NaN
         13   -1    0    0    0    0  0.00000000000E+00  0.00000000000E+00  0.74505805969E-08  0.10566000000E+00  0.10566000000E+00 0.  1.
     999900   -1    0    0    0    0 -0.00000000000E+00 -0.00000000000E+00 -0.74505805969E-08  0.93827000000E+00  0.93827000000E+00 0.  1.
     999902    2    1    2    0    0  0.10065078477E-01  0.20384224885E-01 -0.60517902617E-02  0.10204045543E+01  0.10201333285E+01 0.  0.
     999903    2    3    3    0    0  0.56199294806E-01  0.29330566760E-01  0.11351191238E+00  0.13107678464E+00  0.16659121657E-01 0.  0.
         14    1    1    2    0    0 -0.10065078477E-01 -0.20384224885E-01  0.60517902617E-02  0.23525445676E-01  0.00000000000E+00 0. -1.
     999901    1    3    3    0    0 -0.46134216329E-01 -0.89463418747E-02 -0.11956370264E+00  0.88932776969E+00  0.88000000000E+00 0.  1.
        -11    1    4    4    0    0  0.15223975317E-01  0.18885179902E-02  0.18594257901E-01  0.24111065355E-01  0.51100000000E-03 0.  1.
         11    1    4    4    0    0  0.40975319489E-01  0.27442048769E-01  0.94917654482E-01  0.10696571928E+00  0.51100000000E-03 0. -1.
</event>
<event>
 7    1  0.2940186E+005  0.1043930E+01  0.7957747E-01            NaN
         13   -1    0    0    0    0  0.00000000000E+00  0.00000000000E+00  0.74505805969E-08  0.10566000000E+00  0.10566000000E+00 0. -1.
     999900   -1    0    0    0    0 -0.00000000000E+00 -0.00000000000E+00 -0.74505805969E-08  0.93827000000E+00  0.93827000000E+00 0.  1.
     999903    2    1    2    0    0  0.34082553182E-02  0.10032642813E+00  0.38881134581E-01  0.10953598528E+00  0.20233167322E-01 0.  0.
         14    1    1    2    0    0 -0.21462296035E-01  0.70887123579E-02 -0.41974619379E-01  0.47673353836E-01  0.00000000000E+00 0.  1.
     999901    1    1    2    0    0  0.18054040717E-01 -0.10741514048E+00  0.30934847978E-02  0.88672066088E+00  0.88000000000E+00 0. -1.
        -11    1    3    3    0    0  0.11701676077E-01  0.53857387637E-01  0.18773993204E-01  0.58226036855E-01  0.51100000000E-03 0.  1.
         11    1    3    3    0    0 -0.82934207588E-02  0.46469040490E-01  0.20107141377E-01  0.51309948424E-01  0.51100000000E-03 0. -1.
</event>
<event>
 8    1  0.1118868E+005  0.1043930E+01  0.7957747E-01            NaN
         13   -1    0    0    0    0  0.00000000000E+00  0.00000000000E+00  0.74505805969E-08  0.10566000000E+00  0.10566000000E+00 0. -1.
     999900   -1    0    0    0    0 -0.00000000000E+00 -0.00000000000E+00 -0.74505805969E-08  0.93827000000E+00  0.93827000000E+00 0.  1.
     999902    2    1    2    0    0 -0.64260786586E-02  0.18213826953E-01 -0.14148021268E-01  0.10199883107E+01  0.10197072862E+01 0.  0.
     999903    2    3    3    0    0  0.67059719866E-01 -0.10725524294E+00 -0.32051375754E-02  0.12798920939E+00  0.19242443903E-01 0.  0.
         14    1    1    2    0    0  0.64260786586E-02 -0.18213826953E-01  0.14148021268E-01  0.23941689268E-01  0.00000000000E+00 0. -1.
     999901    1    3    3    0    0 -0.73485798525E-01  0.12546906989E+00 -0.10942883693E-01  0.89199910134E+00  0.88000000000E+00 0.  1.
        -11    1    4    4    0    0  0.62132195398E-01 -0.86041001832E-01 -0.15594770787E-02  0.10614215369E+00  0.51100000000E-03 0.  1.
         11    1    4    4    0    0  0.49275244684E-02 -0.21214241109E-01 -0.16456604967E-02  0.21847055699E-01  0.51100000000E-03 0. -1.
</event>
<event>
 8    1  0.1118868E+005  0.1043930E+01  0.7957747E-01            NaN
         13   -1    0    0    0    0  0.00000000000E+00  0.00000000000E+00  0.74505805969E-08  0.10566000000E+00  0.10566000000E+00 0.  1.
     999900   -1    0    0    0    0 -0.00000000000E+00 -0.00000000000E+00 -0.74505805969E-08  0.93827000000E+00  0.93827000000E+00 0.  1.
     999902    2    1    2    0    0 -0.68207970412E-02 -0.21232796414E-01 -0.10182124121E-01  0.10194140752E+01  0.10191192404E+01 0.  0.
     999903    2    3    3    0    0 -0.12492359388E+00  0.24292875600E-01  0.16964839953E-01  0.12994355009E+00  0.20036773768E-01 0.  0.
         14    1    1    2    0    0  0.68207970412E-02  0.21232796414E-01  0.10182124121E-01  0.24515924773E-01  0.00000000000E+00 0.  1.
     999901    1    3    3    0    0  0.11810279684E+00 -0.45525672014E-01 -0.27146964074E-01  0.88947052514E+00  0.88000000000E+00 0. -1.
        -11    1    4    4    0    0 -0.54668219613E-02 -0.28918118376E-02  0.20054085900E-02  0.65216181024E-02  0.51100000000E-03 0.  1.
         11    1    4    4    0    0 -0.11945677192E+00  0.27184687438E-01  0.14959431363E-01  0.12342193199E+00  0.51100000000E-03 0. -1.
</event>
<event>
 8    1  0.1118868E+005  0.1043930E+01  0.7957747E-01            NaN
         13   -1    0    0    0    0  0.00000000000E+00  0.00000000000E+00  0.74505805969E-08  0.10566000000E+00  0.10566000000E+00 0. -1.
     999900   -1    0    0    0    0 -0.00000000000E+00 -0.00000000000E+00 -0.74505805969E-08  0.93827000000E+00  0.93827000000E+00 0. -1.
     999902    2    1    2    0    0 -0.28854753335E-02  0.21227162731E-01  0.12425244820E-01  0.10191650022E+01  0.10188640717E+01 0.  0.
     999903    2    3    3    0    0  0.32295909712E-02 -0.95514118862E-01  0.83624977666E-01  0.12858355014E+00  0.20179576710E-01 0.  0.
         14    1    1    2    0    0  0.28854753335E-02 -0.21227162731E-01 -0.12425244820E-01  0.24764997766E-01  0.00000000000E+00 0.  1.
     999901    1    3    3    0    0 -0.61150663047E-02  0.11674128159E+00 -0.71199732846E-01  0.89058145210E+00  0.88000000000E+00 0. -1.
        -11    1    4    4    0    0  0.30777705633E-03 -0.21895773037E-01  0.31352359971E-01  0.38245930507E-01  0.51100000000E-03 0. -1.
         11    1    4    4    0    0  0.29218139149E-02 -0.73618345825E-01  0.52272617695E-01  0.90337619629E-01  0.51100000000E-03 0.  1.
</event>
<event>
 8    1  0.1118868E+005  0.1043930E+01  0.7957747E-01            NaN
         13   -1    0    0    0    0  0.00000000000E+00  0.00000000000E+00  0.74505805969E-08  0.10566000000E+00  0.10566000000E+00 0.  1.
     999900   -1    0    0    0    0 -0.00000000000E+00 -0.00000000000E+00 -0.74505805969E-08  0.93827000000E+00  0.93827000000E+00 0.  1.
     999902    2    1    2    0    0 -0.12895060405E-01 -0.10936159871E-01  0.15361176105E-01  0.10210860094E+01  0.10208304417E+01 0.  0.
     999903    2    3    3    0    0 -0.17835912343E-01 -0.77547721077E-01  0.10581126528E+00  0.13393172138E+00  0.20246316194E-01 0.  0.
         14    1    1    2    0    0  0.12895060405E-01  0.10936159871E-01 -0.15361176105E-01  0.22843990608E-01  0.00000000000E+00 0.  1.
     999901    1    3    3    0    0  0.49408519379E-02  0.66611561206E-01 -0.90450089172E-01  0.88715428801E+00  0.88000000000E+00 0.  1.
        -11    1    4    4    0    0 -0.97903863050E-02 -0.48653063464E-01  0.49318158685E-01  0.69967950845E-01  0.51100000000E-03 0.  1.
         11    1    4    4    0    0 -0.80455260375E-02 -0.28894657613E-01  0.56493106592E-01  0.63963770536E-01  0.51100000000E-03 0. -1.
</event>
<event>
 8    1  0.1118868E+005  0.1043930E+01  0.7957747E-01            NaN
         13   -1    0    0    0    0  0.00000000000E+00  0.00000000000E+00  0.74505805969E-08  0.10566000000E+00  0.10566000000E+00 0.  1.
     999900   -1    0    0    0    0 -0.00000000000E+00 -0.00000000000E+00 -0.74505805969E-08  0.93827000000E+00  0.93827000000E+00 0.  1.
     999902    2    1    2    0    0  0.19058577376E-01 -0.13310942127E-01  0.14228480620E-02  0.10206397650E+01  0.10203739975E+01 0.  0.
     999903    2    3    3    0    0 -0.11125403265E-01 -0.90105894174E-01  0.93713998199E-01  0.13197436463E+00  0.19800825665E-01 0.  0.
         14    1    1    2    0    0 -0.19058577376E-01  0.13310942127E-01 -0.14228480620E-02  0.23290235046E-01  0.00000000000E+00 0. -1.
     999901    1    3    3    0    0  0.30183980641E-01  0.76794952048E-01 -0.92291150137E-01  0.88866540033E+00  0.88000000000E+00 0.  1.
        -11    1    4    4    0    0  0.52588526020E-02 -0.17637847507E-01  0.15172031113E-01  0.23857930431E-01  0.51100000000E-03 0. -1.
         11    1    4    4    0    0 -0.16384255867E-01 -0.72468046668E-01  0.78541967085E-01  0.10811643419E+00  0.51100000000E-03 0.  1.
</event>
<event>
 8    1  0.1118868E+005  0.1043930E+01  0.7957747E-01            NaN
         13   -1    0    0    0    0  0.00000000000E+00  0.00000000000E+00  0.74505805969E-08  0.10566000000E+00  0.10566000000E+00 0. -1.
     999900   -1    0    0    0    0 -0.00000000000E+00 -0.00000000000E+00 -0.74505805969E-08  0.93827000000E+00  0.93827000000E+00 0. -1.
     999902    2    1    2    0    0 -0.21594240885E-02  0.13087769825E-01  0.20339112859E-01  0.10196476537E+01  0.10193584773E+01 0.  0.
     999903    2    3    3    0    0  0.11441535497E+00  0.56931281595E-01 -0.14910892949E-01  0.13017899456E+00  0.19803828400E-01 0.  0.
         14    1    1    2    0    0  0.21594240885E-02 -0.13087769825E-01 -0.20339112859E-01  0.24282346330E-01  0.00000000000E+00 0.  1.
     999901    1    3    3    0    0 -0.11657477905E+00 -0.43843511770E-01  0.35250005808E-01  0.88946865911E+00  0.88000000000E+00 0. -1.
        -11    1    4    4    0    0  0.47575217861E-01  0.14371930719E-01 -0.10610409131E-01  0.50821212599E-01  0.51100000000E-03 0.  1.
         11    1    4    4    0    0  0.66840137105E-01  0.42559350877E-01 -0.43004838183E-02  0.79357781958E-01  0.51100000000E-03 0. -1.
</event>
<event>
 8    1  0.1118868E+005  0.1043930E+01  0.7957747E-01            NaN
         13   -1    0    0    0    0  0.00000000000E+00  0.00000000000E+00  0.74505805969E-08  0.10566000000E+00  0.10566000000E+00 0. -1.
     999900   -1    0    0    0    0 -0.00000000000E+00 -0.00000000000E+00 -0.74505805969E-08  0.93827000000E+00  0.93827000000E+00 0. -1.
     999902    2    1    2    0    0 -0.20800906267E-01  0.10606101803E-01 -0.38883305742E-02  0.10202596343E+01  0.10199850171E+01 0.  0.
     999903    2    3    3    0    0 -0.18510414615E-02 -0.82254690923E-01  0.97943470444E-01  0.12933206156E+00  0.19094454971E-01 0.  0.
         14    1    1    2    0    0  0.20800906267E-01 -0.10606101803E-01  0.38883305742E-02  0.23670365685E-01  0.00000000000E+00 0. -1.
     999901    1    3    3    0    0 -0.18949864806E-01  0.92860792726E-01 -0.10183180102E+00  0.89092757276E+00  0.88000000000E+00 0. -1.
        -11    1    4    4    0    0  0.53706236405E-02 -0.70153722641E-01  0.81568841080E-01  0.10772244592E+00  0.51100000000E-03 0.  1.
         11    1    4    4    0    0 -0.72216651020E-02 -0.12100968282E-01  0.16374629364E-01  0.21609615638E-01  0.51100000000E-03 0. -1.
</event>
<event>
 8    1  0.1118868E+005  0.1043930E+01  0.7957747E-01            NaN
         13   -1    0    0    0    0  0.00000000000E+00  0.00000000000E+00  0.74505805969E-08  0.10566000000E+00  0.10566000000E+00 0.  1.
     999900   -1    0    0    0    0 -0.00000000000E+00 -0.00000000000E+00 -0.74505805969E-08  0.93827000000E+00  0.93827000000E+00 0.  1.
     999902    2    1    2    0    0  0.41376875130E-02  0.24046899322E-01  0.72567463103E-03  0.10195189282E+01  0.10192266404E+01 0.  0.
     999903    2    3    3    0    0  0.98843146987E-01 -0.33263792362E-01 -0.74033325487E-01  0.12943884887E+00  0.19925730260E-01 0.  0.
         14    1    1    2    0    0 -0.41376875130E-02 -0.24046899322E-01 -0.72567463103E-03  0.24411071845E-01  0.00000000000E+00 0.  1.
     999901    1    3    3    0    0 -0.94705459474E-01  0.57310691683E-01  0.74759000118E-01  0.89008007928E+00  0.88000000000E+00 0. -1.
        -11    1    4    4    0    0  0.10338498130E-01 -0.83115152704E-03 -0.14819426127E-02  0.10489644005E-01  0.51100000000E-03 0. -1.
         11    1    4    4    0    0  0.88504648857E-01 -0.32432640835E-01 -0.72551382874E-01  0.11894920487E+00  0.51100000000E-03 0.  1.
</event>
<event>
 8    1  0.1118868E+005  0.1043930E+01  0.7957747E-01            NaN
         13   -1    0    0    0    0  0.00000000000E+00  0.00000000000E+00  0.74505805969E-08  0.10566000000E+00  0.10566000000E+00 0. -1.
     999900   -1    0    0    0    0 -0.00000000000E+00 -0.00000000000E+00 -0.74505805969E-08  0.93827000000E+00  0.93827000000E+00 0.  1.
     999902    2    1    2    0    0 -0.88269894752E-02 -0.21148082455E-01 -0.10558523671E-01  0.10186982827E+01  0.10183857578E+01 0.  0.
     999903    2    3    3    0    0  0.12262583865E+00  0.27466404714E-01 -0.57844852536E-02  0.12759446956E+00  0.21339838374E-01 0.  0.
         14    1    1    2    0    0  0.88269894752E-02  0.21148082455E-01  0.10558523671E-01  0.25231717279E-01  0.00000000000E+00 0. -1.
     999901    1    3    3    0    0 -0.13145282812E+00 -0.48614487169E-01 -0.47740384179E-02  0.89110381316E+00  0.88000000000E+00 0. -1.
        -11    1    4    4    0    0  0.40890764790E-01  0.10882606946E-02 -0.79765747903E-02  0.41678841429E-01  0.51100000000E-03 0.  1.
         11    1    4    4    0    0  0.81735073856E-01  0.26378144019E-01  0.21920895367E-02  0.85915628134E-01  0.51100000000E-03 0. -1.
</event>
<event>
 8    1  0.1118868E+005  0.1043930E+01  0.7957747E-01            NaN
         13   -1    0    0    0    0  0.00000000000E+00  0.00000000000E+00  0.74505805969E-08  0.10566000000E+00  0.10566000000E+00 0. -1.
     999900   -1    0    0    0    0 -0.00000000000E+00 -0.00000000000E+00 -0.74505805969E-08  0.93827000000E+00  0.93827000000E+00 0.  1.
     999902    2    1    2    0    0  0.71616702338E-02  0.16956234863E-01 -0.14118286767E-01  0.10207323828E+01  0.10204687491E+01 0.  0.
     999903    2    3    3    0    0 -0.37868108994E-01  0.62455377601E-01 -0.10883805421E+00  0.13333749477E+00  0.24464210515E-01 0.  0.
         14    1    1    2    0    0 -0.71616702338E-02 -0.16956234863E-01  0.14118286767E-01  0.23197617173E-01  0.00000000000E+00 0. -1.
     999901    1    3    3    0    0  0.45029779227E-01 -0.45499142738E-01  0.94719767446E-01  0.88739488806E+00  0.88000000000E+00 0. -1.
        -11    1    4    4    0    0 -0.18903896990E-01  0.13466981265E-01 -0.45232327327E-01  0.50842319599E-01  0.51100000000E-03 0.  1.
         11    1    4    4    0    0 -0.18964212004E-01  0.48988396336E-01 -0.63605726887E-01  0.82495175170E-01  0.51100000000E-03 0. -1.
</event>
<event>
 8    1  0.1118868E+005  0.1043930E+01  0.7957747E-01            NaN
         13   -1    0    0    0    0  0.00000000000E+00  0.00000000000E+00  0.74505805969E-08  0.10566000000E+00  0.10566000000E+00 0.  1.
     999900   -1    0    0    0    0 -0.00000000000E+00 -0.00000000000E+00 -0.74505805969E-08  0.93827000000E+00  0.93827000000E+00 0. -1.
     999902    2    1    2    0    0  0.10674889468E-01 -0.31110147117E-02  0.14509763464E-01  0.10256498218E+01  0.10254869049E+01 0.  0.
     999903    2    3    3    0    0  0.11084982361E+00  0.70606825743E-01  0.31460214755E-01  0.13674225903E+00  0.20873261715E-01 0.  0.
         14    1    1    2    0    0 -0.10674889468E-01  0.31110147117E-02 -0.14509763464E-01  0.18280178157E-01  0.00000000000E+00 0. -1.
     999901    1    3    3    0    0 -0.10017493415E+00 -0.73717840455E-01 -0.16950451291E-01  0.88890756282E+00  0.88000000000E+00 0.  1.
        -11    1    4    4    0    0  0.14068521921E-01  0.17743445239E-01  0.29784867242E-02  0.22844816965E-01  0.51100000000E-03 0. -1.
         11    1    4    4    0    0  0.96781301692E-01  0.52863380504E-01  0.28481728031E-01  0.11389744206E+00  0.51100000000E-03 0.  1.
</event>
<event>
 8    1  0.1118868E+005  0.1043930E+01  0.7957747E-01            NaN
         13   -1    0    0    0    0  0.00000000000E+00  0.00000000000E+00  0.74505805969E-08  0.10566000000E+00  0.10566000000E+00 0. -1.
     999900   -1    0    0    0    0 -0.00000000000E+00 -0.00000000000E+00 -0.74505805969E-08  0.93827000000E+00  0.93827000000E+00 0. -1.
     999902    2    1    2    0    0  0.79783230931E-02 -0.16119986567E-01  0.10363472835E-01  0.10231716481E+01  0.10229610512E+01 0.  0.
     999903    2    3    3    0    0  0.12445430066E+00 -0.28641127483E-01  0.38390173750E-01  0.13496619418E+00  0.20805792367E-01 0.  0.
         14    1    1    2    0    0 -0.79783230931E-02  0.16119986567E-01 -0.10363472835E-01  0.20758351945E-01  0.00000000000E+00 0.  1.
     999901    1    3    3    0    0 -0.11647597757E+00  0.12521140917E-01 -0.28026700915E-01  0.88820545387E+00  0.88000000000E+00 0.  1.
        -11    1    4    4    0    0  0.82958753835E-01 -0.25668828386E-01  0.18227587693E-01  0.88733024645E-01  0.51100000000E-03 0.  1.
         11    1    4    4    0    0  0.41495546824E-01 -0.29722990969E-02  0.20162586056E-01  0.46233169539E-01  0.51100000000E-03 0. -1.
</event>
<event>
 8    1  0.1118868E+005  0.1043930E+01  0.7957747E-01            NaN
         13   -1    0    0    0    0  0.00000000000E+00  0.00000000000E+00  0.74505805969E-08  0.10566000000E+00  0.10566000000E+00 0. -1.
     999900   -1    0    0    0    0 -0.00000000000E+00 -0.00000000000E+00 -0.74505805969E-08  0.93827000000E+00  0.93827000000E+00 0.  1.
     999902    2    1    2    0    0 -0.20124293567E-02  0.23638974279E-01  0.34225218017E-02  0.10199599221E+01  0.10196782228E+01 0.  0.
     999903    2    3    3    0    0 -0.75813699135E-01 -0.71810374145E-01 -0.71934365741E-01  0.12853641671E+00  0.21038313515E-01 0.  0.
         14    1    1    2    0    0  0.20124293567E-02 -0.23638974279E-01 -0.34225218017E-02  0.23970077855E-01  0.00000000000E+00 0.  1.
     999901    1    3    3    0    0  0.73801269778E-01  0.95449348425E-01  0.75356887543E-01  0.89142350543E+00  0.88000000000E+00 0. -1.
        -11    1    4    4    0    0 -0.32715812749E-01 -0.38690928965E-01 -0.45464405625E-01  0.68077791443E-01  0.51100000000E-03 0.  1.
         11    1    4    4    0    0 -0.43097886386E-01 -0.33119445181E-01 -0.26469960117E-01  0.60458625270E-01  0.51100000000E-03 0. -1.
</event>
<event>
 8    1  0.1118868E+005  0.1043930E+01  0.7957747E-01            NaN
         13   -1    0    0    0    0  0.00000000000E+00  0.00000000000E+00  0.74505805969E-08  0.10566000000E+00  0.10566000000E+00 0. -1.
     999900   -1    0    0    0    0 -0.00000000000E+00 -0.00000000000E+00 -0.74505805969E-08  0.93827000000E+00  0.93827000000E+00 0.  1.
     999902    2    1    2    0    0 -0.91295176034E-02  0.96236907361E-02  0.22957350553E-01  0.10174157876E+01  0.10170702441E+01 0.  0.
     999903    2    3    3    0    0 -0.11331078293E+00 -0.10940661556E-02 -0.55384655267E-01  0.12774951520E+00  0.20296504282E-01 0.  0.
         14    1    1    2    0    0  0.91295176034E-02 -0.96236907361E-02 -0.22957350553E-01  0.26514212405E-01  0.00000000000E+00 0. -1.
     999901    1    3    3    0    0  0.10418126533E+00  0.10717756892E-01  0.78342005820E-01  0.88966627239E+00  0.88000000000E+00 0. -1.
        -11    1    4    4    0    0 -0.84979792035E-01 -0.61247946552E-02 -0.33318347510E-01  0.91484706731E-01  0.51100000000E-03 0. -1.
         11    1    4    4    0    0 -0.28330990896E-01  0.50307284997E-02 -0.22066307757E-01  0.36264808470E-01  0.51100000000E-03 0.  1.
</event>
<event>
 8    1  0.1118868E+005  0.1043930E+01  0.7957747E-01            NaN
         13   -1    0    0    0    0  0.00000000000E+00  0.00000000000E+00  0.74505805969E-08  0.10566000000E+00  0.10566000000E+00 0.  1.
     999900   -1    0    0    0    0 -0.00000000000E+00 -0.00000000000E+00 -0.74505805969E-08  0.93827000000E+00  0.93827000000E+00 0.  1.
     999902    2    1    2    0    0 -0.83545365222E-02 -0.11859935609E-01 -0.18639921248E-01  0.10203100293E+01  0.10200365939E+01 0.  0.
     999903    2    3    3    0    0  0.11692354318E-01 -0.69786660042E-01 -0.11129292460E+00  0.13332527051E+00  0.19560767448E-01 0.  0.
         14    1    1    2    0    0  0.83545365222E-02  0.11859935609E-01  0.18639921248E-01  0.23619970730E-01  0.00000000000E+00 0.  1.
     999901    1    3    3    0    0 -0.20046890840E-01  0.57926724433E-01  0.92653003348E-01  0.88698475876E+00  0.88000000000E+00 0. -1.
        -11    1    4    4    0    0 -0.44052154411E-02 -0.31445501738E-01 -0.45316032847E-01  0.55335607493E-01  0.51100000000E-03 0. -1.
         11    1    4    4    0    0  0.16097569759E-01 -0.38341158304E-01 -0.65976891750E-01  0.77989663021E-01  0.51100000000E-03 0.  1.
</event>
<event>
 8    1  0.1118868E+005  0.1043930E+01  0.7957747E-01            NaN
         13   -1    0    0    0    0  0.00000000000E+00  0.00000000000E+00  0.74505805969E-08  0.10566000000E+00  0.10566000000E+00 0.  1.
     999900   -1    0    0    0    0 -0.00000000000E+00 -0.00000000000E+00 -0.74505805969E-08  0.93827000000E+00  0.93827000000E+00 0.  1.
     999902    2    1    2    0    0  0.14637537174E-01  0.14630272985E-01 -0.12145946124E-01  0.10199336172E+01  0.10196512919E+01 0.  0.
     999903    2    3    3    0    0 -0.29079328016E-01  0.18165936171E-01  0.12273072024E+00  0.12857769479E+00  0.17140167812E-01 0.  0.
         14    1    1    2    0    0 -0.14637537174E-01 -0.14630272985E-01  0.12145946124E-01  0.23996382840E-01  0.00000000000E+00 0.  1.
     999901    1    3    3    0    0  0.43716865190E-01 -0.35356631858E-02 -0.13487666636E+00  0.89135592237E+00  0.88000000000E+00 0.  1.
        -11    1    4    4    0    0 -0.12961405684E-01  0.14784229502E-01  0.87516723215E-01  0.89699550960E-01  0.51100000000E-03 0. -1.
         11    1    4    4    0    0 -0.16117922332E-01  0.33817066690E-02  0.35213997023E-01  0.38878143829E-01  0.51100000000E-03 0.  1.
</event>
<event>
 8    1  0.1118868E+005  0.1043930E+01  0.7957747E-01            NaN
         13   -1    0    0    0    0  0.00000000000E+00  0.00000000000E+00  0.74505805969E-08  0.10566000000E+00  0.10566000000E+00 0. -1.
     999900   -1    0    0    0    0 -0.00000000000E+00 -0.00000000000E+00 -0.74505805969E-08  0.93827000000E+00  0.93827000000E+00 0.  1.
     999902    2    1    2    0    0 -0.15480220732E-01  0.45652462367E-02  0.18246227629E-01  0.10195701246E+01  0.10192790763E+01 0.  0.
     999903    2    3    3    0    0 -0.51463180843E-01  0.48387128034E-02  0.12092497786E+00  0.13286962614E+00  0.18963521762E-01 0.  0.
         14    1    1    2    0    0  0.15480220732E-01 -0.45652462367E-02 -0.18246227629E-01  0.24359875406E-01  0.00000000000E+00 0.  1.
     999901    1    3    3    0    0  0.35982960111E-01 -0.27346656667E-03 -0.10267875023E+00  0.88670049845E+00  0.88000000000E+00 0.  1.
        -11    1    4    4    0    0 -0.27746469335E-01  0.11857237921E-01  0.61674139892E-01  0.68661643616E-01  0.51100000000E-03 0. -1.
         11    1    4    4    0    0 -0.23716711508E-01 -0.70185251180E-02  0.59250837967E-01  0.64207982528E-01  0.51100000000E-03 0.  1.
</event>
<event>
 8    1  0.1118868E+005  0.1043930E+01  0.7957747E-01            NaN
         13   -1    0    0    0    0  0.00000000000E+00  0.00000000000E+00  0.74505805969E-08  0.10566000000E+00  0.10566000000E+00 0. -1.
     999900   -1    0    0    0    0 -0.00000000000E+00 -0.00000000000E+00 -0.74505805969E-08  0.93827000000E+00  0.93827000000E+00 0. -1.
     999902    2    1    2    0    0  0.17400521450E-01 -0.33811194287E-03  0.17021436391E-01  0.10195861761E+01  0.10192955159E+01 0.  0.
     999903    2    3    3    0    0  0.11283538817E+00 -0.12053587563E-01 -0.62579307265E-01  0.13077722892E+00  0.17589772877E-01 0.  0.
         14    1    1    2    0    0 -0.17400521450E-01  0.33811194287E-03 -0.17021436391E-01  0.24343823923E-01  0.00000000000E+00 0. -1.
     999901    1    3    3    0    0 -0.95434866719E-01  0.11715475620E-01  0.79600743656E-01  0.88880894716E+00  0.88000000000E+00 0.  1.
        -11    1    4    4    0    0  0.49357290781E-01 -0.13677948741E-01 -0.25080971550E-01  0.57031085295E-01  0.51100000000E-03 0.  1.
         11    1    4    4    0    0  0.63478097388E-01  0.16243611774E-02 -0.37498335716E-01  0.73746143626E-01  0.51100000000E-03 0. -1.
</event>
<event>
 8    1  0.1118868E+005  0.1043930E+01  0.7957747E-01            NaN
         13   -1    0    0    0    0  0.00000000000E+00  0.00000000000E+00  0.74505805969E-08  0.10566000000E+00  0.10566000000E+00 0.  1.
     999900   -1    0    0    0    0 -0.00000000000E+00 -0.00000000000E+00 -0.74505805969E-08  0.93827000000E+00  0.93827000000E+00 0.  1.
     999902    2    1    2    0    0 -0.11257035629E-01  0.55219172473E-02  0.20910106796E-01  0.10195487575E+01  0.10192571922E+01 0.  0.
     999903    2    3    3    0    0 -0.33856063193E-01  0.11821915413E+00 -0.37681255291E-01  0.13014202770E+00  0.19876341581E-01 0.  0.
         14    1    1    2    0    0  0.11257035629E-01 -0.55219172473E-02 -0.20910106796E-01  0.24381242533E-01  0.00000000000E+00 0. -1.
     999901    1    3    3    0    0  0.22599027565E-01 -0.11269723688E+00  0.58591362086E-01  0.88940672977E+00  0.88000000000E+00 0. -1.
        -11    1    4    4    0    0 -0.16124228143E-01  0.36285261828E-01 -0.20014214220E-01  0.44468425326E-01  0.51100000000E-03 0. -1.
         11    1    4    4    0    0 -0.17731835051E-01  0.81933892303E-01 -0.17667041070E-01  0.85673602372E-01  0.51100000000E-03 0.  1.
</event>
<event>
 8    1  0.1118868E+005  0.1043930E+01  0.7957747E-01            NaN
         13   -1    0    0    0    0  0.00000000000E+00  0.00000000000E+00  0.74505805969E-08  0.10566000000E+00  0.10566000000E+00 0. -1.
     999900   -1    0    0    0    0 -0.00000000000E+00 -0.00000000000E+00 -0.74505805969E-08  0.93827000000E+00  0.93827000000E+00 0.  1.
     999902    2    1    2    0    0 -0.85116661925E-02  0.18749824357E-01  0.12436926310E-01  0.10198742001E+01  0.10195904582E+01 0.  0.
     999903    2    3    3    0    0 -0.36814633666E-01  0.49906522440E-01 -0.11255476145E+00  0.13004572231E+00  0.19933322173E-01 0.  0.
         14    1    1    2    0    0  0.85116661925E-02 -0.18749824357E-01 -0.12436926310E-01  0.24055799942E-01  0.00000000000E+00 0.  1.
     999901    1    3    3    0    0  0.28302967474E-01 -0.31156698082E-01  0.12499168776E+00  0.88982847775E+00  0.88000000000E+00 0. -1.
        -11    1    4    4    0    0 -0.12912749518E-01  0.82234505238E-02 -0.41783781914E-01  0.44502918900E-01  0.51100000000E-03 0. -1.
         11    1    4    4    0    0 -0.23901884148E-01  0.41683071916E-01 -0.70770979533E-01  0.85542803410E-01  0.51100000000E-03 0.  1.
</event>
<event>
 8    1  0.1118868E+005  0.1043930E+01  0.7957747E-01            NaN
         13   -1    0    0    0    0  0.00000000000E+00  0.00000000000E+00  0.74505805969E-08  0.10566000000E+00  0.10566000000E+00 0.  1.
     999900   -1    0    0    0    0 -0.00000000000E+00 -0.00000000000E+00 -0.74505805969E-08  0.93827000000E+00  0.93827000000E+00 0.  1.
     999902    2    1    2    0    0  0.20503356632E-01  0.85764464215E-02  0.84914003650E-02  0.10201382589E+01  0.10198607847E+01 0.  0.
     999903    2    3    3    0    0  0.98933276451E-01 -0.83472742145E-01 -0.14107944353E-01  0.13158041841E+00  0.18944142752E-01 0.  0.
         14    1    1    2    0    0 -0.20503356632E-01 -0.85764464215E-02 -0.84914003650E-02  0.23791741142E-01  0.00000000000E+00 0.  1.
     999901    1    3    3    0    0 -0.78429919819E-01  0.92049188567E-01  0.22599344718E-01  0.88855784045E+00  0.88000000000E+00 0. -1.
        -11    1    4    4    0    0  0.37568508637E-01 -0.20878085785E-01 -0.78949706395E-02  0.43702162299E-01  0.51100000000E-03 0. -1.
         11    1    4    4    0    0  0.61364767815E-01 -0.62594656361E-01 -0.62129737133E-02  0.87878256112E-01  0.51100000000E-03 0.  1.
</event>
<event>
 8    1  0.1118868E+005  0.1043930E+01  0.7957747E-01            NaN
         13   -1    0    0    0    0  0.00000000000E+00  0.00000000000E+00  0.74505805969E-08  0.10566000000E+00  0.10566000000E+00 0.  1.
     999900   -1    0    0    0    0 -0.00000000000E+00 -0.00000000000E+00 -0.74505805969E-08  0.93827000000E+00  0.93827000000E+00 0.  1.
     999902    2    1    2    0    0  0.19155928087E-01 -0.96184104182E-02  0.10131401870E-01  0.10202211682E+01  0.10199456473E+01 0.  0.
     999903    2    3    3    0    0 -0.51132971001E-01 -0.84215910770E-01  0.84231633944E-01  0.13117889658E+00  0.20150295305E-01 0.  0.
         14    1    1    2    0    0 -0.19155928087E-01  0.96184104182E-02 -0.10131401870E-01  0.23708831766E-01  0.00000000000E+00 0. -1.
     999901    1    3    3    0    0  0.70288899089E-01  0.74597500351E-01 -0.74100232074E-01  0.88904227165E+00  0.88000000000E+00 0.  1.
        -11    1    4    4    0    0 -0.48539868611E-01 -0.70827615254E-01  0.78625706939E-01  0.11642565370E+00  0.51100000000E-03 0.  1.
         11    1    4    4    0    0 -0.25931023901E-02 -0.13388295516E-01  0.56059270048E-02  0.14753242877E-01  0.51100000000E-03 0. -1.
</event>
<event>
 7    1  0.1118868E+005  0.1043930E+01  0.7957747E-01            NaN
         13   -1    0    0    0    0  0.00000000000E+00  0.00000000000E+00  0.74505805969E-08  0.10566000000E+00  0.10566000000E+00 0.  1.
     999900   -1    0    0    0    0 -0.00000000000E+00 -0.00000000000E+00 -0.74505805969E-08  0.93827000000E+00  0.93827000000E+00 0. -1.
     999903    2    1    2    0    0  0.75199751124E-01 -0.80145746003E-01  0.17683491187E-01  0.11406887208E+00  0.24913019599E-01 0.  0.
         14    1    1    2    0    0  0.71078455648E-02  0.17882289448E-01 -0.39091735262E-01  0.43571338173E-01  0.00000000000E+00 0. -1.
     999901    1    1    2    0    0 -0.82307596689E-01  0.62263456555E-01  0.21408244075E-01  0.88628978975E+00  0.88000000000E+00 0.  1.
        -11    1    3    3    0    0  0.54168439172E-01 -0.41410560348E-01  0.15557820854E-01  0.69938267217E-01  0.51100000000E-03 0.  1.
         11    1    3    3    0    0  0.21031311952E-01 -0.38735185655E-01  0.21256703327E-02  0.44130604862E-01  0.51100000000E-03 0. -1.
</event>
<event>
 8    1  0.1118868E+005  0.1043930E+01  0.7957747E-01            NaN
         13   -1    0    0    0    0  0.00000000000E+00  0.00000000000E+00  0.74505805969E-08  0.10566000000E+00  0.10566000000E+00 0. -1.
     999900   -1    0    0    0    0 -0.00000000000E+00 -0.00000000000E+00 -0.74505805969E-08  0.93827000000E+00  0.93827000000E+00 0.  1.
     999902    2    1    2    0    0 -0.29666788319E-02 -0.19981370798E-01  0.85514809806E-02  0.10219940890E+01  0.10217586476E+01 0.  0.
     999903    2    3    3    0    0 -0.25573540883E-01 -0.12941327369E+00  0.18719093535E-01  0.13486963784E+00  0.20919210063E-01 0.  0.
         14    1    1    2    0    0  0.29666788319E-02  0.19981370798E-01 -0.85514809806E-02  0.21935910950E-01  0.00000000000E+00 0. -1.
     999901    1    3    3    0    0  0.22606862052E-01  0.10943190289E+00 -0.10167612555E-01  0.88712445121E+00  0.88000000000E+00 0. -1.
        -11    1    4    4    0    0 -0.27897023676E-01 -0.96090915125E-01  0.11796987931E-01  0.10075285577E+00  0.51100000000E-03 0.  1.
         11    1    4    4    0    0  0.23234827928E-02 -0.33322358562E-01  0.69221056047E-02  0.34116782079E-01  0.51100000000E-03 0. -1.
</event>
<event>
 8    1  0.1118868E+005  0.1043930E+01  0.7957747E-01            NaN
         13   -1    0    0    0    0  0.00000000000E+00  0.00000000000E+00  0.74505805969E-08  0.10566000000E+00  0.10566000000E+00 0.  1.
     999900   -1    0    0    0    0 -0.00000000000E+00 -0.00000000000E+00 -0.74505805969E-08  0.93827000000E+00  0.93827000000E+00 0. -1.
     999902    2    1    2    0    0  0.52138988122E-02 -0.16940491134E-02 -0.23532079965E-01  0.10197677706E+01  0.10194814822E+01 0.  0.
     999903    2    3    3    0    0 -0.24592881104E-01 -0.43285609760E-01 -0.12136958198E+00  0.13286840828E+00  0.21094659884E-01 0.  0.
         14    1    1    2    0    0 -0.52138988122E-02  0.16940491134E-02  0.23532079965E-01  0.24162229424E-01  0.00000000000E+00 0. -1.
     999901    1    3    3    0    0  0.29806779917E-01  0.41591560646E-01  0.97837502012E-01  0.88689936230E+00  0.88000000000E+00 0.  1.
        -11    1    4    4    0    0 -0.27633082380E-01 -0.32299976882E-01 -0.91471357706E-01  0.10086697254E+00  0.51100000000E-03 0.  1.
         11    1    4    4    0    0  0.30402012751E-02 -0.10985632878E-01 -0.29898224272E-01  0.32001435735E-01  0.51100000000E-03 0. -1.
</event>
<event>
 8    1  0.1118868E+005  0.1043930E+01  0.7957747E-01            NaN
         13   -1    0    0    0    0  0.00000000000E+00  0.00000000000E+00  0.74505805969E-08  0.10566000000E+00  0.10566000000E+00 0.  1.
     999900   -1    0    0    0    0 -0.00000000000E+00 -0.00000000000E+00 -0.74505805969E-08  0.93827000000E+00  0.93827000000E+00 0. -1.
     999902    2    1    2    0    0  0.19509103461E-01 -0.70074716134E-02  0.99670673637E-02  0.10209288651E+01  0.10206697288E+01 0.  0.
     999903    2    3    3    0    0  0.10386706863E+00  0.31991700885E-01 -0.72542424891E-01  0.13219661177E+00  0.20042551811E-01 0.  0.
         14    1    1    2    0    0 -0.19509103461E-01  0.70074716134E-02 -0.99670673637E-02  0.23001134931E-01  0.00000000000E+00 0. -1.
     999901    1    3    3    0    0 -0.84357965169E-01 -0.38999172499E-01  0.82509492255E-01  0.88873225330E+00  0.88000000000E+00 0. -1.
        -11    1    4    4    0    0  0.82142747687E-01  0.33481996207E-01 -0.59406388316E-01  0.10676073792E+00  0.51100000000E-03 0. -1.
         11    1    4    4    0    0  0.21724320943E-01 -0.14902953222E-02 -0.13136036575E-01  0.25435873849E-01  0.51100000000E-03 0.  1.
</event>
<event>
 8    1  0.1118868E+005  0.1043930E+01  0.7957747E-01            NaN
         13   -1    0    0    0    0  0.00000000000E+00  0.00000000000E+00  0.74505805969E-08  0.10566000000E+00  0.10566000000E+00 0. -1.
     999900   -1    0    0    0    0 -0.00000000000E+00 -0.00000000000E+00 -0.74505805969E-08  0.93827000000E+00  0.93827000000E+00 0.  1.
     999902    2    1    2    0    0  0.17458109254E-01  0.69348414613E-02 -0.14340470746E-01  0.10202968304E+01  0.10200230857E+01 0.  0.
     999903    2    3    3    0    0  0.80925456609E-01 -0.89763112830E-01  0.45599568056E-01  0.13070624658E+00  0.19961371090E-01 0.  0.
         14    1    1    2    0    0 -0.17458109254E-01 -0.69348414613E-02  0.14340470746E-01  0.23633169614E-01  0.00000000000E+00 0. -1.
     999901    1    3    3    0    0 -0.63467347355E-01  0.96697954291E-01 -0.59940038801E-01  0.88959058381E+00  0.88000000000E+00 0.  1.
        -11    1    4    4    0    0  0.20684492309E-01 -0.37085743024E-01  0.16064804209E-01  0.45404180567E-01  0.51100000000E-03 0.  1.
         11    1    4    4    0    0  0.60240964300E-01 -0.52677369806E-01  0.29534763847E-01  0.85302066012E-01  0.51100000000E-03 0. -1.
</event>
<event>
 8    1  0.1118868E+005  0.1043930E+01  0.7957747E-01            NaN
         13   -1    0    0    0    0  0.00000000000E+00  0.00000000000E+00  0.74505805969E-08  0.10566000000E+00  0.10566000000E+00 0. -1.
     999900   -1    0    0    0    0 -0.00000000000E+00 -0.00000000000E+00 -0.74505805969E-08  0.93827000000E+00  0.93827000000E+00 0. -1.
     999902    2    1    2    0    0  0.12361413675E-01  0.11056895961E-01 -0.16806877480E-01  0.10203179135E+01  0.10200446628E+01 0.  0.
     999903    2    3    3    0    0 -0.82608781474E-01  0.94487910111E-01  0.28229557651E-01  0.13014469861E+00  0.19711892802E-01 0.  0.
         14    1    1    2    0    0 -0.12361413675E-01 -0.11056895961E-01  0.16806877480E-01  0.23612086459E-01  0.00000000000E+00 0. -1.
     999901    1    3    3    0    0  0.94970195149E-01 -0.83431014150E-01 -0.45036435131E-01  0.89017321493E+00  0.88000000000E+00 0. -1.
        -11    1    4    4    0    0 -0.48687188414E-01  0.53441436402E-01  0.26058253403E-01  0.76848702864E-01  0.51100000000E-03 0. -1.
         11    1    4    4    0    0 -0.33921593060E-01  0.41046473708E-01  0.21713042474E-02  0.53295995748E-01  0.51100000000E-03 0.  1.
</event>
<event>
 8    1  0.1118868E+005  0.1043930E+01  0.7957747E-01            NaN
         13   -1    0    0    0    0  0.00000000000E+00  0.00000000000E+00  0.74505805969E-08  0.10566000000E+00  0.10566000000E+00 0. -1.
     999900   -1    0    0    0    0 -0.00000000000E+00 -0.00000000000E+00 -0.74505805969E-08  0.93827000000E+00  0.93827000000E+00 0.  1.
     999902    2    1    2    0    0 -0.26681638659E-02 -0.59765486668E-02 -0.22593401341E-01  0.10204076698E+01  0.10201365167E+01 0.  0.
     999903    2    3    3    0    0 -0.11996171134E+00 -0.43126180099E-01  0.21328363204E-01  0.13076336293E+00  0.19836290264E-01 0.  0.
         14    1    1    2    0    0  0.26681638659E-02  0.59765486668E-02  0.22593401341E-01  0.23522330168E-01  0.00000000000E+00 0. -1.
     999901    1    3    3    0    0  0.11729354747E+00  0.37149631432E-01 -0.43921764545E-01  0.88964430690E+00  0.88000000000E+00 0.  1.
        -11    1    4    4    0    0 -0.10404621417E+00 -0.40727651047E-01  0.12589332409E-01  0.11244157885E+00  0.51100000000E-03 0.  1.
         11    1    4    4    0    0 -0.15915497172E-01 -0.23985290517E-02  0.87390307952E-02  0.18321784085E-01  0.51100000000E-03 0. -1.
</event>
<event>
 8    1  0.1118868E+005  0.1043930E+01  0.7957747E-01            NaN
         13   -1    0    0    0    0  0.00000000000E+00  0.00000000000E+00  0.74505805969E-08  0.10566000000E+00  0.10566000000E+00 0. -1.
     999900   -1    0    0    0    0 -0.00000000000E+00 -0.00000000000E+00 -0.74505805969E-08  0.93827000000E+00  0.93827000000E+00 0.  1.
     999902    2    1    2    0    0  0.18379846467E-01  0.18920239161E-01 -0.57040491572E-02  0.10169424032E+01  0.10165842419E+01 0.  0.
     999903    2    3    3    0    0  0.73870484732E-01 -0.70953169836E-01  0.72709536918E-01  0.12716426730E+00  0.19821031651E-01 0.  0.
         14    1    1    2    0    0 -0.18379846467E-01 -0.18920239161E-01  0.57040491572E-02  0.26987596834E-01  0.00000000000E+00 0.  1.
     999901    1    3    3    0    0 -0.55490638265E-01  0.89873408997E-01 -0.78413586075E-01  0.88977813586E+00  0.88000000000E+00 0.  1.
        -11    1    4    4    0    0  0.47817532297E-01 -0.51607965229E-01  0.39310862268E-01  0.80594686446E-01  0.51100000000E-03 0. -1.
         11    1    4    4    0    0  0.26052952435E-01 -0.19345204606E-01  0.33398674650E-01  0.46569580857E-01  0.51100000000E-03 0.  1.
</event>
<event>
 8    1  0.1118868E+005  0.1043930E+01  0.7957747E-01            NaN
         13   -1    0    0    0    0  0.00000000000E+00  0.00000000000E+00  0.74505805969E-08  0.10566000000E+00  0.10566000000E+00 0. -1.
     999900   -1    0    0    0    0 -0.00000000000E+00 -0.00000000000E+00 -0.74505805969E-08  0.93827000000E+00  0.93827000000E+00 0. -1.
     999902    2    1    2    0    0  0.72434680647E-02 -0.31926997256E-02 -0.31253153967E-01  0.10116899505E+01  0.10111761148E+01 0.  0.
     999903    2    3    3    0    0  0.88869577563E-02  0.10734055333E+00  0.51250361734E-01  0.12094468318E+00  0.20001110067E-01 0.  0.
         14    1    1    2    0    0 -0.72434680647E-02  0.31926997256E-02  0.31253153967E-01  0.32240049536E-01  0.00000000000E+00 0. -1.
     999901    1    3    3    0    0 -0.16434896915E-02 -0.11053325306E+00 -0.82503515702E-01  0.89074526729E+00  0.88000000000E+00 0. -1.
        -11    1    4    4    0    0 -0.14496846771E-02  0.64591329371E-01  0.38234361170E-01  0.75075088482E-01  0.51100000000E-03 0. -1.
         11    1    4    4    0    0  0.10336642433E-01  0.42749223959E-01  0.13016000565E-01  0.45869594696E-01  0.51100000000E-03 0.  1.
</event>
<event>
 8    1  0.1118868E+005  0.1043930E+01  0.7957747E-01            NaN
         13   -1    0    0    0    0  0.00000000000E+00  0.00000000000E+00  0.74505805969E-08  0.10566000000E+00  0.10566000000E+00 0.  1.
     999900   -1    0    0    0    0 -0.00000000000E+00 -0.00000000000E+00 -0.74505805969E-08  0.93827000000E+00  0.93827000000E+00 0. -1.
     999902    2    1    2    0    0  0.99053865246E-02  0.13614040738E-01 -0.39220021677E-02  0.10266429850E+01  0.10264974319E+01 0.  0.
     999903    2    3    3    0    0 -0.86953018221E-01  0.98313770860E-01 -0.32627503569E-01  0.13682300281E+00  0.20725713262E-01 0.  0.
         14    1    1    2    0    0 -0.99053865246E-02 -0.13614040738E-01  0.39220021677E-02  0.17287015024E-01  0.00000000000E+00 0. -1.
     999901    1    3    3    0    0  0.96858404745E-01 -0.84699730122E-01  0.28705501402E-01  0.88981998217E+00  0.88000000000E+00 0.  1.
        -11    1    4    4    0    0 -0.74903318966E-01  0.90022114919E-01 -0.34455445743E-01  0.12207345014E+00  0.51100000000E-03 0. -1.
         11    1    4    4    0    0 -0.12049699255E-01  0.82916559414E-02  0.18279421740E-02  0.14749552670E-01  0.51100000000E-03 0.  1.
</event>
<event>
 8    1  0.1118868E+005  0.1043930E+01  0.7957747E-01            NaN
         13   -1    0    0    0    0  0.00000000000E+00  0.00000000000E+00  0.74505805969E-08  0.10566000000E+00  0.10566000000E+00 0.  1.
     999900   -1    0    0    0    0 -0.00000000000E+00 -0.00000000000E+00 -0.74505805969E-08  0.93827000000E+00  0.93827000000E+00 0.  1.
     999902    2    1    2    0    0  0.30892355155E-02  0.20370786033E-01  0.13248193700E-01  0.10194345527E+01  0.10191402163E+01 0.  0.
     999903    2    3    3    0    0  0.15304876871E-01  0.90602684908E-01  0.93950515151E-01  0.13287118434E+00  0.19620564797E-01 0.  0.
         14    1    1    2    0    0 -0.30892355155E-02 -0.20370786033E-01 -0.13248193700E-01  0.24495447250E-01  0.00000000000E+00 0. -1.
     999901    1    3    3    0    0 -0.12215641356E-01 -0.70231898874E-01 -0.80702321452E-01  0.88656336841E+00  0.88000000000E+00 0.  1.
        -11    1    4    4    0    0  0.20058668431E-01  0.72024220382E-01  0.75412990686E-01  0.10619425025E+00  0.51100000000E-03 0.  1.
         11    1    4    4    0    0 -0.47537915594E-02  0.18578464526E-01  0.18537524466E-01  0.26676934094E-01  0.51100000000E-03 0. -1.
</event>
<event>
 8    1  0.1118868E+005  0.1043930E+01  0.7957747E-01            NaN
         13   -1    0    0    0    0  0.00000000000E+00  0.00000000000E+00  0.74505805969E-08  0.10566000000E+00  0.10566000000E+00 0. -1.
     999900   -1    0    0    0    0 -0.00000000000E+00 -0.00000000000E+00 -0.74505805969E-08  0.93827000000E+00  0.93827000000E+00 0.  1.
     999902    2    1    2    0    0  0.80790954497E-03 -0.94793473968E-02 -0.21840014377E-01  0.10201078050E+01  0.10198296117E+01 0.  0.
     999903    2    3    3    0    0 -0.56227851150E-01 -0.39299999124E-01 -0.11236522889E+00  0.13312575126E+00  0.19760055880E-01 0.  0.
         14    1    1    2    0    0 -0.80790954497E-03  0.94793473968E-02  0.21840014377E-01  0.23822194963E-01  0.00000000000E+00 0. -1.
     999901    1    3    3    0    0  0.57035760695E-01  0.29820651727E-01  0.90525214510E-01  0.88698205378E+00  0.88000000000E+00 0. -1.
        -11    1    4    4    0    0 -0.23796771465E-01 -0.79404864015E-02 -0.52263457108E-01  0.57974716268E-01  0.51100000000E-03 0. -1.
         11    1    4    4    0    0 -0.32431079685E-01 -0.31359512723E-01 -0.60101771779E-01  0.75151034987E-01  0.51100000000E-03 0.  1.
</event>
<event>
 8    1  0.1118868E+005  0.1043930E+01  0.7957747E-01            NaN
         13   -1    0    0    0    0  0.00000000000E+00  0.00000000000E+00  0.74505805969E-08  0.10566000000E+00  0.10566000000E+00 0. -1.
     999900   -1    0    0    0    0 -0.00000000000E+00 -0.00000000000E+00 -0.74505805969E-08  0.93827000000E+00  0.93827000000E+00 0. -1.
     999902    2    1    2    0    0 -0.18608898830E-01  0.98194151850E-02  0.99776135819E-02  0.10206434201E+01  0.10203777370E+01 0.  0.
     999903    2    3    3    0    0  0.13033496878E-01 -0.16398256267E-01  0.12857807747E+00  0.13173696972E+00  0.19583981633E-01 0.  0.
         14    1    1    2    0    0  0.18608898830E-01 -0.98194151850E-02 -0.99776135819E-02  0.23286579891E-01  0.00000000000E+00 0.  1.
     999901    1    3    3    0    0 -0.31642395707E-01  0.26217671452E-01 -0.11860046389E+00  0.88890645039E+00  0.88000000000E+00 0. -1.
        -11    1    4    4    0    0 -0.50551133523E-03 -0.14282480597E-01  0.79649906685E-01  0.80923504309E-01  0.51100000000E-03 0. -1.
         11    1    4    4    0    0  0.13539008213E-01 -0.21157756702E-02  0.48928170785E-01  0.50813465414E-01  0.51100000000E-03 0.  1.
</event>
<event>
 8    1  0.1118868E+005  0.1043930E+01  0.7957747E-01            NaN
         13   -1    0    0    0    0  0.00000000000E+00  0.00000000000E+00  0.74505805969E-08  0.10566000000E+00  0.10566000000E+00 0.  1.
     999900   -1    0    0    0    0 -0.00000000000E+00 -0.00000000000E+00 -0.74505805969E-08  0.93827000000E+00  0.93827000000E+00 0.  1.
     999902    2    1    2    0    0  0.85884744250E-02 -0.14727911869E-01 -0.17616358719E-01  0.10194145074E+01  0.10191196832E+01 0.  0.
     999903    2    3    3    0    0 -0.10968407107E+00 -0.66648665022E-01 -0.10201742886E-01  0.12995448239E+00  0.17648001055E-01 0.  0.
         14    1    1    2    0    0 -0.85884744250E-02  0.14727911869E-01  0.17616358719E-01  0.24515492560E-01  0.00000000000E+00 0.  1.
     999901    1    3    3    0    0  0.11827254549E+00  0.51920753153E-01 -0.74146158327E-02  0.88946002505E+00  0.88000000000E+00 0. -1.
        -11    1    4    4    0    0 -0.81631183979E-01 -0.46062840569E-01 -0.14915723411E-03  0.93732165493E-01  0.51100000000E-03 0. -1.
         11    1    4    4    0    0 -0.28052887089E-01 -0.20585824453E-01 -0.10052585652E-01  0.36222316902E-01  0.51100000000E-03 0.  1.
</event>
<event>
 8    1  0.1118868E+005  0.1043930E+01  0.7957747E-01            NaN
         13   -1    0    0    0    0  0.00000000000E+00  0.00000000000E+00  0.74505805969E-08  0.10566000000E+00  0.10566000000E+00 0. -1.
     999900   -1    0    0    0    0 -0.00000000000E+00 -0.00000000000E+00 -0.74505805969E-08  0.93827000000E+00  0.93827000000E+00 0.  1.
     999902    2    1    2    0    0 -0.20884920884E-02  0.65305358326E-02 -0.22106593352E-01  0.10207845649E+01  0.10205221295E+01 0.  0.
     999903    2    3    3    0    0  0.80917744246E-01  0.91411128563E-01  0.41689377349E-01  0.13052354912E+00  0.19867484308E-01 0.  0.
         14    1    1    2    0    0  0.20884920884E-02 -0.65305358326E-02  0.22106593352E-01  0.23145435124E-01  0.00000000000E+00 0. -1.
     999901    1    3    3    0    0 -0.83006236335E-01 -0.84880592730E-01 -0.63795970701E-01  0.89026101575E+00  0.88000000000E+00 0.  1.
        -11    1    4    4    0    0  0.52654959447E-01  0.72778407426E-01  0.30411491371E-01  0.94838606433E-01  0.51100000000E-03 0.  1.
         11    1    4    4    0    0  0.28262784800E-01  0.18632721137E-01  0.11277885978E-01  0.35684942689E-01  0.51100000000E-03 0. -1.
</event>
<event>
 8    1  0.1118868E+005  0.1043930E+01  0.7957747E-01            NaN
         13   -1    0    0    0    0  0.00000000000E+00  0.00000000000E+00  0.74505805969E-08  0.10566000000E+00  0.10566000000E+00 0. -1.
     999900   -1    0    0    0    0 -0.00000000000E+00 -0.00000000000E+00 -0.74505805969E-08  0.93827000000E+00  0.93827000000E+00 0. -1.
     999902    2    1    2    0    0  0.22990869938E-01 -0.96920445878E-03  0.16782616612E-02  0.10208575918E+01  0.10205968287E+01 0.  0.
     999903    2    3    3    0    0  0.46066463613E-02 -0.12736826383E+00  0.23539483330E-01  0.13136750479E+00  0.21434043402E-01 0.  0.
         14    1    1    2    0    0 -0.22990869938E-01  0.96920445878E-03 -0.16782616612E-02  0.23072408196E-01  0.00000000000E+00 0. -1.
     999901    1    3    3    0    0  0.18384223577E-01  0.12639905937E+00 -0.21861221669E-01  0.88949008702E+00  0.88000000000E+00 0. -1.
        -11    1    4    4    0    0  0.12160913828E-01 -0.91793604138E-01  0.13038861774E-01  0.93510569580E-01  0.51100000000E-03 0.  1.
         11    1    4    4    0    0 -0.75542674666E-02 -0.35574659693E-01  0.10500621557E-01  0.37856935208E-01  0.51100000000E-03 0. -1.
</event>
<event>
 8    1  0.1118868E+005  0.1043930E+01  0.7957747E-01            NaN
         13   -1    0    0    0    0  0.00000000000E+00  0.00000000000E+00  0.74505805969E-08  0.10566000000E+00  0.10566000000E+00 0. -1.
     999900   -1    0    0    0    0 -0.00000000000E+00 -0.00000000000E+00 -0.74505805969E-08  0.93827000000E+00  0.93827000000E+00 0. -1.
     999902    2    1    2    0    0 -0.14668987970E-01  0.14039558901E-01  0.11388632024E-01  0.10206493350E+01  0.10203837884E+01 0.  0.
     999903    2    3    3    0    0 -0.56654578241E-01  0.11456884593E+00  0.33518117546E-01  0.13365517413E+00  0.20111680063E-01 0.  0.
         14    1    1    2    0    0  0.14668987970E-01 -0.14039558901E-01 -0.11388632024E-01  0.23280664973E-01  0.00000000000E+00 0.  1.
     999901    1    3    3    0    0  0.41985590271E-01 -0.10052928702E+00 -0.22129485522E-01  0.88699416090E+00  0.88000000000E+00 0. -1.
        -11    1    4    4    0    0 -0.42431131979E-01  0.98266191590E-01  0.22522890850E-01  0.10938092660E+00  0.51100000000E-03 0. -1.
         11    1    4    4    0    0 -0.14223446263E-01  0.16302654335E-01  0.10995226696E-01  0.24274247528E-01  0.51100000000E-03 0.  1.
</event>
<event>
 8    1  0.1118868E+005  0.1043930E+01  0.7957747E-01            NaN
         13   -1    0    0    0    0  0.00000000000E+00  0.00000000000E+00  0.74505805969E-08  0.10566000000E+00  0.10566000000E+00 0.  1.
     999900   -1    0    0    0    0 -0.00000000000E+00 -0.00000000000E+00 -0.74505805969E-08  0.93827000000E+00  0.93827000000E+00 0. -1.
     999902    2    1    2    0    0  0.15688414537E-01 -0.14071644051E-01  0.10342292122E-01  0.10204544697E+01  0.10201844070E+01 0.  0.
     999903    2    3    3    0    0  0.10705529750E+00 -0.69545476838E-02  0.76969535491E-01  0.13319027571E+00  0.17496790971E-01 0.  0.
         14    1    1    2    0    0 -0.15688414537E-01  0.14071644051E-01 -0.10342292122E-01  0.23475530310E-01  0.00000000000E+00 0. -1.
     999901    1    3    3    0    0 -0.91366882958E-01 -0.71170963676E-02 -0.66627243370E-01  0.88726419398E+00  0.88000000000E+00 0. -1.
        -11    1    4    4    0    0  0.55471332062E-01 -0.59954831957E-02  0.29668885469E-01  0.63194290766E-01  0.51100000000E-03 0. -1.
         11    1    4    4    0    0  0.51583965434E-01 -0.95906448816E-03  0.47300650022E-01  0.69995984943E-01  0.51100000000E-03 0.  1.
</event>
<event>
 8    1  0.1118868E+005  0.1043930E+01  0.7957747E-01            NaN
         13   -1    0    0    0    0  0.00000000000E+00  0.00000000000E+00  0.74505805969E-08  0.10566000000E+00  0.10566000000E+00 0. -1.
     999900   -1    0    0    0    0 -0.00000000000E+00 -0.00000000000E+00 -0.74505805969E-08  0.93827000000E+00  0.93827000000E+00 0.  1.
     999902    2    1    2    0    0  0.25188287372E-02 -0.29333942584E-01 -0.71055864266E-03  0.10144795403E+01  0.10140519750E+01 0.  0.
     999903    2    3    3    0    0 -0.82913805395E-01 -0.92020974491E-01  0.24676338282E-01  0.12775923853E+00  0.19259867303E-01 0.  0.
         14    1    1    2    0    0 -0.25188287372E-02  0.29333942584E-01  0.71055864266E-03  0.29450459747E-01  0.00000000000E+00 0.  1.
     999901    1    3    3    0    0  0.85432634132E-01  0.62687031906E-01 -0.25386896925E-01  0.88672030172E+00  0.88000000000E+00 0.  1.
        -11    1    4    4    0    0 -0.30717579686E-01 -0.23146435706E-01  0.12731746415E-01  0.40517720511E-01  0.51100000000E-03 0. -1.
         11    1    4    4    0    0 -0.52196225709E-01 -0.68874538785E-01  0.11944591867E-01  0.87241518023E-01  0.51100000000E-03 0.  1.
</event>
<event>
 8    1  0.1118868E+005  0.1043930E+01  0.7957747E-01            NaN
         13   -1    0    0    0    0  0.00000000000E+00  0.00000000000E+00  0.74505805969E-08  0.10566000000E+00  0.10566000000E+00 0.  1.
     999900   -1    0    0    0    0 -0.00000000000E+00 -0.00000000000E+00 -0.74505805969E-08  0.93827000000E+00  0.93827000000E+00 0.  1.
     999902    2    1    2    0    0  0.15219351575E-01 -0.16971007256E-01  0.30680776808E-03  0.10211322396E+01  0.10208777169E+01 0.  0.
     999903    2    3    3    0    0  0.17026618586E-01 -0.22172823629E-02  0.12891854372E+00  0.13165940848E+00  0.20478936618E-01 0.  0.
         14    1    1    2    0    0 -0.15219351575E-01  0.16971007256E-01 -0.30680776808E-03  0.22797760430E-01  0.00000000000E+00 0. -1.
     999901    1    3    3    0    0 -0.18072670110E-02 -0.14753724893E-01 -0.12861173596E+00  0.88947283108E+00  0.88000000000E+00 0.  1.
        -11    1    4    4    0    0  0.50668722295E-02  0.72535636155E-02  0.78007609235E-01  0.78509461843E-01  0.51100000000E-03 0. -1.
         11    1    4    4    0    0  0.11959746356E-01 -0.94708459784E-02  0.50910934490E-01  0.53149946642E-01  0.51100000000E-03 0.  1.
</event>
<event>
 8    1  0.1390963E+005  0.1043930E+01  0.7957747E-01            NaN
         13   -1    0    0    0    0  0.00000000000E+00  0.00000000000E+00  0.74505805969E-08  0.10566000000E+00  0.10566000000E+00 0.  1.
     999900   -1    0    0    0    0 -0.00000000000E+00 -0.00000000000E+00 -0.74505805969E-08  0.93827000000E+00  0.93827000000E+00 0.  1.
     999902    2    1    2    0    0 -0.22904868555E-01 -0.83447186331E-02  0.18280665659E-02  0.10194839541E+01  0.10191908180E+01 0.  0.
     999903    2    3    3    0    0 -0.18068108420E-01  0.43245003784E-02 -0.12712602634E+00  0.12998237376E+00  0.19728990570E-01 0.  0.
         14    1    1    2    0    0  0.22904868555E-01  0.83447186331E-02 -0.18280665659E-02  0.24446045896E-01  0.00000000000E+00 0.  1.
     999901    1    3    3    0    0 -0.48367601351E-02 -0.12669219012E-01  0.12895409291E+00  0.88950158035E+00  0.88000000000E+00 0. -1.
        -11    1    4    4    0    0 -0.18817259165E-01  0.56528011451E-02 -0.66715239702E-01  0.69550181400E-01  0.51100000000E-03 0. -1.
         11    1    4    4    0    0  0.74915074529E-03 -0.13283007667E-02 -0.60410786640E-01  0.60432192358E-01  0.51100000000E-03 0.  1.
</event>
<event>
 8    1  0.1118868E+005  0.1043930E+01  0.7957747E-01            NaN
         13   -1    0    0    0    0  0.00000000000E+00  0.00000000000E+00  0.74505805969E-08  0.10566000000E+00  0.10566000000E+00 0. -1.
     999900   -1    0    0    0    0 -0.00000000000E+00 -0.00000000000E+00 -0.74505805969E-08  0.93827000000E+00  0.93827000000E+00 0. -1.
     999902    2    1    2    0    0  0.61336313805E-02  0.19459476306E-01 -0.69066292752E-02  0.10223894759E+01  0.10221625341E+01 0.  0.
     999903    2    3    3    0    0 -0.59099113717E-01  0.12620759944E-01  0.11511758424E+00  0.13155167483E+00  0.20044852841E-01 0.  0.
         14    1    1    2    0    0 -0.61336313805E-02 -0.19459476306E-01  0.69066292752E-02  0.21540524134E-01  0.00000000000E+00 0. -1.
     999901    1    3    3    0    0  0.65232745098E-01  0.68387163616E-02 -0.12202421351E+00  0.89083780104E+00  0.88000000000E+00 0. -1.
        -11    1    4    4    0    0 -0.17885622074E-01  0.39267513021E-02  0.56304652605E-01  0.59209711018E-01  0.51100000000E-03 0.  1.
         11    1    4    4    0    0 -0.41213491643E-01  0.86940086420E-02  0.58812931634E-01  0.72341963811E-01  0.51100000000E-03 0. -1.
</event>
<event>
 8    1  0.1118868E+005  0.1043930E+01  0.7957747E-01            NaN
         13   -1    0    0    0    0  0.00000000000E+00  0.00000000000E+00  0.74505805969E-08  0.10566000000E+00  0.10566000000E+00 0. -1.
     999900   -1    0    0    0    0 -0.00000000000E+00 -0.00000000000E+00 -0.74505805969E-08  0.93827000000E+00  0.93827000000E+00 0.  1.
     999902    2    1    2    0    0  0.10090749341E-02 -0.22443774318E-01  0.68593854152E-02  0.10204397381E+01  0.10201693323E+01 0.  0.
     999903    2    3    3    0    0 -0.13283800735E-01 -0.93367757257E-01 -0.90773518959E-01  0.13208919820E+00  0.17712342573E-01 0.  0.
         14    1    1    2    0    0 -0.10090749341E-02  0.22443774318E-01 -0.68593854152E-02  0.23490261943E-01  0.00000000000E+00 0. -1.
     999901    1    3    3    0    0  0.14292875669E-01  0.70923982938E-01  0.97632904374E-01  0.88835053986E+00  0.88000000000E+00 0. -1.
        -11    1    4    4    0    0 -0.16361893179E-01 -0.53189623977E-01 -0.53383415353E-01  0.77116131925E-01  0.51100000000E-03 0.  1.
         11    1    4    4    0    0  0.30780924438E-02 -0.40178133279E-01 -0.37390103605E-01  0.54973066274E-01  0.51100000000E-03 0. -1.
</event>
<event>
 8    1  0.1118868E+005  0.1043930E+01  0.7957747E-01            NaN
         13   -1    0    0    0    0  0.00000000000E+00  0.00000000000E+00  0.74505805969E-08  0.10566000000E+00  0.10566000000E+00 0. -1.
     999900   -1    0    0    0    0 -0.00000000000E+00 -0.00000000000E+00 -0.74505805969E-08  0.93827000000E+00  0.93827000000E+00 0. -1.
     999902    2    1    2    0    0  0.47453595177E-02  0.17956688707E-01  0.24257565114E-01  0.10133785586E+01  0.10129179199E+01 0.  0.
     999903    2    3    3    0    0 -0.54735148176E-02  0.93629549773E-01  0.84274296761E-01  0.12803522668E+00  0.22235337236E-01 0.  0.
         14    1    1    2    0    0 -0.47453595177E-02 -0.17956688707E-01 -0.24257565114E-01  0.30551441398E-01  0.00000000000E+00 0.  1.
     999901    1    3    3    0    0  0.10218874335E-01 -0.75672861066E-01 -0.60016731648E-01  0.88534333192E+00  0.88000000000E+00 0. -1.
        -11    1    4    4    0    0 -0.45459395362E-02  0.80519272755E-01  0.60334288289E-01  0.10071994001E+00  0.51100000000E-03 0.  1.
         11    1    4    4    0    0 -0.92757528139E-03  0.13110277018E-01  0.23940008472E-01  0.27315286673E-01  0.51100000000E-03 0. -1.
</event>
<event>
 8    1  0.1118868E+005  0.1043930E+01  0.7957747E-01            NaN
         13   -1    0    0    0    0  0.00000000000E+00  0.00000000000E+00  0.74505805969E-08  0.10566000000E+00  0.10566000000E+00 0. -1.
     999900   -1    0    0    0    0 -0.00000000000E+00 -0.00000000000E+00 -0.74505805969E-08  0.93827000000E+00  0.93827000000E+00 0. -1.
     999902    2    1    2    0    0  0.15586412224E-01 -0.81887293790E-02 -0.15821137388E-01  0.10202593447E+01  0.10199847207E+01 0.  0.
     999903    2    3    3    0    0 -0.16082408450E-01  0.32238480929E-01 -0.12538846755E+00  0.13197882966E+00  0.19954452362E-01 0.  0.
         14    1    1    2    0    0 -0.15586412224E-01  0.81887293790E-02  0.15821137388E-01  0.23670655317E-01  0.00000000000E+00 0. -1.
     999901    1    3    3    0    0  0.31668820674E-01 -0.40427210308E-01  0.10956733016E+00  0.88828051503E+00  0.88000000000E+00 0.  1.
        -11    1    4    4    0    0  0.34093056271E-02  0.13435091107E-01 -0.49222323937E-01  0.51139254323E-01  0.51100000000E-03 0. -1.
         11    1    4    4    0    0 -0.19491714077E-01  0.18803389822E-01 -0.76166143613E-01  0.80839575335E-01  0.51100000000E-03 0.  1.
</event>
<event>
 8    1  0.1118868E+005  0.1043930E+01  0.7957747E-01            NaN
         13   -1    0    0    0    0  0.00000000000E+00  0.00000000000E+00  0.74505805969E-08  0.10566000000E+00  0.10566000000E+00 0.  1.
     999900   -1    0    0    0    0 -0.00000000000E+00 -0.00000000000E+00 -0.74505805969E-08  0.93827000000E+00  0.93827000000E+00 0.  1.
     999902    2    1    2    0    0 -0.17981526325E-01 -0.78558935171E-02  0.98438298268E-02  0.10219766099E+01  0.10217407890E+01 0.  0.
     999903    2    3    3    0    0  0.20224803970E-01  0.83284067639E-01 -0.96094183163E-01  0.13013072701E+00  0.18831767244E-01 0.  0.
         14    1    1    2    0    0  0.17981526325E-01  0.78558935171E-02 -0.98438298268E-02  0.21953390116E-01  0.00000000000E+00 0.  1.
     999901    1    3    3    0    0 -0.38206330295E-01 -0.91139961156E-01  0.10593801299E+00  0.89184588287E+00  0.88000000000E+00 0.  1.
        -11    1    4    4    0    0  0.35155394546E-02  0.39180427844E-01 -0.54690308186E-01  0.67370289254E-01  0.51100000000E-03 0. -1.
         11    1    4    4    0    0  0.16709264515E-01  0.44103639795E-01 -0.41403874977E-01  0.62760437761E-01  0.51100000000E-03 0.  1.
</event>
<event>
 8    1  0.1118868E+005  0.1043930E+01  0.7957747E-01            NaN
         13   -1    0    0    0    0  0.00000000000E+00  0.00000000000E+00  0.74505805969E-08  0.10566000000E+00  0.10566000000E+00 0. -1.
     999900   -1    0    0    0    0 -0.00000000000E+00 -0.00000000000E+00 -0.74505805969E-08  0.93827000000E+00  0.93827000000E+00 0.  1.
     999902    2    1    2    0    0 -0.20251651188E-01  0.10476519376E-01 -0.89715125361E-02  0.10194274517E+01  0.10191329425E+01 0.  0.
     999903    2    3    3    0    0 -0.45678186001E-02 -0.11656635494E+00 -0.50108018540E-01  0.12921506885E+00  0.24023747139E-01 0.  0.
         14    1    1    2    0    0  0.20251651188E-01 -0.10476519376E-01  0.89715125361E-02  0.24502548261E-01  0.00000000000E+00 0. -1.
     999901    1    3    3    0    0 -0.15683832588E-01  0.12704287431E+00  0.41136506004E-01  0.89021238289E+00  0.88000000000E+00 0.  1.
        -11    1    4    4    0    0  0.43266338134E-03 -0.84482231397E-01 -0.46774661718E-01  0.96568963540E-01  0.51100000000E-03 0.  1.
         11    1    4    4    0    0 -0.50004819815E-02 -0.32084123540E-01 -0.33333568220E-02  0.32646105313E-01  0.51100000000E-03 0. -1.
</event>
<event>
 8    1  0.1118868E+005  0.1043930E+01  0.7957747E-01            NaN
         13   -1    0    0    0    0  0.00000000000E+00  0.00000000000E+00  0.74505805969E-08  0.10566000000E+00  0.10566000000E+00 0.  1.
     999900   -1    0    0    0    0 -0.00000000000E+00 -0.00000000000E+00 -0.74505805969E-08  0.93827000000E+00  0.93827000000E+00 0. -1.
     999902    2    1    2    0    0 -0.12079060030E-01 -0.14059351130E-01 -0.12545664448E-01  0.10215478030E+01  0.10213025757E+01 0.  0.
     999903    2    3    3    0    0 -0.77026760771E-01  0.67398904048E-01 -0.82006120973E-01  0.13268425545E+00  0.20109043389E-01 0.  0.
         14    1    1    2    0    0  0.12079060030E-01  0.14059351130E-01  0.12545664448E-01  0.22382196985E-01  0.00000000000E+00 0.  1.
     999901    1    3    3    0    0  0.64947700741E-01 -0.81458255178E-01  0.69460456524E-01  0.88886354756E+00  0.88000000000E+00 0.  1.
        -11    1    4    4    0    0 -0.52303270419E-01  0.40036745873E-01 -0.41258232350E-01  0.77724358951E-01  0.51100000000E-03 0. -1.
         11    1    4    4    0    0 -0.24723490351E-01  0.27362158174E-01 -0.40747888623E-01  0.54959896500E-01  0.51100000000E-03 0.  1.
</event>
<event>
 8    1  0.1118868E+005  0.1043930E+01  0.7957747E-01            NaN
         13   -1    0    0    0    0  0.00000000000E+00  0.00000000000E+00  0.74505805969E-08  0.10566000000E+00  0.10566000000E+00 0.  1.
     999900   -1    0    0    0    0 -0.00000000000E+00 -0.00000000000E+00 -0.74505805969E-08  0.93827000000E+00  0.93827000000E+00 0. -1.
     999902    2    1    2    0    0  0.44586919255E-02 -0.21221401950E-01  0.10619350844E-01  0.10197846392E+01  0.10194987553E+01 0.  0.
     999903    2    3    3    0    0 -0.10263409573E+00 -0.21229515727E-01  0.75853943973E-01  0.13089521001E+00  0.19881781694E-01 0.  0.
         14    1    1    2    0    0 -0.44586919255E-02  0.21221401950E-01 -0.10619350844E-01  0.24145360771E-01  0.00000000000E+00 0. -1.
     999901    1    3    3    0    0  0.10709278766E+00  0.81137772891E-05 -0.65234593129E-01  0.88888942922E+00  0.88000000000E+00 0. -1.
        -11    1    4    4    0    0 -0.55191164343E-01 -0.22041955735E-02  0.34323386674E-01  0.65032907773E-01  0.51100000000E-03 0.  1.
         11    1    4    4    0    0 -0.47442931388E-01 -0.19025320154E-01  0.41530557299E-01  0.65862302239E-01  0.51100000000E-03 0. -1.
</event>
<event>
 8    1  0.1118868E+005  0.1043930E+01  0.7957747E-01            NaN
         13   -1    0    0    0    0  0.00000000000E+00  0.00000000000E+00  0.74505805969E-08  0.10566000000E+00  0.10566000000E+00 0. -1.
     999900   -1    0    0    0    0 -0.00000000000E+00 -0.00000000000E+00 -0.74505805969E-08  0.93827000000E+00  0.93827000000E+00 0. -1.
     999902    2    1    2    0    0  0.74910394177E-02 -0.10194465525E-01 -0.20246141871E-01  0.10200563941E+01  0.10197769845E+01 0.  0.
     999903    2    3    3    0    0  0.25178214245E-01 -0.92583687584E-01 -0.90444435606E-01  0.13324828603E+00  0.19215309481E-01 0.  0.
         14    1    1    2    0    0 -0.74910394177E-02  0.10194465525E-01  0.20246141871E-01  0.23873605918E-01  0.00000000000E+00 0.  1.
     999901    1    3    3    0    0 -0.17687174827E-01  0.82389222059E-01  0.70198293735E-01  0.88680810805E+00  0.88000000000E+00 0.  1.
        -11    1    4    4    0    0  0.10547325477E-01 -0.62718251787E-01 -0.50115537195E-01  0.80973164513E-01  0.51100000000E-03 0. -1.
         11    1    4    4    0    0  0.14630888768E-01 -0.29865435797E-01 -0.40328898411E-01  0.52275121516E-01  0.51100000000E-03 0.  1.
</event>
<event>
 8    1  0.1189482E+005  0.1043930E+01  0.7957747E-01            NaN
         13   -1    0    0    0    0  0.00000000000E+00  0.00000000000E+00  0.74505805969E-08  0.10566000000E+00  0.10566000000E+00 0.  1.
     999900   -1    0    0    0    0 -0.00000000000E+00 -0.00000000000E+00 -0.74505805969E-08  0.93827000000E+00  0.93827000000E+00 0.  1.
     999902    2    1    2    0    0 -0.26033265499E-02  0.23148601055E-01 -0.54913489869E-02  0.10199969694E+01  0.10197161505E+01 0.  0.
     999903    2    3    3    0    0  0.52900101670E-01 -0.10534680838E+00 -0.45675106606E-01  0.12802923727E+00  0.20221262060E-01 0.  0.
         14    1    1    2    0    0  0.26033265499E-02 -0.23148601055E-01  0.54913489869E-02  0.23933030599E-01  0.00000000000E+00 0.  1.
     999901    1    3    3    0    0 -0.55503428220E-01  0.12849540944E+00  0.40183757619E-01  0.89196773213E+00  0.88000000000E+00 0. -1.
        -11    1    4    4    0    0  0.22581408407E-01 -0.46245953605E-01 -0.93158743292E-02  0.52303488087E-01  0.51100000000E-03 0. -1.
         11    1    4    4    0    0  0.30318693263E-01 -0.59100854775E-01 -0.36359232276E-01  0.75725749181E-01  0.51100000000E-03 0.  1.
</event>
<event>
 8    1  0.1118868E+005  0.1043930E+01  0.7957747E-01            NaN
         13   -1    0    0    0    0  0.00000000000E+00  0.00000000000E+00  0.74505805969E-08  0.10566000000E+00  0.10566000000E+00 0.  1.
     999900   -1    0    0    0    0 -0.00000000000E+00 -0.00000000000E+00 -0.74505805969E-08  0.93827000000E+00  0.93827000000E+00 0. -1.
     999902    2    1    2    0    0 -0.21277755239E-01 -0.11704956998E-01  0.11274582107E-02  0.10196190961E+01  0.10193292310E+01 0.  0.
     999903    2    3    3    0    0 -0.76652348392E-01  0.10239698652E+00  0.14613506491E-01  0.13042425099E+00  0.20885528759E-01 0.  0.
         14    1    1    2    0    0  0.21277755239E-01  0.11704956998E-01 -0.11274582107E-02  0.24310903898E-01  0.00000000000E+00 0. -1.
     999901    1    3    3    0    0  0.55374593153E-01 -0.11410194352E+00 -0.13486048280E-01  0.88919484512E+00  0.88000000000E+00 0.  1.
        -11    1    4    4    0    0 -0.47600239755E-01  0.50219293735E-01  0.14514822916E-01  0.70701495693E-01  0.51100000000E-03 0.  1.
         11    1    4    4    0    0 -0.29052108637E-01  0.52177692783E-01  0.98683574607E-04  0.59722755293E-01  0.51100000000E-03 0. -1.
</event>
<event>
 8    1  0.1118868E+005  0.1043930E+01  0.7957747E-01            NaN
         13   -1    0    0    0    0  0.00000000000E+00  0.00000000000E+00  0.74505805969E-08  0.10566000000E+00  0.10566000000E+00 0.  1.
     999900   -1    0    0    0    0 -0.00000000000E+00 -0.00000000000E+00 -0.74505805969E-08  0.93827000000E+00  0.93827000000E+00 0. -1.
     999902    2    1    2    0    0 -0.20077439505E-01  0.39467102416E-02  0.11662704537E-01  0.10203779560E+01  0.10201061094E+01 0.  0.
     999903    2    3    3    0    0  0.63705583376E-01  0.64908569776E-01  0.91650489797E-01  0.13069599653E+00  0.20251109733E-01 0.  0.
         14    1    1    2    0    0  0.20077439505E-01 -0.39467102416E-02 -0.11662704537E-01  0.23552043986E-01  0.00000000000E+00 0. -1.
     999901    1    3    3    0    0 -0.83783022880E-01 -0.60961859534E-01 -0.79987785260E-01  0.88968195948E+00  0.88000000000E+00 0. -1.
        -11    1    4    4    0    0  0.55762100862E-01  0.48863488945E-01  0.81205000360E-01  0.10996165536E+00  0.51100000000E-03 0.  1.
         11    1    4    4    0    0  0.79434825139E-02  0.16045080830E-01  0.10445489437E-01  0.20734341173E-01  0.51100000000E-03 0. -1.
</event>
<event>
 8    1  0.1118868E+005  0.1043930E+01  0.7957747E-01            NaN
         13   -1    0    0    0    0  0.00000000000E+00  0.00000000000E+00  0.74505805969E-08  0.10566000000E+00  0.10566000000E+00 0. -1.
     999900   -1    0    0    0    0 -0.00000000000E+00 -0.00000000000E+00 -0.74505805969E-08  0.93827000000E+00  0.93827000000E+00 0.  1.
     999902    2    1    2    0    0  0.48698056538E-02  0.27559461982E-02  0.22782399802E-01  0.10204705033E+01  0.10202008136E+01 0.  0.
     999903    2    3    3    0    0 -0.31923923600E-01  0.13271008909E-01 -0.12176235293E+00  0.12785774814E+00  0.18063128029E-01 0.  0.
         14    1    1    2    0    0 -0.48698056538E-02 -0.27559461982E-02 -0.22782399802E-01  0.23459496740E-01  0.00000000000E+00 0.  1.
     999901    1    3    3    0    0  0.36793729254E-01 -0.10515062711E-01  0.14454475273E+00  0.89261275512E+00  0.88000000000E+00 0. -1.
        -11    1    4    4    0    0 -0.19897835545E-01  0.21546598800E-02 -0.89032699265E-01  0.91255953658E-01  0.51100000000E-03 0.  1.
         11    1    4    4    0    0 -0.12026088055E-01  0.11116349029E-01 -0.32729653662E-01  0.36601794485E-01  0.51100000000E-03 0. -1.
</event>
<event>
 8    1  0.1118868E+005  0.1043930E+01  0.7957747E-01            NaN
         13   -1    0    0    0    0  0.00000000000E+00  0.00000000000E+00  0.74505805969E-08  0.10566000000E+00  0.10566000000E+00 0.  1.
     999900   -1    0    0    0    0 -0.00000000000E+00 -0.00000000000E+00 -0.74505805969E-08  0.93827000000E+00  0.93827000000E+00 0. -1.
     999902    2    1    2    0    0 -0.76183764675E-02 -0.59650613745E-03  0.21904846381E-01  0.10207304790E+01  0.10204668015E+01 0.  0.
     999903    2    3    3    0    0 -0.84559537130E-01  0.57655696136E-01  0.83015848701E-01  0.13334791445E+00  0.20384811377E-01 0.  0.
         14    1    1    2    0    0  0.76183764675E-02  0.59650613745E-03 -0.21904846381E-01  0.23199520998E-01  0.00000000000E+00 0. -1.
     999901    1    3    3    0    0  0.76941160663E-01 -0.58252202273E-01 -0.61111002319E-01  0.88738256456E+00  0.88000000000E+00 0. -1.
        -11    1    4    4    0    0 -0.21807380455E-01  0.65203958034E-02  0.24618883292E-01  0.33532490800E-01  0.51100000000E-03 0. -1.
         11    1    4    4    0    0 -0.62752156675E-01  0.51135300333E-01  0.58396965409E-01  0.99815423645E-01  0.51100000000E-03 0.  1.
</event>
<event>
 8    1  0.1118868E+005  0.1043930E+01  0.7957747E-01            NaN
         13   -1    0    0    0    0  0.00000000000E+00  0.00000000000E+00  0.74505805969E-08  0.10566000000E+00  0.10566000000E+00 0.  1.
     999900   -1    0    0    0    0 -0.00000000000E+00 -0.00000000000E+00 -0.74505805969E-08  0.93827000000E+00  0.93827000000E+00 0. -1.
     999902    2    1    2    0    0  0.40693695778E-02 -0.15643343909E-01  0.83317247925E-02  0.10257450718E+01  0.10255838633E+01 0.  0.
     999903    2    3    3    0    0 -0.11236722226E+00 -0.18742869818E-01  0.66469335961E-01  0.13616816737E+00  0.33851283174E-01 0.  0.
         14    1    1    2    0    0 -0.40693695778E-02  0.15643343909E-01 -0.83317247925E-02  0.18184928249E-01  0.00000000000E+00 0. -1.
     999901    1    3    3    0    0  0.11643659184E+00  0.30995259099E-02 -0.58137611169E-01  0.88957690438E+00  0.88000000000E+00 0.  1.
        -11    1    4    4    0    0 -0.45108283023E-01 -0.24257156223E-01  0.25455805102E-01  0.57196380652E-01  0.51100000000E-03 0.  1.
         11    1    4    4    0    0 -0.67258939241E-01  0.55142864041E-02  0.41013530860E-01  0.78971786715E-01  0.51100000000E-03 0. -1.
</event>
<event>
 8    1  0.1118868E+005  0.1043930E+01  0.7957747E-01            NaN
         13   -1    0    0    0    0  0.00000000000E+00  0.00000000000E+00  0.74505805969E-08  0.10566000000E+00  0.10566000000E+00 0.  1.
     999900   -1    0    0    0    0 -0.00000000000E+00 -0.00000000000E+00 -0.74505805969E-08  0.93827000000E+00  0.93827000000E+00 0. -1.
     999902    2    1    2    0    0 -0.95468614734E-02 -0.20756149354E-01 -0.35655573137E-02  0.10208069920E+01  0.10205450707E+01 0.  0.
     999903    2    3    3    0    0  0.95755857335E-01  0.15396399448E-01 -0.84335127630E-01  0.13012220328E+00  0.20325862920E-01 0.  0.
         14    1    1    2    0    0  0.95468614734E-02  0.20756149354E-01  0.35655573137E-02  0.23123008000E-01  0.00000000000E+00 0. -1.
     999901    1    3    3    0    0 -0.10530271881E+00 -0.36152548803E-01  0.80769570316E-01  0.89068478872E+00  0.88000000000E+00 0.  1.
        -11    1    4    4    0    0  0.46375430539E-01  0.12584330749E-01 -0.30027475439E-01  0.56665301025E-01  0.51100000000E-03 0. -1.
         11    1    4    4    0    0  0.49380426796E-01  0.28120686991E-02 -0.54307652191E-01  0.73456902252E-01  0.51100000000E-03 0.  1.
</event>
<event>
 8    1  0.1118868E+005  0.1043930E+01  0.7957747E-01            NaN
         13   -1    0    0    0    0  0.00000000000E+00  0.00000000000E+00  0.74505805969E-08  0.10566000000E+00  0.10566000000E+00 0.  1.
     999900   -1    0    0    0    0 -0.00000000000E+00 -0.00000000000E+00 -0.74505805969E-08  0.93827000000E+00  0.93827000000E+00 0. -1.
     999902    2    1    2    0    0  0.71927312732E-02  0.16086901551E-01 -0.15702578086E-01  0.10203271454E+01  0.10200541108E+01 0.  0.
     999903    2    3    3    0    0 -0.89863009044E-01  0.86246100532E-01  0.34587620446E-01  0.13079286617E+00  0.19917833769E-01 0.  0.
         14    1    1    2    0    0 -0.71927312732E-02 -0.16086901551E-01  0.15702578086E-01  0.23602854557E-01  0.00000000000E+00 0.  1.
     999901    1    3    3    0    0  0.97055740317E-01 -0.70159198981E-01 -0.50290198533E-01  0.88953427927E+00  0.88000000000E+00 0. -1.
        -11    1    4    4    0    0 -0.38968946144E-01  0.40983505122E-01  0.25641234657E-01  0.62096380663E-01  0.51100000000E-03 0. -1.
         11    1    4    4    0    0 -0.50894062899E-01  0.45262595409E-01  0.89463857890E-02  0.68696485509E-01  0.51100000000E-03 0.  1.
</event>
<event>
 8    1  0.1118868E+005  0.1043930E+01  0.7957747E-01            NaN
         13   -1    0    0    0    0  0.00000000000E+00  0.00000000000E+00  0.74505805969E-08  0.10566000000E+00  0.10566000000E+00 0. -1.
     999900   -1    0    0    0    0 -0.00000000000E+00 -0.00000000000E+00 -0.74505805969E-08  0.93827000000E+00  0.93827000000E+00 0. -1.
     999902    2    1    2    0    0  0.66746242638E-02  0.88734748497E-02 -0.19346421628E-01  0.10216236512E+01  0.10213801014E+01 0.  0.
     999903    2    3    3    0    0 -0.75710488500E-01  0.87819711422E-01  0.57484307969E-01  0.13093696330E+00  0.19891277290E-01 0.  0.
         14    1    1    2    0    0 -0.66746242638E-02 -0.88734748497E-02  0.19346421628E-01  0.22306348755E-01  0.00000000000E+00 0. -1.
     999901    1    3    3    0    0  0.82385112764E-01 -0.78946236572E-01 -0.76830729596E-01  0.89068668795E+00  0.88000000000E+00 0. -1.
        -11    1    4    4    0    0 -0.50906658284E-01  0.62847642106E-01  0.49555644219E-01  0.94854293371E-01  0.51100000000E-03 0.  1.
         11    1    4    4    0    0 -0.24803830216E-01  0.24972069316E-01  0.79286637498E-02  0.36082669929E-01  0.51100000000E-03 0. -1.
</event>
<event>
 8    1  0.1118868E+005  0.1043930E+01  0.7957747E-01            NaN
         13   -1    0    0    0    0  0.00000000000E+00  0.00000000000E+00  0.74505805969E-08  0.10566000000E+00  0.10566000000E+00 0. -1.
     999900   -1    0    0    0    0 -0.00000000000E+00 -0.00000000000E+00 -0.74505805969E-08  0.93827000000E+00  0.93827000000E+00 0.  1.
     999902    2    1    2    0    0 -0.18146333168E-01 -0.95451241968E-02 -0.12332324414E-01  0.10200033406E+01  0.10197226730E+01 0.  0.
     999903    2    3    3    0    0 -0.56052906755E-01 -0.83568142029E-01 -0.84826623644E-01  0.13311454325E+00  0.19959028730E-01 0.  0.
         14    1    1    2    0    0  0.18146333168E-01  0.95451241968E-02  0.12332324414E-01  0.23926659375E-01  0.00000000000E+00 0. -1.
     999901    1    3    3    0    0  0.37906573587E-01  0.74023017832E-01  0.72494299231E-01  0.88688879738E+00  0.88000000000E+00 0.  1.
        -11    1    4    4    0    0 -0.49155111885E-02 -0.14881868439E-01 -0.21492355422E-01  0.26604787559E-01  0.51100000000E-03 0.  1.
         11    1    4    4    0    0 -0.51137395567E-01 -0.68686273590E-01 -0.63334268222E-01  0.10650975569E+00  0.51100000000E-03 0. -1.
</event>
<event>
 8    1  0.1118868E+005  0.1043930E+01  0.7957747E-01            NaN
         13   -1    0    0    0    0  0.00000000000E+00  0.00000000000E+00  0.74505805969E-08  0.10566000000E+00  0.10566000000E+00 0.  1.
     999900   -1    0    0    0    0 -0.00000000000E+00 -0.00000000000E+00 -0.74505805969E-08  0.93827000000E+00  0.93827000000E+00 0.  1.
     999902    2    1    2    0    0  0.72005541474E-02  0.95825842642E-02 -0.21658315477E-01  0.10191760805E+01  0.10188754225E+01 0.  0.
     999903    2    3    3    0    0  0.96719382553E-01  0.52251619393E-01  0.65128479706E-01  0.12936361992E+00  0.20207835070E-01 0.  0.
         14    1    1    2    0    0 -0.72005541474E-02 -0.95825842642E-02  0.21658315477E-01  0.24753919498E-01  0.00000000000E+00 0.  1.
     999901    1    3    3    0    0 -0.89518828405E-01 -0.42669035129E-01 -0.86786795183E-01  0.88981246059E+00  0.88000000000E+00 0.  1.
        -11    1    4    4    0    0  0.46298474222E-01  0.34523109794E-01  0.27300832937E-01  0.63882630074E-01  0.51100000000E-03 0. -1.
         11    1    4    4    0    0  0.50420908330E-01  0.17728509599E-01  0.37827646769E-01  0.65480989841E-01  0.51100000000E-03 0.  1.
</event>
<event>
 8    1  0.1118868E+005  0.1043930E+01  0.7957747E-01            NaN
         13   -1    0    0    0    0  0.00000000000E+00  0.00000000000E+00  0.74505805969E-08  0.10566000000E+00  0.10566000000E+00 0.  1.
     999900   -1    0    0    0    0 -0.00000000000E+00 -0.00000000000E+00 -0.74505805969E-08  0.93827000000E+00  0.93827000000E+00 0.  1.
     999902    2    1    2    0    0 -0.12484585357E-01  0.24977690118E-02  0.18929097222E-01  0.10211174060E+01  0.10208625483E+01 0.  0.
     999903    2    3    3    0    0  0.60107858267E-01 -0.29058245283E-01 -0.10797420814E+00  0.12849772565E+00  0.19897226639E-01 0.  0.
         14    1    1    2    0    0  0.12484585357E-01 -0.24977690118E-02 -0.18929097222E-01  0.22812593961E-01  0.00000000000E+00 0. -1.
     999901    1    3    3    0    0 -0.72592443624E-01  0.31556014294E-01  0.12690330537E+00  0.89261968039E+00  0.88000000000E+00 0. -1.
        -11    1    4    4    0    0  0.21994566729E-01 -0.20616393368E-01 -0.54567596916E-01  0.62343246589E-01  0.51100000000E-03 0.  1.
         11    1    4    4    0    0  0.38113291538E-01 -0.84418519146E-02 -0.53406611229E-01  0.66154479059E-01  0.51100000000E-03 0. -1.
</event>
<event>
 8    1  0.1118868E+005  0.1043930E+01  0.7957747E-01            NaN
         13   -1    0    0    0    0  0.00000000000E+00  0.00000000000E+00  0.74505805969E-08  0.10566000000E+00  0.10566000000E+00 0.  1.
     999900   -1    0    0    0    0 -0.00000000000E+00 -0.00000000000E+00 -0.74505805969E-08  0.93827000000E+00  0.93827000000E+00 0. -1.
     999902    2    1    2    0    0  0.15866256897E-01  0.14528236453E-01  0.77479487491E-02  0.10210643386E+01  0.10208082803E+01 0.  0.
     999903    2    3    3    0    0 -0.95501899987E-01 -0.35531701959E-02  0.86355554138E-01  0.13038540694E+00  0.20244374380E-01 0.  0.
         14    1    1    2    0    0 -0.15866256897E-01 -0.14528236453E-01 -0.77479487491E-02  0.22865661420E-01  0.00000000000E+00 0.  1.
     999901    1    3    3    0    0  0.11136815688E+00  0.18081406649E-01 -0.78607605389E-01  0.89067893164E+00  0.88000000000E+00 0. -1.
        -11    1    4    4    0    0 -0.31775384241E-01 -0.73611523005E-02  0.39305418226E-01  0.51078749297E-01  0.51100000000E-03 0. -1.
         11    1    4    4    0    0 -0.63726515747E-01  0.38079821045E-02  0.47050135912E-01  0.79306657647E-01  0.51100000000E-03 0.  1.
</event>
<event>
 8    1  0.1118868E+005  0.1043930E+01  0.7957747E-01            NaN
         13   -1    0    0    0    0  0.00000000000E+00  0.00000000000E+00  0.74505805969E-08  0.10566000000E+00  0.10566000000E+00 0.  1.
     999900   -1    0    0    0    0 -0.00000000000E+00 -0.00000000000E+00 -0.74505805969E-08  0.93827000000E+00  0.93827000000E+00 0.  1.
     999902    2    1    2    0    0  0.59119662478E-02  0.47590078809E-02  0.20705428812E-01  0.10218774654E+01  0.10216394863E+01 0.  0.
     999903    2    3    3    0    0 -0.12153058275E+00 -0.44757745899E-01  0.53240725570E-02  0.13118666700E+00  0.20215278563E-01 0.  0.
         14    1    1    2    0    0 -0.59119662478E-02 -0.47590078809E-02 -0.20705428812E-01  0.22052534621E-01  0.00000000000E+00 0. -1.
     999901    1    3    3    0    0  0.12744254900E+00  0.49516753780E-01  0.15381356255E-01  0.89069079838E+00  0.88000000000E+00 0. -1.
        -11    1    4    4    0    0 -0.90679642435E-01 -0.36069752766E-01 -0.43959330327E-02  0.97690378057E-01  0.51100000000E-03 0. -1.
         11    1    4    4    0    0 -0.30850940317E-01 -0.86879931337E-02  0.97200055897E-02  0.33496288940E-01  0.51100000000E-03 0.  1.
</event>
<event>
 8    1  0.1118868E+005  0.1043930E+01  0.7957747E-01            NaN
         13   -1    0    0    0    0  0.00000000000E+00  0.00000000000E+00  0.74505805969E-08  0.10566000000E+00  0.10566000000E+00 0. -1.
     999900   -1    0    0    0    0 -0.00000000000E+00 -0.00000000000E+00 -0.74505805969E-08  0.93827000000E+00  0.93827000000E+00 0.  1.
     999902    2    1    2    0    0 -0.18951308408E-01 -0.17598058008E-02  0.14031271429E-01  0.10202841635E+01  0.10200101218E+01 0.  0.
     999903    2    3    3    0    0 -0.78915399202E-01  0.54487581634E-01 -0.86565464035E-01  0.13074542685E+00  0.20105976609E-01 0.  0.
         14    1    1    2    0    0  0.18951308408E-01  0.17598058008E-02 -0.14031271429E-01  0.23645836520E-01  0.00000000000E+00 0. -1.
     999901    1    3    3    0    0  0.59964090794E-01 -0.56247387435E-01  0.10059673546E+00  0.88953873663E+00  0.88000000000E+00 0. -1.
        -11    1    4    4    0    0 -0.19107019498E-01  0.13088587053E-01 -0.33397826076E-01  0.40645605085E-01  0.51100000000E-03 0.  1.
         11    1    4    4    0    0 -0.59808379704E-01  0.41398994581E-01 -0.53167637959E-01  0.90099821766E-01  0.51100000000E-03 0. -1.
</event>
<event>
 8    1  0.1118868E+005  0.1043930E+01  0.7957747E-01            NaN
         13   -1    0    0    0    0  0.00000000000E+00  0.00000000000E+00  0.74505805969E-08  0.10566000000E+00  0.10566000000E+00 0. -1.
     999900   -1    0    0    0    0 -0.00000000000E+00 -0.00000000000E+00 -0.74505805969E-08  0.93827000000E+00  0.93827000000E+00 0. -1.
     999902    2    1    2    0    0 -0.78137247798E-02  0.14520240265E-01 -0.17710713671E-01  0.10197316312E+01  0.10194444755E+01 0.  0.
     999903    2    3    3    0    0 -0.60308764430E-01  0.51364410126E-01  0.10072209816E+00  0.12948472562E+00  0.18598478837E-01 0.  0.
         14    1    1    2    0    0  0.78137247798E-02 -0.14520240265E-01  0.17710713671E-01  0.24198368768E-01  0.00000000000E+00 0. -1.
     999901    1    3    3    0    0  0.52495039650E-01 -0.36844169861E-01 -0.11843281183E+00  0.89024690562E+00  0.88000000000E+00 0. -1.
        -11    1    4    4    0    0 -0.26917595318E-01  0.18640748491E-01  0.28294676475E-01  0.43276833062E-01  0.51100000000E-03 0.  1.
         11    1    4    4    0    0 -0.33391169112E-01  0.32723661635E-01  0.72427421687E-01  0.86207892554E-01  0.51100000000E-03 0. -1.
</event>
<event>
 8    1  0.1118868E+005  0.1043930E+01  0.7957747E-01            NaN
         13   -1    0    0    0    0  0.00000000000E+00  0.00000000000E+00  0.74505805969E-08  0.10566000000E+00  0.10566000000E+00 0.  1.
     999900   -1    0    0    0    0 -0.00000000000E+00 -0.00000000000E+00 -0.74505805969E-08  0.93827000000E+00  0.93827000000E+00 0. -1.
     999902    2    1    2    0    0  0.18844663458E-01  0.98926146263E-02 -0.84770451724E-02  0.10210204941E+01  0.10207634417E+01 0.  0.
     999903    2    3    3    0    0  0.11986754029E+00  0.13004948355E-01  0.52729818698E-01  0.13312320926E+00  0.20099730536E-01 0.  0.
         14    1    1    2    0    0 -0.18844663458E-01 -0.98926146263E-02  0.84770451724E-02  0.22909505884E-01  0.00000000000E+00 0. -1.
     999901    1    3    3    0    0 -0.10102287683E+00 -0.31123337288E-02 -0.61206863871E-01  0.88789728485E+00  0.88000000000E+00 0. -1.
        -11    1    4    4    0    0  0.10594518259E+00  0.17897582258E-01  0.47165070257E-01  0.11734355601E+00  0.51100000000E-03 0. -1.
         11    1    4    4    0    0  0.13922357702E-01 -0.48926339030E-02  0.55647484407E-02  0.15779653251E-01  0.51100000000E-03 0.  1.
</event>
<event>
 8    1  0.1118868E+005  0.1043930E+01  0.7957747E-01            NaN
         13   -1    0    0    0    0  0.00000000000E+00  0.00000000000E+00  0.74505805969E-08  0.10566000000E+00  0.10566000000E+00 0. -1.
     999900   -1    0    0    0    0 -0.00000000000E+00 -0.00000000000E+00 -0.74505805969E-08  0.93827000000E+00  0.93827000000E+00 0. -1.
     999902    2    1    2    0    0  0.21909484390E-01  0.91878940261E-02 -0.72200023623E-03  0.10201610247E+01  0.10198840876E+01 0.  0.
     999903    2    3    3    0    0 -0.24300990822E-01  0.10237556149E-02  0.12607008682E+00  0.12983619941E+00  0.19292113841E-01 0.  0.
         14    1    1    2    0    0 -0.21909484390E-01 -0.91878940261E-02  0.72200023623E-03  0.23768975309E-01  0.00000000000E+00 0. -1.
     999901    1    3    3    0    0  0.46210475213E-01  0.81641384112E-02 -0.12679208705E+00  0.89032482528E+00  0.88000000000E+00 0. -1.
        -11    1    4    4    0    0 -0.77268767876E-03  0.51345283863E-02  0.45519237192E-01  0.45817272982E-01  0.51100000000E-03 0.  1.
         11    1    4    4    0    0 -0.23528303144E-01 -0.41107727713E-02  0.80550849625E-01  0.84018926426E-01  0.51100000000E-03 0. -1.
</event>
<event>
 8    1  0.1118868E+005  0.1043930E+01  0.7957747E-01            NaN
         13   -1    0    0    0    0  0.00000000000E+00  0.00000000000E+00  0.74505805969E-08  0.10566000000E+00  0.10566000000E+00 0.  1.
     999900   -1    0    0    0    0 -0.00000000000E+00 -0.00000000000E+00 -0.74505805969E-08  0.93827000000E+00  0.93827000000E+00 0.  1.
     999902    2    1    2    0    0  0.67039644154E-02 -0.18143583021E-01 -0.20906726486E-01  0.10154480065E+01  0.10150484865E+01 0.  0.
     999903    2    3    3    0    0 -0.54669708001E-01  0.10610739772E+00 -0.10801206174E-01  0.12454556768E+00  0.33872932417E-01 0.  0.
         14    1    1    2    0    0 -0.67039644154E-02  0.18143583021E-01  0.20906726486E-01  0.28481993541E-01  0.00000000000E+00 0.  1.
     999901    1    3    3    0    0  0.61373672417E-01 -0.12425098074E+00 -0.10105520311E-01  0.89090243878E+00  0.88000000000E+00 0. -1.
        -11    1    4    4    0    0 -0.55141583677E-01  0.87485565915E-01 -0.84553983524E-03  0.10341805719E+00  0.51100000000E-03 0. -1.
         11    1    4    4    0    0  0.47187567551E-03  0.18621831803E-01 -0.99556663391E-02  0.21127510493E-01  0.51100000000E-03 0.  1.
</event>
<event>
 8    1  0.1118868E+005  0.1043930E+01  0.7957747E-01            NaN
         13   -1    0    0    0    0  0.00000000000E+00  0.00000000000E+00  0.74505805969E-08  0.10566000000E+00  0.10566000000E+00 0. -1.
     999900   -1    0    0    0    0 -0.00000000000E+00 -0.00000000000E+00 -0.74505805969E-08  0.93827000000E+00  0.93827000000E+00 0. -1.
     999902    2    1    2    0    0  0.70289736347E-02 -0.18355570747E-01  0.11983866607E-01  0.10209094330E+01  0.10206498537E+01 0.  0.
     999903    2    3    3    0    0 -0.79940055545E-01 -0.64818022464E-02 -0.99579104079E-01  0.12953358920E+00  0.20749133029E-01 0.  0.
         14    1    1    2    0    0 -0.70289736347E-02  0.18355570747E-01 -0.11983866607E-01  0.23020567036E-01  0.00000000000E+00 0.  1.
     999901    1    3    3    0    0  0.86969029179E-01 -0.11873768501E-01  0.11156297069E+00  0.89137584376E+00  0.88000000000E+00 0.  1.
        -11    1    4    4    0    0 -0.47839062398E-01 -0.54295872909E-02 -0.74832587696E-01  0.88984457135E-01  0.51100000000E-03 0. -1.
         11    1    4    4    0    0 -0.32100993146E-01 -0.10522149554E-02 -0.24746516383E-01  0.40549132067E-01  0.51100000000E-03 0.  1.
</event>
<event>
 8    1  0.1118868E+005  0.1043930E+01  0.7957747E-01            NaN
         13   -1    0    0    0    0  0.00000000000E+00  0.00000000000E+00  0.74505805969E-08  0.10566000000E+00  0.10566000000E+00 0. -1.
     999900   -1    0    0    0    0 -0.00000000000E+00 -0.00000000000E+00 -0.74505805969E-08  0.93827000000E+00  0.93827000000E+00 0.  1.
     999902    2    1    2    0    0 -0.12451426455E-01  0.17000594148E-01 -0.98872393409E-02  0.10206530645E+01  0.10203876040E+01 0.  0.
     999903    2    3    3    0    0  0.87238532867E-01 -0.27453548380E-03  0.92682387724E-01  0.12893727659E+00  0.20595128425E-01 0.  0.
         14    1    1    2    0    0  0.12451426455E-01 -0.17000594148E-01  0.98872393409E-02  0.23276935450E-01  0.00000000000E+00 0.  1.
     999901    1    3    3    0    0 -0.99689959322E-01  0.17275129632E-01 -0.10256962706E+00  0.89171578796E+00  0.88000000000E+00 0.  1.
        -11    1    4    4    0    0  0.27995495105E-01 -0.68586477049E-02  0.20769541815E-01  0.35530603467E-01  0.51100000000E-03 0.  1.
         11    1    4    4    0    0  0.59243037762E-01  0.65841122211E-02  0.71912845909E-01  0.93406673127E-01  0.51100000000E-03 0. -1.
</event>
<event>
 8    1  0.1118868E+005  0.1043930E+01  0.7957747E-01            NaN
         13   -1    0    0    0    0  0.00000000000E+00  0.00000000000E+00  0.74505805969E-08  0.10566000000E+00  0.10566000000E+00 0.  1.
     999900   -1    0    0    0    0 -0.00000000000E+00 -0.00000000000E+00 -0.74505805969E-08  0.93827000000E+00  0.93827000000E+00 0. -1.
     999902    2    1    2    0    0  0.90154285378E-02 -0.41714928681E-02  0.21347056570E-01  0.10203848067E+01  0.10201131200E+01 0.  0.
     999903    2    3    3    0    0  0.12543891611E+00  0.35000754848E-01 -0.49387358541E-03  0.13158453683E+00  0.18822112169E-01 0.  0.
         14    1    1    2    0    0 -0.90154285378E-02  0.41714928681E-02 -0.21347056570E-01  0.23545193324E-01  0.00000000000E+00 0. -1.
     999901    1    3    3    0    0 -0.11642348757E+00 -0.39172247716E-01  0.21840930155E-01  0.88880026985E+00  0.88000000000E+00 0.  1.
        -11    1    4    4    0    0  0.29470204700E-01  0.67678155333E-03  0.27427573600E-02  0.29609708496E-01  0.51100000000E-03 0. -1.
         11    1    4    4    0    0  0.95968711411E-01  0.34323973294E-01 -0.32366309454E-02  0.10197482833E+00  0.51100000000E-03 0.  1.
</event>
<event>
 8    1  0.1118868E+005  0.1043930E+01  0.7957747E-01            NaN
         13   -1    0    0    0    0  0.00000000000E+00  0.00000000000E+00  0.74505805969E-08  0.10566000000E+00  0.10566000000E+00 0. -1.
     999900   -1    0    0    0    0 -0.00000000000E+00 -0.00000000000E+00 -0.74505805969E-08  0.93827000000E+00  0.93827000000E+00 0. -1.
     999902    2    1    2    0    0  0.11618513932E-01  0.22074251371E-01  0.85508963518E-03  0.10189701599E+01  0.10186644164E+01 0.  0.
     999903    2    3    3    0    0 -0.29634899064E-02  0.11809278917E+00 -0.55026543333E-01  0.13186534572E+00  0.20145962500E-01 0.  0.
         14    1    1    2    0    0 -0.11618513932E-01 -0.22074251371E-01 -0.85508963518E-03  0.24959840101E-01  0.00000000000E+00 0.  1.
     999901    1    3    3    0    0  0.14582003838E-01 -0.96018537796E-01  0.55881632968E-01  0.88710481418E+00  0.88000000000E+00 0.  1.
        -11    1    4    4    0    0  0.41878889461E-02  0.83541648589E-01 -0.31152756703E-01  0.89260858353E-01  0.51100000000E-03 0. -1.
         11    1    4    4    0    0 -0.71513788525E-02  0.34551140578E-01 -0.23873786630E-01  0.42604487367E-01  0.51100000000E-03 0.  1.
</event>
<event>
 8    1  0.1118868E+005  0.1043930E+01  0.7957747E-01            NaN
         13   -1    0    0    0    0  0.00000000000E+00  0.00000000000E+00  0.74505805969E-08  0.10566000000E+00  0.10566000000E+00 0. -1.
     999900   -1    0    0    0    0 -0.00000000000E+00 -0.00000000000E+00 -0.74505805969E-08  0.93827000000E+00  0.93827000000E+00 0. -1.
     999902    2    1    2    0    0 -0.50914628025E-02 -0.22725775117E-02  0.21801434786E-01  0.10214268855E+01  0.10211789717E+01 0.  0.
     999903    2    3    3    0    0  0.22817652870E-01  0.94942056312E-01 -0.82740267315E-01  0.12948598433E+00  0.19647619761E-01 0.  0.
         14    1    1    2    0    0  0.50914628025E-02  0.22725775117E-02 -0.21801434786E-01  0.22503114467E-01  0.00000000000E+00 0.  1.
     999901    1    3    3    0    0 -0.27909115673E-01 -0.97214633824E-01  0.10454170210E+00  0.89194090121E+00  0.88000000000E+00 0.  1.
        -11    1    4    4    0    0  0.15897524387E-01  0.71820457459E-01 -0.50573790104E-01  0.89268576542E-01  0.51100000000E-03 0. -1.
         11    1    4    4    0    0  0.69201284833E-02  0.23121598853E-01 -0.32166477211E-01  0.40217407784E-01  0.51100000000E-03 0.  1.
</event>
<event>
 8    1  0.1118868E+005  0.1043930E+01  0.7957747E-01            NaN
         13   -1    0    0    0    0  0.00000000000E+00  0.00000000000E+00  0.74505805969E-08  0.10566000000E+00  0.10566000000E+00 0. -1.
     999900   -1    0    0    0    0 -0.00000000000E+00 -0.00000000000E+00 -0.74505805969E-08  0.93827000000E+00  0.93827000000E+00 0. -1.
     999902    2    1    2    0    0  0.15760142154E-01 -0.66573428350E-02 -0.14478353854E-03  0.10268208429E+01  0.10266782944E+01 0.  0.
     999903    2    3    3    0    0  0.43828115234E-02 -0.65270647105E-01 -0.11857480538E+00  0.13688228707E+00  0.19932627275E-01 0.  0.
         14    1    1    2    0    0 -0.15760142154E-01  0.66573428350E-02  0.14478353854E-03  0.17109157098E-01  0.00000000000E+00 0.  1.
     999901    1    3    3    0    0  0.11377330630E-01  0.58613304270E-01  0.11843002185E+00  0.88993855584E+00  0.88000000000E+00 0.  1.
        -11    1    4    4    0    0  0.49529563731E-03 -0.42865801931E-01 -0.94456355473E-01  0.10373035478E+00  0.51100000000E-03 0.  1.
         11    1    4    4    0    0  0.38875158861E-02 -0.22404845173E-01 -0.24118449912E-01  0.33151932284E-01  0.51100000000E-03 0. -1.
</event>
<event>
 8    1  0.1118868E+005  0.1043930E+01  0.7957747E-01            NaN
         13   -1    0    0    0    0  0.00000000000E+00  0.00000000000E+00  0.74505805969E-08  0.10566000000E+00  0.10566000000E+00 0. -1.
     999900   -1    0    0    0    0 -0.00000000000E+00 -0.00000000000E+00 -0.74505805969E-08  0.93827000000E+00  0.93827000000E+00 0.  1.
     999902    2    1    2    0    0  0.10549652269E-01  0.20193174833E-01  0.11015521433E-02  0.10211205088E+01  0.10208657211E+01 0.  0.
     999903    2    3    3    0    0 -0.57217461578E-01  0.30756451747E-01  0.11227003454E+00  0.13147878537E+00  0.21501467708E-01 0.  0.
         14    1    1    2    0    0 -0.10549652269E-01 -0.20193174833E-01 -0.11015521433E-02  0.22809491226E-01  0.00000000000E+00 0.  1.
     999901    1    3    3    0    0  0.67767113847E-01 -0.10563276914E-01 -0.11116848240E+00  0.88964172340E+00  0.88000000000E+00 0.  1.
        -11    1    4    4    0    0 -0.21912006127E-02  0.84944774874E-02  0.18796899381E-01  0.20749507350E-01  0.51100000000E-03 0.  1.
         11    1    4    4    0    0 -0.55026260965E-01  0.22261974260E-01  0.93473135161E-01  0.11072927802E+00  0.51100000000E-03 0. -1.
</event>
<event>
 8    1  0.1118868E+005  0.1043930E+01  0.7957747E-01            NaN
         13   -1    0    0    0    0  0.00000000000E+00  0.00000000000E+00  0.74505805969E-08  0.10566000000E+00  0.10566000000E+00 0.  1.
     999900   -1    0    0    0    0 -0.00000000000E+00 -0.00000000000E+00 -0.74505805969E-08  0.93827000000E+00  0.93827000000E+00 0.  1.
     999902    2    1    2    0    0 -0.10855259108E-01 -0.18493065564E-01 -0.11748293833E-01  0.10194789769E+01  0.10191857199E+01 0.  0.
     999903    2    3    3    0    0 -0.57715304517E-01  0.34197630118E-02 -0.11682196165E+00  0.13171971244E+00  0.18972632032E-01 0.  0.
         14    1    1    2    0    0  0.10855259108E-01  0.18493065564E-01  0.11748293833E-01  0.24451023133E-01  0.00000000000E+00 0. -1.
     999901    1    3    3    0    0  0.46860045408E-01 -0.21912828576E-01  0.10507366782E+00  0.88775926443E+00  0.88000000000E+00 0. -1.
        -11    1    4    4    0    0 -0.34052799482E-01  0.10743460117E-01 -0.61773009617E-01  0.71352511700E-01  0.51100000000E-03 0. -1.
         11    1    4    4    0    0 -0.23662505035E-01 -0.73236971056E-02 -0.55048952034E-01  0.60367200737E-01  0.51100000000E-03 0.  1.
</event>
<event>
 8    1  0.1118868E+005  0.1043930E+01  0.7957747E-01            NaN
         13   -1    0    0    0    0  0.00000000000E+00  0.00000000000E+00  0.74505805969E-08  0.10566000000E+00  0.10566000000E+00 0. -1.
     999900   -1    0    0    0    0 -0.00000000000E+00 -0.00000000000E+00 -0.74505805969E-08  0.93827000000E+00  0.93827000000E+00 0. -1.
     999902    2    1    2    0    0 -0.70919233588E-02  0.21879396496E-01 -0.39735830110E-02  0.10205892046E+01  0.10203222686E+01 0.  0.
     999903    2    3    3    0    0  0.31759847756E-01 -0.50062422128E-01 -0.11399472179E+00  0.12997720358E+00  0.19604663109E-01 0.  0.
         14    1    1    2    0    0  0.70919233588E-02 -0.21879396496E-01  0.39735830110E-02  0.23340795400E-01  0.00000000000E+00 0.  1.
     999901    1    3    3    0    0 -0.38851771114E-01  0.71941818623E-01  0.11002113878E+00  0.89061200102E+00  0.88000000000E+00 0.  1.
        -11    1    4    4    0    0  0.24552467481E-01 -0.43972685280E-01 -0.78676083284E-01  0.93416315021E-01  0.51100000000E-03 0.  1.
         11    1    4    4    0    0  0.72073802743E-02 -0.60897368479E-02 -0.35318638505E-01  0.36560888558E-01  0.51100000000E-03 0. -1.
</event>
<event>
 8    1  0.1118868E+005  0.1043930E+01  0.7957747E-01            NaN
         13   -1    0    0    0    0  0.00000000000E+00  0.00000000000E+00  0.74505805969E-08  0.10566000000E+00  0.10566000000E+00 0. -1.
     999900   -1    0    0    0    0 -0.00000000000E+00 -0.00000000000E+00 -0.74505805969E-08  0.93827000000E+00  0.93827000000E+00 0.  1.
     999902    2    1    2    0    0  0.20148998012E-01 -0.84735895013E-02 -0.98644912805E-02  0.10199489235E+01  0.10196669626E+01 0.  0.
     999903    2    3    3    0    0 -0.49119402405E-01  0.62022306903E-01 -0.10076498174E+00  0.12976316659E+00  0.20625605736E-01 0.  0.
         14    1    1    2    0    0 -0.20148998012E-01  0.84735895013E-02  0.98644912805E-02  0.23981076460E-01  0.00000000000E+00 0. -1.
     999901    1    3    3    0    0  0.69268400418E-01 -0.70495896404E-01  0.90900490464E-01  0.89018575695E+00  0.88000000000E+00 0. -1.
        -11    1    4    4    0    0 -0.31214589510E-01  0.53446444421E-01 -0.75619169496E-01  0.97720995368E-01  0.51100000000E-03 0. -1.
         11    1    4    4    0    0 -0.17904812896E-01  0.85758624818E-02 -0.25145812248E-01  0.32042171224E-01  0.51100000000E-03 0.  1.
</event>
<event>
 8    1  0.1118868E+005  0.1043930E+01  0.7957747E-01            NaN
         13   -1    0    0    0    0  0.00000000000E+00  0.00000000000E+00  0.74505805969E-08  0.10566000000E+00  0.10566000000E+00 0.  1.
     999900   -1    0    0    0    0 -0.00000000000E+00 -0.00000000000E+00 -0.74505805969E-08  0.93827000000E+00  0.93827000000E+00 0. -1.
     999902    2    1    2    0    0  0.14622193456E-01  0.19123771245E-01  0.36850955172E-02  0.10195762098E+01  0.10192853087E+01 0.  0.
     999903    2    3    3    0    0  0.73562160772E-01  0.22648937337E-01  0.10497361705E+00  0.13180049987E+00  0.20677176581E-01 0.  0.
         14    1    1    2    0    0 -0.14622193456E-01 -0.19123771245E-01 -0.36850955172E-02  0.24353790199E-01  0.00000000000E+00 0. -1.
     999901    1    3    3    0    0 -0.58939967316E-01 -0.35251660920E-02 -0.10128852153E+00  0.88777570993E+00  0.88000000000E+00 0. -1.
        -11    1    4    4    0    0  0.50824667081E-01  0.76131880882E-02  0.78286729873E-01  0.93649242453E-01  0.51100000000E-03 0.  1.
         11    1    4    4    0    0  0.22737493691E-01  0.15035749249E-01  0.26686887172E-01  0.38151257421E-01  0.51100000000E-03 0. -1.
</event>
<event>
 8    1  0.1118868E+005  0.1043930E+01  0.7957747E-01            NaN
         13   -1    0    0    0    0  0.00000000000E+00  0.00000000000E+00  0.74505805969E-08  0.10566000000E+00  0.10566000000E+00 0. -1.
     999900   -1    0    0    0    0 -0.00000000000E+00 -0.00000000000E+00 -0.74505805969E-08  0.93827000000E+00  0.93827000000E+00 0.  1.
     999902    2    1    2    0    0  0.35261581970E-02  0.22228510273E-01 -0.75815800227E-02  0.10201808776E+01  0.10199044083E+01 0.  0.
     999903    2    3    3    0    0  0.18322874487E-01 -0.89018448967E-01 -0.89852656038E-01  0.12924689646E+00  0.19267808915E-01 0.  0.
         14    1    1    2    0    0 -0.35261581970E-02 -0.22228510273E-01  0.75815800227E-02  0.23749122431E-01  0.00000000000E+00 0. -1.
     999901    1    3    3    0    0 -0.14796716290E-01  0.11124695924E+00  0.82271076015E-01  0.89093398111E+00  0.88000000000E+00 0. -1.
        -11    1    4    4    0    0  0.64425225769E-02 -0.27309231930E-01 -0.40824941102E-01  0.49540258202E-01  0.51100000000E-03 0.  1.
         11    1    4    4    0    0  0.11880351910E-01 -0.61709217038E-01 -0.49027714936E-01  0.79706638254E-01  0.51100000000E-03 0. -1.
</event>
<event>
 8    1  0.1118868E+005  0.1043930E+01  0.7957747E-01            NaN
         13   -1    0    0    0    0  0.00000000000E+00  0.00000000000E+00  0.74505805969E-08  0.10566000000E+00  0.10566000000E+00 0.  1.
     999900   -1    0    0    0    0 -0.00000000000E+00 -0.00000000000E+00 -0.74505805969E-08  0.93827000000E+00  0.93827000000E+00 0. -1.
     999902    2    1    2    0    0 -0.16546746279E-01  0.10244134756E-01 -0.13407415604E-01  0.10202974821E+01  0.10200237527E+01 0.  0.
     999903    2    3    3    0    0  0.59923483835E-03 -0.67189630307E-01 -0.11108011027E+00  0.13134870521E+00  0.19972129582E-01 0.  0.
         14    1    1    2    0    0  0.16546746279E-01 -0.10244134756E-01  0.13407415604E-01  0.23632517905E-01  0.00000000000E+00 0.  1.
     999901    1    3    3    0    0 -0.17145981117E-01  0.77433765063E-01  0.97672694665E-01  0.88894877688E+00  0.88000000000E+00 0.  1.
        -11    1    4    4    0    0 -0.93205900644E-02 -0.40095930883E-01 -0.68223098622E-01  0.79681926302E-01  0.51100000000E-03 0.  1.
         11    1    4    4    0    0  0.99198249028E-02 -0.27093699424E-01 -0.42857011647E-01  0.51666778910E-01  0.51100000000E-03 0. -1.
</event>
<event>
 8    1  0.1118868E+005  0.1043930E+01  0.7957747E-01            NaN
         13   -1    0    0    0    0  0.00000000000E+00  0.00000000000E+00  0.74505805969E-08  0.10566000000E+00  0.10566000000E+00 0.  1.
     999900   -1    0    0    0    0 -0.00000000000E+00 -0.00000000000E+00 -0.74505805969E-08  0.93827000000E+00  0.93827000000E+00 0.  1.
     999902    2    1    2    0    0 -0.73448468230E-02 -0.20804388740E-01 -0.92231516017E-02  0.10200169096E+01  0.10197365640E+01 0.  0.
     999903    2    3    3    0    0 -0.30425483190E-01  0.11336304698E+00  0.45344602573E-01  0.12787832377E+00  0.22800049539E-01 0.  0.
         14    1    1    2    0    0  0.73448468230E-02  0.20804388740E-01  0.92231516017E-02  0.23913090373E-01  0.00000000000E+00 0. -1.
     999901    1    3    3    0    0  0.23080636367E-01 -0.13416743572E+00 -0.54567754175E-01  0.89213858586E+00  0.88000000000E+00 0. -1.
        -11    1    4    4    0    0 -0.10714760506E-01  0.77709402447E-01  0.24964472152E-01  0.82322799467E-01  0.51100000000E-03 0. -1.
         11    1    4    4    0    0 -0.19710722684E-01  0.35653644535E-01  0.20380130421E-01  0.45555524301E-01  0.51100000000E-03 0.  1.
</event>
<event>
 8    1  0.1118868E+005  0.1043930E+01  0.7957747E-01            NaN
         13   -1    0    0    0    0  0.00000000000E+00  0.00000000000E+00  0.74505805969E-08  0.10566000000E+00  0.10566000000E+00 0. -1.
     999900   -1    0    0    0    0 -0.00000000000E+00 -0.00000000000E+00 -0.74505805969E-08  0.93827000000E+00  0.93827000000E+00 0. -1.
     999902    2    1    2    0    0 -0.16176874952E-01 -0.14665829367E-01 -0.11226791427E-01  0.10193776339E+01  0.10190819113E+01 0.  0.
     999903    2    3    3    0    0 -0.85666588806E-01  0.53718007065E-01  0.78504618652E-01  0.12945803341E+00  0.19287782269E-01 0.  0.
         14    1    1    2    0    0  0.16176874952E-01  0.14665829367E-01  0.11226791427E-01  0.24552366077E-01  0.00000000000E+00 0. -1.
     999901    1    3    3    0    0  0.69489713854E-01 -0.68383836432E-01 -0.89731410079E-01  0.88991960051E+00  0.88000000000E+00 0. -1.
        -11    1    4    4    0    0 -0.38454757337E-01  0.35275107303E-01  0.42107605000E-01  0.67055298649E-01  0.51100000000E-03 0.  1.
         11    1    4    4    0    0 -0.47211831468E-01  0.18442899762E-01  0.36397013652E-01  0.62402734764E-01  0.51100000000E-03 0. -1.
</event>
<event>
 8    1  0.1118868E+005  0.1043930E+01  0.7957747E-01            NaN
         13   -1    0    0    0    0  0.00000000000E+00  0.00000000000E+00  0.74505805969E-08  0.10566000000E+00  0.10566000000E+00 0.  1.
     999900   -1    0    0    0    0 -0.00000000000E+00 -0.00000000000E+00 -0.74505805969E-08  0.93827000000E+00  0.93827000000E+00 0.  1.
     999902    2    1    2    0    0  0.61254989413E-02 -0.19187803961E-01 -0.74732551004E-02  0.10224464458E+01  0.10222207156E+01 0.  0.
     999903    2    3    3    0    0  0.64920448994E-01 -0.87273759211E-01 -0.77515092900E-01  0.13509172392E+00  0.20243776801E-01 0.  0.
         14    1    1    2    0    0 -0.61254989413E-02  0.19187803961E-01  0.74732551004E-02  0.21483554173E-01  0.00000000000E+00 0.  1.
     999901    1    3    3    0    0 -0.58794950053E-01  0.68085955250E-01  0.70041837800E-01  0.88735472191E+00  0.88000000000E+00 0. -1.
        -11    1    4    4    0    0  0.12100126115E-01 -0.55395642105E-02 -0.89351943350E-02  0.16037413833E-01  0.51100000000E-03 0.  1.
         11    1    4    4    0    0  0.52820322879E-01 -0.81734195000E-01 -0.68579898565E-01  0.11905431008E+00  0.51100000000E-03 0. -1.
</event>
<event>
 8    1  0.1118868E+005  0.1043930E+01  0.7957747E-01            NaN
         13   -1    0    0    0    0  0.00000000000E+00  0.00000000000E+00  0.74505805969E-08  0.10566000000E+00  0.10566000000E+00 0.  1.
     999900   -1    0    0    0    0 -0.00000000000E+00 -0.00000000000E+00 -0.74505805969E-08  0.93827000000E+00  0.93827000000E+00 0.  1.
     999902    2    1    2    0    0 -0.15582515443E-01 -0.69394664029E-02 -0.18951439685E-01  0.10184323913E+01  0.10181131605E+01 0.  0.
     999903    2    3    3    0    0 -0.81814404871E-01  0.71777109726E-01 -0.70019831795E-01  0.13096918466E+00  0.20114675244E-01 0.  0.
         14    1    1    2    0    0  0.15582515443E-01  0.69394664029E-02  0.18951439685E-01  0.25497608665E-01  0.00000000000E+00 0.  1.
     999901    1    3    3    0    0  0.66231889428E-01 -0.78716576129E-01  0.51068392110E-01  0.88746320668E+00  0.88000000000E+00 0. -1.
        -11    1    4    4    0    0 -0.20268889120E-01  0.28209415254E-01 -0.16236948927E-01  0.38347080809E-01  0.51100000000E-03 0. -1.
         11    1    4    4    0    0 -0.61545515751E-01  0.43567694473E-01 -0.53782882868E-01  0.92622103848E-01  0.51100000000E-03 0.  1.
</event>
<event>
 8    1  0.1118868E+005  0.1043930E+01  0.7957747E-01            NaN
         13   -1    0    0    0    0  0.00000000000E+00  0.00000000000E+00  0.74505805969E-08  0.10566000000E+00  0.10566000000E+00 0. -1.
     999900   -1    0    0    0    0 -0.00000000000E+00 -0.00000000000E+00 -0.74505805969E-08  0.93827000000E+00  0.93827000000E+00 0.  1.
     999902    2    1    2    0    0  0.22840809511E-01  0.43308665064E-02 -0.45434461520E-02  0.10202424107E+01  0.10199673890E+01 0.  0.
     999903    2    3    3    0    0  0.88706684047E-01  0.96652629619E-01 -0.58811134319E-02  0.13296375620E+00  0.20836659091E-01 0.  0.
         14    1    1    2    0    0 -0.22840809511E-01 -0.43308665064E-02  0.45434461520E-02  0.23687589298E-01  0.00000000000E+00 0.  1.
     999901    1    3    3    0    0 -0.65865874536E-01 -0.92321763112E-01  0.13376672799E-02  0.88727865450E+00  0.88000000000E+00 0.  1.
        -11    1    4    4    0    0  0.87906290972E-01  0.88928212648E-01 -0.52144165068E-02  0.12515268378E+00  0.51100000000E-03 0. -1.
         11    1    4    4    0    0  0.80039307496E-03  0.77244169704E-02 -0.66669692509E-03  0.78110724230E-02  0.51100000000E-03 0.  1.
</event>
<event>
 8    1  0.1118868E+005  0.1043930E+01  0.7957747E-01            NaN
         13   -1    0    0    0    0  0.00000000000E+00  0.00000000000E+00  0.74505805969E-08  0.10566000000E+00  0.10566000000E+00 0. -1.
     999900   -1    0    0    0    0 -0.00000000000E+00 -0.00000000000E+00 -0.74505805969E-08  0.93827000000E+00  0.93827000000E+00 0. -1.
     999902    2    1    2    0    0 -0.86693104814E-02 -0.23682856826E-01 -0.35663161105E-02  0.10184593647E+01  0.10181408175E+01 0.  0.
     999903    2    3    3    0    0 -0.92965409051E-01  0.85127429900E-01 -0.64506092453E-02  0.12775524443E+00  0.19762224525E-01 0.  0.
         14    1    1    2    0    0  0.86693104814E-02  0.23682856826E-01  0.35663161105E-02  0.25470635293E-01  0.00000000000E+00 0. -1.
     999901    1    3    3    0    0  0.84296098570E-01 -0.10881028673E+00  0.28842931348E-02  0.89070412028E+00  0.88000000000E+00 0.  1.
        -11    1    4    4    0    0 -0.87799236499E-01  0.79283758615E-01 -0.10831358946E-01  0.11879478005E+00  0.51100000000E-03 0.  1.
         11    1    4    4    0    0 -0.51661725527E-02  0.58436712854E-02  0.43807497008E-02  0.89604643784E-02  0.51100000000E-03 0. -1.
</event>
<event>
 8    1  0.1118868E+005  0.1043930E+01  0.7957747E-01            NaN
         13   -1    0    0    0    0  0.00000000000E+00  0.00000000000E+00  0.74505805969E-08  0.10566000000E+00  0.10566000000E+00 0.  1.
     999900   -1    0    0    0    0 -0.00000000000E+00 -0.00000000000E+00 -0.74505805969E-08  0.93827000000E+00  0.93827000000E+00 0. -1.
     999902    2    1    2    0    0 -0.21408233634E-01  0.12988520449E-01 -0.77836121217E-02  0.10177078958E+01  0.10173700224E+01 0.  0.
     999903    2    3    3    0    0 -0.51044346365E-01  0.11250299326E+00 -0.41596600269E-01  0.13095835527E+00  0.12544515604E-01 0.  0.
         14    1    1    2    0    0  0.21408233634E-01 -0.12988520449E-01  0.77836121217E-02  0.26222104195E-01  0.00000000000E+00 0.  1.
     999901    1    3    3    0    0  0.29636112731E-01 -0.99514472812E-01  0.33812988147E-01  0.88674954054E+00  0.88000000000E+00 0.  1.
        -11    1    4    4    0    0 -0.97616734536E-02  0.11710940253E-01 -0.53637748485E-02  0.16169959550E-01  0.51100000000E-03 0. -1.
         11    1    4    4    0    0 -0.41282672911E-01  0.10079205301E+00 -0.36232825420E-01  0.11478839572E+00  0.51100000000E-03 0.  1.
</event>
<event>
 8    1  0.1118868E+005  0.1043930E+01  0.7957747E-01            NaN
         13   -1    0    0    0    0  0.00000000000E+00  0.00000000000E+00  0.74505805969E-08  0.10566000000E+00  0.10566000000E+00 0.  1.
     999900   -1    0    0    0    0 -0.00000000000E+00 -0.00000000000E+00 -0.74505805969E-08  0.93827000000E+00  0.93827000000E+00 0. -1.
     999902    2    1    2    0    0  0.20103471066E-01 -0.92950039274E-02 -0.17501760690E-02  0.10217126698E+01  0.10214710812E+01 0.  0.
     999903    2    3    3    0    0 -0.78732480894E-01  0.97106284142E-01 -0.26882225338E-01  0.12945631679E+00  0.20195295264E-01 0.  0.
         14    1    1    2    0    0 -0.20103471066E-01  0.92950039274E-02  0.17501760690E-02  0.22217330244E-01  0.00000000000E+00 0.  1.
     999901    1    3    3    0    0  0.98835951960E-01 -0.10640128807E+00  0.25132049269E-01  0.89225635296E+00  0.88000000000E+00 0.  1.
        -11    1    4    4    0    0 -0.52589448308E-01  0.51706052726E-01 -0.21307766455E-01  0.76768795706E-01  0.51100000000E-03 0. -1.
         11    1    4    4    0    0 -0.26143032586E-01  0.45400231416E-01 -0.55744588829E-02  0.52687521087E-01  0.51100000000E-03 0.  1.
</event>
<event>
 8    1  0.1118868E+005  0.1043930E+01  0.7957747E-01            NaN
         13   -1    0    0    0    0  0.00000000000E+00  0.00000000000E+00  0.74505805969E-08  0.10566000000E+00  0.10566000000E+00 0. -1.
     999900   -1    0    0    0    0 -0.00000000000E+00 -0.00000000000E+00 -0.74505805969E-08  0.93827000000E+00  0.93827000000E+00 0.  1.
     999902    2    1    2    0    0  0.14053825185E-01 -0.13306645169E-01 -0.13613563353E-01  0.10202676689E+01  0.10199932403E+01 0.  0.
     999903    2    3    3    0    0 -0.93459877834E-01  0.73894054158E-01 -0.44855191663E-01  0.12889838644E+00  0.20192221332E-01 0.  0.
         14    1    1    2    0    0 -0.14053825185E-01  0.13306645169E-01  0.13613563353E-01  0.23662331144E-01  0.00000000000E+00 0. -1.
     999901    1    3    3    0    0  0.10751370302E+00 -0.87200699327E-01  0.31241628310E-01  0.89136928242E+00  0.88000000000E+00 0. -1.
        -11    1    4    4    0    0 -0.14507999289E-01  0.55531275692E-02 -0.80248989593E-03  0.15563559368E-01  0.51100000000E-03 0.  1.
         11    1    4    4    0    0 -0.78951878545E-01  0.68340926589E-01 -0.44052701767E-01  0.11333482707E+00  0.51100000000E-03 0. -1.
</event>
<event>
 8    1  0.1118868E+005  0.1043930E+01  0.7957747E-01            NaN
         13   -1    0    0    0    0  0.00000000000E+00  0.00000000000E+00  0.74505805969E-08  0.10566000000E+00  0.10566000000E+00 0.  1.
     999900   -1    0    0    0    0 -0.00000000000E+00 -0.00000000000E+00 -0.74505805969E-08  0.93827000000E+00  0.93827000000E+00 0. -1.
     999902    2    1    2    0    0 -0.79129499696E-02  0.23381957371E-01  0.19116948384E-02  0.10191714604E+01  0.10188706887E+01 0.  0.
     999903    2    3    3    0    0 -0.36501535544E-01  0.91062784234E-01 -0.85516895161E-01  0.13179230809E+00  0.20767290220E-01 0.  0.
         14    1    1    2    0    0  0.79129499696E-02 -0.23381957371E-01 -0.19116948384E-02  0.24758539635E-01  0.00000000000E+00 0.  1.
     999901    1    3    3    0    0  0.28588585575E-01 -0.67680826863E-01  0.87428589999E-01  0.88737915228E+00  0.88000000000E+00 0. -1.
        -11    1    4    4    0    0 -0.22758408311E-01  0.77230825211E-01 -0.72460229398E-01  0.10832031886E+00  0.51100000000E-03 0.  1.
         11    1    4    4    0    0 -0.13743127233E-01  0.13831959023E-01 -0.13056665763E-01  0.23471989230E-01  0.51100000000E-03 0. -1.
</event>
<event>
 8    1  0.1118868E+005  0.1043930E+01  0.7957747E-01            NaN
         13   -1    0    0    0    0  0.00000000000E+00  0.00000000000E+00  0.74505805969E-08  0.10566000000E+00  0.10566000000E+00 0.  1.
     999900   -1    0    0    0    0 -0.00000000000E+00 -0.00000000000E+00 -0.74505805969E-08  0.93827000000E+00  0.93827000000E+00 0.  1.
     999902    2    1    2    0    0  0.14918431772E-02 -0.18110365332E-02 -0.23768480848E-01  0.10200459859E+01  0.10197663297E+01 0.  0.
     999903    2    3    3    0    0 -0.11261074087E-01  0.66847497429E-01 -0.11143386530E+00  0.13293728293E+00  0.25679080140E-01 0.  0.
         14    1    1    2    0    0 -0.14918431772E-02  0.18110365332E-02  0.23768480848E-01  0.23884014136E-01  0.00000000000E+00 0.  1.
     999901    1    3    3    0    0  0.12752917264E-01 -0.68658533962E-01  0.87665384448E-01  0.88710870293E+00  0.88000000000E+00 0. -1.
        -11    1    4    4    0    0 -0.19263150977E-01  0.54062866796E-01 -0.88834644030E-01  0.10576255317E+00  0.51100000000E-03 0. -1.
         11    1    4    4    0    0  0.80020768899E-02  0.12784630633E-01 -0.22599221266E-01  0.27174729765E-01  0.51100000000E-03 0.  1.
</event>
<event>
 8    1  0.1118868E+005  0.1043930E+01  0.7957747E-01            NaN
         13   -1    0    0    0    0  0.00000000000E+00  0.00000000000E+00  0.74505805969E-08  0.10566000000E+00  0.10566000000E+00 0.  1.
     999900   -1    0    0    0    0 -0.00000000000E+00 -0.00000000000E+00 -0.74505805969E-08  0.93827000000E+00  0.93827000000E+00 0.  1.
     999902    2    1    2    0    0 -0.18915698790E-01  0.12191339312E-01  0.11481414015E-01  0.10186662853E+01  0.10183529572E+01 0.  0.
     999903    2    3    3    0    0 -0.73156552432E-01  0.10577495132E+00  0.22960941571E-01  0.13196918805E+00  0.18666554756E-01 0.  0.
         14    1    1    2    0    0  0.18915698790E-01 -0.12191339312E-01 -0.11481414015E-01  0.25263714745E-01  0.00000000000E+00 0.  1.
     999901    1    3    3    0    0  0.54240853642E-01 -0.93583612006E-01 -0.11479527557E-01  0.88669709721E+00  0.88000000000E+00 0. -1.
        -11    1    4    4    0    0 -0.11371791131E-01  0.19964082613E-01 -0.27559322311E-02  0.23146025826E-01  0.51100000000E-03 0. -1.
         11    1    4    4    0    0 -0.61784761301E-01  0.85810868705E-01  0.25716873803E-01  0.10882316222E+00  0.51100000000E-03 0.  1.
</event>
<event>
 8    1  0.1118868E+005  0.1043930E+01  0.7957747E-01            NaN
         13   -1    0    0    0    0  0.00000000000E+00  0.00000000000E+00  0.74505805969E-08  0.10566000000E+00  0.10566000000E+00 0.  1.
     999900   -1    0    0    0    0 -0.00000000000E+00 -0.00000000000E+00 -0.74505805969E-08  0.93827000000E+00  0.93827000000E+00 0. -1.
     999902    2    1    2    0    0  0.88908005665E-02  0.22621279206E-01 -0.70510905206E-02  0.10186221655E+01  0.10183077284E+01 0.  0.
     999903    2    3    3    0    0 -0.66860186583E-01  0.37113419969E-01  0.10131956464E+00  0.12862641662E+00  0.20770420824E-01 0.  0.
         14    1    1    2    0    0 -0.88908005665E-02 -0.22621279206E-01  0.70510905206E-02  0.25307834462E-01  0.00000000000E+00 0. -1.
     999901    1    3    3    0    0  0.75750987149E-01 -0.14492140762E-01 -0.10837065516E+00  0.88999574892E+00  0.88000000000E+00 0. -1.
        -11    1    4    4    0    0 -0.15876367752E-01  0.18227282493E-01  0.23686926732E-01  0.33847075192E-01  0.51100000000E-03 0. -1.
         11    1    4    4    0    0 -0.50983818831E-01  0.18886137476E-01  0.77632637907E-01  0.94779341424E-01  0.51100000000E-03 0.  1.
</event>
<event>
 8    1  0.1118868E+005  0.1043930E+01  0.7957747E-01            NaN
         13   -1    0    0    0    0  0.00000000000E+00  0.00000000000E+00  0.74505805969E-08  0.10566000000E+00  0.10566000000E+00 0. -1.
     999900   -1    0    0    0    0 -0.00000000000E+00 -0.00000000000E+00 -0.74505805969E-08  0.93827000000E+00  0.93827000000E+00 0.  1.
     999902    2    1    2    0    0  0.13101677632E-02 -0.12247649851E-01 -0.22052817799E-01  0.10186703832E+01  0.10183571581E+01 0.  0.
     999903    2    3    3    0    0 -0.35631769073E-01  0.11364011060E+00 -0.44664574725E-01  0.12865705385E+00  0.19339482029E-01 0.  0.
         14    1    1    2    0    0 -0.13101677632E-02  0.12247649851E-01  0.22052817799E-01  0.25259616769E-01  0.00000000000E+00 0. -1.
     999901    1    3    3    0    0  0.36941936836E-01 -0.12588776045E+00  0.22611756925E-01  0.89001332938E+00  0.88000000000E+00 0.  1.
        -11    1    4    4    0    0 -0.15609155904E-01  0.62137751895E-01 -0.14462836486E-01  0.65682423211E-01  0.51100000000E-03 0. -1.
         11    1    4    4    0    0 -0.20022613169E-01  0.51502358704E-01 -0.30201738239E-01  0.62974630637E-01  0.51100000000E-03 0.  1.
</event>
<event>
 8    1  0.1118868E+005  0.1043930E+01  0.7957747E-01            NaN
         13   -1    0    0    0    0  0.00000000000E+00  0.00000000000E+00  0.74505805969E-08  0.10566000000E+00  0.10566000000E+00 0.  1.
     999900   -1    0    0    0    0 -0.00000000000E+00 -0.00000000000E+00 -0.74505805969E-08  0.93827000000E+00  0.93827000000E+00 0. -1.
     999902    2    1    2    0    0 -0.56984401493E-02  0.11217009507E-01  0.20327422252E-01  0.10200239836E+01  0.10197438059E+01 0.  0.
     999903    2    3    3    0    0 -0.37071668594E-01 -0.95742955604E-01 -0.73928241418E-01  0.12799884738E+00  0.19424157415E-01 0.  0.
         14    1    1    2    0    0  0.56984401493E-02 -0.11217009507E-01 -0.20327422252E-01  0.23906016352E-01  0.00000000000E+00 0. -1.
     999901    1    3    3    0    0  0.31373228445E-01  0.10695996511E+00  0.94255663670E-01  0.89202513627E+00  0.88000000000E+00 0.  1.
        -11    1    4    4    0    0 -0.65502144018E-02 -0.10427423489E-01 -0.23983785254E-02  0.12555867548E-01  0.51100000000E-03 0. -1.
         11    1    4    4    0    0 -0.30521454193E-01 -0.85315532115E-01 -0.71529862892E-01  0.11544297983E+00  0.51100000000E-03 0.  1.
</event>
<event>
 8    1  0.1118868E+005  0.1043930E+01  0.7957747E-01            NaN
         13   -1    0    0    0    0  0.00000000000E+00  0.00000000000E+00  0.74505805969E-08  0.10566000000E+00  0.10566000000E+00 0. -1.
     999900   -1    0    0    0    0 -0.00000000000E+00 -0.00000000000E+00 -0.74505805969E-08  0.93827000000E+00  0.93827000000E+00 0.  1.
     999902    2    1    2    0    0  0.10447753014E-01 -0.42620571795E-02  0.20758432982E-01  0.10203030405E+01  0.10200294414E+01 0.  0.
     999903    2    3    3    0    0 -0.11350879933E+00  0.11649465522E-01 -0.54905360076E-01  0.12825852761E+00  0.20388569556E-01 0.  0.
         14    1    1    2    0    0 -0.10447753014E-01  0.42620571795E-02 -0.20758432982E-01  0.23626959481E-01  0.00000000000E+00 0.  1.
     999901    1    3    3    0    0  0.12395655234E+00 -0.15911522701E-01  0.75663793058E-01  0.89204451290E+00  0.88000000000E+00 0.  1.
        -11    1    4    4    0    0 -0.37765553583E-01 -0.52320184430E-02 -0.14766671184E-01  0.40889200937E-01  0.51100000000E-03 0.  1.
         11    1    4    4    0    0 -0.75743245747E-01  0.16881483965E-01 -0.40138688892E-01  0.87369326677E-01  0.51100000000E-03 0. -1.
</event>
<event>
 8    1  0.1150481E+005  0.1043930E+01  0.7957747E-01            NaN
         13   -1    0    0    0    0  0.00000000000E+00  0.00000000000E+00  0.74505805969E-08  0.10566000000E+00  0.10566000000E+00 0. -1.
     999900   -1    0    0    0    0 -0.00000000000E+00 -0.00000000000E+00 -0.74505805969E-08  0.93827000000E+00  0.93827000000E+00 0. -1.
     999902    2    1    2    0    0  0.21166672134E-01 -0.98286992575E-02  0.48549777638E-02  0.10200930088E+01  0.10198144657E+01 0.  0.
     999903    2    3    3    0    0  0.12286745858E+00 -0.48257032899E-01  0.18755030677E-02  0.13339764737E+00  0.19137952060E-01 0.  0.
         14    1    1    2    0    0 -0.21166672134E-01  0.98286992575E-02 -0.48549777638E-02  0.23836991157E-01  0.00000000000E+00 0. -1.
     999901    1    3    3    0    0 -0.10170078645E+00  0.38428333642E-01  0.29794746962E-02  0.88669536147E+00  0.88000000000E+00 0.  1.
        -11    1    4    4    0    0  0.68889101273E-01 -0.32818164897E-01  0.88535316596E-02  0.76820481418E-01  0.51100000000E-03 0. -1.
         11    1    4    4    0    0  0.53978357310E-01 -0.15438868002E-01 -0.69780285919E-02  0.56577165951E-01  0.51100000000E-03 0.  1.
</event>
<event>
 8    1  0.1118868E+005  0.1043930E+01  0.7957747E-01            NaN
         13   -1    0    0    0    0  0.00000000000E+00  0.00000000000E+00  0.74505805969E-08  0.10566000000E+00  0.10566000000E+00 0.  1.
     999900   -1    0    0    0    0 -0.00000000000E+00 -0.00000000000E+00 -0.74505805969E-08  0.93827000000E+00  0.93827000000E+00 0. -1.
     999902    2    1    2    0    0  0.54884960040E-02  0.18161361494E-01  0.13438141086E-01  0.10206804349E+01  0.10204156055E+01 0.  0.
     999903    2    3    3    0    0  0.89352616677E-01  0.84179848643E-01 -0.44563116145E-01  0.13233603257E+00  0.21373281703E-01 0.  0.
         14    1    1    2    0    0 -0.54884960040E-02 -0.18161361494E-01 -0.13438141086E-01  0.23249565062E-01  0.00000000000E+00 0. -1.
     999901    1    3    3    0    0 -0.83864120673E-01 -0.66018487148E-01  0.58001257231E-01  0.88834440237E+00  0.88000000000E+00 0.  1.
        -11    1    4    4    0    0  0.31111449418E-01  0.42570509800E-01 -0.23438663929E-01  0.57704442440E-01  0.51100000000E-03 0. -1.
         11    1    4    4    0    0  0.58241167260E-01  0.41609338843E-01 -0.21124452216E-01  0.74631590129E-01  0.51100000000E-03 0.  1.
</event>
<event>
 8    1  0.1118868E+005  0.1043930E+01  0.7957747E-01            NaN
         13   -1    0    0    0    0  0.00000000000E+00  0.00000000000E+00  0.74505805969E-08  0.10566000000E+00  0.10566000000E+00 0. -1.
     999900   -1    0    0    0    0 -0.00000000000E+00 -0.00000000000E+00 -0.74505805969E-08  0.93827000000E+00  0.93827000000E+00 0.  1.
     999902    2    1    2    0    0  0.16063664770E-01 -0.16044129387E-01 -0.58404668524E-02  0.10204871660E+01  0.10202178637E+01 0.  0.
     999903    2    3    3    0    0  0.29838429942E-01 -0.12052194652E+00  0.42782038171E-01  0.13286702965E+00  0.20185967541E-01 0.  0.
         14    1    1    2    0    0 -0.16063664770E-01  0.16044129387E-01  0.58404668524E-02  0.23442834015E-01  0.00000000000E+00 0. -1.
     999901    1    3    3    0    0 -0.13774765172E-01  0.10447781713E+00 -0.48622505023E-01  0.88762013633E+00  0.88000000000E+00 0.  1.
        -11    1    4    4    0    0  0.19532269981E-01 -0.45311070859E-01  0.22852286489E-01  0.54379139675E-01  0.51100000000E-03 0.  1.
         11    1    4    4    0    0  0.10306159961E-01 -0.75210875656E-01  0.19929751681E-01  0.78487889978E-01  0.51100000000E-03 0. -1.
</event>
<event>
 8    1  0.1118868E+005  0.1043930E+01  0.7957747E-01            NaN
         13   -1    0    0    0    0  0.00000000000E+00  0.00000000000E+00  0.74505805969E-08  0.10566000000E+00  0.10566000000E+00 0.  1.
     999900   -1    0    0    0    0 -0.00000000000E+00 -0.00000000000E+00 -0.74505805969E-08  0.93827000000E+00  0.93827000000E+00 0. -1.
     999902    2    1    2    0    0 -0.35817160559E-02  0.19106404366E-01  0.17025973780E-01  0.10180888088E+01  0.10177608047E+01 0.  0.
     999903    2    3    3    0    0 -0.79561072137E-01 -0.67058064297E-01 -0.69011288354E-01  0.12646131448E+00  0.20078793621E-01 0.  0.
         14    1    1    2    0    0  0.35817160559E-02 -0.19106404366E-01 -0.17025973780E-01  0.25841191166E-01  0.00000000000E+00 0. -1.
     999901    1    3    3    0    0  0.75979356081E-01  0.86164468663E-01  0.86037262134E-01  0.89162749435E+00  0.88000000000E+00 0.  1.
        -11    1    4    4    0    0 -0.31053654589E-01 -0.14254722028E-01 -0.24794324542E-01  0.42220210965E-01  0.51100000000E-03 0. -1.
         11    1    4    4    0    0 -0.48507417548E-01 -0.52803342269E-01 -0.44216963812E-01  0.84241103516E-01  0.51100000000E-03 0.  1.
</event>
<event>
 8    1  0.1118868E+005  0.1043930E+01  0.7957747E-01            NaN
         13   -1    0    0    0    0  0.00000000000E+00  0.00000000000E+00  0.74505805969E-08  0.10566000000E+00  0.10566000000E+00 0.  1.
     999900   -1    0    0    0    0 -0.00000000000E+00 -0.00000000000E+00 -0.74505805969E-08  0.93827000000E+00  0.93827000000E+00 0. -1.
     999902    2    1    2    0    0 -0.31137551036E-01 -0.99223985588E-02 -0.96837003157E-03  0.10112353702E+01  0.10107067008E+01 0.  0.
     999903    2    3    3    0    0  0.68549971625E-01  0.83395847442E-01  0.46633904715E-01  0.11943277221E+00  0.20868637427E-01 0.  0.
         14    1    1    2    0    0  0.31137551036E-01  0.99223985588E-02  0.96837003157E-03  0.32694629807E-01  0.00000000000E+00 0.  1.
     999901    1    3    3    0    0 -0.99687522662E-01 -0.93318246000E-01 -0.47602274747E-01  0.89180259798E+00  0.88000000000E+00 0. -1.
        -11    1    4    4    0    0  0.39200761735E-02  0.15901846004E-01  0.50259712262E-02  0.17139346875E-01  0.51100000000E-03 0. -1.
         11    1    4    4    0    0  0.64629895452E-01  0.67494001438E-01  0.41607933489E-01  0.10229342533E+00  0.51100000000E-03 0.  1.
</event>
<event>
 8    1  0.1118868E+005  0.1043930E+01  0.7957747E-01            NaN
         13   -1    0    0    0    0  0.00000000000E+00  0.00000000000E+00  0.74505805969E-08  0.10566000000E+00  0.10566000000E+00 0. -1.
     999900   -1    0    0    0    0 -0.00000000000E+00 -0.00000000000E+00 -0.74505805969E-08  0.93827000000E+00  0.93827000000E+00 0.  1.
     999902    2    1    2    0    0 -0.22255975009E-01  0.30632759449E-02 -0.68277001751E-02  0.10204495917E+01  0.10201794154E+01 0.  0.
     999903    2    3    3    0    0 -0.11342341885E+00 -0.49392083072E-01 -0.42889535008E-01  0.13345267886E+00  0.25800299733E-01 0.  0.
         14    1    1    2    0    0  0.22255975009E-01 -0.30632759449E-02  0.68277001751E-02  0.23480408276E-01  0.00000000000E+00 0. -1.
     999901    1    3    3    0    0  0.91167443842E-01  0.52455359017E-01  0.36061834833E-01  0.88699691287E+00  0.88000000000E+00 0. -1.
        -11    1    4    4    0    0 -0.59088767500E-01 -0.35623528254E-01 -0.33187406299E-01  0.76564895793E-01  0.51100000000E-03 0. -1.
         11    1    4    4    0    0 -0.54334651352E-01 -0.13768554819E-01 -0.97021287091E-02  0.56887783063E-01  0.51100000000E-03 0.  1.
</event>
<event>
 8    1  0.1118868E+005  0.1043930E+01  0.7957747E-01            NaN
         13   -1    0    0    0    0  0.00000000000E+00  0.00000000000E+00  0.74505805969E-08  0.10566000000E+00  0.10566000000E+00 0.  1.
     999900   -1    0    0    0    0 -0.00000000000E+00 -0.00000000000E+00 -0.74505805969E-08  0.93827000000E+00  0.93827000000E+00 0.  1.
     999902    2    1    2    0    0  0.10359388192E-01  0.18157986966E-01  0.10826587614E-01  0.10203876039E+01  0.10201159825E+01 0.  0.
     999903    2    3    3    0    0  0.18163377282E-01  0.10659773467E+00 -0.74368743393E-01  0.13182655612E+00  0.12431636784E-01 0.  0.
         14    1    1    2    0    0 -0.10359388192E-01 -0.18157986966E-01 -0.10826587614E-01  0.23542396091E-01  0.00000000000E+00 0. -1.
     999901    1    3    3    0    0 -0.78039890902E-02 -0.88439747707E-01  0.85195331007E-01  0.88856104779E+00  0.88000000000E+00 0.  1.
        -11    1    4    4    0    0  0.14840012038E-01  0.54476135845E-01 -0.42117736538E-01  0.70441750304E-01  0.51100000000E-03 0.  1.
         11    1    4    4    0    0  0.33233652439E-02  0.52121598828E-01 -0.32251006855E-01  0.61384805817E-01  0.51100000000E-03 0. -1.
</event>
<event>
 8    1  0.1118868E+005  0.1043930E+01  0.7957747E-01            NaN
         13   -1    0    0    0    0  0.00000000000E+00  0.00000000000E+00  0.74505805969E-08  0.10566000000E+00  0.10566000000E+00 0.  1.
     999900   -1    0    0    0    0 -0.00000000000E+00 -0.00000000000E+00 -0.74505805969E-08  0.93827000000E+00  0.93827000000E+00 0.  1.
     999902    2    1    2    0    0 -0.15059763567E-01 -0.15929998583E-01  0.90418428081E-03  0.10219896517E+01  0.10217541139E+01 0.  0.
     999903    2    3    3    0    0 -0.83941898612E-01  0.32840419855E-01 -0.95383656166E-01  0.13272329653E+00  0.19816560252E-01 0.  0.
         14    1    1    2    0    0  0.15059763567E-01  0.15929998583E-01 -0.90418428081E-03  0.21940348283E-01  0.00000000000E+00 0.  1.
     999901    1    3    3    0    0  0.68882135045E-01 -0.48770418438E-01  0.96287840447E-01  0.88926635518E+00  0.88000000000E+00 0. -1.
        -11    1    4    4    0    0 -0.71616223946E-01  0.24469837637E-01 -0.68981557811E-01  0.10240299276E+00  0.51100000000E-03 0. -1.
         11    1    4    4    0    0 -0.12325674667E-01  0.83705822180E-02 -0.26402098355E-01  0.30320303778E-01  0.51100000000E-03 0.  1.
</event>
<event>
 8    1  0.1118868E+005  0.1043930E+01  0.7957747E-01            NaN
         13   -1    0    0    0    0  0.00000000000E+00  0.00000000000E+00  0.74505805969E-08  0.10566000000E+00  0.10566000000E+00 0. -1.
     999900   -1    0    0    0    0 -0.00000000000E+00 -0.00000000000E+00 -0.74505805969E-08  0.93827000000E+00  0.93827000000E+00 0.  1.
     999902    2    1    2    0    0 -0.29764573213E-03  0.72267726795E-02  0.22889263148E-01  0.10199251421E+01  0.10196426150E+01 0.  0.
     999903    2    3    3    0    0 -0.67079596916E-01  0.89633465173E-01  0.62762248384E-01  0.13265937190E+00  0.33549645760E-01 0.  0.
         14    1    1    2    0    0  0.29764573213E-03 -0.72267726795E-02 -0.22889263148E-01  0.24004857921E-01  0.00000000000E+00 0.  1.
     999901    1    3    3    0    0  0.66781951183E-01 -0.82406692493E-01 -0.39872985236E-01  0.88726577017E+00  0.88000000000E+00 0.  1.
        -11    1    4    4    0    0 -0.28263909887E-01  0.25358908833E-01  0.58129652846E-02  0.38418414149E-01  0.51100000000E-03 0.  1.
         11    1    4    4    0    0 -0.38815687029E-01  0.64274556340E-01  0.56949283100E-01  0.94240957756E-01  0.51100000000E-03 0. -1.
</event>
<event>
 8    1  0.1118868E+005  0.1043930E+01  0.7957747E-01            NaN
         13   -1    0    0    0    0  0.00000000000E+00  0.00000000000E+00  0.74505805969E-08  0.10566000000E+00  0.10566000000E+00 0. -1.
     999900   -1    0    0    0    0 -0.00000000000E+00 -0.00000000000E+00 -0.74505805969E-08  0.93827000000E+00  0.93827000000E+00 0.  1.
     999902    2    1    2    0    0  0.91979078394E-02 -0.49839095750E-02 -0.21232075414E-01  0.10202605706E+01  0.10199859754E+01 0.  0.
     999903    2    3    3    0    0  0.28958740520E-01  0.10529741585E+00 -0.70919329692E-01  0.13176674139E+00  0.20168499617E-01 0.  0.
         14    1    1    2    0    0 -0.91979078394E-02  0.49839095750E-02  0.21232075414E-01  0.23669429433E-01  0.00000000000E+00 0. -1.
     999901    1    3    3    0    0 -0.19760832681E-01 -0.11028132542E+00  0.49687254278E-01  0.88849382918E+00  0.88000000000E+00 0. -1.
        -11    1    4    4    0    0  0.19740813037E-01  0.76889026221E-01 -0.61583565568E-01  0.10047098448E+00  0.51100000000E-03 0. -1.
         11    1    4    4    0    0  0.92179274834E-02  0.28408389624E-01 -0.93357641244E-02  0.31295756915E-01  0.51100000000E-03 0.  1.
</event>
<event>
 8    1  0.1118868E+005  0.1043930E+01  0.7957747E-01            NaN
         13   -1    0    0    0    0  0.00000000000E+00  0.00000000000E+00  0.74505805969E-08  0.10566000000E+00  0.10566000000E+00 0. -1.
     999900   -1    0    0    0    0 -0.00000000000E+00 -0.00000000000E+00 -0.74505805969E-08  0.93827000000E+00  0.93827000000E+00 0.  1.
     999902    2    1    2    0    0 -0.27493255752E-02  0.13842548938E-01  0.19300153032E-01  0.10200203605E+01  0.10197400968E+01 0.  0.
     999903    2    3    3    0    0  0.10665422252E+00 -0.67782057937E-01 -0.14524470935E-01  0.12885493371E+00  0.20569470721E-01 0.  0.
         14    1    1    2    0    0  0.27493255752E-02 -0.13842548938E-01 -0.19300153032E-01  0.23909639464E-01  0.00000000000E+00 0.  1.
     999901    1    3    3    0    0 -0.10940354810E+00  0.81624606876E-01  0.33824623968E-01  0.89116542683E+00  0.88000000000E+00 0. -1.
        -11    1    4    4    0    0  0.26465669470E-01 -0.27781812145E-01 -0.59616344840E-02  0.38833786234E-01  0.51100000000E-03 0. -1.
         11    1    4    4    0    0  0.80188553050E-01 -0.40000245792E-01 -0.85628364510E-02  0.90021147476E-01  0.51100000000E-03 0.  1.
</event>
<event>
 8    1  0.1118868E+005  0.1043930E+01  0.7957747E-01            NaN
         13   -1    0    0    0    0  0.00000000000E+00  0.00000000000E+00  0.74505805969E-08  0.10566000000E+00  0.10566000000E+00 0. -1.
     999900   -1    0    0    0    0 -0.00000000000E+00 -0.00000000000E+00 -0.74505805969E-08  0.93827000000E+00  0.93827000000E+00 0.  1.
     999902    2    1    2    0    0  0.20182945600E-01  0.15976997537E-01 -0.21206905999E-01  0.10105781094E+01  0.10100276069E+01 0.  0.
     999903    2    3    3    0    0  0.73578779896E-01  0.96998897249E-01  0.17802326242E-01  0.12438547598E+00  0.18226379162E-01 0.  0.
         14    1    1    2    0    0 -0.20182945600E-01 -0.15976997537E-01  0.21206905999E-01  0.33351890583E-01  0.00000000000E+00 0.  1.
     999901    1    3    3    0    0 -0.53395834296E-01 -0.81021899712E-01 -0.39009232241E-01  0.88619263343E+00  0.88000000000E+00 0. -1.
        -11    1    4    4    0    0  0.56438980567E-01  0.62339058613E-01  0.78741249038E-02  0.84461705643E-01  0.51100000000E-03 0. -1.
         11    1    4    4    0    0  0.17139799330E-01  0.34659838636E-01  0.99282013386E-02  0.39923770340E-01  0.51100000000E-03 0.  1.
</event>
<event>
 8    1  0.1118868E+005  0.1043930E+01  0.7957747E-01            NaN
         13   -1    0    0    0    0  0.00000000000E+00  0.00000000000E+00  0.74505805969E-08  0.10566000000E+00  0.10566000000E+00 0.  1.
     999900   -1    0    0    0    0 -0.00000000000E+00 -0.00000000000E+00 -0.74505805969E-08  0.93827000000E+00  0.93827000000E+00 0. -1.
     999902    2    1    2    0    0  0.94275123248E-02  0.20105296015E-01 -0.10545117310E-01  0.10193474774E+01  0.10190510190E+01 0.  0.
     999903    2    3    3    0    0 -0.94252010594E-02 -0.80023837026E-01  0.96235239026E-01  0.12705643042E+00  0.19734902417E-01 0.  0.
         14    1    1    2    0    0 -0.94275123248E-02 -0.20105296015E-01  0.10545117310E-01  0.24582522564E-01  0.00000000000E+00 0.  1.
     999901    1    3    3    0    0  0.18852713384E-01  0.10012913304E+00 -0.10678035634E+00  0.89229104702E+00  0.88000000000E+00 0. -1.
        -11    1    4    4    0    0 -0.35558588965E-02 -0.10148126163E-01  0.24398902119E-01  0.26668260962E-01  0.51100000000E-03 0. -1.
         11    1    4    4    0    0 -0.58693421629E-02 -0.69875710863E-01  0.71836336907E-01  0.10038816946E+00  0.51100000000E-03 0.  1.
</event>
<event>
 8    1  0.1118868E+005  0.1043930E+01  0.7957747E-01            NaN
         13   -1    0    0    0    0  0.00000000000E+00  0.00000000000E+00  0.74505805969E-08  0.10566000000E+00  0.10566000000E+00 0. -1.
     999900   -1    0    0    0    0 -0.00000000000E+00 -0.00000000000E+00 -0.74505805969E-08  0.93827000000E+00  0.93827000000E+00 0. -1.
     999902    2    1    2    0    0 -0.13412215244E-01  0.64617958720E-02 -0.16559783896E-01  0.10216618890E+01  0.10214191827E+01 0.  0.
     999903    2    3    3    0    0  0.11244622019E+00  0.57158265575E-01 -0.29668222641E-01  0.13116634778E+00  0.20327016423E-01 0.  0.
         14    1    1    2    0    0  0.13412215244E-01 -0.64617958720E-02  0.16559783896E-01  0.22268110973E-01  0.00000000000E+00 0. -1.
     999901    1    3    3    0    0 -0.12585843544E+00 -0.50696469703E-01  0.13108438745E-01  0.89049554124E+00  0.88000000000E+00 0. -1.
        -11    1    4    4    0    0  0.25021205848E-01  0.18829446060E-01 -0.40191670814E-03  0.31321421409E-01  0.51100000000E-03 0.  1.
         11    1    4    4    0    0  0.87425014344E-01  0.38328819515E-01 -0.29266305933E-01  0.99844926373E-01  0.51100000000E-03 0. -1.
</event>
<event>
 8    1  0.1118868E+005  0.1043930E+01  0.7957747E-01            NaN
         13   -1    0    0    0    0  0.00000000000E+00  0.00000000000E+00  0.74505805969E-08  0.10566000000E+00  0.10566000000E+00 0.  1.
     999900   -1    0    0    0    0 -0.00000000000E+00 -0.00000000000E+00 -0.74505805969E-08  0.93827000000E+00  0.93827000000E+00 0.  1.
     999902    2    1    2    0    0 -0.32701280868E-02 -0.21760394973E-01  0.55050020373E-03  0.10219183763E+01  0.10216812890E+01 0.  0.
     999903    2    3    3    0    0 -0.12486084464E-01  0.58166704732E-01 -0.11480821690E+00  0.13075009325E+00  0.19375045110E-01 0.  0.
         14    1    1    2    0    0  0.32701280868E-02  0.21760394973E-01 -0.55050020373E-03  0.22011623692E-01  0.00000000000E+00 0.  1.
     999901    1    3    3    0    0  0.92159563776E-02 -0.79927099705E-01  0.11535871710E+00  0.89116828306E+00  0.88000000000E+00 0.  1.
        -11    1    4    4    0    0  0.31347290375E-02  0.26882357608E-01 -0.58612966404E-01  0.64561820206E-01  0.51100000000E-03 0. -1.
         11    1    4    4    0    0 -0.15620813502E-01  0.31284347123E-01 -0.56195250493E-01  0.66188273043E-01  0.51100000000E-03 0.  1.
</event>
<event>
 8    1  0.1118868E+005  0.1043930E+01  0.7957747E-01            NaN
         13   -1    0    0    0    0  0.00000000000E+00  0.00000000000E+00  0.74505805969E-08  0.10566000000E+00  0.10566000000E+00 0.  1.
     999900   -1    0    0    0    0 -0.00000000000E+00 -0.00000000000E+00 -0.74505805969E-08  0.93827000000E+00  0.93827000000E+00 0.  1.
     999902    2    1    2    0    0  0.22162236457E-01  0.77499707620E-02 -0.37984913249E-02  0.10201464908E+01  0.10198692110E+01 0.  0.
     999903    2    3    3    0    0  0.13060405833E+00 -0.55269355631E-02 -0.16415438048E-01  0.13330090546E+00  0.20290335605E-01 0.  0.
         14    1    1    2    0    0 -0.22162236457E-01 -0.77499707620E-02  0.37984913249E-02  0.23783509159E-01  0.00000000000E+00 0. -1.
     999901    1    3    3    0    0 -0.10844182188E+00  0.13276906325E-01  0.12616946724E-01  0.88684558539E+00  0.88000000000E+00 0. -1.
        -11    1    4    4    0    0  0.54542694632E-01 -0.12188202065E-01 -0.85947058440E-02  0.56547218294E-01  0.51100000000E-03 0. -1.
         11    1    4    4    0    0  0.76061363701E-01  0.66612665023E-02 -0.78207322045E-02  0.76753687161E-01  0.51100000000E-03 0.  1.
</event>
<event>
 8    1  0.1118868E+005  0.1043930E+01  0.7957747E-01            NaN
         13   -1    0    0    0    0  0.00000000000E+00  0.00000000000E+00  0.74505805969E-08  0.10566000000E+00  0.10566000000E+00 0. -1.
     999900   -1    0    0    0    0 -0.00000000000E+00 -0.00000000000E+00 -0.74505805969E-08  0.93827000000E+00  0.93827000000E+00 0. -1.
     999902    2    1    2    0    0 -0.12434559035E-01  0.77739282599E-02  0.18406831150E-01  0.10203956920E+01  0.10201242594E+01 0.  0.
     999903    2    3    3    0    0 -0.12792797099E+00 -0.62098416654E-02 -0.23803564226E-01  0.13173603191E+00  0.19586846107E-01 0.  0.
         14    1    1    2    0    0  0.12434559035E-01 -0.77739282599E-02 -0.18406831150E-01  0.23534307977E-01  0.00000000000E+00 0.  1.
     999901    1    3    3    0    0  0.11549341195E+00  0.13983769925E-01  0.42210395376E-01  0.88865966011E+00  0.88000000000E+00 0.  1.
        -11    1    4    4    0    0 -0.46825193411E-01  0.36398778351E-02 -0.16192233267E-01  0.49681958373E-01  0.51100000000E-03 0.  1.
         11    1    4    4    0    0 -0.81102777576E-01 -0.98497195004E-02 -0.76113309591E-02  0.82054073541E-01  0.51100000000E-03 0. -1.
</event>
<event>
 8    1  0.1118868E+005  0.1043930E+01  0.7957747E-01            NaN
         13   -1    0    0    0    0  0.00000000000E+00  0.00000000000E+00  0.74505805969E-08  0.10566000000E+00  0.10566000000E+00 0. -1.
     999900   -1    0    0    0    0 -0.00000000000E+00 -0.00000000000E+00 -0.74505805969E-08  0.93827000000E+00  0.93827000000E+00 0.  1.
     999902    2    1    2    0    0 -0.80916984434E-02 -0.21888156037E-01  0.64506626195E-02  0.10197188867E+01  0.10194314248E+01 0.  0.
     999903    2    3    3    0    0  0.81127217138E-01  0.61955622452E-01  0.75563929233E-01  0.12855872282E+00  0.19932719276E-01 0.  0.
         14    1    1    2    0    0  0.80916984434E-02  0.21888156037E-01 -0.64506626195E-02  0.24211113287E-01  0.00000000000E+00 0.  1.
     999901    1    3    3    0    0 -0.89218915581E-01 -0.83843778489E-01 -0.69113266614E-01  0.89116016389E+00  0.88000000000E+00 0.  1.
        -11    1    4    4    0    0  0.13575634318E-01  0.13809607965E-01  0.59508765377E-02  0.20265171400E-01  0.51100000000E-03 0.  1.
         11    1    4    4    0    0  0.67551582820E-01  0.48146014487E-01  0.69613052696E-01  0.10829355142E+00  0.51100000000E-03 0. -1.
</event>
<event>
 8    1  0.1118868E+005  0.1043930E+01  0.7957747E-01            NaN
         13   -1    0    0    0    0  0.00000000000E+00  0.00000000000E+00  0.74505805969E-08  0.10566000000E+00  0.10566000000E+00 0.  1.
     999900   -1    0    0    0    0 -0.00000000000E+00 -0.00000000000E+00 -0.74505805969E-08  0.93827000000E+00  0.93827000000E+00 0.  1.
     999902    2    1    2    0    0 -0.80280598214E-02 -0.21519849189E-01 -0.65337092531E-02  0.10200502385E+01  0.10197706831E+01 0.  0.
     999903    2    3    3    0    0 -0.45724272015E-01 -0.11155730793E+00 -0.53191948739E-01  0.13342475966E+00  0.20905527371E-01 0.  0.
         14    1    1    2    0    0  0.80280598214E-02  0.21519849189E-01  0.65337092531E-02  0.23879761519E-01  0.00000000000E+00 0.  1.
     999901    1    3    3    0    0  0.37696212194E-01  0.90037458741E-01  0.46658239485E-01  0.88662547883E+00  0.88000000000E+00 0. -1.
        -11    1    4    4    0    0 -0.15317876592E-01 -0.41423710309E-01 -0.88303737450E-02  0.45042177351E-01  0.51100000000E-03 0. -1.
         11    1    4    4    0    0 -0.30406395424E-01 -0.70133597620E-01 -0.44361574994E-01  0.88382582304E-01  0.51100000000E-03 0.  1.
</event>
<event>
 8    1  0.1118868E+005  0.1043930E+01  0.7957747E-01            NaN
         13   -1    0    0    0    0  0.00000000000E+00  0.00000000000E+00  0.74505805969E-08  0.10566000000E+00  0.10566000000E+00 0.  1.
     999900   -1    0    0    0    0 -0.00000000000E+00 -0.00000000000E+00 -0.74505805969E-08  0.93827000000E+00  0.93827000000E+00 0. -1.
     999902    2    1    2    0    0 -0.23501117070E-01  0.13240238383E-01  0.70825151400E-02  0.10160414999E+01  0.10156586834E+01 0.  0.
     999903    2    3    3    0    0 -0.67827238234E-01  0.10883307707E+00 -0.85393847269E-02  0.12961787683E+00  0.16813684594E-01 0.  0.
         14    1    1    2    0    0  0.23501117070E-01 -0.13240238383E-01 -0.70825151400E-02  0.27888500079E-01  0.00000000000E+00 0. -1.
     999901    1    3    3    0    0  0.44326121164E-01 -0.95592838689E-01  0.15621899867E-01  0.88642362310E+00  0.88000000000E+00 0.  1.
        -11    1    4    4    0    0 -0.29354824340E-01  0.55451514892E-01  0.29785053161E-02  0.62814877464E-01  0.51100000000E-03 0. -1.
         11    1    4    4    0    0 -0.38472413893E-01  0.53381562181E-01 -0.11517890043E-01  0.66802999361E-01  0.51100000000E-03 0.  1.
</event>
<event>
 8    1  0.1118868E+005  0.1043930E+01  0.7957747E-01            NaN
         13   -1    0    0    0    0  0.00000000000E+00  0.00000000000E+00  0.74505805969E-08  0.10566000000E+00  0.10566000000E+00 0.  1.
     999900   -1    0    0    0    0 -0.00000000000E+00 -0.00000000000E+00 -0.74505805969E-08  0.93827000000E+00  0.93827000000E+00 0.  1.
     999902    2    1    2    0    0 -0.61786493516E-02 -0.19645215446E-01 -0.10786235261E-01  0.10206823535E+01  0.10204175683E+01 0.  0.
     999903    2    3    3    0    0 -0.99315787979E-01 -0.12434086297E-01 -0.84447382233E-01  0.13267757221E+00  0.21301304147E-01 0.  0.
         14    1    1    2    0    0  0.61786493516E-02  0.19645215446E-01  0.10786235261E-01  0.23247646522E-01  0.00000000000E+00 0. -1.
     999901    1    3    3    0    0  0.93137138628E-01 -0.72111291491E-02  0.73661146973E-01  0.88800478126E+00  0.88000000000E+00 0.  1.
        -11    1    4    4    0    0 -0.20290537187E-01 -0.49831740711E-02 -0.29436593770E-01  0.36101414057E-01  0.51100000000E-03 0. -1.
         11    1    4    4    0    0 -0.79025250793E-01 -0.74509122259E-02 -0.55010788464E-01  0.96576158156E-01  0.51100000000E-03 0.  1.
</event>
<event>
 8    1  0.1118868E+005  0.1043930E+01  0.7957747E-01            NaN
         13   -1    0    0    0    0  0.00000000000E+00  0.00000000000E+00  0.74505805969E-08  0.10566000000E+00  0.10566000000E+00 0.  1.
     999900   -1    0    0    0    0 -0.00000000000E+00 -0.00000000000E+00 -0.74505805969E-08  0.93827000000E+00  0.93827000000E+00 0. -1.
     999902    2    1    2    0    0  0.16002798133E-01 -0.18790397764E-01  0.36019126886E-02  0.10189872181E+01  0.10186818974E+01 0.  0.
     999903    2    3    3    0    0 -0.10291639974E+00  0.67828993331E-01 -0.20011068967E-01  0.12646143835E+00  0.19987366899E-01 0.  0.
         14    1    1    2    0    0 -0.16002798133E-01  0.18790397764E-01 -0.36019126886E-02  0.24942781947E-01  0.00000000000E+00 0.  1.
     999901    1    3    3    0    0  0.11891919787E+00 -0.86619391095E-01  0.23612981656E-01  0.89252577971E+00  0.88000000000E+00 0.  1.
        -11    1    4    4    0    0 -0.10001388749E+00  0.61625535537E-01 -0.21515706302E-01  0.11943061190E+00  0.51100000000E-03 0. -1.
         11    1    4    4    0    0 -0.29025122533E-02  0.62034577943E-02  0.15046373351E-02  0.70308264448E-02  0.51100000000E-03 0.  1.
</event>
<event>
 8    1  0.1118868E+005  0.1043930E+01  0.7957747E-01            NaN
         13   -1    0    0    0    0  0.00000000000E+00  0.00000000000E+00  0.74505805969E-08  0.10566000000E+00  0.10566000000E+00 0. -1.
     999900   -1    0    0    0    0 -0.00000000000E+00 -0.00000000000E+00 -0.74505805969E-08  0.93827000000E+00  0.93827000000E+00 0. -1.
     999902    2    1    2    0    0  0.16642740661E-01 -0.28058372592E-02  0.16946018153E-01  0.10200130380E+01  0.10197326006E+01 0.  0.
     999903    2    3    3    0    0  0.42410772997E-01 -0.12286905187E+00 -0.14581890801E-01  0.13092745381E+00  0.58214300460E-02 0.  0.
         14    1    1    2    0    0 -0.16642740661E-01  0.28058372592E-02 -0.16946018153E-01  0.23916961987E-01  0.00000000000E+00 0.  1.
     999901    1    3    3    0    0 -0.25768032336E-01  0.12006321461E+00  0.31527908954E-01  0.88908558420E+00  0.88000000000E+00 0. -1.
        -11    1    4    4    0    0  0.19706678573E-01 -0.51887699016E-01 -0.85085009376E-02  0.56154627581E-01  0.51100000000E-03 0.  1.
         11    1    4    4    0    0  0.22704094424E-01 -0.70981352856E-01 -0.60733898632E-02  0.74772826229E-01  0.51100000000E-03 0. -1.
</event>
<event>
 8    1  0.1118868E+005  0.1043930E+01  0.7957747E-01            NaN
         13   -1    0    0    0    0  0.00000000000E+00  0.00000000000E+00  0.74505805969E-08  0.10566000000E+00  0.10566000000E+00 0. -1.
     999900   -1    0    0    0    0 -0.00000000000E+00 -0.00000000000E+00 -0.74505805969E-08  0.93827000000E+00  0.93827000000E+00 0. -1.
     999902    2    1    2    0    0 -0.11181009952E-01 -0.19822479867E-01 -0.80100424060E-02  0.10198031173E+01  0.10195176759E+01 0.  0.
     999903    2    3    3    0    0  0.30480334629E-01  0.64474071079E-01 -0.10617813481E+00  0.12936583676E+00  0.19384704467E-01 0.  0.
         14    1    1    2    0    0  0.11181009952E-01  0.19822479867E-01  0.80100424060E-02  0.24126882745E-01  0.00000000000E+00 0. -1.
     999901    1    3    3    0    0 -0.41661344581E-01 -0.84296550946E-01  0.98168092405E-01  0.89043728050E+00  0.88000000000E+00 0.  1.
        -11    1    4    4    0    0  0.14453822790E-01  0.34709802419E-01 -0.72357242176E-01  0.81544558332E-01  0.51100000000E-03 0.  1.
         11    1    4    4    0    0  0.16026511839E-01  0.29764268660E-01 -0.33820892636E-01  0.47821278426E-01  0.51100000000E-03 0. -1.
</event>
<event>
 8    1  0.1118868E+005  0.1043930E+01  0.7957747E-01            NaN
         13   -1    0    0    0    0  0.00000000000E+00  0.00000000000E+00  0.74505805969E-08  0.10566000000E+00  0.10566000000E+00 0. -1.
     999900   -1    0    0    0    0 -0.00000000000E+00 -0.00000000000E+00 -0.74505805969E-08  0.93827000000E+00  0.93827000000E+00 0. -1.
     999902    2    1    2    0    0  0.13982860136E-01 -0.17218938513E-01  0.87983611408E-02  0.10200674063E+01  0.10197882574E+01 0.  0.
     999903    2    3    3    0    0  0.12732316251E+00  0.25837928858E-01  0.98018674057E-02  0.13175387772E+00  0.19601566552E-01 0.  0.
         14    1    1    2    0    0 -0.13982860136E-01  0.17218938513E-01 -0.87983611408E-02  0.23862593737E-01  0.00000000000E+00 0.  1.
     999901    1    3    3    0    0 -0.11334030237E+00 -0.43056867371E-01 -0.10035062649E-02  0.88831352854E+00  0.88000000000E+00 0. -1.
        -11    1    4    4    0    0  0.57260688685E-01  0.15073992064E-01 -0.46975852105E-02  0.59399832771E-01  0.51100000000E-03 0.  1.
         11    1    4    4    0    0  0.70062473821E-01  0.10763936794E-01  0.14499452616E-01  0.72354044948E-01  0.51100000000E-03 0. -1.
</event>
<event>
 7    1  0.1118868E+005  0.1043930E+01  0.7957747E-01            NaN
         13   -1    0    0    0    0  0.00000000000E+00  0.00000000000E+00  0.74505805969E-08  0.10566000000E+00  0.10566000000E+00 0.  1.
     999900   -1    0    0    0    0 -0.00000000000E+00 -0.00000000000E+00 -0.74505805969E-08  0.93827000000E+00  0.93827000000E+00 0.  1.
     999902    2    1    2    0    0  0.14005765178E-01 -0.18707894332E-01 -0.35478903915E-02  0.10202924389E+01  0.10200185913E+01 0.  0.
         14    1    1    2    0    0 -0.14005765178E-01  0.18707894332E-01  0.35478903915E-02  0.23637561100E-01  0.00000000000E+00 0. -1.
     999901    1    3    3    0    0 -0.62721415585E-01  0.68328412592E-01 -0.56744180224E-01  0.88669197015E+00  0.88000000000E+00 0.  1.
        -11    1    3    3    0    0  0.80079332247E-01 -0.74113382891E-01  0.45868424917E-01  0.11836243704E+00  0.51100000000E-03 0. -1.
         11    1    3    3    0    0 -0.33521514846E-02 -0.12922924033E-01  0.73278649155E-02  0.15238031709E-01  0.51100000000E-03 0.  1.
</event>
<event>
 8    1  0.1118868E+005  0.1043930E+01  0.7957747E-01            NaN
         13   -1    0    0    0    0  0.00000000000E+00  0.00000000000E+00  0.74505805969E-08  0.10566000000E+00  0.10566000000E+00 0. -1.
     999900   -1    0    0    0    0 -0.00000000000E+00 -0.00000000000E+00 -0.74505805969E-08  0.93827000000E+00  0.93827000000E+00 0.  1.
     999902    2    1    2    0    0 -0.21428875874E-01 -0.13786712742E-01 -0.36760411657E-02  0.10181854191E+01  0.10178598942E+01 0.  0.
     999903    2    3    3    0    0 -0.56055718322E-01 -0.11556600512E+00 -0.19130293860E-01  0.13150798250E+00  0.20751776308E-01 0.  0.
         14    1    1    2    0    0  0.21428875874E-01  0.13786712742E-01  0.36760411657E-02  0.25744580946E-01  0.00000000000E+00 0.  1.
     999901    1    3    3    0    0  0.34626842448E-01  0.10177929238E+00  0.15454252695E-01  0.88667743656E+00  0.88000000000E+00 0. -1.
        -11    1    4    4    0    0 -0.91139419572E-02 -0.15401294950E-01  0.43488014458E-02  0.18423816629E-01  0.51100000000E-03 0. -1.
         11    1    4    4    0    0 -0.46941776365E-01 -0.10016471017E+00 -0.23479095306E-01  0.11308416587E+00  0.51100000000E-03 0.  1.
</event>
<event>
 8    1  0.1118868E+005  0.1043930E+01  0.7957747E-01            NaN
         13   -1    0    0    0    0  0.00000000000E+00  0.00000000000E+00  0.74505805969E-08  0.10566000000E+00  0.10566000000E+00 0. -1.
     999900   -1    0    0    0    0 -0.00000000000E+00 -0.00000000000E+00 -0.74505805969E-08  0.93827000000E+00  0.93827000000E+00 0.  1.
     999902    2    1    2    0    0  0.16445361070E-01 -0.15556532288E-01  0.52917173716E-02  0.10206822502E+01  0.10204174626E+01 0.  0.
     999903    2    3    3    0    0 -0.11406337857E-02  0.88373553588E-03  0.13014018711E+00  0.13154407759E+00  0.19112666273E-01 0.  0.
         14    1    1    2    0    0 -0.16445361070E-01  0.15556532288E-01 -0.52917173716E-02  0.23247749790E-01  0.00000000000E+00 0. -1.
     999901    1    3    3    0    0  0.17585994855E-01 -0.16440267824E-01 -0.12484846974E+00  0.88913817262E+00  0.88000000000E+00 0.  1.
        -11    1    4    4    0    0 -0.52564029479E-03 -0.82934907293E-02  0.88825260762E-01  0.89214608426E-01  0.51100000000E-03 0.  1.
         11    1    4    4    0    0 -0.61499349096E-03  0.91772262652E-02  0.41314926352E-01  0.42329469160E-01  0.51100000000E-03 0. -1.
</event>
<event>
 8    1  0.1118868E+005  0.1043930E+01  0.7957747E-01            NaN
         13   -1    0    0    0    0  0.00000000000E+00  0.00000000000E+00  0.74505805969E-08  0.10566000000E+00  0.10566000000E+00 0. -1.
     999900   -1    0    0    0    0 -0.00000000000E+00 -0.00000000000E+00 -0.74505805969E-08  0.93827000000E+00  0.93827000000E+00 0.  1.
     999902    2    1    2    0    0  0.10363431187E-01  0.11119504341E-01 -0.18210435783E-01  0.10202094592E+01  0.10199336629E+01 0.  0.
     999903    2    3    3    0    0  0.49904876024E-01  0.11758489593E+00  0.25922010164E-01  0.13181423286E+00  0.19655456510E-01 0.  0.
         14    1    1    2    0    0 -0.10363431187E-01 -0.11119504341E-01  0.18210435783E-01  0.23720540765E-01  0.00000000000E+00 0. -1.
     999901    1    3    3    0    0 -0.39541444837E-01 -0.10646539159E+00 -0.44132445947E-01  0.88839522638E+00  0.88000000000E+00 0.  1.
        -11    1    4    4    0    0  0.61549058176E-02  0.34350528205E-01  0.11072087648E-01  0.36615487153E-01  0.51100000000E-03 0. -1.
         11    1    4    4    0    0  0.43749970207E-01  0.83234367726E-01  0.14849922516E-01  0.95198745703E-01  0.51100000000E-03 0.  1.
</event>
<event>
 8    1  0.1118868E+005  0.1043930E+01  0.7957747E-01            NaN
         13   -1    0    0    0    0  0.00000000000E+00  0.00000000000E+00  0.74505805969E-08  0.10566000000E+00  0.10566000000E+00 0. -1.
     999900   -1    0    0    0    0 -0.00000000000E+00 -0.00000000000E+00 -0.74505805969E-08  0.93827000000E+00  0.93827000000E+00 0. -1.
     999902    2    1    2    0    0  0.32311991391E-02 -0.16378346731E-01 -0.17183509887E-01  0.10199724563E+01  0.10196910550E+01 0.  0.
     999903    2    3    3    0    0 -0.11146579147E-03 -0.41319752417E-01  0.12035839782E+00  0.12893316224E+00  0.20743240719E-01 0.  0.
         14    1    1    2    0    0 -0.32311991391E-02  0.16378346731E-01  0.17183509887E-01  0.23957543730E-01  0.00000000000E+00 0. -1.
     999901    1    3    3    0    0  0.33426649305E-02  0.24941405685E-01 -0.13754190771E+00  0.89103929403E+00  0.88000000000E+00 0. -1.
        -11    1    4    4    0    0  0.97128434017E-02 -0.20402815107E-01  0.69132670245E-01  0.72733770749E-01  0.51100000000E-03 0.  1.
         11    1    4    4    0    0 -0.98243091932E-02 -0.20916937310E-01  0.51225727575E-01  0.56199391493E-01  0.51100000000E-03 0. -1.
</event>
<event>
 8    1  0.1118868E+005  0.1043930E+01  0.7957747E-01            NaN
         13   -1    0    0    0    0  0.00000000000E+00  0.00000000000E+00  0.74505805969E-08  0.10566000000E+00  0.10566000000E+00 0. -1.
     999900   -1    0    0    0    0 -0.00000000000E+00 -0.00000000000E+00 -0.74505805969E-08  0.93827000000E+00  0.93827000000E+00 0.  1.
     999902    2    1    2    0    0 -0.11758017891E-01  0.78118302851E-02  0.19456731296E-01  0.10198916958E+01  0.10196083714E+01 0.  0.
     999903    2    3    3    0    0 -0.46564420586E-01  0.10392400901E+00 -0.60086225604E-01  0.13041088173E+00  0.20692961406E-01 0.  0.
         14    1    1    2    0    0  0.11758017891E-01 -0.78118302851E-02 -0.19456731296E-01  0.24038304222E-01  0.00000000000E+00 0.  1.
     999901    1    3    3    0    0  0.34806402695E-01 -0.96112178729E-01  0.79542956901E-01  0.88948081405E+00  0.88000000000E+00 0. -1.
        -11    1    4    4    0    0 -0.43940308985E-01  0.81470573791E-01 -0.53242397026E-01  0.10678585632E+00  0.51100000000E-03 0.  1.
         11    1    4    4    0    0 -0.26241116007E-02  0.22453435224E-01 -0.68438285780E-02  0.23625025410E-01  0.51100000000E-03 0. -1.
</event>
<event>
 8    1  0.1118868E+005  0.1043930E+01  0.7957747E-01            NaN
         13   -1    0    0    0    0  0.00000000000E+00  0.00000000000E+00  0.74505805969E-08  0.10566000000E+00  0.10566000000E+00 0. -1.
     999900   -1    0    0    0    0 -0.00000000000E+00 -0.00000000000E+00 -0.74505805969E-08  0.93827000000E+00  0.93827000000E+00 0.  1.
     999902    2    1    2    0    0  0.14162295708E-01  0.74688781840E-02  0.94392934276E-02  0.10253435796E+01  0.10251751076E+01 0.  0.
     999903    2    3    3    0    0 -0.93510305945E-01 -0.95403731292E-02  0.94179921568E-01  0.13457779796E+00  0.20152668279E-01 0.  0.
         14    1    1    2    0    0 -0.14162295708E-01 -0.74688781840E-02 -0.94392934276E-02  0.18586420351E-01  0.00000000000E+00 0.  1.
     999901    1    3    3    0    0  0.10767260165E+00  0.17009251313E-01 -0.84740628140E-01  0.89076578169E+00  0.88000000000E+00 0.  1.
        -11    1    4    4    0    0 -0.26448746593E-01 -0.10796840329E-01  0.22142803424E-01  0.36147929704E-01  0.51100000000E-03 0. -1.
         11    1    4    4    0    0 -0.67061559353E-01  0.12564672001E-02  0.72037118144E-01  0.98429868252E-01  0.51100000000E-03 0.  1.
</event>
<event>
 8    1  0.1118868E+005  0.1043930E+01  0.7957747E-01            NaN
         13   -1    0    0    0    0  0.00000000000E+00  0.00000000000E+00  0.74505805969E-08  0.10566000000E+00  0.10566000000E+00 0.  1.
     999900   -1    0    0    0    0 -0.00000000000E+00 -0.00000000000E+00 -0.74505805969E-08  0.93827000000E+00  0.93827000000E+00 0.  1.
     999902    2    1    2    0    0  0.23460767665E-01  0.33439844628E-02 -0.48047440128E-03  0.10202272426E+01  0.10199518645E+01 0.  0.
     999903    2    3    3    0    0 -0.10997548449E+00  0.60139479812E-01 -0.17631036073E-01  0.12819299247E+00  0.20278699804E-01 0.  0.
         14    1    1    2    0    0 -0.23460767665E-01 -0.33439844628E-02  0.48047440128E-03  0.23702757375E-01  0.00000000000E+00 0.  1.
     999901    1    3    3    0    0  0.13343625215E+00 -0.56795495349E-01  0.17150561672E-01  0.89203425015E+00  0.88000000000E+00 0.  1.
        -11    1    4    4    0    0 -0.43220020266E-01  0.31297559186E-01  0.11987243338E-05  0.53364487117E-01  0.51100000000E-03 0. -1.
         11    1    4    4    0    0 -0.66755464221E-01  0.28841920626E-01 -0.17632234797E-01  0.74828505355E-01  0.51100000000E-03 0.  1.
</event>
<event>
 8    1  0.1118868E+005  0.1043930E+01  0.7957747E-01            NaN
         13   -1    0    0    0    0  0.00000000000E+00  0.00000000000E+00  0.74505805969E-08  0.10566000000E+00  0.10566000000E+00 0. -1.
     999900   -1    0    0    0    0 -0.00000000000E+00 -0.00000000000E+00 -0.74505805969E-08  0.93827000000E+00  0.93827000000E+00 0. -1.
     999902    2    1    2    0    0  0.19449407853E-01 -0.13979106505E-01  0.56382562082E-02  0.10193233989E+01  0.10190263523E+01 0.  0.
     999903    2    3    3    0    0  0.69242297365E-01  0.95083701464E-01 -0.50267441459E-01  0.12943606055E+00  0.19785653165E-01 0.  0.
         14    1    1    2    0    0 -0.19449407853E-01  0.13979106505E-01 -0.56382562082E-02  0.24606601098E-01  0.00000000000E+00 0.  1.
     999901    1    3    3    0    0 -0.49792889512E-01 -0.10906280797E+00  0.55905697667E-01  0.88988733835E+00  0.88000000000E+00 0.  1.
        -11    1    4    4    0    0  0.20109782197E-01  0.23414776464E-01 -0.22547341999E-01  0.38226938788E-01  0.51100000000E-03 0.  1.
         11    1    4    4    0    0  0.49132515168E-01  0.71668925001E-01 -0.27720099460E-01  0.91209121762E-01  0.51100000000E-03 0. -1.
</event>
<event>
 8    1  0.1118868E+005  0.1043930E+01  0.7957747E-01            NaN
         13   -1    0    0    0    0  0.00000000000E+00  0.00000000000E+00  0.74505805969E-08  0.10566000000E+00  0.10566000000E+00 0. -1.
     999900   -1    0    0    0    0 -0.00000000000E+00 -0.00000000000E+00 -0.74505805969E-08  0.93827000000E+00  0.93827000000E+00 0. -1.
     999902    2    1    2    0    0 -0.16642725193E-01 -0.19030213950E-01  0.40294467800E-02  0.10183298870E+01  0.10180080515E+01 0.  0.
     999903    2    3    3    0    0  0.11406487626E+00  0.47963529132E-01  0.13480986995E-01  0.12610683735E+00  0.20246019187E-01 0.  0.
         14    1    1    2    0    0  0.16642725193E-01  0.19030213950E-01 -0.40294467800E-02  0.25600113011E-01  0.00000000000E+00 0.  1.
     999901    1    3    3    0    0 -0.13070760146E+00 -0.66993743083E-01 -0.94515402151E-02  0.89222304964E+00  0.88000000000E+00 0.  1.
        -11    1    4    4    0    0  0.84912792383E-01  0.42468594534E-01  0.42623883139E-02  0.95037849866E-01  0.51100000000E-03 0.  1.
         11    1    4    4    0    0  0.29152083880E-01  0.54949345982E-02  0.92185986812E-02  0.31068987486E-01  0.51100000000E-03 0. -1.
</event>
<event>
 8    1  0.1118868E+005  0.1043930E+01  0.7957747E-01            NaN
         13   -1    0    0    0    0  0.00000000000E+00  0.00000000000E+00  0.74505805969E-08  0.10566000000E+00  0.10566000000E+00 0. -1.
     999900   -1    0    0    0    0 -0.00000000000E+00 -0.00000000000E+00 -0.74505805969E-08  0.93827000000E+00  0.93827000000E+00 0. -1.
     999902    2    1    2    0    0 -0.17007177742E-01  0.37057794218E-02  0.18047022395E-01  0.10188566693E+01  0.10185481042E+01 0.  0.
     999903    2    3    3    0    0 -0.46946735847E-01 -0.60699272813E-01  0.10524574569E+00  0.13169940857E+00  0.19485109805E-01 0.  0.
         14    1    1    2    0    0  0.17007177742E-01 -0.37057794218E-02 -0.18047022395E-01  0.25073330716E-01  0.00000000000E+00 0.  1.
     999901    1    3    3    0    0  0.29939558105E-01  0.64405052235E-01 -0.87198723299E-01  0.88715726071E+00  0.88000000000E+00 0. -1.
        -11    1    4    4    0    0 -0.31372698437E-01 -0.24670957019E-01  0.53634879277E-01  0.66857039447E-01  0.51100000000E-03 0. -1.
         11    1    4    4    0    0 -0.15574037410E-01 -0.36028315793E-01  0.51610866417E-01  0.64842369123E-01  0.51100000000E-03 0.  1.
</event>
<event>
 8    1  0.1118868E+005  0.1043930E+01  0.7957747E-01            NaN
         13   -1    0    0    0    0  0.00000000000E+00  0.00000000000E+00  0.74505805969E-08  0.10566000000E+00  0.10566000000E+00 0.  1.
     999900   -1    0    0    0    0 -0.00000000000E+00 -0.00000000000E+00 -0.74505805969E-08  0.93827000000E+00  0.93827000000E+00 0. -1.
     999902    2    1    2    0    0 -0.40620588539E-02  0.27879084087E-02  0.16923057467E-01  0.10263043758E+01  0.10261530145E+01 0.  0.
     999903    2    3    3    0    0  0.62321985262E-01 -0.74682517337E-01  0.94816120506E-01  0.13699237346E+00  0.17756841969E-01 0.  0.
         14    1    1    2    0    0  0.40620588539E-02 -0.27879084087E-02 -0.16923057467E-01  0.17625624229E-01  0.00000000000E+00 0. -1.
     999901    1    3    3    0    0 -0.66384044116E-01  0.77470425746E-01 -0.77893063039E-01  0.88931200231E+00  0.88000000000E+00 0.  1.
        -11    1    4    4    0    0  0.39166505049E-01 -0.52935891551E-01  0.53327650506E-01  0.84736787534E-01  0.51100000000E-03 0. -1.
         11    1    4    4    0    0  0.23155480213E-01 -0.21746625786E-01  0.41488470000E-01  0.52255585930E-01  0.51100000000E-03 0.  1.
</event>
<event>
 8    1  0.1118868E+005  0.1043930E+01  0.7957747E-01            NaN
         13   -1    0    0    0    0  0.00000000000E+00  0.00000000000E+00  0.74505805969E-08  0.10566000000E+00  0.10566000000E+00 0. -1.
     999900   -1    0    0    0    0 -0.00000000000E+00 -0.00000000000E+00 -0.74505805969E-08  0.93827000000E+00  0.93827000000E+00 0. -1.
     999902    2    1    2    0    0  0.17976073940E-01 -0.13426580258E-03  0.17048325742E-01  0.10191549587E+01  0.10188537810E+01 0.  0.
     999903    2    3    3    0    0  0.76552164643E-01  0.68649037781E-01 -0.75969286673E-01  0.12965252616E+00  0.21575929212E-01 0.  0.
         14    1    1    2    0    0 -0.17976073940E-01  0.13426580258E-03 -0.17048325742E-01  0.24775041316E-01  0.00000000000E+00 0.  1.
     999901    1    3    3    0    0 -0.58576090703E-01 -0.68783303584E-01  0.93017612415E-01  0.88950243253E+00  0.88000000000E+00 0.  1.
        -11    1    4    4    0    0  0.29708851573E-01  0.22111205823E-01 -0.39781372204E-01  0.54353840529E-01  0.51100000000E-03 0.  1.
         11    1    4    4    0    0  0.46843313070E-01  0.46537831958E-01 -0.36187914469E-01  0.75298685628E-01  0.51100000000E-03 0. -1.
</event>
<event>
 8    1  0.1118868E+005  0.1043930E+01  0.7957747E-01            NaN
         13   -1    0    0    0    0  0.00000000000E+00  0.00000000000E+00  0.74505805969E-08  0.10566000000E+00  0.10566000000E+00 0.  1.
     999900   -1    0    0    0    0 -0.00000000000E+00 -0.00000000000E+00 -0.74505805969E-08  0.93827000000E+00  0.93827000000E+00 0. -1.
     999902    2    1    2    0    0  0.69427522173E-02 -0.20935570426E-01 -0.80829788818E-02  0.10204388428E+01  0.10201684162E+01 0.  0.
     999903    2    3    3    0    0  0.28881263547E-01  0.16007433631E-01 -0.12590306651E+00  0.13154759140E+00  0.19047869434E-01 0.  0.
         14    1    1    2    0    0 -0.69427522173E-02  0.20935570426E-01  0.80829788818E-02  0.23491157166E-01  0.00000000000E+00 0.  1.
     999901    1    3    3    0    0 -0.21938511329E-01 -0.36943004057E-01  0.11782008763E+00  0.88889125143E+00  0.88000000000E+00 0.  1.
        -11    1    4    4    0    0  0.22353672987E-01  0.11391672435E-01 -0.58297162693E-01  0.63468710369E-01  0.51100000000E-03 0.  1.
         11    1    4    4    0    0  0.65275905597E-02  0.46157611953E-02 -0.67605903820E-01  0.68078881030E-01  0.51100000000E-03 0. -1.
</event>
<event>
 8    1  0.1118868E+005  0.1043930E+01  0.7957747E-01            NaN
         13   -1    0    0    0    0  0.00000000000E+00  0.00000000000E+00  0.74505805969E-08  0.10566000000E+00  0.10566000000E+00 0. -1.
     999900   -1    0    0    0    0 -0.00000000000E+00 -0.00000000000E+00 -0.74505805969E-08  0.93827000000E+00  0.93827000000E+00 0. -1.
     999902    2    1    2    0    0 -0.11204807048E-01 -0.25390993687E-03 -0.21720494331E-01  0.10194883952E+01  0.10191953669E+01 0.  0.
     999903    2    3    3    0    0 -0.80521438556E-01 -0.98019414900E-01 -0.27801524498E-01  0.13134433690E+00  0.19669832406E-01 0.  0.
         14    1    1    2    0    0  0.11204807048E-01  0.25390993687E-03  0.21720494331E-01  0.24441604801E-01  0.00000000000E+00 0. -1.
     999901    1    3    3    0    0  0.69316631508E-01  0.97765504963E-01  0.60810301671E-02  0.88814405830E+00  0.88000000000E+00 0.  1.
        -11    1    4    4    0    0 -0.53386900020E-01 -0.77904011333E-01 -0.23204073651E-01  0.97251664410E-01  0.51100000000E-03 0.  1.
         11    1    4    4    0    0 -0.27134538536E-01 -0.20115403567E-01 -0.45974508471E-02  0.34092672490E-01  0.51100000000E-03 0. -1.
</event>
<event>
 8    1  0.1118868E+005  0.1043930E+01  0.7957747E-01            NaN
         13   -1    0    0    0    0  0.00000000000E+00  0.00000000000E+00  0.74505805969E-08  0.10566000000E+00  0.10566000000E+00 0. -1.
     999900   -1    0    0    0    0 -0.00000000000E+00 -0.00000000000E+00 -0.74505805969E-08  0.93827000000E+00  0.93827000000E+00 0. -1.
     999902    2    1    2    0    0 -0.11002962095E-01 -0.48093936544E-02  0.21713720483E-01  0.10191170780E+01  0.10188149673E+01 0.  0.
     999903    2    3    3    0    0  0.76144888739E-01 -0.60523243567E-01  0.85094735095E-01  0.13079510144E+00  0.20128028410E-01 0.  0.
         14    1    1    2    0    0  0.11002962095E-01  0.48093936544E-02 -0.21713720483E-01  0.24812922024E-01  0.00000000000E+00 0.  1.
     999901    1    3    3    0    0 -0.87147850834E-01  0.55713849913E-01 -0.63381014612E-01  0.88832197653E+00  0.88000000000E+00 0. -1.
        -11    1    4    4    0    0  0.40314648244E-01 -0.42634463444E-01  0.57522716706E-01  0.82171116546E-01  0.51100000000E-03 0. -1.
         11    1    4    4    0    0  0.35830240496E-01 -0.17888780124E-01  0.27572018389E-01  0.48623984898E-01  0.51100000000E-03 0.  1.
</event>
<event>
 8    1  0.1118868E+005  0.1043930E+01  0.7957747E-01            NaN
         13   -1    0    0    0    0  0.00000000000E+00  0.00000000000E+00  0.74505805969E-08  0.10566000000E+00  0.10566000000E+00 0. -1.
     999900   -1    0    0    0    0 -0.00000000000E+00 -0.00000000000E+00 -0.74505805969E-08  0.93827000000E+00  0.93827000000E+00 0.  1.
     999902    2    1    2    0    0  0.10514982730E-01  0.62675347763E-02  0.21047702839E-01  0.10195814344E+01  0.10192906595E+01 0.  0.
     999903    2    3    3    0    0  0.46027992391E-02 -0.42219986742E-01 -0.11904646958E+00  0.12716204259E+00  0.13943102774E-01 0.  0.
         14    1    1    2    0    0 -0.10514982730E-01 -0.62675347763E-02 -0.21047702839E-01  0.24348565641E-01  0.00000000000E+00 0.  1.
     999901    1    3    3    0    0  0.59121834911E-02  0.48487521519E-01  0.14009417242E+00  0.89241939177E+00  0.88000000000E+00 0. -1.
        -11    1    4    4    0    0 -0.21294929097E-02 -0.25480712388E-01 -0.82971646319E-01  0.86823710228E-01  0.51100000000E-03 0.  1.
         11    1    4    4    0    0  0.67322921488E-02 -0.16739274354E-01 -0.36074823262E-01  0.40338332363E-01  0.51100000000E-03 0. -1.
</event>
<event>
 8    1  0.1118868E+005  0.1043930E+01  0.7957747E-01            NaN
         13   -1    0    0    0    0  0.00000000000E+00  0.00000000000E+00  0.74505805969E-08  0.10566000000E+00  0.10566000000E+00 0. -1.
     999900   -1    0    0    0    0 -0.00000000000E+00 -0.00000000000E+00 -0.74505805969E-08  0.93827000000E+00  0.93827000000E+00 0. -1.
     999902    2    1    2    0    0 -0.15209977289E-01  0.64524432432E-02 -0.16712893347E-01  0.10204289737E+01  0.10201583172E+01 0.  0.
     999903    2    3    3    0    0  0.31882557071E-01 -0.51361764188E-03 -0.12685197059E+00  0.13228661511E+00  0.19787997517E-01 0.  0.
         14    1    1    2    0    0  0.15209977289E-01 -0.64524432432E-02  0.16712893347E-01  0.23501026296E-01  0.00000000000E+00 0. -1.
     999901    1    3    3    0    0 -0.47092534360E-01  0.69660608850E-02  0.11013907724E+00  0.88814235860E+00  0.88000000000E+00 0.  1.
        -11    1    4    4    0    0  0.99314988326E-02 -0.79551029524E-02 -0.64925748797E-01  0.66162922471E-01  0.51100000000E-03 0.  1.
         11    1    4    4    0    0  0.21951058239E-01  0.74414853105E-02 -0.61926221793E-01  0.66123692637E-01  0.51100000000E-03 0. -1.
</event>
<event>
 8    1  0.1118868E+005  0.1043930E+01  0.7957747E-01            NaN
         13   -1    0    0    0    0  0.00000000000E+00  0.00000000000E+00  0.74505805969E-08  0.10566000000E+00  0.10566000000E+00 0.  1.
     999900   -1    0    0    0    0 -0.00000000000E+00 -0.00000000000E+00 -0.74505805969E-08  0.93827000000E+00  0.93827000000E+00 0.  1.
     999902    2    1    2    0    0  0.17087059705E-01 -0.10668565147E-01  0.20555833655E-01  0.10151493087E+01  0.10147412433E+01 0.  0.
     999903    2    3    3    0    0  0.60337353542E-01  0.91030612583E-01 -0.57436156684E-01  0.12481450587E+00  0.18777116925E-01 0.  0.
         14    1    1    2    0    0 -0.17087059705E-01  0.10668565147E-01 -0.20555833655E-01  0.28780691251E-01  0.00000000000E+00 0. -1.
     999901    1    3    3    0    0 -0.43250293838E-01 -0.10169917773E+00  0.77991990339E-01  0.89033480288E+00  0.88000000000E+00 0. -1.
        -11    1    4    4    0    0  0.24368548243E-01  0.49411203415E-01 -0.21700004611E-01  0.59215238642E-01  0.51100000000E-03 0.  1.
         11    1    4    4    0    0  0.35968805300E-01  0.41619409168E-01 -0.35736152073E-01  0.65599267223E-01  0.51100000000E-03 0. -1.
</event>
<event>
 8    1  0.1118868E+005  0.1043930E+01  0.7957747E-01            NaN
         13   -1    0    0    0    0  0.00000000000E+00  0.00000000000E+00  0.74505805969E-08  0.10566000000E+00  0.10566000000E+00 0. -1.
     999900   -1    0    0    0    0 -0.00000000000E+00 -0.00000000000E+00 -0.74505805969E-08  0.93827000000E+00  0.93827000000E+00 0. -1.
     999902    2    1    2    0    0  0.13985681353E-01 -0.15843013089E-01 -0.73064895686E-02  0.10215696526E+01  0.10213249091E+01 0.  0.
     999903    2    3    3    0    0 -0.48521184263E-01 -0.91913890049E-01  0.77353374610E-01  0.13204102507E+00  0.25471930269E-01 0.  0.
         14    1    1    2    0    0 -0.13985681353E-01  0.15843013089E-01  0.73064895686E-02  0.22360347414E-01  0.00000000000E+00 0.  1.
     999901    1    3    3    0    0  0.62506865615E-01  0.76070876960E-01 -0.84659864178E-01  0.88952862752E+00  0.88000000000E+00 0. -1.
        -11    1    4    4    0    0 -0.36156845819E-01 -0.50363249240E-01  0.56704754501E-01  0.84020620550E-01  0.51100000000E-03 0.  1.
         11    1    4    4    0    0 -0.12364338443E-01 -0.41550640808E-01  0.20648620108E-01  0.48020404518E-01  0.51100000000E-03 0. -1.
</event>
<event>
 8    1  0.1394233E+005  0.1043930E+01  0.7957747E-01            NaN
         13   -1    0    0    0    0  0.00000000000E+00  0.00000000000E+00  0.74505805969E-08  0.10566000000E+00  0.10566000000E+00 0.  1.
     999900   -1    0    0    0    0 -0.00000000000E+00 -0.00000000000E+00 -0.74505805969E-08  0.93827000000E+00  0.93827000000E+00 0.  1.
     999902    2    1    2    0    0  0.21260392881E-01  0.94300848584E-02  0.20858933177E-02  0.10205787312E+01  0.10203115528E+01 0.  0.
     999903    2    3    3    0    0  0.22726338674E-01 -0.11309912989E+00 -0.56912273621E-01  0.13013146086E+00  0.19679699354E-01 0.  0.
         14    1    1    2    0    0 -0.21260392881E-01 -0.94300848584E-02 -0.20858933177E-02  0.23351268848E-01  0.00000000000E+00 0.  1.
     999901    1    3    3    0    0 -0.14659457932E-02  0.12252921475E+00  0.58998166938E-01  0.89044727029E+00  0.88000000000E+00 0. -1.
        -11    1    4    4    0    0  0.37488451359E-02 -0.67664489965E-01 -0.33985871174E-01  0.75814494673E-01  0.51100000000E-03 0.  1.
         11    1    4    4    0    0  0.18977493538E-01 -0.45434639923E-01 -0.22926402447E-01  0.54316966190E-01  0.51100000000E-03 0. -1.
</event>
<event>
 8    1  0.1118868E+005  0.1043930E+01  0.7957747E-01            NaN
         13   -1    0    0    0    0  0.00000000000E+00  0.00000000000E+00  0.74505805969E-08  0.10566000000E+00  0.10566000000E+00 0.  1.
     999900   -1    0    0    0    0 -0.00000000000E+00 -0.00000000000E+00 -0.74505805969E-08  0.93827000000E+00  0.93827000000E+00 0.  1.
     999902    2    1    2    0    0 -0.53605218832E-02 -0.19738191511E-01  0.34473271885E-02  0.10231883640E+01  0.10229781096E+01 0.  0.
     999903    2    3    3    0    0 -0.50795095921E-01  0.94923084161E-01  0.73262816096E-01  0.13184908452E+00  0.20644786047E-01 0.  0.
         14    1    1    2    0    0  0.53605218832E-02  0.19738191511E-01 -0.34473271885E-02  0.20741635995E-01  0.00000000000E+00 0. -1.
     999901    1    3    3    0    0  0.45434574038E-01 -0.11466127567E+00 -0.69815488908E-01  0.89133927948E+00  0.88000000000E+00 0.  1.
        -11    1    4    4    0    0 -0.20483830715E-01  0.42481386136E-01  0.44301117949E-01  0.64707848530E-01  0.51100000000E-03 0.  1.
         11    1    4    4    0    0 -0.30311265206E-01  0.52441698025E-01  0.28961698147E-01  0.67141235993E-01  0.51100000000E-03 0. -1.
</event>
<event>
 8    1  0.1118868E+005  0.1043930E+01  0.7957747E-01            NaN
         13   -1    0    0    0    0  0.00000000000E+00  0.00000000000E+00  0.74505805969E-08  0.10566000000E+00  0.10566000000E+00 0.  1.
     999900   -1    0    0    0    0 -0.00000000000E+00 -0.00000000000E+00 -0.74505805969E-08  0.93827000000E+00  0.93827000000E+00 0. -1.
     999902    2    1    2    0    0  0.15596592557E-01  0.65442538529E-02 -0.16623114590E-01  0.10202148383E+01  0.10199391684E+01 0.  0.
     999903    2    3    3    0    0  0.91152034731E-01  0.69084156209E-01 -0.65452160959E-01  0.13342053291E+00  0.20874365918E-01 0.  0.
         14    1    1    2    0    0 -0.15596592557E-01 -0.65442538529E-02  0.16623114590E-01  0.23715161744E-01  0.00000000000E+00 0.  1.
     999901    1    3    3    0    0 -0.75555442175E-01 -0.62539902356E-01  0.48829046368E-01  0.88679430535E+00  0.88000000000E+00 0.  1.
        -11    1    4    4    0    0  0.62072348968E-01  0.49721527628E-01 -0.55854405053E-01  0.97186328775E-01  0.51100000000E-03 0.  1.
         11    1    4    4    0    0  0.29079685764E-01  0.19362628581E-01 -0.95977559058E-02  0.36234204132E-01  0.51100000000E-03 0. -1.
</event>
<event>
 8    1  0.1118868E+005  0.1043930E+01  0.7957747E-01            NaN
         13   -1    0    0    0    0  0.00000000000E+00  0.00000000000E+00  0.74505805969E-08  0.10566000000E+00  0.10566000000E+00 0.  1.
     999900   -1    0    0    0    0 -0.00000000000E+00 -0.00000000000E+00 -0.74505805969E-08  0.93827000000E+00  0.93827000000E+00 0.  1.
     999902    2    1    2    0    0 -0.16380508510E-01  0.15317369836E-01  0.81220713170E-02  0.10200781464E+01  0.10197992517E+01 0.  0.
     999903    2    3    3    0    0 -0.14951986893E-01  0.99261720914E-01 -0.82680630859E-01  0.13143095799E+00  0.19014700805E-01 0.  0.
         14    1    1    2    0    0  0.16380508510E-01 -0.15317369836E-01 -0.81220713170E-02  0.23851853602E-01  0.00000000000E+00 0. -1.
     999901    1    3    3    0    0 -0.14285216171E-02 -0.83944351078E-01  0.90802702176E-01  0.88864718841E+00  0.88000000000E+00 0. -1.
        -11    1    4    4    0    0 -0.45984536344E-02  0.48235569756E-01 -0.51626569651E-01  0.70805224246E-01  0.51100000000E-03 0. -1.
         11    1    4    4    0    0 -0.10353533258E-01  0.51026151158E-01 -0.31054061208E-01  0.60625733740E-01  0.51100000000E-03 0.  1.
</event>
<event>
 8    1  0.1118868E+005  0.1043930E+01  0.7957747E-01            NaN
         13   -1    0    0    0    0  0.00000000000E+00  0.00000000000E+00  0.74505805969E-08  0.10566000000E+00  0.10566000000E+00 0. -1.
     999900   -1    0    0    0    0 -0.00000000000E+00 -0.00000000000E+00 -0.74505805969E-08  0.93827000000E+00  0.93827000000E+00 0.  1.
     999902    2    1    2    0    0  0.14299445271E-01 -0.12190427735E-01 -0.14204477040E-01  0.10203747918E+01  0.10201028713E+01 0.  0.
     999903    2    3    3    0    0  0.33437817847E-02  0.80727961240E-01  0.97779052150E-01  0.12835788372E+00  0.19667706273E-01 0.  0.
         14    1    1    2    0    0 -0.14299445271E-01  0.12190427735E-01  0.14204477040E-01  0.23555208159E-01  0.00000000000E+00 0. -1.
     999901    1    3    3    0    0  0.10955663486E-01 -0.92918388975E-01 -0.11198352919E+00  0.89201690813E+00  0.88000000000E+00 0. -1.
        -11    1    4    4    0    0  0.65732879694E-02  0.18095583774E-01  0.14518355329E-01  0.24118499731E-01  0.51100000000E-03 0. -1.
         11    1    4    4    0    0 -0.32295061846E-02  0.62632377466E-01  0.83260696822E-01  0.10423938398E+00  0.51100000000E-03 0.  1.
</event>
<event>
 8    1  0.1118868E+005  0.1043930E+01  0.7957747E-01            NaN
         13   -1    0    0    0    0  0.00000000000E+00  0.00000000000E+00  0.74505805969E-08  0.10566000000E+00  0.10566000000E+00 0.  1.
     999900   -1    0    0    0    0 -0.00000000000E+00 -0.00000000000E+00 -0.74505805969E-08  0.93827000000E+00  0.93827000000E+00 0.  1.
     999902    2    1    2    0    0  0.20318879664E-01 -0.10463044327E-01  0.46756475642E-02  0.10206020372E+01  0.10203353981E+01 0.  0.
     999903    2    3    3    0    0  0.42302030449E-01 -0.64468511132E-01 -0.10525433825E+00  0.13184759917E+00  0.18964782584E-01 0.  0.
         14    1    1    2    0    0 -0.20318879664E-01  0.10463044327E-01 -0.46756475642E-02  0.23327962782E-01  0.00000000000E+00 0. -1.
     999901    1    3    3    0    0 -0.21983150784E-01  0.54005466805E-01  0.10992998582E+00  0.88875443805E+00  0.88000000000E+00 0. -1.
        -11    1    4    4    0    0  0.47372568016E-02 -0.12746999960E-01 -0.90567222639E-02  0.16346649478E-01  0.51100000000E-03 0.  1.
         11    1    4    4    0    0  0.37564773647E-01 -0.51721511172E-01 -0.96197615991E-01  0.11550094969E+00  0.51100000000E-03 0. -1.
</event>
<event>
 8    1  0.1118868E+005  0.1043930E+01  0.7957747E-01            NaN
         13   -1    0    0    0    0  0.00000000000E+00  0.00000000000E+00  0.74505805969E-08  0.10566000000E+00  0.10566000000E+00 0.  1.
     999900   -1    0    0    0    0 -0.00000000000E+00 -0.00000000000E+00 -0.74505805969E-08  0.93827000000E+00  0.93827000000E+00 0.  1.
     999902    2    1    2    0    0 -0.89466431427E-02 -0.17524677514E-01 -0.13349964108E-01  0.10201523154E+01  0.10198751729E+01 0.  0.
     999903    2    3    3    0    0 -0.67238057977E-01 -0.24060252967E-01 -0.11026902602E+00  0.13289028678E+00  0.20017942140E-01 0.  0.
         14    1    1    2    0    0  0.89466431427E-02  0.17524677514E-01  0.13349964108E-01  0.23777684648E-01  0.00000000000E+00 0. -1.
     999901    1    3    3    0    0  0.58291414834E-01  0.65355754529E-02  0.96919061910E-01  0.88726202858E+00  0.88000000000E+00 0. -1.
        -11    1    4    4    0    0 -0.23862699414E-01 -0.18373959825E-01 -0.50863967642E-01  0.59113747541E-01  0.51100000000E-03 0.  1.
         11    1    4    4    0    0 -0.43375358563E-01 -0.56862931419E-02 -0.59405058375E-01  0.73776539236E-01  0.51100000000E-03 0. -1.
</event>
<event>
 8    1  0.1370982E+005  0.1043930E+01  0.7957747E-01            NaN
         13   -1    0    0    0    0  0.00000000000E+00  0.00000000000E+00  0.74505805969E-08  0.10566000000E+00  0.10566000000E+00 0.  1.
     999900   -1    0    0    0    0 -0.00000000000E+00 -0.00000000000E+00 -0.74505805969E-08  0.93827000000E+00  0.93827000000E+00 0. -1.
     999902    2    1    2    0    0  0.81732386796E-02  0.18003356545E-02  0.22279165097E-01  0.10201307513E+01  0.10198531000E+01 0.  0.
     999903    2    3    3    0    0  0.32004854134E-01 -0.97709025081E-01  0.82210623252E-01  0.13217701469E+00  0.11866438653E-01 0.  0.
         14    1    1    2    0    0 -0.81732386796E-02 -0.18003356545E-02 -0.22279165097E-01  0.23799248652E-01  0.00000000000E+00 0. -1.
     999901    1    3    3    0    0 -0.23831615454E-01  0.99509360736E-01 -0.59931458155E-01  0.88795373666E+00  0.88000000000E+00 0. -1.
        -11    1    4    4    0    0  0.14546281506E-01 -0.27859251758E-01  0.27189872695E-01  0.41560588450E-01  0.51100000000E-03 0. -1.
         11    1    4    4    0    0  0.17458572628E-01 -0.69849773323E-01  0.55020750557E-01  0.90616426239E-01  0.51100000000E-03 0.  1.
</event>
<event>
 8    1  0.1118868E+005  0.1043930E+01  0.7957747E-01            NaN
         13   -1    0    0    0    0  0.00000000000E+00  0.00000000000E+00  0.74505805969E-08  0.10566000000E+00  0.10566000000E+00 0.  1.
     999900   -1    0    0    0    0 -0.00000000000E+00 -0.00000000000E+00 -0.74505805969E-08  0.93827000000E+00  0.93827000000E+00 0. -1.
     999902    2    1    2    0    0  0.88449980467E-02  0.11095106115E-02 -0.23576670722E-01  0.10187243576E+01  0.10184124864E+01 0.  0.
     999903    2    3    3    0    0  0.12476344359E+00  0.12886659463E-01  0.25760811178E-01  0.12967431722E+00  0.20489663394E-01 0.  0.
         14    1    1    2    0    0 -0.88449980467E-02 -0.11095106115E-02  0.23576670722E-01  0.25205642356E-01  0.00000000000E+00 0.  1.
     999901    1    3    3    0    0 -0.11591844554E+00 -0.11777148852E-01 -0.49337481900E-01  0.88905004042E+00  0.88000000000E+00 0. -1.
        -11    1    4    4    0    0  0.86130192908E-01  0.12132595263E-01  0.26797718303E-01  0.91016420636E-01  0.51100000000E-03 0. -1.
         11    1    4    4    0    0  0.38633250683E-01  0.75406420052E-03 -0.10369071251E-02  0.38657896587E-01  0.51100000000E-03 0.  1.
</event>
<event>
 8    1  0.1118868E+005  0.1043930E+01  0.7957747E-01            NaN
         13   -1    0    0    0    0  0.00000000000E+00  0.00000000000E+00  0.74505805969E-08  0.10566000000E+00  0.10566000000E+00 0. -1.
     999900   -1    0    0    0    0 -0.00000000000E+00 -0.00000000000E+00 -0.74505805969E-08  0.93827000000E+00  0.93827000000E+00 0.  1.
     999902    2    1    2    0    0  0.20623753958E-01  0.14980006530E-01  0.20403399461E-01  0.10112797545E+01  0.10107525431E+01 0.  0.
     999903    2    3    3    0    0 -0.50062119930E-01 -0.48533524780E-01  0.98997288242E-01  0.12268116075E+00  0.19710029025E-01 0.  0.
         14    1    1    2    0    0 -0.20623753958E-01 -0.14980006530E-01 -0.20403399461E-01  0.32650245520E-01  0.00000000000E+00 0.  1.
     999901    1    3    3    0    0  0.70685873887E-01  0.63513531310E-01 -0.78593888781E-01  0.88859859373E+00  0.88000000000E+00 0.  1.
        -11    1    4    4    0    0 -0.11811611831E-01 -0.78400748149E-02  0.34852609180E-01  0.37629063698E-01  0.51100000000E-03 0. -1.
         11    1    4    4    0    0 -0.38250508099E-01 -0.40693449965E-01  0.64144679062E-01  0.85052097052E-01  0.51100000000E-03 0.  1.
</event>
<event>
 8    1  0.1118868E+005  0.1043930E+01  0.7957747E-01            NaN
         13   -1    0    0    0    0  0.00000000000E+00  0.00000000000E+00  0.74505805969E-08  0.10566000000E+00  0.10566000000E+00 0.  1.
     999900   -1    0    0    0    0 -0.00000000000E+00 -0.00000000000E+00 -0.74505805969E-08  0.93827000000E+00  0.93827000000E+00 0.  1.
     999902    2    1    2    0    0 -0.22784689293E-01  0.20993864671E-02 -0.57436219723E-02  0.10203389279E+01  0.10200661690E+01 0.  0.
     999903    2    3    3    0    0 -0.12957129549E+00 -0.63063570073E-03 -0.25700325777E-01  0.13365459719E+00  0.20345178513E-01 0.  0.
         14    1    1    2    0    0  0.22784689293E-01 -0.20993864671E-02  0.57436219723E-02  0.23591072105E-01  0.00000000000E+00 0. -1.
     999901    1    3    3    0    0  0.10678660620E+00  0.27300221678E-02  0.19956703804E-01  0.88668433070E+00  0.88000000000E+00 0. -1.
        -11    1    4    4    0    0 -0.58003188760E-01  0.98201179347E-02 -0.11733775325E-01  0.59989559316E-01  0.51100000000E-03 0.  1.
         11    1    4    4    0    0 -0.71568106733E-01 -0.10450753635E-01 -0.13966550452E-01  0.73665037877E-01  0.51100000000E-03 0. -1.
</event>
<event>
 8    1  0.1118868E+005  0.1043930E+01  0.7957747E-01            NaN
         13   -1    0    0    0    0  0.00000000000E+00  0.00000000000E+00  0.74505805969E-08  0.10566000000E+00  0.10566000000E+00 0. -1.
     999900   -1    0    0    0    0 -0.00000000000E+00 -0.00000000000E+00 -0.74505805969E-08  0.93827000000E+00  0.93827000000E+00 0.  1.
     999902    2    1    2    0    0  0.21234061750E-01 -0.11407040184E-01  0.54746103366E-02  0.10192120449E+01  0.10189122706E+01 0.  0.
     999903    2    3    3    0    0 -0.23642214812E-01 -0.84696904573E-01 -0.93020084893E-01  0.12955678057E+00  0.19992579467E-01 0.  0.
         14    1    1    2    0    0 -0.21234061750E-01  0.11407040184E-01 -0.54746103366E-02  0.24717955063E-01  0.00000000000E+00 0.  1.
     999901    1    3    3    0    0  0.44876276562E-01  0.73289864389E-01  0.98494695229E-01  0.88965526436E+00  0.88000000000E+00 0. -1.
        -11    1    4    4    0    0 -0.30929430114E-02 -0.71599997394E-02 -0.16813665920E-02  0.79949988966E-02  0.51100000000E-03 0. -1.
         11    1    4    4    0    0 -0.20549271801E-01 -0.77536904834E-01 -0.91338718301E-01  0.12156178168E+00  0.51100000000E-03 0.  1.
</event>
<event>
 8    1  0.1118868E+005  0.1043930E+01  0.7957747E-01            NaN
         13   -1    0    0    0    0  0.00000000000E+00  0.00000000000E+00  0.74505805969E-08  0.10566000000E+00  0.10566000000E+00 0.  1.
     999900   -1    0    0    0    0 -0.00000000000E+00 -0.00000000000E+00 -0.74505805969E-08  0.93827000000E+00  0.93827000000E+00 0.  1.
     999902    2    1    2    0    0 -0.30884301923E-02  0.97943316513E-02 -0.23220336048E-01  0.10185400150E+01  0.10182235073E+01 0.  0.
     999903    2    3    3    0    0 -0.45410150050E-01 -0.83099441411E-01 -0.87333821651E-01  0.13032218128E+00  0.19725000380E-01 0.  0.
         14    1    1    2    0    0  0.30884301923E-02 -0.97943316513E-02  0.23220336048E-01  0.25389985028E-01  0.00000000000E+00 0.  1.
     999901    1    3    3    0    0  0.42321719858E-01  0.92893773063E-01  0.64113485603E-01  0.88821783369E+00  0.88000000000E+00 0. -1.
        -11    1    4    4    0    0 -0.23846470087E-01 -0.34974681399E-01 -0.50996399384E-01  0.66278023098E-01  0.51100000000E-03 0.  1.
         11    1    4    4    0    0 -0.21563679963E-01 -0.48124760012E-01 -0.36337422267E-01  0.64044158186E-01  0.51100000000E-03 0. -1.
</event>
<event>
 8    1  0.1118868E+005  0.1043930E+01  0.7957747E-01            NaN
         13   -1    0    0    0    0  0.00000000000E+00  0.00000000000E+00  0.74505805969E-08  0.10566000000E+00  0.10566000000E+00 0. -1.
     999900   -1    0    0    0    0 -0.00000000000E+00 -0.00000000000E+00 -0.74505805969E-08  0.93827000000E+00  0.93827000000E+00 0. -1.
     999902    2    1    2    0    0 -0.39198450243E-02 -0.21889166358E-01 -0.73080865427E-02  0.10205225457E+01  0.10202540651E+01 0.  0.
     999903    2    3    3    0    0  0.19349140844E-01  0.16450719051E-01 -0.12719026733E+00  0.13126266815E+00  0.20186840658E-01 0.  0.
         14    1    1    2    0    0  0.39198450243E-02  0.21889166358E-01  0.73080865427E-02  0.23407454321E-01  0.00000000000E+00 0. -1.
     999901    1    3    3    0    0 -0.23268985868E-01 -0.38339885409E-01  0.11988218079E+00  0.88925987753E+00  0.88000000000E+00 0.  1.
        -11    1    4    4    0    0  0.37295261970E-02 -0.21935632293E-02 -0.53145322492E-01  0.53323611178E-01  0.51100000000E-03 0.  1.
         11    1    4    4    0    0  0.15619614647E-01  0.18644282280E-01 -0.74044944843E-01  0.77939056969E-01  0.51100000000E-03 0. -1.
</event>
<event>
 8    1  0.1118868E+005  0.1043930E+01  0.7957747E-01            NaN
         13   -1    0    0    0    0  0.00000000000E+00  0.00000000000E+00  0.74505805969E-08  0.10566000000E+00  0.10566000000E+00 0. -1.
     999900   -1    0    0    0    0 -0.00000000000E+00 -0.00000000000E+00 -0.74505805969E-08  0.93827000000E+00  0.93827000000E+00 0. -1.
     999902    2    1    2    0    0 -0.13070590787E-01  0.17431424342E-01 -0.11302810498E-01  0.10193851752E+01  0.10190896364E+01 0.  0.
     999903    2    3    3    0    0  0.11432072320E+00 -0.50381802117E-01  0.10914325186E-01  0.12735334750E+00  0.22185555806E-01 0.  0.
         14    1    1    2    0    0  0.13070590787E-01 -0.17431424342E-01  0.11302810498E-01  0.24544824776E-01  0.00000000000E+00 0.  1.
     999901    1    3    3    0    0 -0.12739131399E+00  0.67813226459E-01 -0.22217135684E-01  0.89203182773E+00  0.88000000000E+00 0. -1.
        -11    1    4    4    0    0  0.22589491903E-01 -0.10699557995E-02  0.40534136725E-02  0.22980888435E-01  0.51100000000E-03 0.  1.
         11    1    4    4    0    0  0.91731231298E-01 -0.49311846318E-01  0.68609115136E-02  0.10437245906E+00  0.51100000000E-03 0. -1.
</event>
<event>
 8    1  0.1118868E+005  0.1043930E+01  0.7957747E-01            NaN
         13   -1    0    0    0    0  0.00000000000E+00  0.00000000000E+00  0.74505805969E-08  0.10566000000E+00  0.10566000000E+00 0. -1.
     999900   -1    0    0    0    0 -0.00000000000E+00 -0.00000000000E+00 -0.74505805969E-08  0.93827000000E+00  0.93827000000E+00 0. -1.
     999902    2    1    2    0    0 -0.13584389236E-01 -0.63128097277E-02  0.18488799293E-01  0.10201345614E+01  0.10198570000E+01 0.  0.
     999903    2    3    3    0    0  0.32163702551E-02  0.40759647477E-01  0.12442095560E+00  0.13237349927E+00  0.19247732732E-01 0.  0.
         14    1    1    2    0    0  0.13584389236E-01  0.63128097277E-02 -0.18488799293E-01  0.23795438573E-01  0.00000000000E+00 0.  1.
     999901    1    3    3    0    0 -0.16800759491E-01 -0.47072457205E-01 -0.10593215631E+00  0.88776106216E+00  0.88000000000E+00 0. -1.
        -11    1    4    4    0    0  0.92511710384E-03  0.17071033443E-01  0.81670996592E-01  0.83442727843E-01  0.51100000000E-03 0. -1.
         11    1    4    4    0    0  0.22912531513E-02  0.23688614035E-01  0.42749959010E-01  0.48930771425E-01  0.51100000000E-03 0.  1.
</event>
<event>
 8    1  0.1118868E+005  0.1043930E+01  0.7957747E-01            NaN
         13   -1    0    0    0    0  0.00000000000E+00  0.00000000000E+00  0.74505805969E-08  0.10566000000E+00  0.10566000000E+00 0. -1.
     999900   -1    0    0    0    0 -0.00000000000E+00 -0.00000000000E+00 -0.74505805969E-08  0.93827000000E+00  0.93827000000E+00 0. -1.
     999902    2    1    2    0    0 -0.77044047929E-02 -0.24032901026E-01  0.97728692747E-03  0.10186734509E+01  0.10183603027E+01 0.  0.
     999903    2    3    3    0    0 -0.92430045709E-01  0.43044870557E-01 -0.76110887559E-01  0.12871814394E+00  0.19476117232E-01 0.  0.
         14    1    1    2    0    0  0.77044047929E-02  0.24032901026E-01 -0.97728692747E-03  0.25256549144E-01  0.00000000000E+00 0. -1.
     999901    1    3    3    0    0  0.84725640916E-01 -0.67077771582E-01  0.77088174487E-01  0.88995530692E+00  0.88000000000E+00 0.  1.
        -11    1    4    4    0    0 -0.13907544415E-01  0.12583879519E-01 -0.79907387655E-02  0.20393303862E-01  0.51100000000E-03 0.  1.
         11    1    4    4    0    0 -0.78522501294E-01  0.30460991038E-01 -0.68120148794E-01  0.10832484007E+00  0.51100000000E-03 0. -1.
</event>
<event>
 8    1  0.1118868E+005  0.1043930E+01  0.7957747E-01            NaN
         13   -1    0    0    0    0  0.00000000000E+00  0.00000000000E+00  0.74505805969E-08  0.10566000000E+00  0.10566000000E+00 0. -1.
     999900   -1    0    0    0    0 -0.00000000000E+00 -0.00000000000E+00 -0.74505805969E-08  0.93827000000E+00  0.93827000000E+00 0. -1.
     999902    2    1    2    0    0  0.60473556323E-02  0.67439290804E-02 -0.22075874873E-01  0.10200679938E+01  0.10197888588E+01 0.  0.
     999903    2    3    3    0    0 -0.78774025251E-02 -0.12642273059E+00  0.19220670151E-01  0.12898288967E+00  0.14912792669E-01 0.  0.
         14    1    1    2    0    0 -0.60473556323E-02 -0.67439290804E-02  0.22075874873E-01  0.23862006224E-01  0.00000000000E+00 0. -1.
     999901    1    3    3    0    0  0.13924758157E-01  0.13316665967E+00 -0.41296545024E-01  0.89108510411E+00  0.88000000000E+00 0. -1.
        -11    1    4    4    0    0  0.27039340313E-02 -0.33333220154E-01  0.96161345981E-02  0.34801522821E-01  0.51100000000E-03 0.  1.
         11    1    4    4    0    0 -0.10581336556E-01 -0.93089510436E-01  0.96045355525E-02  0.94181366844E-01  0.51100000000E-03 0. -1.
</event>
<event>
 7    1  0.1118868E+005  0.1043930E+01  0.7957747E-01            NaN
         13   -1    0    0    0    0  0.00000000000E+00  0.00000000000E+00  0.74505805969E-08  0.10566000000E+00  0.10566000000E+00 0. -1.
     999900   -1    0    0    0    0 -0.00000000000E+00 -0.00000000000E+00 -0.74505805969E-08  0.93827000000E+00  0.93827000000E+00 0.  1.
     999902    2    1    2    0    0 -0.11814118759E-01  0.18298153481E-01 -0.10238279250E-01  0.10198630479E+01  0.10195790397E+01 0.  0.
         14    1    1    2    0    0  0.11814118759E-01 -0.18298153481E-01  0.10238279250E-01  0.24066952131E-01  0.00000000000E+00 0. -1.
     999901    1    3    3    0    0 -0.15374278221E-01 -0.91519753093E-01  0.19156302286E-01  0.88508711297E+00  0.88000000000E+00 0.  1.
        -11    1    3    3    0    0  0.11501107938E-01 -0.34432845530E-02  0.88979863099E-02  0.14952156155E-01  0.51100000000E-03 0.  1.
         11    1    3    3    0    0 -0.79409484762E-02  0.11326119113E+00 -0.38292567847E-01  0.11982377874E+00  0.51100000000E-03 0. -1.
</event>
<event>
 8    1  0.1118868E+005  0.1043930E+01  0.7957747E-01            NaN
         13   -1    0    0    0    0  0.00000000000E+00  0.00000000000E+00  0.74505805969E-08  0.10566000000E+00  0.10566000000E+00 0.  1.
     999900   -1    0    0    0    0 -0.00000000000E+00 -0.00000000000E+00 -0.74505805969E-08  0.93827000000E+00  0.93827000000E+00 0. -1.
     999902    2    1    2    0    0 -0.10225303220E-01 -0.28064693141E-02 -0.22250630532E-01  0.10192820051E+01  0.10189839460E+01 0.  0.
     999903    2    3    3    0    0  0.67091515122E-01 -0.79165702761E-01 -0.77178077689E-01  0.13089827750E+00  0.20234215601E-01 0.  0.
         14    1    1    2    0    0  0.10225303220E-01  0.28064693141E-02  0.22250630532E-01  0.24647994949E-01  0.00000000000E+00 0.  1.
     999901    1    3    3    0    0 -0.77316818342E-01  0.76359233447E-01  0.54927447157E-01  0.88838372755E+00  0.88000000000E+00 0.  1.
        -11    1    4    4    0    0  0.30996844070E-01 -0.48815732007E-01 -0.34782933523E-01  0.67482543070E-01  0.51100000000E-03 0.  1.
         11    1    4    4    0    0  0.36094671053E-01 -0.30349970754E-01 -0.42395144166E-01  0.63415734428E-01  0.51100000000E-03 0. -1.
</event>
<event>
 8    1  0.1118868E+005  0.1043930E+01  0.7957747E-01            NaN
         13   -1    0    0    0    0  0.00000000000E+00  0.00000000000E+00  0.74505805969E-08  0.10566000000E+00  0.10566000000E+00 0. -1.
     999900   -1    0    0    0    0 -0.00000000000E+00 -0.00000000000E+00 -0.74505805969E-08  0.93827000000E+00  0.93827000000E+00 0.  1.
     999902    2    1    2    0    0  0.23200159815E-01  0.51356403660E-02  0.38677833738E-02  0.10198554914E+01  0.10195713027E+01 0.  0.
     999903    2    3    3    0    0 -0.78172736390E-02  0.12224932371E+00  0.40962292400E-01  0.13078086087E+00  0.20487002148E-01 0.  0.
         14    1    1    2    0    0 -0.23200159815E-01 -0.51356403660E-02 -0.38677833738E-02  0.24074508627E-01  0.00000000000E+00 0.  1.
     999901    1    3    3    0    0  0.31017433454E-01 -0.11711368334E+00 -0.37094509026E-01  0.88907463050E+00  0.88000000000E+00 0.  1.
        -11    1    4    4    0    0  0.21128104219E-02  0.54692112275E-01  0.27206763361E-01  0.61124137675E-01  0.51100000000E-03 0.  1.
         11    1    4    4    0    0 -0.99300840609E-02  0.67557211434E-01  0.13755529039E-01  0.69656723195E-01  0.51100000000E-03 0. -1.
</event>
<event>
 8    1  0.1118868E+005  0.1043930E+01  0.7957747E-01            NaN
         13   -1    0    0    0    0  0.00000000000E+00  0.00000000000E+00  0.74505805969E-08  0.10566000000E+00  0.10566000000E+00 0.  1.
     999900   -1    0    0    0    0 -0.00000000000E+00 -0.00000000000E+00 -0.74505805969E-08  0.93827000000E+00  0.93827000000E+00 0. -1.
     999902    2    1    2    0    0 -0.80415986203E-02 -0.87477291470E-03  0.22041178473E-01  0.10204513696E+01  0.10201812347E+01 0.  0.
     999903    2    3    3    0    0 -0.29117193161E-01  0.53467416743E-01 -0.11135791085E+00  0.12849140903E+00  0.20071928008E-01 0.  0.
         14    1    1    2    0    0  0.80415986203E-02  0.87477291470E-03 -0.22041178473E-01  0.23478630380E-01  0.00000000000E+00 0. -1.
     999901    1    3    3    0    0  0.21075594541E-01 -0.54342189658E-01  0.13339908933E+00  0.89195996059E+00  0.88000000000E+00 0.  1.
        -11    1    4    4    0    0 -0.58519798173E-02  0.30519344771E-01 -0.47658813433E-01  0.56897273150E-01  0.51100000000E-03 0. -1.
         11    1    4    4    0    0 -0.23265213344E-01  0.22948071972E-01 -0.63699097422E-01  0.71594135880E-01  0.51100000000E-03 0.  1.
</event>
<event>
 8    1  0.1118868E+005  0.1043930E+01  0.7957747E-01            NaN
         13   -1    0    0    0    0  0.00000000000E+00  0.00000000000E+00  0.74505805969E-08  0.10566000000E+00  0.10566000000E+00 0. -1.
     999900   -1    0    0    0    0 -0.00000000000E+00 -0.00000000000E+00 -0.74505805969E-08  0.93827000000E+00  0.93827000000E+00 0.  1.
     999902    2    1    2    0    0 -0.86440542788E-02  0.11200173964E-01 -0.18937181224E-01  0.10202914636E+01  0.10200175931E+01 0.  0.
     999903    2    3    3    0    0 -0.68310360722E-01  0.39993910822E-01  0.10072983987E+00  0.12972459729E+00  0.20399809195E-01 0.  0.
         14    1    1    2    0    0  0.86440542788E-02 -0.11200173964E-01  0.18937181224E-01  0.23638536417E-01  0.00000000000E+00 0. -1.
     999901    1    3    3    0    0  0.59666306444E-01 -0.28793736858E-01 -0.11966702110E+00  0.89056686630E+00  0.88000000000E+00 0.  1.
        -11    1    4    4    0    0 -0.18486608295E-01  0.87639971897E-02  0.41443318443E-01  0.46220905417E-01  0.51100000000E-03 0.  1.
         11    1    4    4    0    0 -0.49823752427E-01  0.31229913632E-01  0.59286521432E-01  0.83503691870E-01  0.51100000000E-03 0. -1.
</event>
<event>
 8    1  0.1118868E+005  0.1043930E+01  0.7957747E-01            NaN
         13   -1    0    0    0    0  0.00000000000E+00  0.00000000000E+00  0.74505805969E-08  0.10566000000E+00  0.10566000000E+00 0. -1.
     999900   -1    0    0    0    0 -0.00000000000E+00 -0.00000000000E+00 -0.74505805969E-08  0.93827000000E+00  0.93827000000E+00 0.  1.
     999902    2    1    2    0    0  0.16203724734E-01 -0.43615603737E-03 -0.17676168001E-01  0.10199467174E+01  0.10196647040E+01 0.  0.
     999903    2    3    3    0    0 -0.12529581448E+00  0.15865518433E-01 -0.53360552170E-02  0.12840864053E+00  0.22573207034E-01 0.  0.
         14    1    1    2    0    0 -0.16203724734E-01  0.43615603737E-03  0.17676168001E-01  0.23983282564E-01  0.00000000000E+00 0. -1.
     999901    1    3    3    0    0  0.14149953922E+00 -0.16301674470E-01 -0.12340112784E-01  0.89153807691E+00  0.88000000000E+00 0. -1.
        -11    1    4    4    0    0 -0.10352167241E+00  0.62437698067E-02  0.11967402740E-02  0.10371795711E+00  0.51100000000E-03 0. -1.
         11    1    4    4    0    0 -0.21774142076E-01  0.96217486261E-02 -0.65327954910E-02  0.24690683419E-01  0.51100000000E-03 0.  1.
</event>
<event>
 8    1  0.1118868E+005  0.1043930E+01  0.7957747E-01            NaN
         13   -1    0    0    0    0  0.00000000000E+00  0.00000000000E+00  0.74505805969E-08  0.10566000000E+00  0.10566000000E+00 0.  1.
     999900   -1    0    0    0    0 -0.00000000000E+00 -0.00000000000E+00 -0.74505805969E-08  0.93827000000E+00  0.93827000000E+00 0.  1.
     999902    2    1    2    0    0  0.26807646719E-02  0.23089018041E-01  0.13382634046E-01  0.10171086625E+01  0.10167549592E+01 0.  0.
     999903    2    3    3    0    0 -0.98391480491E-01 -0.48604432968E-01  0.61044250828E-01  0.12714957387E+00  0.19933369956E-01 0.  0.
         14    1    1    2    0    0 -0.26807646719E-02 -0.23089018041E-01 -0.13382634046E-01  0.26821337538E-01  0.00000000000E+00 0. -1.
     999901    1    3    3    0    0  0.10107224516E+00  0.71693451009E-01 -0.47661616783E-01  0.88995908860E+00  0.88000000000E+00 0.  1.
        -11    1    4    4    0    0 -0.28085288584E-01 -0.22365522711E-01  0.13770975011E-01  0.38456480790E-01  0.51100000000E-03 0. -1.
         11    1    4    4    0    0 -0.70306191908E-01 -0.26238910257E-01  0.47273275817E-01  0.88693093077E-01  0.51100000000E-03 0.  1.
</event>
<event>
 8    1  0.1118868E+005  0.1043930E+01  0.7957747E-01            NaN
         13   -1    0    0    0    0  0.00000000000E+00  0.00000000000E+00  0.74505805969E-08  0.10566000000E+00  0.10566000000E+00 0.  1.
     999900   -1    0    0    0    0 -0.00000000000E+00 -0.00000000000E+00 -0.74505805969E-08  0.93827000000E+00  0.93827000000E+00 0. -1.
     999902    2    1    2    0    0  0.49719214405E-02 -0.15582605201E-01  0.19326291961E-01  0.10186111701E+01  0.10182964562E+01 0.  0.
     999903    2    3    3    0    0  0.93787004447E-01 -0.36856847659E-01  0.82188956306E-01  0.13165433520E+00  0.20576929235E-01 0.  0.
         14    1    1    2    0    0 -0.49719214405E-02  0.15582605201E-01 -0.19326291961E-01  0.25318829922E-01  0.00000000000E+00 0. -1.
     999901    1    3    3    0    0 -0.88815083007E-01  0.21274242459E-01 -0.62862664345E-01  0.88695683487E+00  0.88000000000E+00 0. -1.
        -11    1    4    4    0    0  0.24088509154E-01 -0.66256306112E-02  0.31994584429E-01  0.40596426050E-01  0.51100000000E-03 0. -1.
         11    1    4    4    0    0  0.69698495293E-01 -0.30231217048E-01  0.50194371877E-01  0.91057909154E-01  0.51100000000E-03 0.  1.
</event>
<event>
 8    1  0.1118868E+005  0.1043930E+01  0.7957747E-01            NaN
         13   -1    0    0    0    0  0.00000000000E+00  0.00000000000E+00  0.74505805969E-08  0.10566000000E+00  0.10566000000E+00 0.  1.
     999900   -1    0    0    0    0 -0.00000000000E+00 -0.00000000000E+00 -0.74505805969E-08  0.93827000000E+00  0.93827000000E+00 0.  1.
     999902    2    1    2    0    0  0.15751868169E-01 -0.19131612089E-01  0.33223492599E-02  0.10189264415E+01  0.10186196127E+01 0.  0.
     999903    2    3    3    0    0 -0.10476232621E+00  0.53648252637E-01 -0.41909348786E-01  0.12658878891E+00  0.20372725852E-01 0.  0.
         14    1    1    2    0    0 -0.15751868169E-01  0.19131612089E-01 -0.33223492599E-02  0.25003558478E-01  0.00000000000E+00 0. -1.
     999901    1    3    3    0    0  0.12051419438E+00 -0.72779864726E-01  0.45231698046E-01  0.89233765261E+00  0.88000000000E+00 0.  1.
        -11    1    4    4    0    0 -0.80535339446E-02 -0.40047275713E-03 -0.62102335818E-02  0.10190579452E-01  0.51100000000E-03 0.  1.
         11    1    4    4    0    0 -0.96708792266E-01  0.54048725394E-01 -0.35699115204E-01  0.11639820946E+00  0.51100000000E-03 0. -1.
</event>
<event>
 8    1  0.1118868E+005  0.1043930E+01  0.7957747E-01            NaN
         13   -1    0    0    0    0  0.00000000000E+00  0.00000000000E+00  0.74505805969E-08  0.10566000000E+00  0.10566000000E+00 0. -1.
     999900   -1    0    0    0    0 -0.00000000000E+00 -0.00000000000E+00 -0.74505805969E-08  0.93827000000E+00  0.93827000000E+00 0.  1.
     999902    2    1    2    0    0 -0.10851020165E-01 -0.13882262827E-01 -0.16200714419E-01  0.10199941481E+01  0.10197132622E+01 0.  0.
     999903    2    3    3    0    0 -0.95234836495E-02  0.93851341463E-01  0.83787644387E-01  0.12780248495E+00  0.20355214864E-01 0.  0.
         14    1    1    2    0    0  0.10851020165E-01  0.13882262827E-01  0.16200714419E-01  0.23935851928E-01  0.00000000000E+00 0. -1.
     999901    1    3    3    0    0 -0.13275365156E-02 -0.10773360429E+00 -0.99988358807E-01  0.89219166312E+00  0.88000000000E+00 0.  1.
        -11    1    4    4    0    0  0.62738553511E-02  0.30977311087E-01  0.25300823807E-01  0.40488861054E-01  0.51100000000E-03 0.  1.
         11    1    4    4    0    0 -0.15797339001E-01  0.62874030376E-01  0.58486820580E-01  0.87313623896E-01  0.51100000000E-03 0. -1.
</event>
<event>
 8    1  0.1118868E+005  0.1043930E+01  0.7957747E-01            NaN
         13   -1    0    0    0    0  0.00000000000E+00  0.00000000000E+00  0.74505805969E-08  0.10566000000E+00  0.10566000000E+00 0. -1.
     999900   -1    0    0    0    0 -0.00000000000E+00 -0.00000000000E+00 -0.74505805969E-08  0.93827000000E+00  0.93827000000E+00 0.  1.
     999902    2    1    2    0    0 -0.78649892893E-02  0.21003079723E-01  0.33403484065E-02  0.10212552268E+01  0.10210034735E+01 0.  0.
     999903    2    3    3    0    0 -0.23901627908E-01  0.11718361883E+00  0.57801098483E-01  0.13419612884E+00  0.19087840961E-01 0.  0.
         14    1    1    2    0    0  0.78649892893E-02 -0.21003079723E-01 -0.33403484065E-02  0.22674773248E-01  0.00000000000E+00 0. -1.
     999901    1    3    3    0    0  0.16036638618E-01 -0.96180539107E-01 -0.54460750076E-01  0.88705909791E+00  0.88000000000E+00 0. -1.
        -11    1    4    4    0    0 -0.26755501170E-02  0.49392699679E-01  0.30365390711E-01  0.58044081732E-01  0.51100000000E-03 0. -1.
         11    1    4    4    0    0 -0.21226077791E-01  0.67790919150E-01  0.27435707771E-01  0.76152047113E-01  0.51100000000E-03 0.  1.
</event>
<event>
 8    1  0.1118868E+005  0.1043930E+01  0.7957747E-01            NaN
         13   -1    0    0    0    0  0.00000000000E+00  0.00000000000E+00  0.74505805969E-08  0.10566000000E+00  0.10566000000E+00 0. -1.
     999900   -1    0    0    0    0 -0.00000000000E+00 -0.00000000000E+00 -0.74505805969E-08  0.93827000000E+00  0.93827000000E+00 0.  1.
     999902    2    1    2    0    0  0.76150494112E-02  0.16788909404E-01  0.14842441308E-01  0.10202624163E+01  0.10199878644E+01 0.  0.
     999903    2    3    3    0    0 -0.89729957426E-01  0.28888726502E-01 -0.86354634629E-01  0.12904790554E+00  0.17612927721E-01 0.  0.
         14    1    1    2    0    0 -0.76150494112E-02 -0.16788909404E-01 -0.14842441308E-01  0.23667583749E-01  0.00000000000E+00 0. -1.
     999901    1    3    3    0    0  0.97345006837E-01 -0.12099817098E-01  0.10119707594E+00  0.89121451071E+00  0.88000000000E+00 0. -1.
        -11    1    4    4    0    0 -0.20405078186E-01  0.14302635473E-01 -0.25462951374E-01  0.35630823888E-01  0.51100000000E-03 0. -1.
         11    1    4    4    0    0 -0.69324879240E-01  0.14586091029E-01 -0.60891683255E-01  0.93417081649E-01  0.51100000000E-03 0.  1.
</event>
<event>
 8    1  0.1118868E+005  0.1043930E+01  0.7957747E-01            NaN
         13   -1    0    0    0    0  0.00000000000E+00  0.00000000000E+00  0.74505805969E-08  0.10566000000E+00  0.10566000000E+00 0. -1.
     999900   -1    0    0    0    0 -0.00000000000E+00 -0.00000000000E+00 -0.74505805969E-08  0.93827000000E+00  0.93827000000E+00 0.  1.
     999902    2    1    2    0    0 -0.25833163412E-01  0.11538907934E-01 -0.39122349741E-02  0.10153677117E+01  0.10149659037E+01 0.  0.
     999903    2    3    3    0    0 -0.22045403001E-01  0.37881994627E-01 -0.11812349545E+00  0.12758816852E+00  0.20113061845E-01 0.  0.
         14    1    1    2    0    0  0.25833163412E-01 -0.11538907934E-01  0.39122349741E-02  0.28562288260E-01  0.00000000000E+00 0. -1.
     999901    1    3    3    0    0 -0.37877604109E-02 -0.26343086693E-01  0.11421126048E+00  0.88777954322E+00  0.88000000000E+00 0. -1.
        -11    1    4    4    0    0 -0.11419622628E-01  0.35446083109E-01 -0.88444260721E-01  0.95966040682E-01  0.51100000000E-03 0. -1.
         11    1    4    4    0    0 -0.10625780372E-01  0.24359115181E-02 -0.29679234733E-01  0.31622127835E-01  0.51100000000E-03 0.  1.
</event>
<event>
 8    1  0.1118868E+005  0.1043930E+01  0.7957747E-01            NaN
         13   -1    0    0    0    0  0.00000000000E+00  0.00000000000E+00  0.74505805969E-08  0.10566000000E+00  0.10566000000E+00 0.  1.
     999900   -1    0    0    0    0 -0.00000000000E+00 -0.00000000000E+00 -0.74505805969E-08  0.93827000000E+00  0.93827000000E+00 0. -1.
     999902    2    1    2    0    0  0.10987253996E-01  0.15037124154E-01  0.12033498905E-01  0.10217570446E+01  0.10215164308E+01 0.  0.
     999903    2    3    3    0    0 -0.70985568548E-01 -0.92380858299E-01 -0.51902092441E-01  0.12915078967E+00  0.20320564691E-01 0.  0.
         14    1    1    2    0    0 -0.10987253996E-01 -0.15037124154E-01 -0.12033498905E-01  0.22172955353E-01  0.00000000000E+00 0. -1.
     999901    1    3    3    0    0  0.81972822545E-01  0.10741798245E+00  0.63935591346E-01  0.89260625498E+00  0.88000000000E+00 0.  1.
        -11    1    4    4    0    0 -0.27813611482E-01 -0.39194345150E-01 -0.32260174831E-01  0.57885867676E-01  0.51100000000E-03 0.  1.
         11    1    4    4    0    0 -0.43171957066E-01 -0.53186513149E-01 -0.19641917610E-01  0.71264921990E-01  0.51100000000E-03 0. -1.
</event>
<event>
 8    1  0.1118868E+005  0.1043930E+01  0.7957747E-01            NaN
         13   -1    0    0    0    0  0.00000000000E+00  0.00000000000E+00  0.74505805969E-08  0.10566000000E+00  0.10566000000E+00 0. -1.
     999900   -1    0    0    0    0 -0.00000000000E+00 -0.00000000000E+00 -0.74505805969E-08  0.93827000000E+00  0.93827000000E+00 0.  1.
     999902    2    1    2    0    0 -0.10042476287E-02 -0.40752896895E-02 -0.10342331562E-01  0.10327684445E+01  0.10327081290E+01 0.  0.
     999903    2    3    3    0    0 -0.18406818269E-01 -0.45328636072E-01 -0.13312752806E+00  0.14311632566E+00  0.19127146541E-01 0.  0.
         14    1    1    2    0    0  0.10042476287E-02  0.40752896895E-02  0.10342331562E-01  0.11161555514E-01  0.00000000000E+00 0. -1.
     999901    1    3    3    0    0  0.17402570640E-01  0.41253346383E-01  0.12278519650E+00  0.88965211883E+00  0.88000000000E+00 0. -1.
        -11    1    4    4    0    0 -0.61909413082E-02 -0.27241263633E-01 -0.51176219329E-01  0.58306781290E-01  0.51100000000E-03 0.  1.
         11    1    4    4    0    0 -0.12215876961E-01 -0.18087372439E-01 -0.81951308735E-01  0.84809544369E-01  0.51100000000E-03 0. -1.
</event>
<event>
 8    1  0.1118868E+005  0.1043930E+01  0.7957747E-01            NaN
         13   -1    0    0    0    0  0.00000000000E+00  0.00000000000E+00  0.74505805969E-08  0.10566000000E+00  0.10566000000E+00 0. -1.
     999900   -1    0    0    0    0 -0.00000000000E+00 -0.00000000000E+00 -0.74505805969E-08  0.93827000000E+00  0.93827000000E+00 0.  1.
     999902    2    1    2    0    0 -0.10765424735E-02  0.36683070868E-02  0.23966025150E-01  0.10196609707E+01  0.10193721153E+01 0.  0.
     999903    2    3    3    0    0 -0.10325562158E+00 -0.91369774158E-02  0.79000587448E-01  0.13194854963E+00  0.20594154229E-01 0.  0.
         14    1    1    2    0    0  0.10765424735E-02 -0.36683070868E-02 -0.23966025150E-01  0.24269029277E-01  0.00000000000E+00 0.  1.
     999901    1    3    3    0    0  0.10217907910E+00  0.12805284503E-01 -0.55034562298E-01  0.88771242109E+00  0.88000000000E+00 0.  1.
        -11    1    4    4    0    0 -0.79348839434E-01 -0.15342418505E-01  0.57360867301E-01  0.99106802711E-01  0.51100000000E-03 0.  1.
         11    1    4    4    0    0 -0.23906782143E-01  0.62054410894E-02  0.21639720147E-01  0.32841746917E-01  0.51100000000E-03 0. -1.
</event>
<event>
 8    1  0.1118868E+005  0.1043930E+01  0.7957747E-01            NaN
         13   -1    0    0    0    0  0.00000000000E+00  0.00000000000E+00  0.74505805969E-08  0.10566000000E+00  0.10566000000E+00 0.  1.
     999900   -1    0    0    0    0 -0.00000000000E+00 -0.00000000000E+00 -0.74505805969E-08  0.93827000000E+00  0.93827000000E+00 0. -1.
     999902    2    1    2    0    0 -0.12596885099E-01 -0.20349050759E-01  0.48770239165E-02  0.10195056117E+01  0.10192130011E+01 0.  0.
     999903    2    3    3    0    0  0.10996234343E+00  0.49595545679E-01 -0.35774934115E-01  0.12733657349E+00  0.19578608597E-01 0.  0.
         14    1    1    2    0    0  0.12596885099E-01  0.20349050759E-01 -0.48770239165E-02  0.24424388288E-01  0.00000000000E+00 0.  1.
     999901    1    3    3    0    0 -0.12255922853E+00 -0.69944596438E-01  0.40651958031E-01  0.89216903822E+00  0.88000000000E+00 0.  1.
        -11    1    4    4    0    0  0.52565046995E-01  0.21353740719E-01 -0.69225207067E-02  0.57159853238E-01  0.51100000000E-03 0. -1.
         11    1    4    4    0    0  0.57397296431E-01  0.28241804960E-01 -0.28852413408E-01  0.70176720253E-01  0.51100000000E-03 0.  1.
</event>
<event>
 8    1  0.1359194E+005  0.1043930E+01  0.7957747E-01            NaN
         13   -1    0    0    0    0  0.00000000000E+00  0.00000000000E+00  0.74505805969E-08  0.10566000000E+00  0.10566000000E+00 0. -1.
     999900   -1    0    0    0    0 -0.00000000000E+00 -0.00000000000E+00 -0.74505805969E-08  0.93827000000E+00  0.93827000000E+00 0.  1.
     999902    2    1    2    0    0  0.24203305649E-01  0.78888375235E-02 -0.40145854398E-03  0.10184703274E+01  0.10181520578E+01 0.  0.
     999903    2    3    3    0    0  0.89914616998E-01  0.34309609737E-02 -0.92932005877E-01  0.13117119444E+00  0.21751199749E-01 0.  0.
         14    1    1    2    0    0 -0.24203305649E-01 -0.78888375235E-02  0.40145854398E-03  0.25459672637E-01  0.00000000000E+00 0.  1.
     999901    1    3    3    0    0 -0.65711311349E-01  0.44578765498E-02  0.92530547333E-01  0.88729913293E+00  0.88000000000E+00 0.  1.
        -11    1    4    4    0    0  0.44593623812E-01 -0.81721266425E-02 -0.52180724947E-01  0.69126435722E-01  0.51100000000E-03 0. -1.
         11    1    4    4    0    0  0.45320993186E-01  0.11603087616E-01 -0.40751280929E-01  0.62044758715E-01  0.51100000000E-03 0.  1.
</event>
<event>
 8    1  0.1118868E+005  0.1043930E+01  0.7957747E-01            NaN
         13   -1    0    0    0    0  0.00000000000E+00  0.00000000000E+00  0.74505805969E-08  0.10566000000E+00  0.10566000000E+00 0. -1.
     999900   -1    0    0    0    0 -0.00000000000E+00 -0.00000000000E+00 -0.74505805969E-08  0.93827000000E+00  0.93827000000E+00 0. -1.
     999902    2    1    2    0    0  0.26051490064E-01  0.31606415456E-02 -0.53977349141E-02  0.10171381107E+01  0.10167851941E+01 0.  0.
     999903    2    3    3    0    0  0.10486161545E+00 -0.17671514068E-01 -0.73576362178E-01  0.13074466546E+00  0.19298851500E-01 0.  0.
         14    1    1    2    0    0 -0.26051490064E-01 -0.31606415456E-02  0.53977349141E-02  0.26791889290E-01  0.00000000000E+00 0. -1.
     999901    1    3    3    0    0 -0.78810125390E-01  0.20832155613E-01  0.68178627264E-01  0.88639344525E+00  0.88000000000E+00 0.  1.
        -11    1    4    4    0    0  0.47242213184E-01 -0.39974942613E-02 -0.22244760648E-01  0.52372675740E-01  0.51100000000E-03 0.  1.
         11    1    4    4    0    0  0.57619402269E-01 -0.13674019806E-01 -0.51331601530E-01  0.78371989717E-01  0.51100000000E-03 0. -1.
</event>
<event>
 8    1  0.1118868E+005  0.1043930E+01  0.7957747E-01            NaN
         13   -1    0    0    0    0  0.00000000000E+00  0.00000000000E+00  0.74505805969E-08  0.10566000000E+00  0.10566000000E+00 0. -1.
     999900   -1    0    0    0    0 -0.00000000000E+00 -0.00000000000E+00 -0.74505805969E-08  0.93827000000E+00  0.93827000000E+00 0. -1.
     999902    2    1    2    0    0 -0.43003655342E-02  0.21876694592E-01 -0.55316146534E-02  0.10209586772E+01  0.10207002199E+01 0.  0.
     999903    2    3    3    0    0 -0.28491954110E-02 -0.11344620154E+00  0.56790756142E-01  0.12843502486E+00  0.19804218419E-01 0.  0.
         14    1    1    2    0    0  0.43003655342E-02 -0.21876694592E-01  0.55316146534E-02  0.22971322789E-01  0.00000000000E+00 0. -1.
     999901    1    3    3    0    0 -0.14511701232E-02  0.13532289614E+00 -0.62322370795E-01  0.89252365236E+00  0.88000000000E+00 0. -1.
        -11    1    4    4    0    0  0.68274744372E-02 -0.42455096988E-01  0.27405789617E-01  0.50994000559E-01  0.51100000000E-03 0.  1.
         11    1    4    4    0    0 -0.96766698482E-02 -0.70991104556E-01  0.29384966524E-01  0.77441024297E-01  0.51100000000E-03 0. -1.
</event>
<event>
 8    1  0.1118868E+005  0.1043930E+01  0.7957747E-01            NaN
         13   -1    0    0    0    0  0.00000000000E+00  0.00000000000E+00  0.74505805969E-08  0.10566000000E+00  0.10566000000E+00 0. -1.
     999900   -1    0    0    0    0 -0.00000000000E+00 -0.00000000000E+00 -0.74505805969E-08  0.93827000000E+00  0.93827000000E+00 0. -1.
     999902    2    1    2    0    0  0.28716275103E-02  0.20823631025E-01  0.68478872137E-02  0.10218220057E+01  0.10215828150E+01 0.  0.
     999903    2    3    3    0    0  0.34100624762E-01  0.41564453276E-01 -0.11898555594E+00  0.13208075824E+00  0.19932581127E-01 0.  0.
         14    1    1    2    0    0 -0.28716275103E-02 -0.20823631025E-01 -0.68478872137E-02  0.22107994321E-01  0.00000000000E+00 0. -1.
     999901    1    3    3    0    0 -0.31228997252E-01 -0.20740822252E-01  0.12583344315E+00  0.88974124744E+00  0.88000000000E+00 0.  1.
        -11    1    4    4    0    0  0.25916814086E-01  0.30069317194E-01 -0.64018610982E-01  0.75329202584E-01  0.51100000000E-03 0.  1.
         11    1    4    4    0    0  0.81838106765E-02  0.11495136083E-01 -0.54966944955E-01  0.56751555657E-01  0.51100000000E-03 0. -1.
</event>
<event>
 8    1  0.1118868E+005  0.1043930E+01  0.7957747E-01            NaN
         13   -1    0    0    0    0  0.00000000000E+00  0.00000000000E+00  0.74505805969E-08  0.10566000000E+00  0.10566000000E+00 0. -1.
     999900   -1    0    0    0    0 -0.00000000000E+00 -0.00000000000E+00 -0.74505805969E-08  0.93827000000E+00  0.93827000000E+00 0. -1.
     999902    2    1    2    0    0  0.15140376607E-01  0.10475814171E-01  0.15892844017E-01  0.10196080721E+01  0.10193179408E+01 0.  0.
     999903    2    3    3    0    0 -0.72541693312E-02  0.24084848600E-02  0.13018957738E+00  0.13189734176E+00  0.19727111570E-01 0.  0.
         14    1    1    2    0    0 -0.15140376607E-01 -0.10475814171E-01 -0.15892844017E-01  0.24321927911E-01  0.00000000000E+00 0.  1.
     999901    1    3    3    0    0  0.22394545938E-01  0.80673293112E-02 -0.11429673337E+00  0.88771073033E+00  0.88000000000E+00 0. -1.
        -11    1    4    4    0    0 -0.76654596538E-02 -0.56502282637E-02  0.10522111166E+00  0.10565239141E+00  0.51100000000E-03 0. -1.
         11    1    4    4    0    0  0.41129032264E-03  0.80587131237E-02  0.24968465722E-01  0.26244950342E-01  0.51100000000E-03 0.  1.
</event>
<event>
 8    1  0.1118868E+005  0.1043930E+01  0.7957747E-01            NaN
         13   -1    0    0    0    0  0.00000000000E+00  0.00000000000E+00  0.74505805969E-08  0.10566000000E+00  0.10566000000E+00 0. -1.
     999900   -1    0    0    0    0 -0.00000000000E+00 -0.00000000000E+00 -0.74505805969E-08  0.93827000000E+00  0.93827000000E+00 0. -1.
     999902    2    1    2    0    0  0.26079113433E-01 -0.13952950241E-01  0.57197081144E-02  0.10138049267E+01  0.10133572467E+01 0.  0.
     999903    2    3    3    0    0 -0.13947664356E-01 -0.82907098123E-01 -0.90259431466E-01  0.12500302942E+00  0.20269882471E-01 0.  0.
         14    1    1    2    0    0 -0.26079113433E-01  0.13952950241E-01 -0.57197081144E-02  0.30125073258E-01  0.00000000000E+00 0.  1.
     999901    1    3    3    0    0  0.40026777789E-01  0.68954147882E-01  0.95979139580E-01  0.88880189732E+00  0.88000000000E+00 0.  1.
        -11    1    4    4    0    0 -0.16815837645E-01 -0.54172019771E-01 -0.51117900084E-01  0.76358895695E-01  0.51100000000E-03 0.  1.
         11    1    4    4    0    0  0.28681732891E-02 -0.28735078352E-01 -0.39141531381E-01  0.48644133724E-01  0.51100000000E-03 0. -1.
</event>
<event>
 8    1  0.1118868E+005  0.1043930E+01  0.7957747E-01            NaN
         13   -1    0    0    0    0  0.00000000000E+00  0.00000000000E+00  0.74505805969E-08  0.10566000000E+00  0.10566000000E+00 0.  1.
     999900   -1    0    0    0    0 -0.00000000000E+00 -0.00000000000E+00 -0.74505805969E-08  0.93827000000E+00  0.93827000000E+00 0. -1.
     999902    2    1    2    0    0 -0.28159378646E-02 -0.12232582782E-01  0.20986027186E-01  0.10194763924E+01  0.10191830727E+01 0.  0.
     999903    2    3    3    0    0 -0.34589518004E-03  0.10401624563E+00  0.75593137779E-01  0.13014977763E+00  0.20128167775E-01 0.  0.
         14    1    1    2    0    0  0.28159378646E-02  0.12232582782E-01 -0.20986027186E-01  0.24453607600E-01  0.00000000000E+00 0. -1.
     999901    1    3    3    0    0 -0.24700426846E-02 -0.11624882841E+00 -0.54607110593E-01  0.88932661477E+00  0.88000000000E+00 0. -1.
        -11    1    4    4    0    0  0.34149559317E-02  0.24883819937E-01  0.90981395527E-02  0.26718976084E-01  0.51100000000E-03 0. -1.
         11    1    4    4    0    0 -0.37608511117E-02  0.79132425695E-01  0.66494998227E-01  0.10343080154E+00  0.51100000000E-03 0.  1.
</event>
<event>
 8    1  0.1118868E+005  0.1043930E+01  0.7957747E-01            NaN
         13   -1    0    0    0    0  0.00000000000E+00  0.00000000000E+00  0.74505805969E-08  0.10566000000E+00  0.10566000000E+00 0.  1.
     999900   -1    0    0    0    0 -0.00000000000E+00 -0.00000000000E+00 -0.74505805969E-08  0.93827000000E+00  0.93827000000E+00 0.  1.
     999902    2    1    2    0    0  0.16676897396E-01  0.91872851012E-02  0.13521365856E-01  0.10205772175E+01  0.10203100041E+01 0.  0.
     999903    2    3    3    0    0  0.72239469586E-01  0.11035717139E+00  0.28894756791E-02  0.13297619094E+00  0.16645481222E-01 0.  0.
         14    1    1    2    0    0 -0.16676897396E-01 -0.91872851012E-02 -0.13521365856E-01  0.23352782466E-01  0.00000000000E+00 0. -1.
     999901    1    3    3    0    0 -0.55562572191E-01 -0.10116988629E+00  0.10631890177E-01  0.88760102659E+00  0.88000000000E+00 0. -1.
        -11    1    4    4    0    0  0.26949087923E-01  0.36289591750E-01 -0.64267217299E-02  0.45659081051E-01  0.51100000000E-03 0.  1.
         11    1    4    4    0    0  0.45290381663E-01  0.74067579637E-01  0.93161974090E-02  0.87317109890E-01  0.51100000000E-03 0. -1.
</event>
<event>
 8    1  0.1118868E+005  0.1043930E+01  0.7957747E-01            NaN
         13   -1    0    0    0    0  0.00000000000E+00  0.00000000000E+00  0.74505805969E-08  0.10566000000E+00  0.10566000000E+00 0.  1.
     999900   -1    0    0    0    0 -0.00000000000E+00 -0.00000000000E+00 -0.74505805969E-08  0.93827000000E+00  0.93827000000E+00 0. -1.
     999902    2    1    2    0    0  0.18869302573E-02  0.22988484149E-01  0.14461016478E-02  0.10208189178E+01  0.10205572698E+01 0.  0.
     999903    2    3    3    0    0 -0.29581305384E-01  0.66849395687E-01  0.10888765231E+00  0.13264229337E+00  0.19838392922E-01 0.  0.
         14    1    1    2    0    0 -0.18869302573E-02 -0.22988484149E-01 -0.14461016478E-02  0.23111082173E-01  0.00000000000E+00 0.  1.
     999901    1    3    3    0    0  0.31468235642E-01 -0.43860911539E-01 -0.10744155066E+00  0.88817662445E+00  0.88000000000E+00 0. -1.
        -11    1    4    4    0    0 -0.51125704387E-02  0.34287009788E-02  0.18769843461E-01  0.19760124277E-01  0.51100000000E-03 0. -1.
         11    1    4    4    0    0 -0.24468734946E-01  0.63420694709E-01  0.90117808850E-01  0.11288216910E+00  0.51100000000E-03 0.  1.
</event>
<event>
 8    1  0.1118868E+005  0.1043930E+01  0.7957747E-01            NaN
         13   -1    0    0    0    0  0.00000000000E+00  0.00000000000E+00  0.74505805969E-08  0.10566000000E+00  0.10566000000E+00 0.  1.
     999900   -1    0    0    0    0 -0.00000000000E+00 -0.00000000000E+00 -0.74505805969E-08  0.93827000000E+00  0.93827000000E+00 0.  1.
     999902    2    1    2    0    0 -0.16482108235E-01 -0.23198562151E-01 -0.85276752222E-02  0.10142221825E+01  0.10137869998E+01 0.  0.
     999903    2    3    3    0    0 -0.95144772677E-01  0.25256948989E-01  0.75159090762E-01  0.12543692936E+00  0.19876948559E-01 0.  0.
         14    1    1    2    0    0  0.16482108235E-01  0.23198562151E-01  0.85276752222E-02  0.29707817531E-01  0.00000000000E+00 0.  1.
     999901    1    3    3    0    0  0.78662664442E-01 -0.48455511140E-01 -0.83686765984E-01  0.88878525311E+00  0.88000000000E+00 0. -1.
        -11    1    4    4    0    0 -0.28587400757E-01  0.56055952112E-02  0.33893498967E-01  0.44695554286E-01  0.51100000000E-03 0.  1.
         11    1    4    4    0    0 -0.66557371921E-01  0.19651353778E-01  0.41265591794E-01  0.80741375078E-01  0.51100000000E-03 0. -1.
</event>
<event>
 8    1  0.1118868E+005  0.1043930E+01  0.7957747E-01            NaN
         13   -1    0    0    0    0  0.00000000000E+00  0.00000000000E+00  0.74505805969E-08  0.10566000000E+00  0.10566000000E+00 0.  1.
     999900   -1    0    0    0    0 -0.00000000000E+00 -0.00000000000E+00 -0.74505805969E-08  0.93827000000E+00  0.93827000000E+00 0.  1.
     999902    2    1    2    0    0 -0.14035677507E-01  0.18305926992E-01 -0.51222257599E-02  0.10203006876E+01  0.10200270334E+01 0.  0.
     999903    2    3    3    0    0  0.16275963732E-01 -0.94838082439E-01  0.81937869189E-01  0.12828060793E+00  0.21975693104E-01 0.  0.
         14    1    1    2    0    0  0.14035677507E-01 -0.18305926992E-01  0.51222257599E-02  0.23629312365E-01  0.00000000000E+00 0.  1.
     999901    1    3    3    0    0 -0.30311641239E-01  0.11314400943E+00 -0.87060094949E-01  0.89202007971E+00  0.88000000000E+00 0.  1.
        -11    1    4    4    0    0  0.16583166388E-01 -0.36647521292E-01  0.28783153972E-01  0.49464869331E-01  0.51100000000E-03 0. -1.
         11    1    4    4    0    0 -0.30720265637E-03 -0.58190561146E-01  0.53154715218E-01  0.78815738599E-01  0.51100000000E-03 0.  1.
</event>
<event>
 8    1  0.1118868E+005  0.1043930E+01  0.7957747E-01            NaN
         13   -1    0    0    0    0  0.00000000000E+00  0.00000000000E+00  0.74505805969E-08  0.10566000000E+00  0.10566000000E+00 0.  1.
     999900   -1    0    0    0    0 -0.00000000000E+00 -0.00000000000E+00 -0.74505805969E-08  0.93827000000E+00  0.93827000000E+00 0.  1.
     999902    2    1    2    0    0  0.88911831204E-02  0.10683471834E-01  0.17382650730E-01  0.10216736244E+01  0.10214311766E+01 0.  0.
     999903    2    3    3    0    0 -0.11943948490E+00  0.51222417040E-01 -0.55859228856E-03  0.13126132967E+00  0.18430900168E-01 0.  0.
         14    1    1    2    0    0 -0.88911831204E-02 -0.10683471834E-01 -0.17382650730E-01  0.22256375584E-01  0.00000000000E+00 0.  1.
     999901    1    3    3    0    0  0.12833066802E+00 -0.40538945206E-01  0.17941243019E-01  0.89041229475E+00  0.88000000000E+00 0. -1.
        -11    1    4    4    0    0 -0.68521673017E-01  0.27062200043E-01  0.85512649460E-02  0.74168508124E-01  0.51100000000E-03 0.  1.
         11    1    4    4    0    0 -0.50917811884E-01  0.24160216997E-01 -0.91098572345E-02  0.57092821547E-01  0.51100000000E-03 0. -1.
</event>
<event>
 8    1  0.1292188E+005  0.1043930E+01  0.7957747E-01            NaN
         13   -1    0    0    0    0  0.00000000000E+00  0.00000000000E+00  0.74505805969E-08  0.10566000000E+00  0.10566000000E+00 0. -1.
     999900   -1    0    0    0    0 -0.00000000000E+00 -0.00000000000E+00 -0.74505805969E-08  0.93827000000E+00  0.93827000000E+00 0. -1.
     999902    2    1    2    0    0 -0.44594292903E-02  0.11397324879E-01 -0.20399288197E-01  0.10201410008E+01  0.10198635914E+01 0.  0.
     999903    2    3    3    0    0 -0.25465873504E-01  0.55877571863E-01  0.11237826865E+00  0.12882195429E+00  0.13978801543E-01 0.  0.
         14    1    1    2    0    0  0.44594292903E-02 -0.11397324879E-01  0.20399288197E-01  0.23788999200E-01  0.00000000000E+00 0. -1.
     999901    1    3    3    0    0  0.21006444214E-01 -0.44480246984E-01 -0.13277755684E+00  0.89131904651E+00  0.88000000000E+00 0. -1.
        -11    1    4    4    0    0 -0.24344265738E-01  0.41475858600E-01  0.79659475862E-01  0.93052583718E-01  0.51100000000E-03 0. -1.
         11    1    4    4    0    0 -0.11216077659E-02  0.14401713263E-01  0.32718792784E-01  0.35769370572E-01  0.51100000000E-03 0.  1.
</event>
<event>
 8    1  0.1118868E+005  0.1043930E+01  0.7957747E-01            NaN
         13   -1    0    0    0    0  0.00000000000E+00  0.00000000000E+00  0.74505805969E-08  0.10566000000E+00  0.10566000000E+00 0. -1.
     999900   -1    0    0    0    0 -0.00000000000E+00 -0.00000000000E+00 -0.74505805969E-08  0.93827000000E+00  0.93827000000E+00 0. -1.
     999902    2    1    2    0    0 -0.15292564792E-01  0.82272468996E-02 -0.15270259741E-01  0.10208057495E+01  0.10205437998E+01 0.  0.
     999903    2    3    3    0    0  0.10776241664E+00 -0.42831173759E-01 -0.55450226974E-01  0.12987145306E+00  0.18563910214E-01 0.  0.
         14    1    1    2    0    0  0.15292564792E-01 -0.82272468996E-02  0.15270259741E-01  0.23124250518E-01  0.00000000000E+00 0. -1.
     999901    1    3    3    0    0 -0.12305498143E+00  0.51058420659E-01  0.40179967233E-01  0.89093429642E+00  0.88000000000E+00 0.  1.
        -11    1    4    4    0    0  0.62734476242E-01 -0.31469804649E-01 -0.25837183808E-01  0.74791605827E-01  0.51100000000E-03 0. -1.
         11    1    4    4    0    0  0.45027940398E-01 -0.11361369110E-01 -0.29613043167E-01  0.55079847232E-01  0.51100000000E-03 0.  1.
</event>
<event>
 8    1  0.1118868E+005  0.1043930E+01  0.7957747E-01            NaN
         13   -1    0    0    0    0  0.00000000000E+00  0.00000000000E+00  0.74505805969E-08  0.10566000000E+00  0.10566000000E+00 0. -1.
     999900   -1    0    0    0    0 -0.00000000000E+00 -0.00000000000E+00 -0.74505805969E-08  0.93827000000E+00  0.93827000000E+00 0. -1.
     999902    2    1    2    0    0  0.59290181139E-02 -0.15072252658E-02 -0.23737681062E-01  0.10194166876E+01  0.10191219164E+01 0.  0.
     999903    2    3    3    0    0  0.13022437266E-01  0.15904214631E-01 -0.12971898807E+00  0.13285844794E+00  0.20045533378E-01 0.  0.
         14    1    1    2    0    0 -0.59290181139E-02  0.15072252658E-02  0.23737681062E-01  0.24513312424E-01  0.00000000000E+00 0. -1.
     999901    1    3    3    0    0 -0.70934191518E-02 -0.17411439896E-01  0.10598130700E+00  0.88655823964E+00  0.88000000000E+00 0.  1.
        -11    1    4    4    0    0  0.23669310924E-02 -0.32971426250E-02 -0.63806282831E-02  0.75793832581E-02  0.51100000000E-03 0. -1.
         11    1    4    4    0    0  0.10655506173E-01  0.19201357256E-01 -0.12333835978E+00  0.12527906468E+00  0.51100000000E-03 0.  1.
</event>
<event>
 8    1  0.1118868E+005  0.1043930E+01  0.7957747E-01            NaN
         13   -1    0    0    0    0  0.00000000000E+00  0.00000000000E+00  0.74505805969E-08  0.10566000000E+00  0.10566000000E+00 0. -1.
     999900   -1    0    0    0    0 -0.00000000000E+00 -0.00000000000E+00 -0.74505805969E-08  0.93827000000E+00  0.93827000000E+00 0.  1.
     999902    2    1    2    0    0  0.22118581219E-01  0.10037889863E-01  0.24462885363E-03  0.10196390405E+01  0.10193496565E+01 0.  0.
     999903    2    3    3    0    0  0.40954112412E-01 -0.82620706290E-01  0.89559834190E-01  0.13007870050E+00  0.19901859008E-01 0.  0.
         14    1    1    2    0    0 -0.22118581219E-01 -0.10037889863E-01 -0.24462885363E-03  0.24290959457E-01  0.00000000000E+00 0. -1.
     999901    1    3    3    0    0 -0.18835531193E-01  0.92658596153E-01 -0.89315205336E-01  0.88956034004E+00  0.88000000000E+00 0.  1.
        -11    1    4    4    0    0  0.23815665239E-01 -0.45964725813E-01  0.36481679712E-01  0.63333371973E-01  0.51100000000E-03 0. -1.
         11    1    4    4    0    0  0.17138447173E-01 -0.36655980477E-01  0.53078154478E-01  0.66745328526E-01  0.51100000000E-03 0.  1.
</event>
<event>
 8    1  0.1118868E+005  0.1043930E+01  0.7957747E-01            NaN
         13   -1    0    0    0    0  0.00000000000E+00  0.00000000000E+00  0.74505805969E-08  0.10566000000E+00  0.10566000000E+00 0.  1.
     999900   -1    0    0    0    0 -0.00000000000E+00 -0.00000000000E+00 -0.74505805969E-08  0.93827000000E+00  0.93827000000E+00 0. -1.
     999902    2    1    2    0    0  0.74396180652E-02  0.20468083881E-01 -0.68769815861E-02  0.10210918028E+01  0.10208363662E+01 0.  0.
     999903    2    3    3    0    0 -0.22257226403E-01  0.31864681724E-01  0.12345819620E+00  0.13092381666E+00  0.19707295420E-01 0.  0.
         14    1    1    2    0    0 -0.74396180652E-02 -0.20468083881E-01  0.68769815861E-02  0.22838197181E-01  0.00000000000E+00 0. -1.
     999901    1    3    3    0    0  0.29696844468E-01 -0.11396597842E-01 -0.13033517778E+00  0.89016798616E+00  0.88000000000E+00 0. -1.
        -11    1    4    4    0    0 -0.23320642431E-01  0.29732230650E-01  0.93236194113E-01  0.10060371224E+00  0.51100000000E-03 0.  1.
         11    1    4    4    0    0  0.10634160277E-02  0.21324510735E-02  0.30222002082E-01  0.30320104421E-01  0.51100000000E-03 0. -1.
</event>
<event>
 8    1  0.1118868E+005  0.1043930E+01  0.7957747E-01            NaN
         13   -1    0    0    0    0  0.00000000000E+00  0.00000000000E+00  0.74505805969E-08  0.10566000000E+00  0.10566000000E+00 0. -1.
     999900   -1    0    0    0    0 -0.00000000000E+00 -0.00000000000E+00 -0.74505805969E-08  0.93827000000E+00  0.93827000000E+00 0. -1.
     999902    2    1    2    0    0 -0.14324814795E-01 -0.18503347566E-01  0.40920040951E-02  0.10201746072E+01  0.10198979902E+01 0.  0.
     999903    2    3    3    0    0  0.33352480167E-03 -0.12944669847E+00  0.22840365784E-01  0.13288953739E+00  0.19529153946E-01 0.  0.
         14    1    1    2    0    0  0.14324814795E-01  0.18503347566E-01 -0.40920040951E-02  0.23755392810E-01  0.00000000000E+00 0.  1.
     999901    1    3    3    0    0 -0.14658339597E-01  0.11094335090E+00 -0.18748361689E-01  0.88728506980E+00  0.88000000000E+00 0. -1.
        -11    1    4    4    0    0  0.79376713251E-02 -0.36304905927E-01  0.25104564618E-02  0.37250722584E-01  0.51100000000E-03 0. -1.
         11    1    4    4    0    0 -0.76041465234E-02 -0.93141792544E-01  0.20329909322E-01  0.95638814802E-01  0.51100000000E-03 0.  1.
</event>
<event>
 8    1  0.1118868E+005  0.1043930E+01  0.7957747E-01            NaN
         13   -1    0    0    0    0  0.00000000000E+00  0.00000000000E+00  0.74505805969E-08  0.10566000000E+00  0.10566000000E+00 0.  1.
     999900   -1    0    0    0    0 -0.00000000000E+00 -0.00000000000E+00 -0.74505805969E-08  0.93827000000E+00  0.93827000000E+00 0. -1.
     999902    2    1    2    0    0  0.16957552489E-02  0.90277986042E-02  0.21253084377E-01  0.10207768074E+01  0.10205141940E+01 0.  0.
     999903    2    3    3    0    0  0.53601498691E-01  0.11598634153E+00 -0.23621643460E-01  0.13164910152E+00  0.21155420296E-01 0.  0.
         14    1    1    2    0    0 -0.16957552489E-02 -0.90277986042E-02 -0.21253084377E-01  0.23153192631E-01  0.00000000000E+00 0. -1.
     999901    1    3    3    0    0 -0.51905743442E-01 -0.10695854293E+00  0.44874727837E-01  0.88912770585E+00  0.88000000000E+00 0. -1.
        -11    1    4    4    0    0  0.15002454430E-01  0.52579061467E-01 -0.16287063751E-01  0.57054017478E-01  0.51100000000E-03 0. -1.
         11    1    4    4    0    0  0.38599044261E-01  0.63407280063E-01 -0.73345797091E-02  0.74595084043E-01  0.51100000000E-03 0.  1.
</event>
<event>
 8    1  0.1118868E+005  0.1043930E+01  0.7957747E-01            NaN
         13   -1    0    0    0    0  0.00000000000E+00  0.00000000000E+00  0.74505805969E-08  0.10566000000E+00  0.10566000000E+00 0. -1.
     999900   -1    0    0    0    0 -0.00000000000E+00 -0.00000000000E+00 -0.74505805969E-08  0.93827000000E+00  0.93827000000E+00 0. -1.
     999902    2    1    2    0    0  0.13901954151E-01  0.14248482770E-01 -0.12823742585E-01  0.10202502203E+01  0.10199753821E+01 0.  0.
     999903    2    3    3    0    0 -0.58275550840E-01 -0.35061641831E-01 -0.10975947077E+00  0.13062242401E+00  0.19741268390E-01 0.  0.
         14    1    1    2    0    0 -0.13901954151E-01 -0.14248482770E-01  0.12823742585E-01  0.23679779651E-01  0.00000000000E+00 0. -1.
     999901    1    3    3    0    0  0.72177504990E-01  0.49310124601E-01  0.96935728185E-01  0.88962779634E+00  0.88000000000E+00 0.  1.
        -11    1    4    4    0    0 -0.18853148236E-01 -0.55714278348E-02 -0.46299035092E-01  0.50302522581E-01  0.51100000000E-03 0.  1.
         11    1    4    4    0    0 -0.39422402603E-01 -0.29490213996E-01 -0.63460435678E-01  0.80319901432E-01  0.51100000000E-03 0. -1.
</event>
<event>
 8    1  0.1118868E+005  0.1043930E+01  0.7957747E-01            NaN
         13   -1    0    0    0    0  0.00000000000E+00  0.00000000000E+00  0.74505805969E-08  0.10566000000E+00  0.10566000000E+00 0. -1.
     999900   -1    0    0    0    0 -0.00000000000E+00 -0.00000000000E+00 -0.74505805969E-08  0.93827000000E+00  0.93827000000E+00 0. -1.
     999902    2    1    2    0    0  0.19516666760E-01  0.11538936997E-01 -0.48685233214E-02  0.10207405656E+01  0.10204771200E+01 0.  0.
     999903    2    3    3    0    0 -0.43333694079E-02  0.25417090947E-01 -0.12763088607E+00  0.13179060914E+00  0.20354728596E-01 0.  0.
         14    1    1    2    0    0 -0.19516666760E-01 -0.11538936997E-01  0.48685233214E-02  0.23189434399E-01  0.00000000000E+00 0. -1.
     999901    1    3    3    0    0  0.23850036168E-01 -0.13878153950E-01  0.12276236275E+00  0.88894995646E+00  0.88000000000E+00 0.  1.
        -11    1    4    4    0    0 -0.64653021970E-02  0.22917577031E-01 -0.67697742803E-01  0.71765318721E-01  0.51100000000E-03 0.  1.
         11    1    4    4    0    0  0.21319327891E-02  0.24995139164E-02 -0.59933143266E-01  0.60025290420E-01  0.51100000000E-03 0. -1.
</event>
<event>
 8    1  0.1118868E+005  0.1043930E+01  0.7957747E-01            NaN
         13   -1    0    0    0    0  0.00000000000E+00  0.00000000000E+00  0.74505805969E-08  0.10566000000E+00  0.10566000000E+00 0.  1.
     999900   -1    0    0    0    0 -0.00000000000E+00 -0.00000000000E+00 -0.74505805969E-08  0.93827000000E+00  0.93827000000E+00 0.  1.
     999902    2    1    2    0    0 -0.50820951666E-02 -0.23783779146E-01 -0.25306501811E-02  0.10194780056E+01  0.10191847251E+01 0.  0.
     999903    2    3    3    0    0  0.97443413123E-01 -0.69350819243E-01  0.49208497472E-01  0.13084716298E+00  0.19868289919E-01 0.  0.
         14    1    1    2    0    0  0.50820951666E-02  0.23783779146E-01  0.25306501811E-02  0.24451994440E-01  0.00000000000E+00 0. -1.
     999901    1    3    3    0    0 -0.10252550829E+00  0.45567040097E-01 -0.51739147654E-01  0.88863084258E+00  0.88000000000E+00 0. -1.
        -11    1    4    4    0    0  0.65606653936E-01 -0.56980635742E-01  0.32046212315E-01  0.92618824949E-01  0.51100000000E-03 0.  1.
         11    1    4    4    0    0  0.31836759187E-01 -0.12370183501E-01  0.17162285157E-01  0.38228338026E-01  0.51100000000E-03 0. -1.
</event>
<event>
 8    1  0.1118868E+005  0.1043930E+01  0.7957747E-01            NaN
         13   -1    0    0    0    0  0.00000000000E+00  0.00000000000E+00  0.74505805969E-08  0.10566000000E+00  0.10566000000E+00 0.  1.
     999900   -1    0    0    0    0 -0.00000000000E+00 -0.00000000000E+00 -0.74505805969E-08  0.93827000000E+00  0.93827000000E+00 0. -1.
     999902    2    1    2    0    0  0.13230417290E-01 -0.17704166025E-02 -0.19757541628E-01  0.10200859490E+01  0.10198072389E+01 0.  0.
     999903    2    3    3    0    0  0.58335395872E-01  0.34390446770E-01  0.10818589045E+00  0.12895655944E+00  0.18435999825E-01 0.  0.
         14    1    1    2    0    0 -0.13230417290E-01  0.17704166025E-02  0.19757541628E-01  0.23844050994E-01  0.00000000000E+00 0.  1.
     999901    1    3    3    0    0 -0.45104978582E-01 -0.36160863372E-01 -0.12794343208E+00  0.89112938956E+00  0.88000000000E+00 0. -1.
        -11    1    4    4    0    0  0.44875228710E-01  0.31311181872E-01  0.73607467563E-01  0.91719663454E-01  0.51100000000E-03 0.  1.
         11    1    4    4    0    0  0.13460167162E-01  0.30792648976E-02  0.34578422889E-01  0.37236895988E-01  0.51100000000E-03 0. -1.
</event>
<event>
 8    1  0.1118868E+005  0.1043930E+01  0.7957747E-01            NaN
         13   -1    0    0    0    0  0.00000000000E+00  0.00000000000E+00  0.74505805969E-08  0.10566000000E+00  0.10566000000E+00 0. -1.
     999900   -1    0    0    0    0 -0.00000000000E+00 -0.00000000000E+00 -0.74505805969E-08  0.93827000000E+00  0.93827000000E+00 0.  1.
     999902    2    1    2    0    0 -0.39701275087E-02 -0.18528739876E-01 -0.13161323021E-01  0.10208584474E+01  0.10205977039E+01 0.  0.
     999903    2    3    3    0    0  0.10916618778E+00  0.45928322185E-01  0.47576132723E-01  0.12920628588E+00  0.20102451899E-01 0.  0.
         14    1    1    2    0    0  0.39701275087E-02  0.18528739876E-01  0.13161323021E-01  0.23071552559E-01  0.00000000000E+00 0. -1.
     999901    1    3    3    0    0 -0.11313631529E+00 -0.64457062060E-01 -0.60737455744E-01  0.89165216156E+00  0.88000000000E+00 0.  1.
        -11    1    4    4    0    0  0.59651430668E-01  0.14843019135E-01  0.28010487361E-01  0.67553363506E-01  0.51100000000E-03 0. -1.
         11    1    4    4    0    0  0.49514757114E-01  0.31085303050E-01  0.19565645362E-01  0.61652922374E-01  0.51100000000E-03 0.  1.
</event>
<event>
 8    1  0.1118868E+005  0.1043930E+01  0.7957747E-01            NaN
         13   -1    0    0    0    0  0.00000000000E+00  0.00000000000E+00  0.74505805969E-08  0.10566000000E+00  0.10566000000E+00 0.  1.
     999900   -1    0    0    0    0 -0.00000000000E+00 -0.00000000000E+00 -0.74505805969E-08  0.93827000000E+00  0.93827000000E+00 0. -1.
     999902    2    1    2    0    0  0.11569880741E-02  0.81691121796E-02 -0.20794059067E-01  0.10215589046E+01  0.10213139232E+01 0.  0.
     999903    2    3    3    0    0  0.24468797885E-01 -0.12170683081E+00  0.33077091393E-01  0.13009196644E+00  0.20458519579E-01 0.  0.
         14    1    1    2    0    0 -0.11569880741E-02 -0.81691121796E-02  0.20794059067E-01  0.22371095362E-01  0.00000000000E+00 0.  1.
     999901    1    3    3    0    0 -0.23311809811E-01  0.12987594299E+00 -0.53871150460E-01  0.89146693820E+00  0.88000000000E+00 0.  1.
        -11    1    4    4    0    0  0.14389739929E-01 -0.54600307081E-01  0.51235150454E-02  0.56698938931E-01  0.51100000000E-03 0.  1.
         11    1    4    4    0    0  0.10079057955E-01 -0.67106523725E-01  0.27953576348E-01  0.73393027512E-01  0.51100000000E-03 0. -1.
</event>
<event>
 8    1  0.1118868E+005  0.1043930E+01  0.7957747E-01            NaN
         13   -1    0    0    0    0  0.00000000000E+00  0.00000000000E+00  0.74505805969E-08  0.10566000000E+00  0.10566000000E+00 0. -1.
     999900   -1    0    0    0    0 -0.00000000000E+00 -0.00000000000E+00 -0.74505805969E-08  0.93827000000E+00  0.93827000000E+00 0. -1.
     999902    2    1    2    0    0 -0.78712413456E-02 -0.19201376478E-01  0.10712606829E-01  0.10205760015E+01  0.10203087600E+01 0.  0.
     999903    2    3    3    0    0 -0.11612563043E+00 -0.58750060782E-01  0.19524989791E-01  0.13301711939E+00  0.19380328676E-01 0.  0.
         14    1    1    2    0    0  0.78712413456E-02  0.19201376478E-01 -0.10712606829E-01  0.23353998460E-01  0.00000000000E+00 0.  1.
     999901    1    3    3    0    0  0.10825438909E+00  0.39548684304E-01 -0.88123829617E-02  0.88755888215E+00  0.88000000000E+00 0.  1.
        -11    1    4    4    0    0 -0.34273066176E-01 -0.92552069697E-02  0.10019888261E-01  0.36891207664E-01  0.51100000000E-03 0. -1.
         11    1    4    4    0    0 -0.81852564257E-01 -0.49494853813E-01  0.95051015297E-02  0.96125911728E-01  0.51100000000E-03 0.  1.
</event>
<event>
 8    1  0.1118868E+005  0.1043930E+01  0.7957747E-01            NaN
         13   -1    0    0    0    0  0.00000000000E+00  0.00000000000E+00  0.74505805969E-08  0.10566000000E+00  0.10566000000E+00 0. -1.
     999900   -1    0    0    0    0 -0.00000000000E+00 -0.00000000000E+00 -0.74505805969E-08  0.93827000000E+00  0.93827000000E+00 0. -1.
     999902    2    1    2    0    0  0.49504344872E-02 -0.98903053213E-03 -0.22839027989E-01  0.10205396990E+01  0.10202716163E+01 0.  0.
     999903    2    3    3    0    0 -0.41112948955E-01  0.49260321978E-01  0.10914219232E+00  0.12809033052E+00  0.19448926314E-01 0.  0.
         14    1    1    2    0    0 -0.49504344872E-02  0.98903053213E-03  0.22839027989E-01  0.23390301035E-01  0.00000000000E+00 0. -1.
     999901    1    3    3    0    0  0.46063383442E-01 -0.50249352510E-01 -0.13198122031E+00  0.89244936844E+00  0.88000000000E+00 0.  1.
        -11    1    4    4    0    0 -0.23733193775E-01  0.23256276501E-01  0.73525968934E-01  0.80687347906E-01  0.51100000000E-03 0. -1.
         11    1    4    4    0    0 -0.17379755180E-01  0.26004045477E-01  0.35616223389E-01  0.47402982615E-01  0.51100000000E-03 0.  1.
</event>
<event>
 8    1  0.1118868E+005  0.1043930E+01  0.7957747E-01            NaN
         13   -1    0    0    0    0  0.00000000000E+00  0.00000000000E+00  0.74505805969E-08  0.10566000000E+00  0.10566000000E+00 0.  1.
     999900   -1    0    0    0    0 -0.00000000000E+00 -0.00000000000E+00 -0.74505805969E-08  0.93827000000E+00  0.93827000000E+00 0. -1.
     999902    2    1    2    0    0 -0.73134709128E-02  0.12293405244E-01  0.19054971307E-01  0.10201034056E+01  0.10198251083E+01 0.  0.
     999903    2    3    3    0    0  0.98452291920E-01  0.72564704816E-01  0.44286256965E-01  0.13136517422E+00  0.18358820009E-01 0.  0.
         14    1    1    2    0    0  0.73134709128E-02 -0.12293405244E-01 -0.19054971307E-01  0.23826594402E-01  0.00000000000E+00 0. -1.
     999901    1    3    3    0    0 -0.10576576283E+00 -0.60271299571E-01 -0.25231285658E-01  0.88873823138E+00  0.88000000000E+00 0.  1.
        -11    1    4    4    0    0  0.33603815216E-01  0.34769515103E-01  0.13233572986E-01  0.50135059116E-01  0.51100000000E-03 0.  1.
         11    1    4    4    0    0  0.64848476704E-01  0.37795189713E-01  0.31052683979E-01  0.81230115103E-01  0.51100000000E-03 0. -1.
</event>
<event>
 8    1  0.1118868E+005  0.1043930E+01  0.7957747E-01            NaN
         13   -1    0    0    0    0  0.00000000000E+00  0.00000000000E+00  0.74505805969E-08  0.10566000000E+00  0.10566000000E+00 0. -1.
     999900   -1    0    0    0    0 -0.00000000000E+00 -0.00000000000E+00 -0.74505805969E-08  0.93827000000E+00  0.93827000000E+00 0.  1.
     999902    2    1    2    0    0 -0.18427902985E-01 -0.15902004479E-01  0.17615165097E-02  0.10195258140E+01  0.10192336931E+01 0.  0.
     999903    2    3    3    0    0  0.80998297985E-01  0.93826132798E-01  0.19538089731E-01  0.12697786563E+00  0.19431261858E-01 0.  0.
         14    1    1    2    0    0  0.18427902985E-01  0.15902004479E-01 -0.17615165097E-02  0.24404186020E-01  0.00000000000E+00 0. -1.
     999901    1    3    3    0    0 -0.99426200970E-01 -0.10972813728E+00 -0.17776573221E-01  0.89254794835E+00  0.88000000000E+00 0. -1.
        -11    1    4    4    0    0  0.68937465624E-01  0.85759496702E-01  0.12192839601E-01  0.11070678344E+00  0.51100000000E-03 0. -1.
         11    1    4    4    0    0  0.12060832361E-01  0.80666360953E-02  0.73452501298E-02  0.16271082189E-01  0.51100000000E-03 0.  1.
</event>
<event>
 8    1  0.1118868E+005  0.1043930E+01  0.7957747E-01            NaN
         13   -1    0    0    0    0  0.00000000000E+00  0.00000000000E+00  0.74505805969E-08  0.10566000000E+00  0.10566000000E+00 0. -1.
     999900   -1    0    0    0    0 -0.00000000000E+00 -0.00000000000E+00 -0.74505805969E-08  0.93827000000E+00  0.93827000000E+00 0. -1.
     999902    2    1    2    0    0 -0.27454164994E-02  0.18214730314E-01  0.15806046865E-01  0.10196576942E+01  0.10193687598E+01 0.  0.
     999903    2    3    3    0    0 -0.17738735007E-01 -0.38883345337E-01 -0.11823254380E+00  0.12755269272E+00  0.21544784622E-01 0.  0.
         14    1    1    2    0    0  0.27454164994E-02 -0.18214730314E-01 -0.15806046865E-01  0.24272305817E-01  0.00000000000E+00 0.  1.
     999901    1    3    3    0    0  0.14993318508E-01  0.57098075650E-01  0.13403859066E+00  0.89210500146E+00  0.88000000000E+00 0.  1.
        -11    1    4    4    0    0 -0.26986815647E-02 -0.15708618424E-01 -0.71546623166E-01  0.73302278153E-01  0.51100000000E-03 0. -1.
         11    1    4    4    0    0 -0.15040053443E-01 -0.23174726912E-01 -0.46685920630E-01  0.54250414570E-01  0.51100000000E-03 0.  1.
</event>
<event>
 8    1  0.1118868E+005  0.1043930E+01  0.7957747E-01            NaN
         13   -1    0    0    0    0  0.00000000000E+00  0.00000000000E+00  0.74505805969E-08  0.10566000000E+00  0.10566000000E+00 0.  1.
     999900   -1    0    0    0    0 -0.00000000000E+00 -0.00000000000E+00 -0.74505805969E-08  0.93827000000E+00  0.93827000000E+00 0. -1.
     999902    2    1    2    0    0 -0.17203876354E-01  0.78094792839E-02  0.60519343701E-02  0.10240909668E+01  0.10238987846E+01 0.  0.
     999903    2    3    3    0    0 -0.13014753757E+00  0.45524422397E-02  0.34362537825E-01  0.13641514244E+00  0.21661043713E-01 0.  0.
         14    1    1    2    0    0  0.17203876354E-01 -0.78094792839E-02 -0.60519343701E-02  0.19839033190E-01  0.00000000000E+00 0. -1.
     999901    1    3    3    0    0  0.11294366122E+00  0.32570370442E-02 -0.28310603455E-01  0.88767582437E+00  0.88000000000E+00 0. -1.
        -11    1    4    4    0    0 -0.29570389506E-01  0.18159879236E-02  0.17452656101E-01  0.34388400278E-01  0.51100000000E-03 0. -1.
         11    1    4    4    0    0 -0.10057714807E+00  0.27364543161E-02  0.16909881724E-01  0.10202674216E+00  0.51100000000E-03 0.  1.
</event>
<event>
 8    1  0.1118868E+005  0.1043930E+01  0.7957747E-01            NaN
         13   -1    0    0    0    0  0.00000000000E+00  0.00000000000E+00  0.74505805969E-08  0.10566000000E+00  0.10566000000E+00 0. -1.
     999900   -1    0    0    0    0 -0.00000000000E+00 -0.00000000000E+00 -0.74505805969E-08  0.93827000000E+00  0.93827000000E+00 0. -1.
     999902    2    1    2    0    0  0.95541774526E-02  0.17121856627E-01  0.13812962865E-01  0.10199458756E+01  0.10196638421E+01 0.  0.
     999903    2    3    3    0    0  0.30196726009E-01  0.27501456013E-01  0.12463967904E+00  0.13269370629E+00  0.20109643287E-01 0.  0.
         14    1    1    2    0    0 -0.95541774526E-02 -0.17121856627E-01 -0.13812962865E-01  0.23984124422E-01  0.00000000000E+00 0.  1.
     999901    1    3    3    0    0 -0.20642548557E-01 -0.10379599386E-01 -0.11082671617E+00  0.88725216929E+00  0.88000000000E+00 0. -1.
        -11    1    4    4    0    0  0.24683671945E-01  0.91084898797E-02  0.72612707322E-01  0.77234154584E-01  0.51100000000E-03 0.  1.
         11    1    4    4    0    0  0.55130540644E-02  0.18392966134E-01  0.52026971715E-01  0.55459551703E-01  0.51100000000E-03 0. -1.
</event>
<event>
 8    1  0.1118868E+005  0.1043930E+01  0.7957747E-01            NaN
         13   -1    0    0    0    0  0.00000000000E+00  0.00000000000E+00  0.74505805969E-08  0.10566000000E+00  0.10566000000E+00 0.  1.
     999900   -1    0    0    0    0 -0.00000000000E+00 -0.00000000000E+00 -0.74505805969E-08  0.93827000000E+00  0.93827000000E+00 0.  1.
     999902    2    1    2    0    0 -0.29191929228E-02 -0.14593445633E-01 -0.17704384478E-01  0.10208013258E+01  0.10205392746E+01 0.  0.
     999903    2    3    3    0    0  0.79766715357E-01 -0.23365238433E-01  0.97132179078E-01  0.12945327919E+00  0.20367327628E-01 0.  0.
         14    1    1    2    0    0  0.29191929228E-02  0.14593445633E-01  0.17704384478E-01  0.23128674249E-01  0.00000000000E+00 0.  1.
     999901    1    3    3    0    0 -0.82685908280E-01  0.87717927995E-02 -0.11483656356E+00  0.89134804656E+00  0.88000000000E+00 0.  1.
        -11    1    4    4    0    0  0.32089496231E-01 -0.13805891563E-01  0.27206965754E-01  0.44281130482E-01  0.51100000000E-03 0.  1.
         11    1    4    4    0    0  0.47677219126E-01 -0.95593468701E-02  0.69925213324E-01  0.85172148708E-01  0.51100000000E-03 0. -1.
</event>
<event>
 8    1  0.1118868E+005  0.1043930E+01  0.7957747E-01            NaN
         13   -1    0    0    0    0  0.00000000000E+00  0.00000000000E+00  0.74505805969E-08  0.10566000000E+00  0.10566000000E+00 0.  1.
     999900   -1    0    0    0    0 -0.00000000000E+00 -0.00000000000E+00 -0.74505805969E-08  0.93827000000E+00  0.93827000000E+00 0. -1.
     999902    2    1    2    0    0 -0.84633106184E-02 -0.21669754832E-01  0.75234549299E-02  0.10194798819E+01  0.10191866469E+01 0.  0.
     999903    2    3    3    0    0  0.11036933712E+00  0.28939982148E-01 -0.54282543018E-01  0.12790681982E+00  0.19865722650E-01 0.  0.
         14    1    1    2    0    0  0.84633106184E-02  0.21669754832E-01 -0.75234549299E-02  0.24450118101E-01  0.00000000000E+00 0.  1.
     999901    1    3    3    0    0 -0.11883264774E+00 -0.50609736979E-01  0.61805997948E-01  0.89157306208E+00  0.88000000000E+00 0.  1.
        -11    1    4    4    0    0  0.74760944668E-01  0.10733781415E-01 -0.39763859069E-01  0.85357123430E-01  0.51100000000E-03 0. -1.
         11    1    4    4    0    0  0.35608392452E-01  0.18206200732E-01 -0.14518683950E-01  0.42549696388E-01  0.51100000000E-03 0.  1.
</event>
<event>
 8    1  0.1118868E+005  0.1043930E+01  0.7957747E-01            NaN
         13   -1    0    0    0    0  0.00000000000E+00  0.00000000000E+00  0.74505805969E-08  0.10566000000E+00  0.10566000000E+00 0.  1.
     999900   -1    0    0    0    0 -0.00000000000E+00 -0.00000000000E+00 -0.74505805969E-08  0.93827000000E+00  0.93827000000E+00 0. -1.
     999902    2    1    2    0    0 -0.20559263359E-01 -0.19302262937E-01  0.29451128737E-02  0.10155762638E+01  0.10151803846E+01 0.  0.
     999903    2    3    3    0    0  0.25552050376E-01 -0.12087988660E+00 -0.27077960163E-01  0.12802589806E+00  0.19813136688E-01 0.  0.
         14    1    1    2    0    0  0.20559263359E-01  0.19302262937E-01 -0.29451128737E-02  0.28353736159E-01  0.00000000000E+00 0.  1.
     999901    1    3    3    0    0 -0.46111313735E-01  0.10157762366E+00  0.30023073037E-01  0.88755036578E+00  0.88000000000E+00 0. -1.
        -11    1    4    4    0    0  0.18895024566E-01 -0.65361579230E-01 -0.61407473784E-02  0.68316380848E-01  0.51100000000E-03 0. -1.
         11    1    4    4    0    0  0.66570258098E-02 -0.55518307367E-01 -0.20937212785E-01  0.59709517212E-01  0.51100000000E-03 0.  1.
</event>
<event>
 8    1  0.1118868E+005  0.1043930E+01  0.7957747E-01            NaN
         13   -1    0    0    0    0  0.00000000000E+00  0.00000000000E+00  0.74505805969E-08  0.10566000000E+00  0.10566000000E+00 0.  1.
     999900   -1    0    0    0    0 -0.00000000000E+00 -0.00000000000E+00 -0.74505805969E-08  0.93827000000E+00  0.93827000000E+00 0. -1.
     999902    2    1    2    0    0  0.44619716709E-02 -0.58502712054E-03  0.23730611573E-01  0.10197764625E+01  0.10194903825E+01 0.  0.
     999903    2    3    3    0    0 -0.84702331164E-01 -0.72985044539E-01 -0.59805154660E-01  0.12838975649E+00  0.20148732374E-01 0.  0.
         14    1    1    2    0    0 -0.44619716709E-02  0.58502712054E-03 -0.23730611573E-01  0.24153537495E-01  0.00000000000E+00 0. -1.
     999901    1    3    3    0    0  0.89164302835E-01  0.72400017419E-01  0.83535766233E-01  0.89138670602E+00  0.88000000000E+00 0.  1.
        -11    1    4    4    0    0 -0.22467094108E-01 -0.16204622540E-01 -0.57614718036E-02  0.28298688797E-01  0.51100000000E-03 0.  1.
         11    1    4    4    0    0 -0.62235237056E-01 -0.56780421999E-01 -0.54043682857E-01  0.10009106769E+00  0.51100000000E-03 0. -1.
</event>
<event>
 7    1  0.1118868E+005  0.1043930E+01  0.7957747E-01            NaN
         13   -1    0    0    0    0  0.00000000000E+00  0.00000000000E+00  0.74505805969E-08  0.10566000000E+00  0.10566000000E+00 0.  1.
     999900   -1    0    0    0    0 -0.00000000000E+00 -0.00000000000E+00 -0.74505805969E-08  0.93827000000E+00  0.93827000000E+00 0.  1.
     999902    2    1    2    0    0  0.21279728179E-01 -0.10344701369E-01  0.47908056218E-02  0.10197889251E+01  0.10195031438E+01 0.  0.
         14    1    1    2    0    0 -0.21279728179E-01  0.10344701369E-01 -0.47908056218E-02  0.24141074879E-01  0.00000000000E+00 0. -1.
     999901    1    3    3    0    0  0.13491548982E+00 -0.35407423499E-01 -0.28144655504E-01  0.89143030948E+00  0.88000000000E+00 0.  1.
        -11    1    3    3    0    0 -0.81155870069E-01  0.31278113335E-01  0.37972624500E-01  0.94904040762E-01  0.51100000000E-03 0. -1.
         11    1    3    3    0    0 -0.32479891571E-01 -0.62153912051E-02 -0.50371633741E-02  0.33454574876E-01  0.51100000000E-03 0.  1.
</event>
<event>
 8    1  0.1118868E+005  0.1043930E+01  0.7957747E-01            NaN
         13   -1    0    0    0    0  0.00000000000E+00  0.00000000000E+00  0.74505805969E-08  0.10566000000E+00  0.10566000000E+00 0.  1.
     999900   -1    0    0    0    0 -0.00000000000E+00 -0.00000000000E+00 -0.74505805969E-08  0.93827000000E+00  0.93827000000E+00 0.  1.
     999902    2    1    2    0    0 -0.80593832006E-02 -0.14739937364E-01  0.17674940207E-01  0.10195451087E+01  0.10192534551E+01 0.  0.
     999903    2    3    3    0    0 -0.10684205634E+00 -0.73552617604E-01 -0.10436784306E-01  0.13162212956E+00  0.19754644163E-01 0.  0.
         14    1    1    2    0    0  0.80593832006E-02  0.14739937364E-01 -0.17674940207E-01  0.24384891273E-01  0.00000000000E+00 0. -1.
     999901    1    3    3    0    0  0.98782673135E-01  0.58812680240E-01  0.28111724514E-01  0.88792297916E+00  0.88000000000E+00 0. -1.
        -11    1    4    4    0    0 -0.46179305695E-01 -0.39101358961E-01 -0.12659133309E-01  0.61821997090E-01  0.51100000000E-03 0.  1.
         11    1    4    4    0    0 -0.60662750641E-01 -0.34451258643E-01  0.22223490023E-02  0.69800132475E-01  0.51100000000E-03 0. -1.
</event>
<event>
 8    1  0.1118868E+005  0.1043930E+01  0.7957747E-01            NaN
         13   -1    0    0    0    0  0.00000000000E+00  0.00000000000E+00  0.74505805969E-08  0.10566000000E+00  0.10566000000E+00 0. -1.
     999900   -1    0    0    0    0 -0.00000000000E+00 -0.00000000000E+00 -0.74505805969E-08  0.93827000000E+00  0.93827000000E+00 0.  1.
     999902    2    1    2    0    0 -0.52592063266E-02  0.15854717599E-01  0.16179923653E-01  0.10206744361E+01  0.10204094685E+01 0.  0.
     999903    2    3    3    0    0 -0.62248449470E-01 -0.87304384154E-01  0.71823808385E-01  0.13107575357E+00  0.22918742755E-01 0.  0.
         14    1    1    2    0    0  0.52592063266E-02 -0.15854717599E-01 -0.16179923653E-01  0.23255563866E-01  0.00000000000E+00 0.  1.
     999901    1    3    3    0    0  0.56989243143E-01  0.10315910175E+00 -0.55643884732E-01  0.88959868256E+00  0.88000000000E+00 0. -1.
        -11    1    4    4    0    0 -0.29338952055E-01 -0.23079606034E-01  0.27725013997E-01  0.46501396156E-01  0.51100000000E-03 0. -1.
         11    1    4    4    0    0 -0.32909497415E-01 -0.64224778120E-01  0.44098794388E-01  0.84574357415E-01  0.51100000000E-03 0.  1.
</event>
<event>
 8    1  0.1118868E+005  0.1043930E+01  0.7957747E-01            NaN
         13   -1    0    0    0    0  0.00000000000E+00  0.00000000000E+00  0.74505805969E-08  0.10566000000E+00  0.10566000000E+00 0. -1.
     999900   -1    0    0    0    0 -0.00000000000E+00 -0.00000000000E+00 -0.74505805969E-08  0.93827000000E+00  0.93827000000E+00 0. -1.
     999902    2    1    2    0    0  0.32078081590E-02  0.28249695310E-01 -0.19729892602E-01  0.10093235847E+01  0.10087301397E+01 0.  0.
     999903    2    3    3    0    0 -0.11736816944E+00  0.18884082444E-01 -0.10296007144E-01  0.12100197667E+00  0.20089171924E-01 0.  0.
         14    1    1    2    0    0 -0.32078081590E-02 -0.28249695310E-01  0.19729892602E-01  0.34606415306E-01  0.00000000000E+00 0. -1.
     999901    1    3    3    0    0  0.12057597760E+00  0.93656128655E-02 -0.94338854581E-02  0.88832160802E+00  0.88000000000E+00 0. -1.
        -11    1    4    4    0    0 -0.62997187785E-01  0.15503719444E-01  0.29160981427E-02  0.64944404954E-01  0.51100000000E-03 0. -1.
         11    1    4    4    0    0 -0.54370981655E-01  0.33803630004E-02 -0.13212105286E-01  0.56057571721E-01  0.51100000000E-03 0.  1.
</event>
<event>
 8    1  0.1118868E+005  0.1043930E+01  0.7957747E-01            NaN
         13   -1    0    0    0    0  0.00000000000E+00  0.00000000000E+00  0.74505805969E-08  0.10566000000E+00  0.10566000000E+00 0.  1.
     999900   -1    0    0    0    0 -0.00000000000E+00 -0.00000000000E+00 -0.74505805969E-08  0.93827000000E+00  0.93827000000E+00 0.  1.
     999902    2    1    2    0    0  0.14257706252E-01 -0.50335210995E-02 -0.18529906407E-01  0.10200139812E+01  0.10197335662E+01 0.  0.
     999903    2    3    3    0    0  0.10627256472E+00  0.50008206153E-01  0.53921138867E-01  0.13055039014E+00  0.18472586545E-01 0.  0.
         14    1    1    2    0    0 -0.14257706252E-01  0.50335210995E-02  0.18529906407E-01  0.23916018767E-01  0.00000000000E+00 0.  1.
     999901    1    3    3    0    0 -0.92014858471E-01 -0.55041727252E-01 -0.72451045274E-01  0.88946359109E+00  0.88000000000E+00 0.  1.
        -11    1    4    4    0    0  0.68357953897E-01  0.37068421151E-01  0.43703919030E-01  0.89202978466E-01  0.51100000000E-03 0.  1.
         11    1    4    4    0    0  0.37914610826E-01  0.12939785002E-01  0.10217219837E-01  0.41347411674E-01  0.51100000000E-03 0. -1.
</event>
<event>
 8    1  0.1118868E+005  0.1043930E+01  0.7957747E-01            NaN
         13   -1    0    0    0    0  0.00000000000E+00  0.00000000000E+00  0.74505805969E-08  0.10566000000E+00  0.10566000000E+00 0.  1.
     999900   -1    0    0    0    0 -0.00000000000E+00 -0.00000000000E+00 -0.74505805969E-08  0.93827000000E+00  0.93827000000E+00 0. -1.
     999902    2    1    2    0    0  0.13182626381E-01  0.19445170398E-01  0.19488975101E-03  0.10204367186E+01  0.10201662425E+01 0.  0.
     999903    2    3    3    0    0  0.96850757565E-01  0.83553943997E-01 -0.23565566311E-01  0.13382809562E+00  0.31516542689E-01 0.  0.
         14    1    1    2    0    0 -0.13182626381E-01 -0.19445170398E-01 -0.19488975101E-03  0.23493281425E-01  0.00000000000E+00 0. -1.
     999901    1    3    3    0    0 -0.83668131184E-01 -0.64108773599E-01  0.23760456062E-01  0.88660862296E+00  0.88000000000E+00 0. -1.
        -11    1    4    4    0    0  0.23835509541E-01  0.31266563947E-01 -0.19598042700E-01  0.43932606738E-01  0.51100000000E-03 0. -1.
         11    1    4    4    0    0  0.73015248024E-01  0.52287380050E-01 -0.39675236101E-02  0.89895488880E-01  0.51100000000E-03 0.  1.
</event>
<event>
 8    1  0.1118868E+005  0.1043930E+01  0.7957747E-01            NaN
         13   -1    0    0    0    0  0.00000000000E+00  0.00000000000E+00  0.74505805969E-08  0.10566000000E+00  0.10566000000E+00 0.  1.
     999900   -1    0    0    0    0 -0.00000000000E+00 -0.00000000000E+00 -0.74505805969E-08  0.93827000000E+00  0.93827000000E+00 0.  1.
     999902    2    1    2    0    0  0.23144504429E-01  0.28745773699E-02  0.13397623821E-02  0.10205692157E+01  0.10203018170E+01 0.  0.
     999903    2    3    3    0    0  0.91095810489E-01  0.79465759671E-01 -0.51780847549E-01  0.13304153252E+00  0.20138012626E-01 0.  0.
         14    1    1    2    0    0 -0.23144504429E-01 -0.28745773699E-02 -0.13397623821E-02  0.23360784310E-01  0.00000000000E+00 0.  1.
     999901    1    3    3    0    0 -0.67951306060E-01 -0.76591182302E-01  0.53120609931E-01  0.88752768317E+00  0.88000000000E+00 0.  1.
        -11    1    4    4    0    0  0.81239092797E-01  0.61615504386E-01 -0.40327565183E-01  0.10964868542E+00  0.51100000000E-03 0.  1.
         11    1    4    4    0    0  0.98567176920E-02  0.17850255285E-01 -0.11453282366E-01  0.23392847098E-01  0.51100000000E-03 0. -1.
</event>
<event>
 8    1  0.1118868E+005  0.1043930E+01  0.7957747E-01            NaN
         13   -1    0    0    0    0  0.00000000000E+00  0.00000000000E+00  0.74505805969E-08  0.10566000000E+00  0.10566000000E+00 0.  1.
     999900   -1    0    0    0    0 -0.00000000000E+00 -0.00000000000E+00 -0.74505805969E-08  0.93827000000E+00  0.93827000000E+00 0. -1.
     999902    2    1    2    0    0 -0.24430651590E-03  0.19480816588E-01 -0.13100583520E-01  0.10204526239E+01  0.10201825182E+01 0.  0.
     999903    2    3    3    0    0 -0.45176207797E-01 -0.11106923298E+00 -0.43647016055E-01  0.12916407592E+00  0.20025789168E-01 0.  0.
         14    1    1    2    0    0  0.24430651590E-03 -0.19480816588E-01  0.13100583520E-01  0.23477376114E-01  0.00000000000E+00 0. -1.
     999901    1    3    3    0    0  0.44931901281E-01  0.13055004957E+00  0.30546432535E-01  0.89128854797E+00  0.88000000000E+00 0. -1.
        -11    1    4    4    0    0 -0.26930637514E-01 -0.47267160278E-01 -0.27057469392E-01  0.60760278543E-01  0.51100000000E-03 0.  1.
         11    1    4    4    0    0 -0.18245570283E-01 -0.63802072703E-01 -0.16589546663E-01  0.68403797378E-01  0.51100000000E-03 0. -1.
</event>
<event>
 8    1  0.1118868E+005  0.1043930E+01  0.7957747E-01            NaN
         13   -1    0    0    0    0  0.00000000000E+00  0.00000000000E+00  0.74505805969E-08  0.10566000000E+00  0.10566000000E+00 0.  1.
     999900   -1    0    0    0    0 -0.00000000000E+00 -0.00000000000E+00 -0.74505805969E-08  0.93827000000E+00  0.93827000000E+00 0.  1.
     999902    2    1    2    0    0 -0.94768088046E-02 -0.15892366885E-01  0.15636134466E-01  0.10197046841E+01  0.10194168808E+01 0.  0.
     999903    2    3    3    0    0 -0.88939187336E-01 -0.28771278328E-01  0.92184720504E-01  0.13272113182E+00  0.19465627042E-01 0.  0.
         14    1    1    2    0    0  0.94768088046E-02  0.15892366885E-01 -0.15636134466E-01  0.24225315919E-01  0.00000000000E+00 0. -1.
     999901    1    3    3    0    0  0.79462378531E-01  0.12878911443E-01 -0.76548586037E-01  0.88698355226E+00  0.88000000000E+00 0.  1.
        -11    1    4    4    0    0 -0.69250699773E-01 -0.18841242283E-01  0.80179348324E-01  0.10760873965E+00  0.51100000000E-03 0.  1.
         11    1    4    4    0    0 -0.19688487563E-01 -0.99300360448E-02  0.12005372180E-01  0.25112392171E-01  0.51100000000E-03 0. -1.
</event>
<event>
 8    1  0.1118868E+005  0.1043930E+01  0.7957747E-01            NaN
         13   -1    0    0    0    0  0.00000000000E+00  0.00000000000E+00  0.74505805969E-08  0.10566000000E+00  0.10566000000E+00 0.  1.
     999900   -1    0    0    0    0 -0.00000000000E+00 -0.00000000000E+00 -0.74505805969E-08  0.93827000000E+00  0.93827000000E+00 0. -1.
     999902    2    1    2    0    0  0.18461410556E-01 -0.64197160597E-02 -0.13390905682E-01  0.10202371152E+01  0.10199619691E+01 0.  0.
     999903    2    3    3    0    0 -0.52898650072E-01 -0.19511298369E-01  0.11332364444E+00  0.12820559953E+00  0.20383066968E-01 0.  0.
         14    1    1    2    0    0 -0.18461410556E-01  0.64197160597E-02  0.13390905682E-01  0.23692884775E-01  0.00000000000E+00 0.  1.
     999901    1    3    3    0    0  0.71360060627E-01  0.13091582309E-01 -0.12671455012E+00  0.89203151569E+00  0.88000000000E+00 0. -1.
        -11    1    4    4    0    0 -0.47572303783E-01 -0.10758581753E-01  0.10107264606E+00  0.11222661035E+00  0.51100000000E-03 0.  1.
         11    1    4    4    0    0 -0.53263462885E-02 -0.87527166160E-02  0.12250998382E-01  0.15978989182E-01  0.51100000000E-03 0. -1.
</event>
<event>
 8    1  0.1118868E+005  0.1043930E+01  0.7957747E-01            NaN
         13   -1    0    0    0    0  0.00000000000E+00  0.00000000000E+00  0.74505805969E-08  0.10566000000E+00  0.10566000000E+00 0.  1.
     999900   -1    0    0    0    0 -0.00000000000E+00 -0.00000000000E+00 -0.74505805969E-08  0.93827000000E+00  0.93827000000E+00 0. -1.
     999902    2    1    2    0    0  0.17934606772E-01  0.99438014847E-02  0.21487148092E-02  0.10233109243E+01  0.10231031724E+01 0.  0.
     999903    2    3    3    0    0 -0.17997428463E-01  0.81509646151E-01  0.10284166728E+00  0.13395618519E+00  0.20003029126E-01 0.  0.
         14    1    1    2    0    0 -0.17934606772E-01 -0.99438014847E-02 -0.21487148092E-02  0.20619075716E-01  0.00000000000E+00 0.  1.
     999901    1    3    3    0    0  0.35932035235E-01 -0.71565844667E-01 -0.10069295247E+00  0.88935473910E+00  0.88000000000E+00 0. -1.
        -11    1    4    4    0    0 -0.12298560894E-01  0.78130752327E-01  0.93067826440E-01  0.12213742464E+00  0.51100000000E-03 0.  1.
         11    1    4    4    0    0 -0.56988675694E-02  0.33788938243E-02  0.97738408384E-02  0.11818760543E-01  0.51100000000E-03 0. -1.
</event>
<event>
 8    1  0.1118868E+005  0.1043930E+01  0.7957747E-01            NaN
         13   -1    0    0    0    0  0.00000000000E+00  0.00000000000E+00  0.74505805969E-08  0.10566000000E+00  0.10566000000E+00 0.  1.
     999900   -1    0    0    0    0 -0.00000000000E+00 -0.00000000000E+00 -0.74505805969E-08  0.93827000000E+00  0.93827000000E+00 0.  1.
     999902    2    1    2    0    0 -0.23436350162E-01 -0.87285974143E-02 -0.14712566653E-02  0.10188777443E+01  0.10185697042E+01 0.  0.
     999903    2    3    3    0    0  0.60616832248E-01  0.10447520537E+00  0.33388852284E-01  0.12697233131E+00  0.20437430684E-01 0.  0.
         14    1    1    2    0    0  0.23436350162E-01  0.87285974143E-02  0.14712566653E-02  0.25052255745E-01  0.00000000000E+00 0. -1.
     999901    1    3    3    0    0 -0.84053182410E-01 -0.11320380279E+00 -0.34860108949E-01  0.89190541294E+00  0.88000000000E+00 0. -1.
        -11    1    4    4    0    0  0.42942624885E-01  0.68917036261E-01  0.31865791100E-01  0.87231397343E-01  0.51100000000E-03 0.  1.
         11    1    4    4    0    0  0.17674207364E-01  0.35558169111E-01  0.15230611840E-02  0.39740933971E-01  0.51100000000E-03 0. -1.
</event>
<event>
 8    1  0.1118868E+005  0.1043930E+01  0.7957747E-01            NaN
         13   -1    0    0    0    0  0.00000000000E+00  0.00000000000E+00  0.74505805969E-08  0.10566000000E+00  0.10566000000E+00 0. -1.
     999900   -1    0    0    0    0 -0.00000000000E+00 -0.00000000000E+00 -0.74505805969E-08  0.93827000000E+00  0.93827000000E+00 0. -1.
     999902    2    1    2    0    0  0.63412022888E-02  0.19674487795E-01  0.98076619071E-02  0.10210501716E+01  0.10207937923E+01 0.  0.
     999903    2    3    3    0    0  0.12917074002E+00  0.71407248288E-02  0.15485454138E-01  0.13241277203E+00  0.23606627821E-01 0.  0.
         14    1    1    2    0    0 -0.63412022888E-02 -0.19674487795E-01 -0.98076619071E-02  0.22879828420E-01  0.00000000000E+00 0.  1.
     999901    1    3    3    0    0 -0.12282953774E+00  0.12533762966E-01 -0.56777922308E-02  0.88863739955E+00  0.88000000000E+00 0.  1.
        -11    1    4    4    0    0  0.10143311145E+00  0.11928017208E-01  0.19492149956E-01  0.10397672203E+00  0.51100000000E-03 0.  1.
         11    1    4    4    0    0  0.27737628576E-01 -0.47872923792E-02 -0.40066958181E-02  0.28436050002E-01  0.51100000000E-03 0. -1.
</event>
<event>
 8    1  0.1118868E+005  0.1043930E+01  0.7957747E-01            NaN
         13   -1    0    0    0    0  0.00000000000E+00  0.00000000000E+00  0.74505805969E-08  0.10566000000E+00  0.10566000000E+00 0. -1.
     999900   -1    0    0    0    0 -0.00000000000E+00 -0.00000000000E+00 -0.74505805969E-08  0.93827000000E+00  0.93827000000E+00 0.  1.
     999902    2    1    2    0    0  0.27599260327E-03  0.23637960665E-03 -0.24634989874E-01  0.10192923302E+01  0.10189945238E+01 0.  0.
     999903    2    3    3    0    0 -0.55896640415E-01 -0.83448649351E-01  0.76365413684E-01  0.12779940802E+00  0.20319960505E-01 0.  0.
         14    1    1    2    0    0 -0.27599260327E-03 -0.23637960665E-03  0.24634989874E-01  0.24637669804E-01  0.00000000000E+00 0. -1.
     999901    1    3    3    0    0  0.56172633018E-01  0.83685028957E-01 -0.10100040356E+00  0.89149292218E+00  0.88000000000E+00 0.  1.
        -11    1    4    4    0    0 -0.42479589368E-01 -0.63488602523E-01  0.46422561711E-01  0.89390343550E-01  0.51100000000E-03 0.  1.
         11    1    4    4    0    0 -0.13417051047E-01 -0.19960046827E-01  0.29942851973E-01  0.38409064470E-01  0.51100000000E-03 0. -1.
</event>
<event>
 8    1  0.1118868E+005  0.1043930E+01  0.7957747E-01            NaN
         13   -1    0    0    0    0  0.00000000000E+00  0.00000000000E+00  0.74505805969E-08  0.10566000000E+00  0.10566000000E+00 0. -1.
     999900   -1    0    0    0    0 -0.00000000000E+00 -0.00000000000E+00 -0.74505805969E-08  0.93827000000E+00  0.93827000000E+00 0. -1.
     999902    2    1    2    0    0 -0.58419032867E-03 -0.19034675614E-01 -0.15277222364E-01  0.10195157894E+01  0.10192234256E+01 0.  0.
     999903    2    3    3    0    0 -0.61415110571E-01  0.78414237400E-01 -0.80558718320E-01  0.12965154967E+00  0.19980210252E-01 0.  0.
         14    1    1    2    0    0  0.58419032867E-03  0.19034675614E-01  0.15277222364E-01  0.24414210559E-01  0.00000000000E+00 0. -1.
     999901    1    3    3    0    0  0.60830920242E-01 -0.97448913013E-01  0.65281495956E-01  0.88986423977E+00  0.88000000000E+00 0.  1.
        -11    1    4    4    0    0 -0.36747328266E-01  0.60096858085E-01 -0.50581033708E-01  0.86721972869E-01  0.51100000000E-03 0. -1.
         11    1    4    4    0    0 -0.24667782305E-01  0.18317379315E-01 -0.29977684612E-01  0.42929576803E-01  0.51100000000E-03 0.  1.
</event>
<event>
 8    1  0.1118868E+005  0.1043930E+01  0.7957747E-01            NaN
         13   -1    0    0    0    0  0.00000000000E+00  0.00000000000E+00  0.74505805969E-08  0.10566000000E+00  0.10566000000E+00 0. -1.
     999900   -1    0    0    0    0 -0.00000000000E+00 -0.00000000000E+00 -0.74505805969E-08  0.93827000000E+00  0.93827000000E+00 0.  1.
     999902    2    1    2    0    0  0.10478199588E-02  0.21741820650E-02 -0.23746039000E-01  0.10200616242E+01  0.10197823385E+01 0.  0.
     999903    2    3    3    0    0 -0.10173310463E-01  0.84004004877E-01 -0.10050682971E+00  0.13286702738E+00  0.19795329372E-01 0.  0.
         14    1    1    2    0    0 -0.10478199588E-02 -0.21741820650E-02  0.23746039000E-01  0.23868375783E-01  0.00000000000E+00 0. -1.
     999901    1    3    3    0    0  0.11221130422E-01 -0.81829822812E-01  0.76760790710E-01  0.88719459684E+00  0.88000000000E+00 0.  1.
        -11    1    4    4    0    0 -0.46373386759E-03  0.58861746980E-01 -0.78187008854E-01  0.97869248394E-01  0.51100000000E-03 0.  1.
         11    1    4    4    0    0 -0.97095765958E-02  0.25142257897E-01 -0.22319820855E-01  0.34997778985E-01  0.51100000000E-03 0. -1.
</event>
<event>
 8    1  0.1118868E+005  0.1043930E+01  0.7957747E-01            NaN
         13   -1    0    0    0    0  0.00000000000E+00  0.00000000000E+00  0.74505805969E-08  0.10566000000E+00  0.10566000000E+00 0.  1.
     999900   -1    0    0    0    0 -0.00000000000E+00 -0.00000000000E+00 -0.74505805969E-08  0.93827000000E+00  0.93827000000E+00 0.  1.
     999902    2    1    2    0    0  0.92371717859E-02 -0.12278589100E-01  0.19375451117E-01  0.10192015306E+01  0.10189014981E+01 0.  0.
     999903    2    3    3    0    0  0.29786331647E-01 -0.11936647968E+00  0.43943081297E-01  0.13213126690E+00  0.19801395769E-01 0.  0.
         14    1    1    2    0    0 -0.92371717859E-02  0.12278589100E-01 -0.19375451117E-01  0.24728469400E-01  0.00000000000E+00 0. -1.
     999901    1    3    3    0    0 -0.20549159861E-01  0.10708789058E+00 -0.24567630181E-01  0.88707026370E+00  0.88000000000E+00 0.  1.
        -11    1    4    4    0    0  0.23701177033E-01 -0.76779861896E-01  0.19649834022E-01  0.82724059884E-01  0.51100000000E-03 0. -1.
         11    1    4    4    0    0  0.60851546135E-02 -0.42586617789E-01  0.24293247275E-01  0.49407207020E-01  0.51100000000E-03 0.  1.
</event>
<event>
 8    1  0.1118868E+005  0.1043930E+01  0.7957747E-01            NaN
         13   -1    0    0    0    0  0.00000000000E+00  0.00000000000E+00  0.74505805969E-08  0.10566000000E+00  0.10566000000E+00 0. -1.
     999900   -1    0    0    0    0 -0.00000000000E+00 -0.00000000000E+00 -0.74505805969E-08  0.93827000000E+00  0.93827000000E+00 0. -1.
     999902    2    1    2    0    0 -0.20383486424E-01 -0.11041089322E-01  0.36027571364E-02  0.10204699908E+01  0.10202002892E+01 0.  0.
     999903    2    3    3    0    0 -0.38972617672E-01  0.45052598315E-01 -0.11441522931E+00  0.13062713799E+00  0.20591331624E-01 0.  0.
         14    1    1    2    0    0  0.20383486424E-01  0.11041089322E-01 -0.36027571364E-02  0.23460009190E-01  0.00000000000E+00 0.  1.
     999901    1    3    3    0    0  0.18589131248E-01 -0.56093687637E-01  0.11801798644E+00  0.88984285282E+00  0.88000000000E+00 0.  1.
        -11    1    4    4    0    0 -0.22962058183E-01  0.16988193046E-01 -0.70793475572E-01  0.76340239216E-01  0.51100000000E-03 0. -1.
         11    1    4    4    0    0 -0.16010559489E-01  0.28064405269E-01 -0.43621753736E-01  0.54286898772E-01  0.51100000000E-03 0.  1.
</event>
<event>
 8    1  0.1118868E+005  0.1043930E+01  0.7957747E-01            NaN
         13   -1    0    0    0    0  0.00000000000E+00  0.00000000000E+00  0.74505805969E-08  0.10566000000E+00  0.10566000000E+00 0.  1.
     999900   -1    0    0    0    0 -0.00000000000E+00 -0.00000000000E+00 -0.74505805969E-08  0.93827000000E+00  0.93827000000E+00 0.  1.
     999902    2    1    2    0    0 -0.23891491007E-01 -0.45684254898E-02  0.19716153440E-02  0.10195258790E+01  0.10192337597E+01 0.  0.
     999903    2    3    3    0    0  0.36755999143E-01  0.12614028455E-01  0.12155575741E+00  0.12920362173E+00  0.20190505723E-01 0.  0.
         14    1    1    2    0    0  0.23891491007E-01  0.45684254898E-02 -0.19716153440E-02  0.24404120985E-01  0.00000000000E+00 0.  1.
     999901    1    3    3    0    0 -0.60647490150E-01 -0.17182453944E-01 -0.11958414207E+00  0.89032225729E+00  0.88000000000E+00 0.  1.
        -11    1    4    4    0    0  0.31654541444E-01  0.17708540921E-01  0.95271529769E-01  0.10194374881E+00  0.51100000000E-03 0.  1.
         11    1    4    4    0    0  0.51014576986E-02 -0.50945124663E-02  0.26284227642E-01  0.27259872921E-01  0.51100000000E-03 0. -1.
</event>
<event>
 8    1  0.1118868E+005  0.1043930E+01  0.7957747E-01            NaN
         13   -1    0    0    0    0  0.00000000000E+00  0.00000000000E+00  0.74505805969E-08  0.10566000000E+00  0.10566000000E+00 0. -1.
     999900   -1    0    0    0    0 -0.00000000000E+00 -0.00000000000E+00 -0.74505805969E-08  0.93827000000E+00  0.93827000000E+00 0. -1.
     999902    2    1    2    0    0 -0.19162479280E-01 -0.13045021829E-01  0.11792652865E-03  0.10207483885E+01  0.10204851226E+01 0.  0.
     999903    2    3    3    0    0  0.21027614963E-01  0.91332935590E-01 -0.86889429619E-01  0.12941215466E+00  0.20343723350E-01 0.  0.
         14    1    1    2    0    0  0.19162479280E-01  0.13045021829E-01 -0.11792652865E-03  0.23181611535E-01  0.00000000000E+00 0.  1.
     999901    1    3    3    0    0 -0.40190094243E-01 -0.10437795742E+00  0.87007356148E-01  0.89133623381E+00  0.88000000000E+00 0.  1.
        -11    1    4    4    0    0  0.60207572683E-02  0.66513671167E-01 -0.63377495289E-01  0.92072178210E-01  0.51100000000E-03 0. -1.
         11    1    4    4    0    0  0.15006857695E-01  0.24819264423E-01 -0.23511934329E-01  0.37339976450E-01  0.51100000000E-03 0.  1.
</event>
<event>
 8    1  0.1118868E+005  0.1043930E+01  0.7957747E-01            NaN
         13   -1    0    0    0    0  0.00000000000E+00  0.00000000000E+00  0.74505805969E-08  0.10566000000E+00  0.10566000000E+00 0. -1.
     999900   -1    0    0    0    0 -0.00000000000E+00 -0.00000000000E+00 -0.74505805969E-08  0.93827000000E+00  0.93827000000E+00 0.  1.
     999902    2    1    2    0    0 -0.87921451820E-02  0.21842933387E-01  0.51701669065E-03  0.10203782939E+01  0.10201064551E+01 0.  0.
     999903    2    3    3    0    0 -0.38403290502E-01 -0.11985049749E+00 -0.15557867166E-01  0.12840730208E+00  0.20184982689E-01 0.  0.
         14    1    1    2    0    0  0.87921451820E-02 -0.21842933387E-01 -0.51701669065E-03  0.23551706140E-01  0.00000000000E+00 0.  1.
     999901    1    3    3    0    0  0.29611145320E-01  0.14169343088E+00  0.16074883857E-01  0.89197099178E+00  0.88000000000E+00 0.  1.
        -11    1    4    4    0    0 -0.24223778413E-01 -0.44632147270E-01 -0.90669128513E-02  0.51587692720E-01  0.51100000000E-03 0. -1.
         11    1    4    4    0    0 -0.14179512089E-01 -0.75218350224E-01 -0.64909543146E-02  0.76819609362E-01  0.51100000000E-03 0.  1.
</event>
<event>
 8    1  0.1118868E+005  0.1043930E+01  0.7957747E-01            NaN
         13   -1    0    0    0    0  0.00000000000E+00  0.00000000000E+00  0.74505805969E-08  0.10566000000E+00  0.10566000000E+00 0.  1.
     999900   -1    0    0    0    0 -0.00000000000E+00 -0.00000000000E+00 -0.74505805969E-08  0.93827000000E+00  0.93827000000E+00 0.  1.
     999902    2    1    2    0    0 -0.12957181820E-01  0.19696324577E-01 -0.52642618696E-02  0.10197732987E+01  0.10194871429E+01 0.  0.
     999903    2    3    3    0    0 -0.92894977055E-01 -0.71228174768E-01 -0.52228946172E-01  0.13024364929E+00  0.23078468725E-01 0.  0.
         14    1    1    2    0    0  0.12957181820E-01 -0.19696324577E-01  0.52642618696E-02  0.24156701256E-01  0.00000000000E+00 0.  1.
     999901    1    3    3    0    0  0.79937795236E-01  0.90924499345E-01  0.46964684303E-01  0.88952964946E+00  0.88000000000E+00 0. -1.
        -11    1    4    4    0    0 -0.55591511032E-01 -0.42877503194E-01 -0.18790870905E-01  0.72679118936E-01  0.51100000000E-03 0.  1.
         11    1    4    4    0    0 -0.37303466024E-01 -0.28350671575E-01 -0.33438075268E-01  0.57564530353E-01  0.51100000000E-03 0. -1.
</event>
<event>
 8    1  0.1118868E+005  0.1043930E+01  0.7957747E-01            NaN
         13   -1    0    0    0    0  0.00000000000E+00  0.00000000000E+00  0.74505805969E-08  0.10566000000E+00  0.10566000000E+00 0. -1.
     999900   -1    0    0    0    0 -0.00000000000E+00 -0.00000000000E+00 -0.74505805969E-08  0.93827000000E+00  0.93827000000E+00 0. -1.
     999902    2    1    2    0    0 -0.70320466845E-02 -0.15439321759E-01 -0.18797589645E-01  0.10186086313E+01  0.10182938535E+01 0.  0.
     999903    2    3    3    0    0  0.31275822056E-01 -0.17720694125E-01  0.12014155293E+00  0.12688177692E+00  0.19307835924E-01 0.  0.
         14    1    1    2    0    0  0.70320466845E-02  0.15439321759E-01  0.18797589645E-01  0.25321368711E-01  0.00000000000E+00 0. -1.
     999901    1    3    3    0    0 -0.38307868740E-01  0.22813723660E-02 -0.13893914257E+00  0.89172685437E+00  0.88000000000E+00 0. -1.
        -11    1    4    4    0    0  0.20182844354E-01 -0.81335372305E-02  0.97519873540E-01  0.99919409978E-01  0.51100000000E-03 0. -1.
         11    1    4    4    0    0  0.11092977702E-01 -0.95871568942E-02  0.22621679389E-01  0.26962366940E-01  0.51100000000E-03 0.  1.
</event>
<event>
 8    1  0.1118868E+005  0.1043930E+01  0.7957747E-01            NaN
         13   -1    0    0    0    0  0.00000000000E+00  0.00000000000E+00  0.74505805969E-08  0.10566000000E+00  0.10566000000E+00 0.  1.
     999900   -1    0    0    0    0 -0.00000000000E+00 -0.00000000000E+00 -0.74505805969E-08  0.93827000000E+00  0.93827000000E+00 0. -1.
     999902    2    1    2    0    0  0.85219223652E-02  0.19005868596E-01  0.11566362452E-01  0.10201050773E+01  0.10198268195E+01 0.  0.
     999903    2    3    3    0    0  0.80783582413E-01 -0.74895432400E-01 -0.63545632121E-01  0.12899284330E+00  0.21582244507E-01 0.  0.
         14    1    1    2    0    0 -0.85219223652E-02 -0.19005868596E-01 -0.11566362452E-01  0.23824922713E-01  0.00000000000E+00 0. -1.
     999901    1    3    3    0    0 -0.72261660048E-01  0.93901300996E-01  0.75111994573E-01  0.89111223399E+00  0.88000000000E+00 0.  1.
        -11    1    4    4    0    0  0.46906754750E-01 -0.33348334307E-01 -0.23921941277E-01  0.62328768941E-01  0.51100000000E-03 0.  1.
         11    1    4    4    0    0  0.33876827663E-01 -0.41547098093E-01 -0.39623690844E-01  0.66664074354E-01  0.51100000000E-03 0. -1.
</event>
<event>
 8    1  0.1118868E+005  0.1043930E+01  0.7957747E-01            NaN
         13   -1    0    0    0    0  0.00000000000E+00  0.00000000000E+00  0.74505805969E-08  0.10566000000E+00  0.10566000000E+00 0.  1.
     999900   -1    0    0    0    0 -0.00000000000E+00 -0.00000000000E+00 -0.74505805969E-08  0.93827000000E+00  0.93827000000E+00 0. -1.
     999902    2    1    2    0    0 -0.21244171819E-01 -0.53678917677E-02  0.76484982138E-02  0.10207216260E+01  0.10204577449E+01 0.  0.
     999903    2    3    3    0    0  0.10694098600E+00  0.51716690580E-01 -0.42234836103E-01  0.12820919962E+00  0.23298646203E-01 0.  0.
         14    1    1    2    0    0  0.21244171819E-01  0.53678917677E-02 -0.76484982138E-02  0.23208373990E-01  0.00000000000E+00 0. -1.
     999901    1    3    3    0    0 -0.12818515782E+00 -0.57084582348E-01  0.49883334317E-01  0.89251242639E+00  0.88000000000E+00 0. -1.
        -11    1    4    4    0    0  0.44604948000E-01  0.10849855185E-01 -0.99282162080E-02  0.46969685348E-01  0.51100000000E-03 0. -1.
         11    1    4    4    0    0  0.62336037996E-01  0.40866835396E-01 -0.32306619895E-01  0.81239514267E-01  0.51100000000E-03 0.  1.
</event>
<event>
 8    1  0.1118868E+005  0.1043930E+01  0.7957747E-01            NaN
         13   -1    0    0    0    0  0.00000000000E+00  0.00000000000E+00  0.74505805969E-08  0.10566000000E+00  0.10566000000E+00 0. -1.
     999900   -1    0    0    0    0 -0.00000000000E+00 -0.00000000000E+00 -0.74505805969E-08  0.93827000000E+00  0.93827000000E+00 0. -1.
     999902    2    1    2    0    0  0.19706694002E-01  0.13317215939E-02 -0.42300608286E-02  0.10237304781E+01  0.10235311774E+01 0.  0.
     999903    2    3    3    0    0 -0.28521527390E-01 -0.55119928188E-01  0.11532679187E+00  0.13254778575E+00  0.20419661475E-01 0.  0.
         14    1    1    2    0    0 -0.19706694002E-01 -0.13317215939E-02  0.42300608286E-02  0.20199521913E-01  0.00000000000E+00 0. -1.
     999901    1    3    3    0    0  0.48228221391E-01  0.56451649782E-01 -0.11955685270E+00  0.89118269234E+00  0.88000000000E+00 0. -1.
        -11    1    4    4    0    0 -0.53484191571E-03 -0.15825399768E-01  0.40802851171E-01  0.43770573658E-01  0.51100000000E-03 0. -1.
         11    1    4    4    0    0 -0.27986685474E-01 -0.39294528420E-01  0.74523940700E-01  0.88777212088E-01  0.51100000000E-03 0.  1.
</event>
<event>
 8    1  0.1118868E+005  0.1043930E+01  0.7957747E-01            NaN
         13   -1    0    0    0    0  0.00000000000E+00  0.00000000000E+00  0.74505805969E-08  0.10566000000E+00  0.10566000000E+00 0.  1.
     999900   -1    0    0    0    0 -0.00000000000E+00 -0.00000000000E+00 -0.74505805969E-08  0.93827000000E+00  0.93827000000E+00 0. -1.
     999902    2    1    2    0    0  0.20154885482E-01  0.79431341046E-02 -0.45460680406E-02  0.10217945189E+01  0.10215547266E+01 0.  0.
     999903    2    3    3    0    0 -0.51913613080E-01 -0.37632605502E-02 -0.11928720316E+00  0.13134719524E+00  0.17704900600E-01 0.  0.
         14    1    1    2    0    0 -0.20154885482E-01 -0.79431341046E-02  0.45460680406E-02  0.22135481084E-01  0.00000000000E+00 0. -1.
     999901    1    3    3    0    0  0.72068498562E-01  0.11706394655E-01  0.11474113512E+00  0.89044732368E+00  0.88000000000E+00 0.  1.
        -11    1    4    4    0    0 -0.33815748704E-01  0.48121519273E-02 -0.64062690527E-01  0.72601316139E-01  0.51100000000E-03 0. -1.
         11    1    4    4    0    0 -0.18097864376E-01 -0.85754124775E-02 -0.55224512634E-01  0.58745879096E-01  0.51100000000E-03 0.  1.
</event>
<event>
 8    1  0.1118868E+005  0.1043930E+01  0.7957747E-01            NaN
         13   -1    0    0    0    0  0.00000000000E+00  0.00000000000E+00  0.74505805969E-08  0.10566000000E+00  0.10566000000E+00 0. -1.
     999900   -1    0    0    0    0 -0.00000000000E+00 -0.00000000000E+00 -0.74505805969E-08  0.93827000000E+00  0.93827000000E+00 0.  1.
     999902    2    1    2    0    0 -0.94320800475E-02  0.12030185285E-01  0.18434461219E-01  0.10199817464E+01  0.10197005659E+01 0.  0.
     999903    2    3    3    0    0 -0.31102077543E-01  0.43000517752E-01  0.12047010500E+00  0.13327997976E+00  0.20835619783E-01 0.  0.
         14    1    1    2    0    0  0.94320800475E-02 -0.12030185285E-01 -0.18434461219E-01  0.23948253640E-01  0.00000000000E+00 0.  1.
     999901    1    3    3    0    0  0.21669997496E-01 -0.30970332467E-01 -0.10203564378E+00  0.88670176660E+00  0.88000000000E+00 0.  1.
        -11    1    4    4    0    0  0.24797366910E-02  0.78771734890E-02  0.14412843131E-01  0.16618968811E-01  0.51100000000E-03 0. -1.
         11    1    4    4    0    0 -0.33581814234E-01  0.35123344263E-01  0.10605726187E+00  0.11666101095E+00  0.51100000000E-03 0.  1.
</event>
<event>
 8    1  0.1118868E+005  0.1043930E+01  0.7957747E-01            NaN
         13   -1    0    0    0    0  0.00000000000E+00  0.00000000000E+00  0.74505805969E-08  0.10566000000E+00  0.10566000000E+00 0.  1.
     999900   -1    0    0    0    0 -0.00000000000E+00 -0.00000000000E+00 -0.74505805969E-08  0.93827000000E+00  0.93827000000E+00 0. -1.
     999902    2    1    2    0    0  0.21189364728E-01 -0.54134278806E-02  0.64527083557E-02  0.10211279864E+01  0.10208733677E+01 0.  0.
     999903    2    3    3    0    0 -0.90097235397E-01  0.40417996326E-01  0.81656791823E-01  0.12975775974E+00  0.20447941423E-01 0.  0.
         14    1    1    2    0    0 -0.21189364728E-01  0.54134278806E-02 -0.64527083557E-02  0.22802013598E-01  0.00000000000E+00 0. -1.
     999901    1    3    3    0    0  0.11128660012E+00 -0.45831424207E-01 -0.75204083467E-01  0.89137022666E+00  0.88000000000E+00 0. -1.
        -11    1    4    4    0    0 -0.70521726555E-01  0.22698455134E-01  0.55325801855E-01  0.92464800079E-01  0.51100000000E-03 0.  1.
         11    1    4    4    0    0 -0.19575508842E-01  0.17719541193E-01  0.26330989968E-01  0.37292959660E-01  0.51100000000E-03 0. -1.
</event>
<event>
 8    1  0.1118868E+005  0.1043930E+01  0.7957747E-01            NaN
         13   -1    0    0    0    0  0.00000000000E+00  0.00000000000E+00  0.74505805969E-08  0.10566000000E+00  0.10566000000E+00 0. -1.
     999900   -1    0    0    0    0 -0.00000000000E+00 -0.00000000000E+00 -0.74505805969E-08  0.93827000000E+00  0.93827000000E+00 0. -1.
     999902    2    1    2    0    0 -0.18722184070E-01 -0.81246063444E-02 -0.11214353352E-01  0.10206428549E+01  0.10203771588E+01 0.  0.
     999903    2    3    3    0    0 -0.36614946204E-02 -0.11698173143E+00  0.56171759703E-01  0.13125116041E+00  0.19325332830E-01 0.  0.
         14    1    1    2    0    0  0.18722184070E-01  0.81246063444E-02  0.11214353352E-01  0.23287145074E-01  0.00000000000E+00 0.  1.
     999901    1    3    3    0    0 -0.15060689449E-01  0.10885712508E+00 -0.67386113054E-01  0.88939169452E+00  0.88000000000E+00 0. -1.
        -11    1    4    4    0    0  0.42411788518E-03 -0.38761707809E-01  0.28738355783E-01  0.48257684180E-01  0.51100000000E-03 0. -1.
         11    1    4    4    0    0 -0.40856125056E-02 -0.78220023619E-01  0.27433403920E-01  0.82993476227E-01  0.51100000000E-03 0.  1.
</event>
<event>
 8    1  0.1118868E+005  0.1043930E+01  0.7957747E-01            NaN
         13   -1    0    0    0    0  0.00000000000E+00  0.00000000000E+00  0.74505805969E-08  0.10566000000E+00  0.10566000000E+00 0. -1.
     999900   -1    0    0    0    0 -0.00000000000E+00 -0.00000000000E+00 -0.74505805969E-08  0.93827000000E+00  0.93827000000E+00 0. -1.
     999902    2    1    2    0    0  0.22722953602E-01 -0.49863999700E-02  0.90078912097E-03  0.10206489299E+01  0.10203833739E+01 0.  0.
     999903    2    3    3    0    0 -0.46836939728E-01  0.11796027883E+00  0.14482946095E-01  0.12927979222E+00  0.19879201292E-01 0.  0.
         14    1    1    2    0    0 -0.22722953602E-01  0.49863999700E-02 -0.90078912097E-03  0.23281070123E-01  0.00000000000E+00 0. -1.
     999901    1    3    3    0    0  0.69559893329E-01 -0.12294667880E+00 -0.13582156974E-01  0.89136913766E+00  0.88000000000E+00 0.  1.
        -11    1    4    4    0    0 -0.91567700336E-02  0.28853731791E-01  0.11802815083E-01  0.32495412609E-01  0.51100000000E-03 0.  1.
         11    1    4    4    0    0 -0.37680169694E-01  0.89106547035E-01  0.26801310112E-02  0.96784379607E-01  0.51100000000E-03 0. -1.
</event>
<event>
 8    1  0.1118868E+005  0.1043930E+01  0.7957747E-01            NaN
         13   -1    0    0    0    0  0.00000000000E+00  0.00000000000E+00  0.74505805969E-08  0.10566000000E+00  0.10566000000E+00 0.  1.
     999900   -1    0    0    0    0 -0.00000000000E+00 -0.00000000000E+00 -0.74505805969E-08  0.93827000000E+00  0.93827000000E+00 0. -1.
     999902    2    1    2    0    0 -0.21035612420E-01 -0.28068073927E-02  0.98366367867E-02  0.10205390919E+01  0.10202709952E+01 0.  0.
     999903    2    3    3    0    0 -0.66218135668E-01 -0.38236643385E-01 -0.10493496246E+00  0.13123079123E+00  0.19060215940E-01 0.  0.
         14    1    1    2    0    0  0.21035612420E-01  0.28068073927E-02 -0.98366367867E-02  0.23390908082E-01  0.00000000000E+00 0. -1.
     999901    1    3    3    0    0  0.45182523248E-01  0.35429835992E-01  0.11477159924E+00  0.88930830069E+00  0.88000000000E+00 0. -1.
        -11    1    4    4    0    0 -0.56377868055E-01 -0.31366907220E-01 -0.74746200016E-01  0.98740075009E-01  0.51100000000E-03 0. -1.
         11    1    4    4    0    0 -0.98402676127E-02 -0.68697361645E-02 -0.30188762440E-01  0.32490716217E-01  0.51100000000E-03 0.  1.
</event>
<event>
 8    1  0.1118868E+005  0.1043930E+01  0.7957747E-01            NaN
         13   -1    0    0    0    0  0.00000000000E+00  0.00000000000E+00  0.74505805969E-08  0.10566000000E+00  0.10566000000E+00 0. -1.
     999900   -1    0    0    0    0 -0.00000000000E+00 -0.00000000000E+00 -0.74505805969E-08  0.93827000000E+00  0.93827000000E+00 0.  1.
     999902    2    1    2    0    0 -0.76622131244E-02 -0.12661775191E-01 -0.17031450320E-01  0.10213667476E+01  0.10211174921E+01 0.  0.
     999903    2    3    3    0    0  0.10247127637E-01 -0.21681122086E-01 -0.13028460338E+00  0.13388245486E+00  0.19374187993E-01 0.  0.
         14    1    1    2    0    0  0.76622131244E-02  0.12661775191E-01  0.17031450320E-01  0.22563252446E-01  0.00000000000E+00 0. -1.
     999901    1    3    3    0    0 -0.17909340761E-01  0.90193468949E-02  0.11325315306E+00  0.88748429270E+00  0.88000000000E+00 0. -1.
        -11    1    4    4    0    0  0.12429291029E-01 -0.40972405155E-02 -0.56647420626E-01  0.58141775342E-01  0.51100000000E-03 0.  1.
         11    1    4    4    0    0 -0.21821633925E-02 -0.17583881570E-01 -0.73637182756E-01  0.75740679515E-01  0.51100000000E-03 0. -1.
</event>
<event>
 8    1  0.1118868E+005  0.1043930E+01  0.7957747E-01            NaN
         13   -1    0    0    0    0  0.00000000000E+00  0.00000000000E+00  0.74505805969E-08  0.10566000000E+00  0.10566000000E+00 0. -1.
     999900   -1    0    0    0    0 -0.00000000000E+00 -0.00000000000E+00 -0.74505805969E-08  0.93827000000E+00  0.93827000000E+00 0.  1.
     999902    2    1    2    0    0 -0.19700313406E-01 -0.23308957386E-02 -0.13154240403E-01  0.10201272803E+01  0.10198495470E+01 0.  0.
     999903    2    3    3    0    0  0.39964020204E-01  0.91537283750E-01  0.78155896743E-01  0.12843865251E+00  0.20296453802E-01 0.  0.
         14    1    1    2    0    0  0.19700313406E-01  0.23308957386E-02  0.13154240403E-01  0.23802719672E-01  0.00000000000E+00 0. -1.
     999901    1    3    3    0    0 -0.59664333610E-01 -0.93868179488E-01 -0.91310137146E-01  0.89168862781E+00  0.88000000000E+00 0.  1.
        -11    1    4    4    0    0  0.30914170197E-01  0.45968607029E-01  0.40276928962E-01  0.68492998757E-01  0.51100000000E-03 0.  1.
         11    1    4    4    0    0  0.90498500068E-02  0.45568676721E-01  0.37878967781E-01  0.59945653757E-01  0.51100000000E-03 0. -1.
</event>
<event>
 8    1  0.1118868E+005  0.1043930E+01  0.7957747E-01            NaN
         13   -1    0    0    0    0  0.00000000000E+00  0.00000000000E+00  0.74505805969E-08  0.10566000000E+00  0.10566000000E+00 0. -1.
     999900   -1    0    0    0    0 -0.00000000000E+00 -0.00000000000E+00 -0.74505805969E-08  0.93827000000E+00  0.93827000000E+00 0. -1.
     999902    2    1    2    0    0 -0.16717440015E-01  0.85206373609E-02  0.12705299532E-01  0.10212694903E+01  0.10210180572E+01 0.  0.
     999903    2    3    3    0    0 -0.82117381961E-01  0.10232540459E+00 -0.13651484328E-01  0.13347944376E+00  0.20411909182E-01 0.  0.
         14    1    1    2    0    0  0.16717440015E-01 -0.85206373609E-02 -0.12705299532E-01  0.22660509656E-01  0.00000000000E+00 0.  1.
     999901    1    3    3    0    0  0.65399941947E-01 -0.93804767231E-01  0.26356783860E-01  0.88779004659E+00  0.88000000000E+00 0.  1.
        -11    1    4    4    0    0 -0.47055813383E-01  0.65283113594E-01  0.74596618734E-03  0.80479513419E-01  0.51100000000E-03 0. -1.
         11    1    4    4    0    0 -0.35061568579E-01  0.37042290998E-01 -0.14397450515E-01  0.52999930339E-01  0.51100000000E-03 0.  1.
</event>
<event>
 8    1  0.1118868E+005  0.1043930E+01  0.7957747E-01            NaN
         13   -1    0    0    0    0  0.00000000000E+00  0.00000000000E+00  0.74505805969E-08  0.10566000000E+00  0.10566000000E+00 0.  1.
     999900   -1    0    0    0    0 -0.00000000000E+00 -0.00000000000E+00 -0.74505805969E-08  0.93827000000E+00  0.93827000000E+00 0. -1.
     999902    2    1    2    0    0  0.12745908617E-02 -0.30355629424E-01  0.12213270732E-01  0.10111847286E+01  0.10106543932E+01 0.  0.
     999903    2    3    3    0    0 -0.11512014791E+00 -0.39361493018E-01 -0.25118394525E-02  0.12335272325E+00  0.20189338969E-01 0.  0.
         14    1    1    2    0    0 -0.12745908617E-02  0.30355629424E-01 -0.12213270732E-01  0.32745271438E-01  0.00000000000E+00 0. -1.
     999901    1    3    3    0    0  0.11639473877E+00  0.90058635949E-02  0.14725110184E-01  0.88783200532E+00  0.88000000000E+00 0.  1.
        -11    1    4    4    0    0 -0.12108591951E-01 -0.73153131470E-02 -0.60914954180E-02  0.15411010444E-01  0.51100000000E-03 0. -1.
         11    1    4    4    0    0 -0.10301155596E+00 -0.32046179871E-01  0.35796559654E-02  0.10794171280E+00  0.51100000000E-03 0.  1.
</event>
<event>
 8    1  0.1118868E+005  0.1043930E+01  0.7957747E-01            NaN
         13   -1    0    0    0    0  0.00000000000E+00  0.00000000000E+00  0.74505805969E-08  0.10566000000E+00  0.10566000000E+00 0.  1.
     999900   -1    0    0    0    0 -0.00000000000E+00 -0.00000000000E+00 -0.74505805969E-08  0.93827000000E+00  0.93827000000E+00 0.  1.
     999902    2    1    2    0    0 -0.38787998180E-02  0.19868793880E-01 -0.12996654520E-01  0.10198732528E+01  0.10195894883E+01 0.  0.
     999903    2    3    3    0    0 -0.53035319858E-01 -0.10075945547E+00 -0.57386140758E-01  0.12917803864E+00  0.20702258233E-01 0.  0.
         14    1    1    2    0    0  0.38787998180E-02 -0.19868793880E-01  0.12996654520E-01  0.24056747223E-01  0.00000000000E+00 0. -1.
     999901    1    3    3    0    0  0.49156520040E-01  0.12062824935E+00  0.44389486238E-01  0.89069521414E+00  0.88000000000E+00 0. -1.
        -11    1    4    4    0    0 -0.16043496508E-01 -0.29693378613E-01 -0.68199287000E-02  0.34436362499E-01  0.51100000000E-03 0. -1.
         11    1    4    4    0    0 -0.36991823349E-01 -0.71066076857E-01 -0.50566212058E-01  0.94741676138E-01  0.51100000000E-03 0.  1.
</event>
<event>
 8    1  0.1118868E+005  0.1043930E+01  0.7957747E-01            NaN
         13   -1    0    0    0    0  0.00000000000E+00  0.00000000000E+00  0.74505805969E-08  0.10566000000E+00  0.10566000000E+00 0. -1.
     999900   -1    0    0    0    0 -0.00000000000E+00 -0.00000000000E+00 -0.74505805969E-08  0.93827000000E+00  0.93827000000E+00 0. -1.
     999902    2    1    2    0    0 -0.13037108965E-01  0.26930925440E-02  0.20177427985E-01  0.10197567181E+01  0.10194701646E+01 0.  0.
     999903    2    3    3    0    0  0.51200602392E-01 -0.67581846451E-01  0.98116555436E-01  0.13119633287E+00  0.19920131868E-01 0.  0.
         14    1    1    2    0    0  0.13037108965E-01 -0.26930925440E-02 -0.20177427985E-01  0.24173281898E-01  0.00000000000E+00 0.  1.
     999901    1    3    3    0    0 -0.64237711357E-01  0.70274938995E-01 -0.77939127451E-01  0.88856038523E+00  0.88000000000E+00 0. -1.
        -11    1    4    4    0    0  0.41507396967E-01 -0.44006371382E-01  0.58986245172E-01  0.84492975836E-01  0.51100000000E-03 0. -1.
         11    1    4    4    0    0  0.96932054251E-02 -0.23575475069E-01  0.39130310264E-01  0.46703357037E-01  0.51100000000E-03 0.  1.
</event>
<event>
 8    1  0.1118868E+005  0.1043930E+01  0.7957747E-01            NaN
         13   -1    0    0    0    0  0.00000000000E+00  0.00000000000E+00  0.74505805969E-08  0.10566000000E+00  0.10566000000E+00 0. -1.
     999900   -1    0    0    0    0 -0.00000000000E+00 -0.00000000000E+00 -0.74505805969E-08  0.93827000000E+00  0.93827000000E+00 0.  1.
     999902    2    1    2    0    0  0.22627479473E-01  0.39709694232E-02 -0.87987187640E-02  0.10193294131E+01  0.10190325135E+01 0.  0.
     999903    2    3    3    0    0 -0.11260359833E+00  0.73935419948E-02 -0.56365835021E-01  0.12772311601E+00  0.20046251148E-01 0.  0.
         14    1    1    2    0    0 -0.22627479473E-01 -0.39709694232E-02  0.87987187640E-02  0.24600586931E-01  0.00000000000E+00 0. -1.
     999901    1    3    3    0    0  0.13523107780E+00 -0.34225725715E-02  0.47567116257E-01  0.89160629706E+00  0.88000000000E+00 0. -1.
        -11    1    4    4    0    0 -0.96796997872E-01  0.52070781159E-02 -0.55573235520E-01  0.11173816755E+00  0.51100000000E-03 0.  1.
         11    1    4    4    0    0 -0.15806600460E-01  0.21864638788E-02 -0.79259950087E-03  0.15984948463E-01  0.51100000000E-03 0. -1.
</event>
<event>
 8    1  0.1118868E+005  0.1043930E+01  0.7957747E-01            NaN
         13   -1    0    0    0    0  0.00000000000E+00  0.00000000000E+00  0.74505805969E-08  0.10566000000E+00  0.10566000000E+00 0. -1.
     999900   -1    0    0    0    0 -0.00000000000E+00 -0.00000000000E+00 -0.74505805969E-08  0.93827000000E+00  0.93827000000E+00 0. -1.
     999902    2    1    2    0    0 -0.23989286542E-01 -0.61568030530E-02  0.21047270331E-02  0.10190739752E+01  0.10187708010E+01 0.  0.
     999903    2    3    3    0    0 -0.17584815852E-01  0.12083693301E+00 -0.34090169533E-01  0.12919842392E+00  0.24885798296E-01 0.  0.
         14    1    1    2    0    0  0.23989286542E-01  0.61568030530E-02 -0.21047270331E-02  0.24856024793E-01  0.00000000000E+00 0. -1.
     999901    1    3    3    0    0 -0.64044706900E-02 -0.12699373606E+00  0.36194896566E-01  0.88987555129E+00  0.88000000000E+00 0.  1.
        -11    1    4    4    0    0 -0.11935484664E-02  0.70142395161E-01 -0.28134070238E-01  0.75585495871E-01  0.51100000000E-03 0.  1.
         11    1    4    4    0    0 -0.16391267385E-01  0.50694537847E-01 -0.59560992948E-02  0.53612928048E-01  0.51100000000E-03 0. -1.
</event>
<event>
 8    1  0.1118868E+005  0.1043930E+01  0.7957747E-01            NaN
         13   -1    0    0    0    0  0.00000000000E+00  0.00000000000E+00  0.74505805969E-08  0.10566000000E+00  0.10566000000E+00 0. -1.
     999900   -1    0    0    0    0 -0.00000000000E+00 -0.00000000000E+00 -0.74505805969E-08  0.93827000000E+00  0.93827000000E+00 0.  1.
     999902    2    1    2    0    0 -0.10316434423E-01  0.33727774463E-02 -0.21353403297E-01  0.10199764558E+01  0.10196951496E+01 0.  0.
     999903    2    3    3    0    0 -0.10360313138E+00 -0.59851367113E-01 -0.51254193042E-01  0.13228633110E+00  0.23598434552E-01 0.  0.
         14    1    1    2    0    0  0.10316434423E-01 -0.33727774463E-02  0.21353403297E-01  0.23953544190E-01  0.00000000000E+00 0. -1.
     999901    1    3    3    0    0  0.93286696959E-01  0.63224144560E-01  0.29900789745E-01  0.88769012471E+00  0.88000000000E+00 0. -1.
        -11    1    4    4    0    0 -0.97905438060E-01 -0.55160603590E-01 -0.53628458338E-01  0.12451682479E+00  0.51100000000E-03 0.  1.
         11    1    4    4    0    0 -0.56976933213E-02 -0.46907635233E-02  0.23742652959E-02  0.77695063106E-02  0.51100000000E-03 0. -1.
</event>
<event>
 8    1  0.1118868E+005  0.1043930E+01  0.7957747E-01            NaN
         13   -1    0    0    0    0  0.00000000000E+00  0.00000000000E+00  0.74505805969E-08  0.10566000000E+00  0.10566000000E+00 0.  1.
     999900   -1    0    0    0    0 -0.00000000000E+00 -0.00000000000E+00 -0.74505805969E-08  0.93827000000E+00  0.93827000000E+00 0. -1.
     999902    2    1    2    0    0 -0.18561240051E-01  0.68100233368E-02  0.10794541939E-01  0.10214040553E+01  0.10211556326E+01 0.  0.
     999903    2    3    3    0    0  0.12398143380E-01  0.80260377436E-02 -0.12776612484E+00  0.13002365360E+00  0.19074501276E-01 0.  0.
         14    1    1    2    0    0  0.18561240051E-01 -0.68100233368E-02 -0.10794541939E-01  0.22525944725E-01  0.00000000000E+00 0. -1.
     999901    1    3    3    0    0 -0.30959383432E-01 -0.12160144069E-02  0.13856066677E+00  0.89138040168E+00  0.88000000000E+00 0.  1.
        -11    1    4    4    0    0 -0.78783513363E-04  0.11211071671E-01 -0.57281455398E-01  0.58370545555E-01  0.51100000000E-03 0.  1.
         11    1    4    4    0    0  0.12476926894E-01 -0.31850339278E-02 -0.70484669437E-01  0.71653108045E-01  0.51100000000E-03 0. -1.
</event>
<event>
 8    1  0.1118868E+005  0.1043930E+01  0.7957747E-01            NaN
         13   -1    0    0    0    0  0.00000000000E+00  0.00000000000E+00  0.74505805969E-08  0.10566000000E+00  0.10566000000E+00 0.  1.
     999900   -1    0    0    0    0 -0.00000000000E+00 -0.00000000000E+00 -0.74505805969E-08  0.93827000000E+00  0.93827000000E+00 0.  1.
     999902    2    1    2    0    0 -0.20094899230E-01  0.11068001852E-01 -0.11412459576E-01  0.10183067708E+01  0.10179843465E+01 0.  0.
     999903    2    3    3    0    0  0.47257700970E-01  0.10543019461E+00  0.52336686560E-01  0.12841658107E+00  0.20071703878E-01 0.  0.
         14    1    1    2    0    0  0.20094899230E-01 -0.11068001852E-01  0.11412459576E-01  0.25623229181E-01  0.00000000000E+00 0.  1.
     999901    1    3    3    0    0 -0.67352600200E-01 -0.94362192762E-01 -0.63749146136E-01  0.88989018975E+00  0.88000000000E+00 0.  1.
        -11    1    4    4    0    0  0.25716054186E-01  0.46111252888E-01  0.33593863418E-01  0.62580922542E-01  0.51100000000E-03 0. -1.
         11    1    4    4    0    0  0.21541646784E-01  0.59318941727E-01  0.18742823142E-01  0.65835658530E-01  0.51100000000E-03 0.  1.
</event>
<event>
 8    1  0.1118868E+005  0.1043930E+01  0.7957747E-01            NaN
         13   -1    0    0    0    0  0.00000000000E+00  0.00000000000E+00  0.74505805969E-08  0.10566000000E+00  0.10566000000E+00 0.  1.
     999900   -1    0    0    0    0 -0.00000000000E+00 -0.00000000000E+00 -0.74505805969E-08  0.93827000000E+00  0.93827000000E+00 0.  1.
     999902    2    1    2    0    0 -0.14271950657E-01 -0.49968669757E-02 -0.10808589118E-01  0.10253428309E+01  0.10251743452E+01 0.  0.
     999903    2    3    3    0    0  0.10366991418E+00  0.79016344327E-01 -0.20394055742E-01  0.13345697259E+00  0.20095080117E-01 0.  0.
         14    1    1    2    0    0  0.14271950657E-01  0.49968669757E-02  0.10808589118E-01  0.18587169065E-01  0.00000000000E+00 0.  1.
     999901    1    3    3    0    0 -0.11794186484E+00 -0.84013211303E-01  0.95854666249E-02  0.89188585835E+00  0.88000000000E+00 0.  1.
        -11    1    4    4    0    0  0.69969229342E-01  0.64244094777E-01 -0.12372820404E-01  0.95793238666E-01  0.51100000000E-03 0. -1.
         11    1    4    4    0    0  0.33700684839E-01  0.14772249551E-01 -0.80212353380E-02  0.37663733919E-01  0.51100000000E-03 0.  1.
</event>
<event>
 8    1  0.1118868E+005  0.1043930E+01  0.7957747E-01            NaN
         13   -1    0    0    0    0  0.00000000000E+00  0.00000000000E+00  0.74505805969E-08  0.10566000000E+00  0.10566000000E+00 0. -1.
     999900   -1    0    0    0    0 -0.00000000000E+00 -0.00000000000E+00 -0.74505805969E-08  0.93827000000E+00  0.93827000000E+00 0.  1.
     999902    2    1    2    0    0 -0.10912231136E-01 -0.13950726798E-01 -0.15495354386E-01  0.10203969260E+01  0.10201255221E+01 0.  0.
     999903    2    3    3    0    0 -0.11888364417E+00 -0.31353251520E-01  0.42806175870E-01  0.13171265000E+00  0.19987652334E-01 0.  0.
         14    1    1    2    0    0  0.10912231136E-01  0.13950726798E-01  0.15495354386E-01  0.23533074047E-01  0.00000000000E+00 0. -1.
     999901    1    3    3    0    0  0.10797141303E+00  0.17402524722E-01 -0.58301530256E-01  0.88868427595E+00  0.88000000000E+00 0.  1.
        -11    1    4    4    0    0 -0.86464449899E-01 -0.21403326446E-01  0.21411734618E-01  0.91612919284E-01  0.51100000000E-03 0.  1.
         11    1    4    4    0    0 -0.32419194267E-01 -0.99499250739E-02  0.21394441251E-01  0.40099730714E-01  0.51100000000E-03 0. -1.
</event>
<event>
 8    1  0.1118868E+005  0.1043930E+01  0.7957747E-01            NaN
         13   -1    0    0    0    0  0.00000000000E+00  0.00000000000E+00  0.74505805969E-08  0.10566000000E+00  0.10566000000E+00 0. -1.
     999900   -1    0    0    0    0 -0.00000000000E+00 -0.00000000000E+00 -0.74505805969E-08  0.93827000000E+00  0.93827000000E+00 0.  1.
     999902    2    1    2    0    0 -0.13863235434E-01 -0.23795470390E-01  0.82993828476E-02  0.10151672904E+01  0.10147597420E+01 0.  0.
     999903    2    3    3    0    0 -0.81106472843E-01  0.76363920545E-01 -0.52744481682E-01  0.12484155789E+00  0.19842528350E-01 0.  0.
         14    1    1    2    0    0  0.13863235434E-01  0.23795470390E-01 -0.82993828476E-02  0.28762709598E-01  0.00000000000E+00 0.  1.
     999901    1    3    3    0    0  0.67243237409E-01 -0.10015939094E+00  0.61043864530E-01  0.89032573251E+00  0.88000000000E+00 0. -1.
        -11    1    4    4    0    0 -0.52118543349E-01  0.55956186766E-01 -0.27282850556E-01  0.81191455546E-01  0.51100000000E-03 0. -1.
         11    1    4    4    0    0 -0.28987929494E-01  0.20407733779E-01 -0.25461631127E-01  0.43650102348E-01  0.51100000000E-03 0.  1.
</event>
<event>
 8    1  0.1118868E+005  0.1043930E+01  0.7957747E-01            NaN
         13   -1    0    0    0    0  0.00000000000E+00  0.00000000000E+00  0.74505805969E-08  0.10566000000E+00  0.10566000000E+00 0.  1.
     999900   -1    0    0    0    0 -0.00000000000E+00 -0.00000000000E+00 -0.74505805969E-08  0.93827000000E+00  0.93827000000E+00 0. -1.
     999902    2    1    2    0    0 -0.64177728444E-02  0.16470757323E-02 -0.22827319137E-01  0.10201605413E+01  0.10198835928E+01 0.  0.
     999903    2    3    3    0    0 -0.30806488343E-01 -0.76616662357E-01 -0.10214562419E+00  0.13279848688E+00  0.19559061902E-01 0.  0.
         14    1    1    2    0    0  0.64177728444E-02 -0.16470757323E-02  0.22827319137E-01  0.23769458676E-01  0.00000000000E+00 0.  1.
     999901    1    3    3    0    0  0.24388715498E-01  0.78263738089E-01  0.79318305055E-01  0.88736205444E+00  0.88000000000E+00 0. -1.
        -11    1    4    4    0    0 -0.21745783048E-01 -0.30421200375E-01 -0.38982705065E-01  0.54020745347E-01  0.51100000000E-03 0.  1.
         11    1    4    4    0    0 -0.90607052951E-02 -0.46195461981E-01 -0.63162919126E-01  0.78777741537E-01  0.51100000000E-03 0. -1.
</event>
<event>
 8    1  0.1118868E+005  0.1043930E+01  0.7957747E-01            NaN
         13   -1    0    0    0    0  0.00000000000E+00  0.00000000000E+00  0.74505805969E-08  0.10566000000E+00  0.10566000000E+00 0.  1.
     999900   -1    0    0    0    0 -0.00000000000E+00 -0.00000000000E+00 -0.74505805969E-08  0.93827000000E+00  0.93827000000E+00 0. -1.
     999902    2    1    2    0    0 -0.77401818610E-02 -0.22044650953E-01 -0.41935676463E-02  0.10201926231E+01  0.10199164305E+01 0.  0.
     999903    2    3    3    0    0 -0.12711551684E+00 -0.27266556046E-01  0.11573928394E-01  0.13197736047E+00  0.19551167737E-01 0.  0.
         14    1    1    2    0    0  0.77401818610E-02  0.22044650953E-01  0.41935676463E-02  0.23737376866E-01  0.00000000000E+00 0. -1.
     999901    1    3    3    0    0  0.11937533497E+00  0.52219050928E-02 -0.15767496041E-01  0.88821526266E+00  0.88000000000E+00 0.  1.
        -11    1    4    4    0    0 -0.69694003111E-01 -0.10733458635E-01  0.15103183894E-01  0.72116769816E-01  0.51100000000E-03 0. -1.
         11    1    4    4    0    0 -0.57421513724E-01 -0.16533097411E-01 -0.35292555001E-02  0.59860590656E-01  0.51100000000E-03 0.  1.
</event>
<event>
 8    1  0.1118868E+005  0.1043930E+01  0.7957747E-01            NaN
         13   -1    0    0    0    0  0.00000000000E+00  0.00000000000E+00  0.74505805969E-08  0.10566000000E+00  0.10566000000E+00 0.  1.
     999900   -1    0    0    0    0 -0.00000000000E+00 -0.00000000000E+00 -0.74505805969E-08  0.93827000000E+00  0.93827000000E+00 0. -1.
     999902    2    1    2    0    0 -0.14558430473E-01  0.18424944796E-01 -0.19155315286E-02  0.10203695299E+01  0.10200974865E+01 0.  0.
     999903    2    3    3    0    0  0.38072037768E-01  0.41674352078E-01 -0.11659260901E+00  0.13106568241E+00  0.19953569845E-01 0.  0.
         14    1    1    2    0    0  0.14558430473E-01 -0.18424944796E-01  0.19155315286E-02  0.23560470063E-01  0.00000000000E+00 0.  1.
     999901    1    3    3    0    0 -0.52630468241E-01 -0.23249407282E-01  0.11467707748E+00  0.88930384753E+00  0.88000000000E+00 0.  1.
        -11    1    4    4    0    0  0.58896407159E-02  0.92090832229E-02 -0.43486832403E-01  0.44842622526E-01  0.51100000000E-03 0.  1.
         11    1    4    4    0    0  0.32182397052E-01  0.32465268855E-01 -0.73105776604E-01  0.86223059884E-01  0.51100000000E-03 0. -1.
</event>
<event>
 8    1  0.1118868E+005  0.1043930E+01  0.7957747E-01            NaN
         13   -1    0    0    0    0  0.00000000000E+00  0.00000000000E+00  0.74505805969E-08  0.10566000000E+00  0.10566000000E+00 0.  1.
     999900   -1    0    0    0    0 -0.00000000000E+00 -0.00000000000E+00 -0.74505805969E-08  0.93827000000E+00  0.93827000000E+00 0. -1.
     999902    2    1    2    0    0 -0.17820713408E-03  0.90258322639E-02 -0.21250126429E-01  0.10208417935E+01  0.10205806691E+01 0.  0.
     999903    2    3    3    0    0 -0.80438873459E-01 -0.94369988945E-01 -0.37972985530E-01  0.13100353606E+00  0.18543776657E-01 0.  0.
         14    1    1    2    0    0  0.17820713408E-03 -0.90258322639E-02  0.21250126429E-01  0.23088206494E-01  0.00000000000E+00 0.  1.
     999901    1    3    3    0    0  0.80260666325E-01  0.10339582121E+00  0.16722859100E-01  0.88983825745E+00  0.88000000000E+00 0.  1.
        -11    1    4    4    0    0 -0.43909647558E-01 -0.39620376252E-01 -0.23299602502E-01  0.63568576834E-01  0.51100000000E-03 0.  1.
         11    1    4    4    0    0 -0.36529225902E-01 -0.54749612693E-01 -0.14673383028E-01  0.67434959223E-01  0.51100000000E-03 0. -1.
</event>
<event>
 8    1  0.1118868E+005  0.1043930E+01  0.7957747E-01            NaN
         13   -1    0    0    0    0  0.00000000000E+00  0.00000000000E+00  0.74505805969E-08  0.10566000000E+00  0.10566000000E+00 0. -1.
     999900   -1    0    0    0    0 -0.00000000000E+00 -0.00000000000E+00 -0.74505805969E-08  0.93827000000E+00  0.93827000000E+00 0.  1.
     999902    2    1    2    0    0  0.36123129659E-02 -0.20664490636E-01 -0.11069191307E-01  0.10202108732E+01  0.10199351101E+01 0.  0.
     999903    2    3    3    0    0  0.61904748885E-01  0.31881928367E-01  0.10678145467E+00  0.12889279926E+00  0.19037314687E-01 0.  0.
         14    1    1    2    0    0 -0.36123129659E-02  0.20664490636E-01  0.11069191307E-01  0.23719126763E-01  0.00000000000E+00 0.  1.
     999901    1    3    3    0    0 -0.58292435919E-01 -0.52546419004E-01 -0.11785064597E+00  0.89131807397E+00  0.88000000000E+00 0.  1.
        -11    1    4    4    0    0  0.35645643602E-01  0.13012909327E-01  0.72068700527E-01  0.81450024147E-01  0.51100000000E-03 0. -1.
         11    1    4    4    0    0  0.26259105283E-01  0.18869019041E-01  0.34712754139E-01  0.47442775116E-01  0.51100000000E-03 0.  1.
</event>
<event>
 8    1  0.1118868E+005  0.1043930E+01  0.7957747E-01            NaN
         13   -1    0    0    0    0  0.00000000000E+00  0.00000000000E+00  0.74505805969E-08  0.10566000000E+00  0.10566000000E+00 0. -1.
     999900   -1    0    0    0    0 -0.00000000000E+00 -0.00000000000E+00 -0.74505805969E-08  0.93827000000E+00  0.93827000000E+00 0. -1.
     999902    2    1    2    0    0  0.56583114424E-03  0.21849781142E-01 -0.13997271179E-01  0.10179751026E+01  0.10176441680E+01 0.  0.
     999903    2    3    3    0    0  0.28309093815E-01 -0.84992421291E-01  0.85527066019E-01  0.12551219658E+00  0.20330174610E-01 0.  0.
         14    1    1    2    0    0 -0.56583114424E-03 -0.21849781142E-01  0.13997271179E-01  0.25954897444E-01  0.00000000000E+00 0.  1.
     999901    1    3    3    0    0 -0.27743262670E-01  0.10684220243E+00 -0.99524337198E-01  0.89246290597E+00  0.88000000000E+00 0. -1.
        -11    1    4    4    0    0  0.15113615269E-01 -0.20168530081E-01  0.17966215922E-01  0.30955403530E-01  0.51100000000E-03 0.  1.
         11    1    4    4    0    0  0.13195478546E-01 -0.64823891210E-01  0.67560850097E-01  0.94556793053E-01  0.51100000000E-03 0. -1.
</event>
<event>
 8    1  0.1118868E+005  0.1043930E+01  0.7957747E-01            NaN
         13   -1    0    0    0    0  0.00000000000E+00  0.00000000000E+00  0.74505805969E-08  0.10566000000E+00  0.10566000000E+00 0. -1.
     999900   -1    0    0    0    0 -0.00000000000E+00 -0.00000000000E+00 -0.74505805969E-08  0.93827000000E+00  0.93827000000E+00 0. -1.
     999902    2    1    2    0    0 -0.77165978221E-02 -0.39247463861E-02 -0.22594887845E-01  0.10197333376E+01  0.10194462228E+01 0.  0.
     999903    2    3    3    0    0  0.45804597474E-01 -0.12017678365E+00  0.89869652403E-03  0.13016546325E+00  0.20042946109E-01 0.  0.
         14    1    1    2    0    0  0.77165978221E-02  0.39247463861E-02  0.22594887845E-01  0.24196662432E-01  0.00000000000E+00 0. -1.
     999901    1    3    3    0    0 -0.53521195296E-01  0.11625203727E+00 -0.23493584369E-01  0.88956787432E+00  0.88000000000E+00 0. -1.
        -11    1    4    4    0    0  0.41634104146E-01 -0.96534636761E-01 -0.56274052570E-02  0.10528182908E+00  0.51100000000E-03 0. -1.
         11    1    4    4    0    0  0.41704933277E-02 -0.23642146890E-01  0.65261017810E-02  0.24883634173E-01  0.51100000000E-03 0.  1.
</event>
<event>
 8    1  0.1118868E+005  0.1043930E+01  0.7957747E-01            NaN
         13   -1    0    0    0    0  0.00000000000E+00  0.00000000000E+00  0.74505805969E-08  0.10566000000E+00  0.10566000000E+00 0. -1.
     999900   -1    0    0    0    0 -0.00000000000E+00 -0.00000000000E+00 -0.74505805969E-08  0.93827000000E+00  0.93827000000E+00 0.  1.
     999902    2    1    2    0    0 -0.46877291520E-02 -0.20542424001E-01 -0.99066853209E-02  0.10206467785E+01  0.10203811729E+01 0.  0.
     999903    2    3    3    0    0  0.79731012238E-01 -0.13069464312E-01  0.99516586603E-01  0.12982927675E+00  0.20597205684E-01 0.  0.
         14    1    1    2    0    0  0.46877291520E-02  0.20542424001E-01  0.99066853209E-02  0.23283221480E-01  0.00000000000E+00 0. -1.
     999901    1    3    3    0    0 -0.84418741390E-01 -0.74729596888E-02 -0.10942327192E+00  0.89081750177E+00  0.88000000000E+00 0.  1.
        -11    1    4    4    0    0  0.27385216314E-01 -0.28125575241E-02  0.19811557500E-01  0.33920782479E-01  0.51100000000E-03 0.  1.
         11    1    4    4    0    0  0.52345795924E-01 -0.10256906788E-01  0.79705029103E-01  0.95908494269E-01  0.51100000000E-03 0. -1.
</event>
<event>
 8    1  0.1118868E+005  0.1043930E+01  0.7957747E-01            NaN
         13   -1    0    0    0    0  0.00000000000E+00  0.00000000000E+00  0.74505805969E-08  0.10566000000E+00  0.10566000000E+00 0.  1.
     999900   -1    0    0    0    0 -0.00000000000E+00 -0.00000000000E+00 -0.74505805969E-08  0.93827000000E+00  0.93827000000E+00 0.  1.
     999902    2    1    2    0    0 -0.84228694407E-02 -0.19849567409E-01 -0.10021584269E-01  0.10201522329E+01  0.10198750885E+01 0.  0.
     999903    2    3    3    0    0  0.68341716230E-01 -0.10681316646E+00  0.29296047930E-01  0.13166962455E+00  0.19974706504E-01 0.  0.
         14    1    1    2    0    0  0.84228694407E-02  0.19849567409E-01  0.10021584269E-01  0.23777767078E-01  0.00000000000E+00 0.  1.
     999901    1    3    3    0    0 -0.76764585671E-01  0.86963599047E-01 -0.39317632199E-01  0.88848260837E+00  0.88000000000E+00 0.  1.
        -11    1    4    4    0    0  0.16729794246E-01 -0.12702453156E-01  0.56990867400E-02  0.21771059744E-01  0.51100000000E-03 0.  1.
         11    1    4    4    0    0  0.51611921985E-01 -0.94110713300E-01  0.23596961190E-01  0.10989856481E+00  0.51100000000E-03 0. -1.
</event>
<event>
 8    1  0.1118868E+005  0.1043930E+01  0.7957747E-01            NaN
         13   -1    0    0    0    0  0.00000000000E+00  0.00000000000E+00  0.74505805969E-08  0.10566000000E+00  0.10566000000E+00 0.  1.
     999900   -1    0    0    0    0 -0.00000000000E+00 -0.00000000000E+00 -0.74505805969E-08  0.93827000000E+00  0.93827000000E+00 0. -1.
     999902    2    1    2    0    0  0.37680463938E-02  0.13998305581E-01 -0.18257599938E-01  0.10206171133E+01  0.10203508226E+01 0.  0.
     999903    2    3    3    0    0  0.25222902760E-01  0.47549808482E-01 -0.12080094439E+00  0.13376811162E+00  0.20096278537E-01 0.  0.
         14    1    1    2    0    0 -0.37680463938E-02 -0.13998305581E-01  0.18257599938E-01  0.23312886742E-01  0.00000000000E+00 0.  1.
     999901    1    3    3    0    0 -0.21454856366E-01 -0.33551502901E-01  0.10254334445E+00  0.88684900163E+00  0.88000000000E+00 0.  1.
        -11    1    4    4    0    0  0.75646127072E-02  0.21915818055E-01 -0.74082140375E-01  0.77626999748E-01  0.51100000000E-03 0.  1.
         11    1    4    4    0    0  0.17658290053E-01  0.25633990426E-01 -0.46718804017E-01  0.56141111875E-01  0.51100000000E-03 0. -1.
</event>
<event>
 8    1  0.1118868E+005  0.1043930E+01  0.7957747E-01            NaN
         13   -1    0    0    0    0  0.00000000000E+00  0.00000000000E+00  0.74505805969E-08  0.10566000000E+00  0.10566000000E+00 0. -1.
     999900   -1    0    0    0    0 -0.00000000000E+00 -0.00000000000E+00 -0.74505805969E-08  0.93827000000E+00  0.93827000000E+00 0.  1.
     999902    2    1    2    0    0 -0.44358007544E-02  0.25724674520E-02 -0.22069499913E-01  0.10212726228E+01  0.10210212599E+01 0.  0.
     999903    2    3    3    0    0  0.31362231169E-01 -0.11313208812E+00  0.51772230291E-01  0.12991318662E+00  0.20362055953E-01 0.  0.
         14    1    1    2    0    0  0.44358007544E-02 -0.25724674520E-02  0.22069499913E-01  0.22657377243E-01  0.00000000000E+00 0. -1.
     999901    1    3    3    0    0 -0.35798031924E-01  0.11570455557E+00 -0.73841730204E-01  0.89135943614E+00  0.88000000000E+00 0.  1.
        -11    1    4    4    0    0  0.31883589691E-01 -0.83621259169E-01  0.36213161757E-01  0.96543940680E-01  0.51100000000E-03 0.  1.
         11    1    4    4    0    0 -0.52135852162E-03 -0.29510828950E-01  0.15559068534E-01  0.33369245941E-01  0.51100000000E-03 0. -1.
</event>
<event>
 8    1  0.1118868E+005  0.1043930E+01  0.7957747E-01            NaN
         13   -1    0    0    0    0  0.00000000000E+00  0.00000000000E+00  0.74505805969E-08  0.10566000000E+00  0.10566000000E+00 0.  1.
     999900   -1    0    0    0    0 -0.00000000000E+00 -0.00000000000E+00 -0.74505805969E-08  0.93827000000E+00  0.93827000000E+00 0. -1.
     999902    2    1    2    0    0 -0.44865552761E-02  0.14605978629E-02  0.22063245562E-01  0.10213678784E+01  0.10211186482E+01 0.  0.
     999903    2    3    3    0    0 -0.12661331468E+00 -0.40312006463E-02 -0.29055425084E-01  0.13144753162E+00  0.19673683164E-01 0.  0.
         14    1    1    2    0    0  0.44865552761E-02 -0.14605978629E-02 -0.22063245562E-01  0.22562121555E-01  0.00000000000E+00 0. -1.
     999901    1    3    3    0    0  0.12212675940E+00  0.54917985092E-02  0.51118670646E-01  0.88992034683E+00  0.88000000000E+00 0. -1.
        -11    1    4    4    0    0 -0.72021693350E-01 -0.67502731819E-02 -0.25380760257E-01  0.76662472001E-01  0.51100000000E-03 0.  1.
         11    1    4    4    0    0 -0.54591621326E-01  0.27190725356E-02 -0.36746648270E-02  0.54785059615E-01  0.51100000000E-03 0. -1.
</event>
<event>
 8    1  0.1118868E+005  0.1043930E+01  0.7957747E-01            NaN
         13   -1    0    0    0    0  0.00000000000E+00  0.00000000000E+00  0.74505805969E-08  0.10566000000E+00  0.10566000000E+00 0.  1.
     999900   -1    0    0    0    0 -0.00000000000E+00 -0.00000000000E+00 -0.74505805969E-08  0.93827000000E+00  0.93827000000E+00 0.  1.
     999902    2    1    2    0    0 -0.94076429770E-02 -0.17576595227E-01 -0.14727244819E-01  0.10191442745E+01  0.10188428339E+01 0.  0.
     999903    2    3    3    0    0  0.11685898028E+00 -0.85304027250E-02 -0.51060538582E-01  0.12934362160E+00  0.19844515766E-01 0.  0.
         14    1    1    2    0    0  0.94076429770E-02  0.17576595227E-01  0.14727244819E-01  0.24785725451E-01  0.00000000000E+00 0. -1.
     999901    1    3    3    0    0 -0.12626662326E+00 -0.90461925022E-02  0.36333293763E-01  0.88980065295E+00  0.88000000000E+00 0. -1.
        -11    1    4    4    0    0  0.46148796741E-01 -0.44865660375E-02 -0.98650006473E-02  0.47406962297E-01  0.51100000000E-03 0. -1.
         11    1    4    4    0    0  0.70710183541E-01 -0.40438366875E-02 -0.41195537935E-01  0.81936659306E-01  0.51100000000E-03 0.  1.
</event>
<event>
 7    1  0.1118868E+005  0.1043930E+01  0.7957747E-01            NaN
         13   -1    0    0    0    0  0.00000000000E+00  0.00000000000E+00  0.74505805969E-08  0.10566000000E+00  0.10566000000E+00 0.  1.
     999900   -1    0    0    0    0 -0.00000000000E+00 -0.00000000000E+00 -0.74505805969E-08  0.93827000000E+00  0.93827000000E+00 0. -1.
     999903    2    1    2    0    0  0.16205696431E-01 -0.58104367723E-01 -0.71695131262E-01  0.95920494663E-01  0.20537947907E-01 0.  0.
         14    1    1    2    0    0  0.58928165400E-01 -0.80836986054E-02  0.84318347991E-02  0.60074709309E-01  0.00000000000E+00 0. -1.
     999901    1    1    2    0    0 -0.75133861831E-01  0.66188066329E-01  0.63263296463E-01  0.88793479603E+00  0.88000000000E+00 0.  1.
        -11    1    3    3    0    0  0.10241567363E-01 -0.45903723872E-01 -0.66320568646E-01  0.81306337477E-01  0.51100000000E-03 0. -1.
         11    1    3    3    0    0  0.59641290683E-02 -0.12200643851E-01 -0.53745626160E-02  0.14614157185E-01  0.51100000000E-03 0.  1.
</event>
<event>
 8    1  0.1118868E+005  0.1043930E+01  0.7957747E-01            NaN
         13   -1    0    0    0    0  0.00000000000E+00  0.00000000000E+00  0.74505805969E-08  0.10566000000E+00  0.10566000000E+00 0.  1.
     999900   -1    0    0    0    0 -0.00000000000E+00 -0.00000000000E+00 -0.74505805969E-08  0.93827000000E+00  0.93827000000E+00 0.  1.
     999902    2    1    2    0    0 -0.17615261133E-01  0.10971483050E-01 -0.11346567846E-01  0.10202780346E+01  0.10200038492E+01 0.  0.
     999903    2    3    3    0    0 -0.12063387596E+00 -0.38418543643E-01  0.31545598566E-01  0.13185699271E+00  0.19042720750E-01 0.  0.
         14    1    1    2    0    0  0.17615261133E-01 -0.10971483050E-01  0.11346567846E-01  0.23651965393E-01  0.00000000000E+00 0.  1.
     999901    1    3    3    0    0  0.10301861483E+00  0.49390026693E-01 -0.42892166412E-01  0.88842104189E+00  0.88000000000E+00 0.  1.
        -11    1    4    4    0    0 -0.61743331524E-01 -0.29612601213E-01  0.16591015844E-01  0.70460400694E-01  0.51100000000E-03 0. -1.
         11    1    4    4    0    0 -0.58890544438E-01 -0.88059424297E-02  0.14954582722E-01  0.61396592020E-01  0.51100000000E-03 0.  1.
</event>
<event>
 8    1  0.1118868E+005  0.1043930E+01  0.7957747E-01            NaN
         13   -1    0    0    0    0  0.00000000000E+00  0.00000000000E+00  0.74505805969E-08  0.10566000000E+00  0.10566000000E+00 0. -1.
     999900   -1    0    0    0    0 -0.00000000000E+00 -0.00000000000E+00 -0.74505805969E-08  0.93827000000E+00  0.93827000000E+00 0. -1.
     999902    2    1    2    0    0  0.13434006143E-01 -0.24804165988E-02  0.19939315926E-01  0.10197597433E+01  0.10194732624E+01 0.  0.
     999903    2    3    3    0    0 -0.14313878378E-01 -0.62253509827E-02 -0.12468175489E+00  0.12751581719E+00  0.21704873245E-01 0.  0.
         14    1    1    2    0    0 -0.13434006143E-01  0.24804165988E-02 -0.19939315926E-01  0.24170256663E-01  0.00000000000E+00 0.  1.
     999901    1    3    3    0    0  0.27747884521E-01  0.37449343839E-02  0.14462107081E+00  0.89224392615E+00  0.88000000000E+00 0.  1.
        -11    1    4    4    0    0 -0.87867925854E-02  0.76994520241E-02 -0.50788428695E-01  0.52117318577E-01  0.51100000000E-03 0. -1.
         11    1    4    4    0    0 -0.55270857926E-02 -0.13924803007E-01 -0.73893326191E-01  0.75398498610E-01  0.51100000000E-03 0.  1.
</event>
<event>
 8    1  0.1118868E+005  0.1043930E+01  0.7957747E-01            NaN
         13   -1    0    0    0    0  0.00000000000E+00  0.00000000000E+00  0.74505805969E-08  0.10566000000E+00  0.10566000000E+00 0.  1.
     999900   -1    0    0    0    0 -0.00000000000E+00 -0.00000000000E+00 -0.74505805969E-08  0.93827000000E+00  0.93827000000E+00 0. -1.
     999902    2    1    2    0    0 -0.14116171605E-01  0.85019122823E-02 -0.16532686750E-01  0.10205873664E+01  0.10203203879E+01 0.  0.
     999903    2    3    3    0    0  0.70432987291E-01 -0.75849087755E-01 -0.76964838100E-01  0.13046619688E+00  0.19594703668E-01 0.  0.
         14    1    1    2    0    0  0.14116171605E-01 -0.85019122823E-02  0.16532686750E-01  0.23342633622E-01  0.00000000000E+00 0.  1.
     999901    1    3    3    0    0 -0.84549158896E-01  0.84351000037E-01  0.60432151350E-01  0.89012116950E+00  0.88000000000E+00 0.  1.
        -11    1    4    4    0    0  0.26982714652E-01 -0.34259936753E-01 -0.21399278385E-01  0.48579835248E-01  0.51100000000E-03 0. -1.
         11    1    4    4    0    0  0.43450272640E-01 -0.41589151002E-01 -0.55565559714E-01  0.81886361629E-01  0.51100000000E-03 0.  1.
</event>
<event>
 8    1  0.1118868E+005  0.1043930E+01  0.7957747E-01            NaN
         13   -1    0    0    0    0  0.00000000000E+00  0.00000000000E+00  0.74505805969E-08  0.10566000000E+00  0.10566000000E+00 0. -1.
     999900   -1    0    0    0    0 -0.00000000000E+00 -0.00000000000E+00 -0.74505805969E-08  0.93827000000E+00  0.93827000000E+00 0.  1.
     999902    2    1    2    0    0 -0.14273392438E-01  0.19249101899E-01  0.73935416480E-03  0.10199549234E+01  0.10196731052E+01 0.  0.
     999903    2    3    3    0    0 -0.71826811824E-01  0.50643664974E-01 -0.96597553072E-01  0.13216413258E+00  0.20307608971E-01 0.  0.
         14    1    1    2    0    0  0.14273392438E-01 -0.19249101899E-01 -0.73935416480E-03  0.23975076646E-01  0.00000000000E+00 0. -1.
     999901    1    3    3    0    0  0.57553419387E-01 -0.31394563074E-01  0.97336907237E-01  0.88779079077E+00  0.88000000000E+00 0. -1.
        -11    1    4    4    0    0 -0.37875000347E-01  0.38486181122E-01 -0.54343032194E-01  0.76610234680E-01  0.51100000000E-03 0. -1.
         11    1    4    4    0    0 -0.33951811477E-01  0.12157483851E-01 -0.42254520878E-01  0.55553897899E-01  0.51100000000E-03 0.  1.
</event>
<event>
 8    1  0.1118868E+005  0.1043930E+01  0.7957747E-01            NaN
         13   -1    0    0    0    0  0.00000000000E+00  0.00000000000E+00  0.74505805969E-08  0.10566000000E+00  0.10566000000E+00 0. -1.
     999900   -1    0    0    0    0 -0.00000000000E+00 -0.00000000000E+00 -0.74505805969E-08  0.93827000000E+00  0.93827000000E+00 0. -1.
     999902    2    1    2    0    0  0.14093370642E-01 -0.14501283879E-01 -0.12536725327E-01  0.10201375682E+01  0.10198600778E+01 0.  0.
     999903    2    3    3    0    0 -0.11746752649E+00  0.47174803001E-01 -0.43253349027E-02  0.12818485851E+00  0.19712118385E-01 0.  0.
         14    1    1    2    0    0 -0.14093370642E-01  0.14501283879E-01  0.12536725327E-01  0.23792431824E-01  0.00000000000E+00 0. -1.
     999901    1    3    3    0    0  0.13156089713E+00 -0.61676086880E-01 -0.82113904239E-02  0.89195270967E+00  0.88000000000E+00 0. -1.
        -11    1    4    4    0    0 -0.27637069811E-01  0.19563396347E-01 -0.48084070958E-02  0.34204034911E-01  0.51100000000E-03 0.  1.
         11    1    4    4    0    0 -0.89830456680E-01  0.27611406653E-01  0.48307219310E-03  0.93980823599E-01  0.51100000000E-03 0. -1.
</event>
<event>
 8    1  0.1118868E+005  0.1043930E+01  0.7957747E-01            NaN
         13   -1    0    0    0    0  0.00000000000E+00  0.00000000000E+00  0.74505805969E-08  0.10566000000E+00  0.10566000000E+00 0. -1.
     999900   -1    0    0    0    0 -0.00000000000E+00 -0.00000000000E+00 -0.74505805969E-08  0.93827000000E+00  0.93827000000E+00 0.  1.
     999902    2    1    2    0    0 -0.66724065233E-02  0.24382041317E-02  0.22280729159E-01  0.10205441765E+01  0.10202761976E+01 0.  0.
     999903    2    3    3    0    0 -0.12689571432E-01  0.76467308658E-01  0.10660048904E+00  0.13339912834E+00  0.20576410315E-01 0.  0.
         14    1    1    2    0    0  0.66724065233E-02 -0.24382041317E-02 -0.22280729159E-01  0.23385823485E-01  0.00000000000E+00 0. -1.
     999901    1    3    3    0    0  0.60171649088E-02 -0.74029104527E-01 -0.84319759886E-01  0.88714504817E+00  0.88000000000E+00 0.  1.
        -11    1    4    4    0    0 -0.97510934660E-02  0.33525123266E-01  0.32496755726E-01  0.47700293159E-01  0.51100000000E-03 0. -1.
         11    1    4    4    0    0 -0.29384779661E-02  0.42942185393E-01  0.74103733318E-01  0.85698835183E-01  0.51100000000E-03 0.  1.
</event>
<event>
 8    1  0.1118868E+005  0.1043930E+01  0.7957747E-01            NaN
         13   -1    0    0    0    0  0.00000000000E+00  0.00000000000E+00  0.74505805969E-08  0.10566000000E+00  0.10566000000E+00 0.  1.
     999900   -1    0    0    0    0 -0.00000000000E+00 -0.00000000000E+00 -0.74505805969E-08  0.93827000000E+00  0.93827000000E+00 0. -1.
     999902    2    1    2    0    0  0.84405507786E-02 -0.17577341556E-02  0.22203147794E-01  0.10201116814E+01  0.10198335797E+01 0.  0.
     999903    2    3    3    0    0  0.10463362285E-01  0.46574600549E-01  0.12266143297E+00  0.13307618418E+00  0.19615511505E-01 0.  0.
         14    1    1    2    0    0 -0.84405507786E-02  0.17577341556E-02 -0.22203147794E-01  0.23818318554E-01  0.00000000000E+00 0. -1.
     999901    1    3    3    0    0 -0.20228115064E-02 -0.48332334705E-01 -0.10045828518E+00  0.88703549726E+00  0.88000000000E+00 0.  1.
        -11    1    4    4    0    0  0.10464237507E-01  0.97452076708E-02  0.26767969057E-01  0.30352176653E-01  0.51100000000E-03 0. -1.
         11    1    4    4    0    0 -0.87522209964E-06  0.36829392878E-01  0.95893463914E-01  0.10272400753E+00  0.51100000000E-03 0.  1.
</event>
<event>
 8    1  0.1118868E+005  0.1043930E+01  0.7957747E-01            NaN
         13   -1    0    0    0    0  0.00000000000E+00  0.00000000000E+00  0.74505805969E-08  0.10566000000E+00  0.10566000000E+00 0.  1.
     999900   -1    0    0    0    0 -0.00000000000E+00 -0.00000000000E+00 -0.74505805969E-08  0.93827000000E+00  0.93827000000E+00 0. -1.
     999902    2    1    2    0    0  0.15837314244E-01  0.16973496338E-01 -0.37341168042E-02  0.10204169456E+01  0.10201460087E+01 0.  0.
     999903    2    3    3    0    0 -0.38782903171E-01  0.95470252323E-01 -0.79846764481E-01  0.13196984867E+00  0.20539048247E-01 0.  0.
         14    1    1    2    0    0 -0.15837314244E-01 -0.16973496338E-01  0.37341168042E-02  0.23513054431E-01  0.00000000000E+00 0.  1.
     999901    1    3    3    0    0  0.54620217415E-01 -0.78496755986E-01  0.76112647677E-01  0.88844709690E+00  0.88000000000E+00 0.  1.
        -11    1    4    4    0    0 -0.28601443710E-01  0.85354346033E-01 -0.63234643433E-01  0.11001040051E+00  0.51100000000E-03 0. -1.
         11    1    4    4    0    0 -0.10181459462E-01  0.10115906291E-01 -0.16612121048E-01  0.21959448162E-01  0.51100000000E-03 0.  1.
</event>
<event>
 8    1  0.1118868E+005  0.1043930E+01  0.7957747E-01            NaN
         13   -1    0    0    0    0  0.00000000000E+00  0.00000000000E+00  0.74505805969E-08  0.10566000000E+00  0.10566000000E+00 0.  1.
     999900   -1    0    0    0    0 -0.00000000000E+00 -0.00000000000E+00 -0.74505805969E-08  0.93827000000E+00  0.93827000000E+00 0. -1.
     999902    2    1    2    0    0 -0.22395407158E-01  0.29395725793E-02 -0.39690640128E-02  0.10209964260E+01  0.10207388270E+01 0.  0.
     999903    2    3    3    0    0 -0.64080866125E-01 -0.87873547340E-01  0.72161592469E-01  0.13207540749E+00  0.20211385657E-01 0.  0.
         14    1    1    2    0    0  0.22395407158E-01 -0.29395725793E-02  0.39690640128E-02  0.22933574031E-01  0.00000000000E+00 0.  1.
     999901    1    3    3    0    0  0.41685458967E-01  0.90813119920E-01 -0.76130656481E-01  0.88892101848E+00  0.88000000000E+00 0. -1.
        -11    1    4    4    0    0 -0.28251141768E-01 -0.22850964995E-01  0.25330642425E-01  0.44296683612E-01  0.51100000000E-03 0. -1.
         11    1    4    4    0    0 -0.35829724358E-01 -0.65022582346E-01  0.46830950044E-01  0.87778723877E-01  0.51100000000E-03 0.  1.
</event>
<event>
 8    1  0.1118868E+005  0.1043930E+01  0.7957747E-01            NaN
         13   -1    0    0    0    0  0.00000000000E+00  0.00000000000E+00  0.74505805969E-08  0.10566000000E+00  0.10566000000E+00 0. -1.
     999900   -1    0    0    0    0 -0.00000000000E+00 -0.00000000000E+00 -0.74505805969E-08  0.93827000000E+00  0.93827000000E+00 0.  1.
     999902    2    1    2    0    0 -0.19011548844E-01 -0.98826144380E-02 -0.10563233760E-01  0.10200409447E+01  0.10197611690E+01 0.  0.
     999903    2    3    3    0    0  0.23011924760E-01  0.69140595282E-01  0.10328199843E+00  0.12820498614E+00  0.21433074342E-01 0.  0.
         14    1    1    2    0    0  0.19011548844E-01  0.98826144380E-02  0.10563233760E-01  0.23889055340E-01  0.00000000000E+00 0.  1.
     999901    1    3    3    0    0 -0.42023473604E-01 -0.79023209720E-01 -0.11384523219E+00  0.89183595852E+00  0.88000000000E+00 0.  1.
        -11    1    4    4    0    0  0.25157390621E-01  0.45785142298E-01  0.75982416677E-01  0.92210424157E-01  0.51100000000E-03 0.  1.
         11    1    4    4    0    0 -0.21454658613E-02  0.23355452984E-01  0.27299581752E-01  0.35994561988E-01  0.51100000000E-03 0. -1.
</event>
<event>
 8    1  0.1118868E+005  0.1043930E+01  0.7957747E-01            NaN
         13   -1    0    0    0    0  0.00000000000E+00  0.00000000000E+00  0.74505805969E-08  0.10566000000E+00  0.10566000000E+00 0.  1.
     999900   -1    0    0    0    0 -0.00000000000E+00 -0.00000000000E+00 -0.74505805969E-08  0.93827000000E+00  0.93827000000E+00 0.  1.
     999902    2    1    2    0    0  0.21040990724E-01  0.15098620371E-02 -0.11480578410E-01  0.10199132006E+01  0.10196303889E+01 0.  0.
     999903    2    3    3    0    0 -0.10088054086E+00 -0.14284379711E-01 -0.76600695330E-01  0.12898393988E+00  0.19704395297E-01 0.  0.
         14    1    1    2    0    0 -0.21040990724E-01 -0.15098620371E-02  0.11480578410E-01  0.24016799425E-01  0.00000000000E+00 0.  1.
     999901    1    3    3    0    0  0.12192153158E+00  0.15794241748E-01  0.65120116921E-01  0.89092926070E+00  0.88000000000E+00 0. -1.
        -11    1    4    4    0    0 -0.67671678966E-01 -0.15165339994E-01 -0.42319388742E-01  0.81244294912E-01  0.51100000000E-03 0. -1.
         11    1    4    4    0    0 -0.33208861892E-01  0.88096028255E-03 -0.34281306588E-01  0.47739644967E-01  0.51100000000E-03 0.  1.
</event>
<event>
 8    1  0.1118868E+005  0.1043930E+01  0.7957747E-01            NaN
         13   -1    0    0    0    0  0.00000000000E+00  0.00000000000E+00  0.74505805969E-08  0.10566000000E+00  0.10566000000E+00 0. -1.
     999900   -1    0    0    0    0 -0.00000000000E+00 -0.00000000000E+00 -0.74505805969E-08  0.93827000000E+00  0.93827000000E+00 0.  1.
     999902    2    1    2    0    0  0.21104406280E-01 -0.37407439932E-02 -0.13087694196E-01  0.10188167193E+01  0.10185071578E+01 0.  0.
     999903    2    3    3    0    0  0.10799663051E+00 -0.70975862615E-01  0.12642184995E-01  0.13161164348E+00  0.21469852882E-01 0.  0.
         14    1    1    2    0    0 -0.21104406280E-01  0.37407439932E-02  0.13087694196E-01  0.25113280738E-01  0.00000000000E+00 0. -1.
     999901    1    3    3    0    0 -0.86892224231E-01  0.67235118622E-01 -0.25729879191E-01  0.88720507578E+00  0.88000000000E+00 0.  1.
        -11    1    4    4    0    0  0.99429989117E-01 -0.58834765726E-01  0.71265625757E-02  0.11575362374E+00  0.51100000000E-03 0. -1.
         11    1    4    4    0    0  0.85666413941E-02 -0.12141096889E-01  0.55156224194E-02  0.15858019741E-01  0.51100000000E-03 0.  1.
</event>
<event>
 8    1  0.1118868E+005  0.1043930E+01  0.7957747E-01            NaN
         13   -1    0    0    0    0  0.00000000000E+00  0.00000000000E+00  0.74505805969E-08  0.10566000000E+00  0.10566000000E+00 0.  1.
     999900   -1    0    0    0    0 -0.00000000000E+00 -0.00000000000E+00 -0.74505805969E-08  0.93827000000E+00  0.93827000000E+00 0.  1.
     999902    2    1    2    0    0 -0.17305562856E-01  0.84824457161E-02  0.13726415901E-01  0.10202688740E+01  0.10199944737E+01 0.  0.
     999903    2    3    3    0    0  0.54431631033E-01  0.11344190758E+00 -0.26549964238E-01  0.13022117839E+00  0.20513065333E-01 0.  0.
         14    1    1    2    0    0  0.17305562856E-01 -0.84824457161E-02 -0.13726415901E-01  0.23661126021E-01  0.00000000000E+00 0. -1.
     999901    1    3    3    0    0 -0.71737193889E-01 -0.10495946186E+00  0.40276380139E-01  0.89004769559E+00  0.88000000000E+00 0.  1.
        -11    1    4    4    0    0  0.28749775439E-01  0.37560200638E-01 -0.11965175216E-01  0.48792876516E-01  0.51100000000E-03 0. -1.
         11    1    4    4    0    0  0.25681855594E-01  0.75881706939E-01 -0.14584789022E-01  0.81428301877E-01  0.51100000000E-03 0.  1.
</event>
<event>
 8    1  0.1118868E+005  0.1043930E+01  0.7957747E-01            NaN
         13   -1    0    0    0    0  0.00000000000E+00  0.00000000000E+00  0.74505805969E-08  0.10566000000E+00  0.10566000000E+00 0.  1.
     999900   -1    0    0    0    0 -0.00000000000E+00 -0.00000000000E+00 -0.74505805969E-08  0.93827000000E+00  0.93827000000E+00 0. -1.
     999902    2    1    2    0    0  0.18104702584E-01 -0.32112136547E-02  0.13851439407E-01  0.10209092589E+01  0.10206496756E+01 0.  0.
     999903    2    3    3    0    0 -0.91000443471E-01  0.68252991900E-01 -0.56528646042E-01  0.12851673200E+00  0.19532305699E-01 0.  0.
         14    1    1    2    0    0 -0.18104702584E-01  0.32112136547E-02 -0.13851439407E-01  0.23020741136E-01  0.00000000000E+00 0. -1.
     999901    1    3    3    0    0  0.10910514606E+00 -0.71464205555E-01  0.70380085449E-01  0.89239252686E+00  0.88000000000E+00 0.  1.
        -11    1    4    4    0    0 -0.60455345745E-01  0.51007741089E-01 -0.47597250033E-01  0.92316833849E-01  0.51100000000E-03 0. -1.
         11    1    4    4    0    0 -0.30545097727E-01  0.17245250811E-01 -0.89313960085E-02  0.36199898153E-01  0.51100000000E-03 0.  1.
</event>
<event>
 8    1  0.1118868E+005  0.1043930E+01  0.7957747E-01            NaN
         13   -1    0    0    0    0  0.00000000000E+00  0.00000000000E+00  0.74505805969E-08  0.10566000000E+00  0.10566000000E+00 0.  1.
     999900   -1    0    0    0    0 -0.00000000000E+00 -0.00000000000E+00 -0.74505805969E-08  0.93827000000E+00  0.93827000000E+00 0. -1.
     999902    2    1    2    0    0  0.28847580810E-01  0.12748854327E-01  0.24438497976E-02  0.10122963374E+01  0.10118019501E+01 0.  0.
     999903    2    3    3    0    0 -0.21721144573E-01 -0.90636279287E-01 -0.75126287398E-01  0.12141878804E+00  0.20293343395E-01 0.  0.
         14    1    1    2    0    0 -0.28847580810E-01 -0.12748854327E-01 -0.24438497976E-02  0.31633662562E-01  0.00000000000E+00 0. -1.
     999901    1    3    3    0    0  0.50568725383E-01  0.10338513361E+00  0.77570137196E-01  0.89087754940E+00  0.88000000000E+00 0.  1.
        -11    1    4    4    0    0 -0.23418574859E-01 -0.65126609220E-01 -0.60705939083E-01  0.92061810963E-01  0.51100000000E-03 0.  1.
         11    1    4    4    0    0  0.16974302861E-02 -0.25509670067E-01 -0.14420348316E-01  0.29356977076E-01  0.51100000000E-03 0. -1.
</event>
<event>
 8    1  0.1118868E+005  0.1043930E+01  0.7957747E-01            NaN
         13   -1    0    0    0    0  0.00000000000E+00  0.00000000000E+00  0.74505805969E-08  0.10566000000E+00  0.10566000000E+00 0.  1.
     999900   -1    0    0    0    0 -0.00000000000E+00 -0.00000000000E+00 -0.74505805969E-08  0.93827000000E+00  0.93827000000E+00 0. -1.
     999902    2    1    2    0    0 -0.15286222284E-01 -0.14817671113E-01 -0.56710765268E-02  0.10218983619E+01  0.10216608385E+01 0.  0.
     999903    2    3    3    0    0  0.35116391856E-01  0.44633935150E-01  0.11545594831E+00  0.13018839046E+00  0.19839149844E-01 0.  0.
         14    1    1    2    0    0  0.15286222284E-01  0.14817671113E-01  0.56710765268E-02  0.22031638112E-01  0.00000000000E+00 0. -1.
     999901    1    3    3    0    0 -0.50402614141E-01 -0.59451606263E-01 -0.12112702484E+00  0.89170997143E+00  0.88000000000E+00 0. -1.
        -11    1    4    4    0    0  0.21705009248E-01  0.22610614771E-01  0.42511840032E-01  0.52819172567E-01  0.51100000000E-03 0. -1.
         11    1    4    4    0    0  0.13411382609E-01  0.22023320379E-01  0.72944108276E-01  0.77369217892E-01  0.51100000000E-03 0.  1.
</event>
<event>
 8    1  0.1118868E+005  0.1043930E+01  0.7957747E-01            NaN
         13   -1    0    0    0    0  0.00000000000E+00  0.00000000000E+00  0.74505805969E-08  0.10566000000E+00  0.10566000000E+00 0.  1.
     999900   -1    0    0    0    0 -0.00000000000E+00 -0.00000000000E+00 -0.74505805969E-08  0.93827000000E+00  0.93827000000E+00 0.  1.
     999902    2    1    2    0    0 -0.11351768197E-01 -0.70582110442E-02  0.19151444398E-01  0.10205749404E+01  0.10203076743E+01 0.  0.
     999903    2    3    3    0    0  0.10906726028E-01  0.10338107182E+00 -0.72956775603E-01  0.12862415707E+00  0.20368603125E-01 0.  0.
         14    1    1    2    0    0  0.11351768197E-01  0.70582110442E-02 -0.19151444398E-01  0.23355059556E-01  0.00000000000E+00 0.  1.
     999901    1    3    3    0    0 -0.22258494225E-01 -0.11043928286E+00  0.92108220001E-01  0.89195078337E+00  0.88000000000E+00 0. -1.
        -11    1    4    4    0    0  0.13953231941E-01  0.47140655081E-01 -0.39873995108E-01  0.63301900840E-01  0.51100000000E-03 0.  1.
         11    1    4    4    0    0 -0.30465059125E-02  0.56240416738E-01 -0.33082780495E-01  0.65322256233E-01  0.51100000000E-03 0. -1.
</event>
<event>
 8    1  0.1118868E+005  0.1043930E+01  0.7957747E-01            NaN
         13   -1    0    0    0    0  0.00000000000E+00  0.00000000000E+00  0.74505805969E-08  0.10566000000E+00  0.10566000000E+00 0.  1.
     999900   -1    0    0    0    0 -0.00000000000E+00 -0.00000000000E+00 -0.74505805969E-08  0.93827000000E+00  0.93827000000E+00 0. -1.
     999902    2    1    2    0    0  0.26325985556E-02 -0.38066949347E-03 -0.22609384924E-01  0.10211646805E+01  0.10209108898E+01 0.  0.
     999903    2    3    3    0    0 -0.11448085840E+00  0.58720550737E-01 -0.18322187430E-01  0.13143050893E+00  0.19603726821E-01 0.  0.
         14    1    1    2    0    0 -0.26325985556E-02  0.38066949347E-03  0.22609384924E-01  0.22765319481E-01  0.00000000000E+00 0.  1.
     999901    1    3    3    0    0  0.11711345696E+00 -0.59101220231E-01 -0.42871974940E-02  0.88973417159E+00  0.88000000000E+00 0.  1.
        -11    1    4    4    0    0 -0.19609157890E-01  0.13929707122E-01  0.33791405037E-02  0.24294763329E-01  0.51100000000E-03 0. -1.
         11    1    4    4    0    0 -0.94871700514E-01  0.44790843615E-01 -0.21701327934E-01  0.10713574560E+00  0.51100000000E-03 0.  1.
</event>
<event>
 8    1  0.1118868E+005  0.1043930E+01  0.7957747E-01            NaN
         13   -1    0    0    0    0  0.00000000000E+00  0.00000000000E+00  0.74505805969E-08  0.10566000000E+00  0.10566000000E+00 0.  1.
     999900   -1    0    0    0    0 -0.00000000000E+00 -0.00000000000E+00 -0.74505805969E-08  0.93827000000E+00  0.93827000000E+00 0.  1.
     999902    2    1    2    0    0  0.94429521930E-03 -0.23412192952E-01 -0.38816595501E-04  0.10204987393E+01  0.10202297059E+01 0.  0.
     999903    2    3    3    0    0  0.10490297699E-02  0.15401983649E-01  0.12773747145E+00  0.13042383734E+00  0.21335279968E-01 0.  0.
         14    1    1    2    0    0 -0.94429521930E-03  0.23412192952E-01  0.38816595501E-04  0.23431260721E-01  0.00000000000E+00 0.  1.
     999901    1    3    3    0    0 -0.10473455056E-03 -0.38814176600E-01 -0.12777628804E+00  0.89007490194E+00  0.88000000000E+00 0.  1.
        -11    1    4    4    0    0 -0.64833163147E-02  0.17028369942E-01  0.99147669603E-01  0.10080932636E+00  0.51100000000E-03 0.  1.
         11    1    4    4    0    0  0.75323460846E-02 -0.16263862929E-02  0.28589801844E-01  0.29614510977E-01  0.51100000000E-03 0. -1.
</event>
<event>
 8    1  0.1118868E+005  0.1043930E+01  0.7957747E-01            NaN
         13   -1    0    0    0    0  0.00000000000E+00  0.00000000000E+00  0.74505805969E-08  0.10566000000E+00  0.10566000000E+00 0.  1.
     999900   -1    0    0    0    0 -0.00000000000E+00 -0.00000000000E+00 -0.74505805969E-08  0.93827000000E+00  0.93827000000E+00 0.  1.
     999902    2    1    2    0    0 -0.40776570489E-02 -0.14962635972E-01  0.17646797399E-01  0.10204370815E+01  0.10201666139E+01 0.  0.
     999903    2    3    3    0    0 -0.11134798712E+00  0.60263042151E-01  0.25907575920E-01  0.13069888019E+00  0.19518870561E-01 0.  0.
         14    1    1    2    0    0  0.40776570489E-02  0.14962635972E-01 -0.17646797399E-01  0.23492918522E-01  0.00000000000E+00 0. -1.
     999901    1    3    3    0    0  0.10727033007E+00 -0.75225678123E-01 -0.82607785209E-02  0.88973820128E+00  0.88000000000E+00 0.  1.
        -11    1    4    4    0    0 -0.35051289978E-01  0.29371968804E-01  0.11125848934E-01  0.47067516570E-01  0.51100000000E-03 0.  1.
         11    1    4    4    0    0 -0.76296697146E-01  0.30891073347E-01  0.14781726986E-01  0.83631363624E-01  0.51100000000E-03 0. -1.
</event>
<event>
 8    1  0.1118868E+005  0.1043930E+01  0.7957747E-01            NaN
         13   -1    0    0    0    0  0.00000000000E+00  0.00000000000E+00  0.74505805969E-08  0.10566000000E+00  0.10566000000E+00 0. -1.
     999900   -1    0    0    0    0 -0.00000000000E+00 -0.00000000000E+00 -0.74505805969E-08  0.93827000000E+00  0.93827000000E+00 0.  1.
     999902    2    1    2    0    0  0.30799654782E-02 -0.23059163128E-02  0.24157812686E-01  0.10194677157E+01  0.10191741854E+01 0.  0.
     999903    2    3    3    0    0  0.17409951292E-01  0.10516528518E+00  0.74248003748E-01  0.13139990589E+00  0.19756659549E-01 0.  0.
         14    1    1    2    0    0 -0.30799654782E-02  0.23059163128E-02 -0.24157812686E-01  0.24462284259E-01  0.00000000000E+00 0.  1.
     999901    1    3    3    0    0 -0.14329985814E-01 -0.10747120150E+00 -0.50090191062E-01  0.88806780985E+00  0.88000000000E+00 0.  1.
        -11    1    4    4    0    0  0.14427267461E-01  0.89665841110E-01  0.53785250683E-01  0.10555199392E+00  0.51100000000E-03 0. -1.
         11    1    4    4    0    0  0.29826838307E-02  0.15499444075E-01  0.20462753065E-01  0.25847911975E-01  0.51100000000E-03 0.  1.
</event>
<event>
 8    1  0.1118868E+005  0.1043930E+01  0.7957747E-01            NaN
         13   -1    0    0    0    0  0.00000000000E+00  0.00000000000E+00  0.74505805969E-08  0.10566000000E+00  0.10566000000E+00 0.  1.
     999900   -1    0    0    0    0 -0.00000000000E+00 -0.00000000000E+00 -0.74505805969E-08  0.93827000000E+00  0.93827000000E+00 0.  1.
     999902    2    1    2    0    0 -0.31182215348E-02  0.22799507687E-01 -0.16516730450E-02  0.10208590468E+01  0.10205983170E+01 0.  0.
     999903    2    3    3    0    0  0.31279403867E-01 -0.69778636945E-01  0.10236646389E+00  0.12924608017E+00  0.19447288506E-01 0.  0.
         14    1    1    2    0    0  0.31182215348E-02 -0.22799507687E-01  0.16516730450E-02  0.23070953170E-01  0.00000000000E+00 0.  1.
     999901    1    3    3    0    0 -0.34397625402E-01  0.92578144632E-01 -0.10401813694E+00  0.89161296666E+00  0.88000000000E+00 0.  1.
        -11    1    4    4    0    0  0.11963384070E-01 -0.46136781561E-01  0.53790713494E-01  0.71870906146E-01  0.51100000000E-03 0. -1.
         11    1    4    4    0    0  0.19316019797E-01 -0.23641855384E-01  0.48575750400E-01  0.57375174028E-01  0.51100000000E-03 0.  1.
</event>
<event>
 8    1  0.1118868E+005  0.1043930E+01  0.7957747E-01            NaN
         13   -1    0    0    0    0  0.00000000000E+00  0.00000000000E+00  0.74505805969E-08  0.10566000000E+00  0.10566000000E+00 0.  1.
     999900   -1    0    0    0    0 -0.00000000000E+00 -0.00000000000E+00 -0.74505805969E-08  0.93827000000E+00  0.93827000000E+00 0. -1.
     999902    2    1    2    0    0  0.21438332506E-01  0.10224583078E-02 -0.12626168687E-01  0.10190288422E+01  0.10187245524E+01 0.  0.
     999903    2    3    3    0    0  0.34394053771E-01 -0.92068478810E-01 -0.84603689773E-01  0.13110174117E+00  0.19243868880E-01 0.  0.
         14    1    1    2    0    0 -0.21438332506E-01 -0.10224583078E-02  0.12626168687E-01  0.24901157751E-01  0.00000000000E+00 0.  1.
     999901    1    3    3    0    0 -0.12955721264E-01  0.93090937118E-01  0.71977521086E-01  0.88792710108E+00  0.88000000000E+00 0. -1.
        -11    1    4    4    0    0  0.20138131626E-01 -0.37307948974E-01 -0.26521680687E-01  0.50010879511E-01  0.51100000000E-03 0. -1.
         11    1    4    4    0    0  0.14255922145E-01 -0.54760529837E-01 -0.58082009086E-01  0.81090861660E-01  0.51100000000E-03 0.  1.
</event>
<event>
 8    1  0.1118868E+005  0.1043930E+01  0.7957747E-01            NaN
         13   -1    0    0    0    0  0.00000000000E+00  0.00000000000E+00  0.74505805969E-08  0.10566000000E+00  0.10566000000E+00 0.  1.
     999900   -1    0    0    0    0 -0.00000000000E+00 -0.00000000000E+00 -0.74505805969E-08  0.93827000000E+00  0.93827000000E+00 0. -1.
     999902    2    1    2    0    0  0.41263898809E-02  0.14122448629E-01  0.17420456192E-01  0.10211277426E+01  0.10208731183E+01 0.  0.
     999903    2    3    3    0    0  0.67278827710E-01 -0.34102118127E-01  0.10772379141E+00  0.13294502964E+00  0.19508217558E-01 0.  0.
         14    1    1    2    0    0 -0.41263898809E-02 -0.14122448629E-01 -0.17420456192E-01  0.22802257403E-01  0.00000000000E+00 0. -1.
     999901    1    3    3    0    0 -0.63152437829E-01  0.48224566756E-01 -0.90303335216E-01  0.88818271296E+00  0.88000000000E+00 0. -1.
        -11    1    4    4    0    0  0.13911565587E-01 -0.18506004797E-02  0.10894186273E-01  0.17773598250E-01  0.51100000000E-03 0. -1.
         11    1    4    4    0    0  0.53367262123E-01 -0.32251517647E-01  0.96829605135E-01  0.11517143139E+00  0.51100000000E-03 0.  1.
</event>
<event>
 8    1  0.1118868E+005  0.1043930E+01  0.7957747E-01            NaN
         13   -1    0    0    0    0  0.00000000000E+00  0.00000000000E+00  0.74505805969E-08  0.10566000000E+00  0.10566000000E+00 0. -1.
     999900   -1    0    0    0    0 -0.00000000000E+00 -0.00000000000E+00 -0.74505805969E-08  0.93827000000E+00  0.93827000000E+00 0.  1.
     999902    2    1    2    0    0 -0.16086527150E-01  0.88453227514E-03 -0.16872437889E-01  0.10206010928E+01  0.10203344317E+01 0.  0.
     999903    2    3    3    0    0  0.33286452970E-01 -0.70530544179E-01 -0.10461776334E+00  0.13198585180E+00  0.19820268790E-01 0.  0.
         14    1    1    2    0    0  0.16086527150E-01 -0.88453227514E-03  0.16872437889E-01  0.23328907248E-01  0.00000000000E+00 0. -1.
     999901    1    3    3    0    0 -0.49372980121E-01  0.71415076455E-01  0.87745325455E-01  0.88861524095E+00  0.88000000000E+00 0. -1.
        -11    1    4    4    0    0 -0.13320189928E-02 -0.14720318441E-01 -0.19701664843E-01  0.24634909543E-01  0.51100000000E-03 0.  1.
         11    1    4    4    0    0  0.34618471963E-01 -0.55810225738E-01 -0.84916098501E-01  0.10735094226E+00  0.51100000000E-03 0. -1.
</event>
<event>
 8    1  0.1118868E+005  0.1043930E+01  0.7957747E-01            NaN
         13   -1    0    0    0    0  0.00000000000E+00  0.00000000000E+00  0.74505805969E-08  0.10566000000E+00  0.10566000000E+00 0.  1.
     999900   -1    0    0    0    0 -0.00000000000E+00 -0.00000000000E+00 -0.74505805969E-08  0.93827000000E+00  0.93827000000E+00 0.  1.
     999902    2    1    2    0    0 -0.23801074206E-01  0.33036393602E-02 -0.24515728460E-02  0.10197760070E+01  0.10194899162E+01 0.  0.
     999903    2    3    3    0    0  0.10302123940E-01  0.10721991168E+00  0.70184774558E-01  0.13003578724E+00  0.19523323607E-01 0.  0.
         14    1    1    2    0    0  0.23801074206E-01 -0.33036393602E-02  0.24515728460E-02  0.24153992958E-01  0.00000000000E+00 0.  1.
     999901    1    3    3    0    0 -0.34103198146E-01 -0.10391627232E+00 -0.72636347404E-01  0.88974021981E+00  0.88000000000E+00 0.  1.
        -11    1    4    4    0    0 -0.53313219220E-02  0.17041375911E-01  0.96515657154E-02  0.20303825456E-01  0.51100000000E-03 0. -1.
         11    1    4    4    0    0  0.15633445862E-01  0.90178535766E-01  0.60533208843E-01  0.10973196178E+00  0.51100000000E-03 0.  1.
</event>
<event>
 8    1  0.1118868E+005  0.1043930E+01  0.7957747E-01            NaN
         13   -1    0    0    0    0  0.00000000000E+00  0.00000000000E+00  0.74505805969E-08  0.10566000000E+00  0.10566000000E+00 0. -1.
     999900   -1    0    0    0    0 -0.00000000000E+00 -0.00000000000E+00 -0.74505805969E-08  0.93827000000E+00  0.93827000000E+00 0.  1.
     999902    2    1    2    0    0  0.38414448101E-02 -0.16614126060E-02 -0.23524413987E-01  0.10200361714E+01  0.10197562826E+01 0.  0.
     999903    2    3    3    0    0  0.81750619715E-01  0.94076428810E-01  0.29724347282E-01  0.12982776640E+00  0.20932601997E-01 0.  0.
         14    1    1    2    0    0 -0.38414448101E-02  0.16614126060E-02  0.23524413987E-01  0.23893828566E-01  0.00000000000E+00 0. -1.
     999901    1    3    3    0    0 -0.77909174904E-01 -0.95737841415E-01 -0.53248761269E-01  0.89020840503E+00  0.88000000000E+00 0.  1.
        -11    1    4    4    0    0  0.57414722485E-01  0.64207672532E-01  0.30250663324E-01  0.91293150469E-01  0.51100000000E-03 0.  1.
         11    1    4    4    0    0  0.24335897230E-01  0.29868756277E-01 -0.52631604269E-03  0.38534615933E-01  0.51100000000E-03 0. -1.
</event>
<event>
 8    1  0.1118868E+005  0.1043930E+01  0.7957747E-01            NaN
         13   -1    0    0    0    0  0.00000000000E+00  0.00000000000E+00  0.74505805969E-08  0.10566000000E+00  0.10566000000E+00 0.  1.
     999900   -1    0    0    0    0 -0.00000000000E+00 -0.00000000000E+00 -0.74505805969E-08  0.93827000000E+00  0.93827000000E+00 0.  1.
     999902    2    1    2    0    0  0.19415522863E-02  0.22540295557E-01 -0.79151621174E-02  0.10199615970E+01  0.10196799376E+01 0.  0.
     999903    2    3    3    0    0 -0.75141788636E-01  0.64293645702E-01  0.84712320452E-01  0.13076812303E+00  0.12006810037E-01 0.  0.
         14    1    1    2    0    0 -0.19415522863E-02 -0.22540295557E-01  0.79151621174E-02  0.23968402960E-01  0.00000000000E+00 0. -1.
     999901    1    3    3    0    0  0.77083340922E-01 -0.41753350144E-01 -0.92627482570E-01  0.88919347401E+00  0.88000000000E+00 0.  1.
        -11    1    4    4    0    0 -0.28691173122E-01  0.26782243761E-01  0.26363310189E-01  0.47283794698E-01  0.51100000000E-03 0.  1.
         11    1    4    4    0    0 -0.46450615514E-01  0.37511401941E-01  0.58349010263E-01  0.83484328331E-01  0.51100000000E-03 0. -1.
</event>
<event>
 8    1  0.1118868E+005  0.1043930E+01  0.7957747E-01            NaN
         13   -1    0    0    0    0  0.00000000000E+00  0.00000000000E+00  0.74505805969E-08  0.10566000000E+00  0.10566000000E+00 0.  1.
     999900   -1    0    0    0    0 -0.00000000000E+00 -0.00000000000E+00 -0.74505805969E-08  0.93827000000E+00  0.93827000000E+00 0.  1.
     999902    2    1    2    0    0 -0.84232766375E-02  0.23162055277E-01  0.10395194273E-02  0.10192619438E+01  0.10189633934E+01 0.  0.
     999903    2    3    3    0    0  0.50474472208E-01  0.10577090003E+00 -0.56415407494E-01  0.13157155036E+00  0.19829750962E-01 0.  0.
         14    1    1    2    0    0  0.84232766375E-02 -0.23162055277E-01 -0.10395194273E-02  0.24668056158E-01  0.00000000000E+00 0. -1.
     999901    1    3    3    0    0 -0.58897748845E-01 -0.82608844756E-01  0.57454926921E-01  0.88769039348E+00  0.88000000000E+00 0.  1.
        -11    1    4    4    0    0  0.24529658347E-01  0.33240457814E-01 -0.25604988057E-01  0.48605644823E-01  0.51100000000E-03 0.  1.
         11    1    4    4    0    0  0.25944813861E-01  0.72530442219E-01 -0.30810419437E-01  0.82965905538E-01  0.51100000000E-03 0. -1.
</event>
<event>
 8    1  0.1118868E+005  0.1043930E+01  0.7957747E-01            NaN
         13   -1    0    0    0    0  0.00000000000E+00  0.00000000000E+00  0.74505805969E-08  0.10566000000E+00  0.10566000000E+00 0. -1.
     999900   -1    0    0    0    0 -0.00000000000E+00 -0.00000000000E+00 -0.74505805969E-08  0.93827000000E+00  0.93827000000E+00 0.  1.
     999902    2    1    2    0    0 -0.14042416592E-02 -0.18736255224E-01 -0.14985478528E-01  0.10198970285E+01  0.10196138313E+01 0.  0.
     999903    2    3    3    0    0  0.93472603443E-01  0.59492985183E-01  0.61044649244E-01  0.12809996067E+00  0.20164519359E-01 0.  0.
         14    1    1    2    0    0  0.14042416592E-02  0.18736255224E-01  0.14985478528E-01  0.24032971542E-01  0.00000000000E+00 0. -1.
     999901    1    3    3    0    0 -0.94876845103E-01 -0.78229240407E-01 -0.76030127772E-01  0.89179706779E+00  0.88000000000E+00 0.  1.
        -11    1    4    4    0    0  0.70700250587E-01  0.34776590397E-01  0.39113876862E-01  0.87966431989E-01  0.51100000000E-03 0.  1.
         11    1    4    4    0    0  0.22772352856E-01  0.24716394786E-01  0.21930772383E-01  0.40133528678E-01  0.51100000000E-03 0. -1.
</event>
<event>
 8    1  0.1118868E+005  0.1043930E+01  0.7957747E-01            NaN
         13   -1    0    0    0    0  0.00000000000E+00  0.00000000000E+00  0.74505805969E-08  0.10566000000E+00  0.10566000000E+00 0. -1.
     999900   -1    0    0    0    0 -0.00000000000E+00 -0.00000000000E+00 -0.74505805969E-08  0.93827000000E+00  0.93827000000E+00 0.  1.
     999902    2    1    2    0    0 -0.68133792361E-02  0.22357462321E-01 -0.58061716459E-02  0.10198470208E+01  0.10195626297E+01 0.  0.
     999903    2    3    3    0    0 -0.32724104567E-01  0.11999810122E+00 -0.43512526968E-01  0.13326547955E+00  0.19898158723E-01 0.  0.
         14    1    1    2    0    0  0.68133792361E-02 -0.22357462321E-01  0.58061716459E-02  0.24082979202E-01  0.00000000000E+00 0.  1.
     999901    1    3    3    0    0  0.25910725331E-01 -0.97640638897E-01  0.37706355323E-01  0.88658154125E+00  0.88000000000E+00 0.  1.
        -11    1    4    4    0    0  0.12223017438E-02  0.24148113871E-01 -0.63699736229E-02  0.25009260486E-01  0.51100000000E-03 0. -1.
         11    1    4    4    0    0 -0.33946406311E-01  0.95849987347E-01 -0.37142553346E-01  0.10825621906E+00  0.51100000000E-03 0.  1.
</event>
<event>
 8    1  0.1118868E+005  0.1043930E+01  0.7957747E-01            NaN
         13   -1    0    0    0    0  0.00000000000E+00  0.00000000000E+00  0.74505805969E-08  0.10566000000E+00  0.10566000000E+00 0.  1.
     999900   -1    0    0    0    0 -0.00000000000E+00 -0.00000000000E+00 -0.74505805969E-08  0.93827000000E+00  0.93827000000E+00 0. -1.
     999902    2    1    2    0    0  0.16252504647E-01  0.47464447971E-02 -0.16303393813E-01  0.10204252495E+01  0.10201545062E+01 0.  0.
     999903    2    3    3    0    0  0.11879355606E+00 -0.54753333782E-01 -0.41787488841E-02  0.13239264995E+00  0.20012878282E-01 0.  0.
         14    1    1    2    0    0 -0.16252504647E-01 -0.47464447971E-02  0.16303393813E-01  0.23504750484E-01  0.00000000000E+00 0.  1.
     999901    1    3    3    0    0 -0.10254105141E+00  0.59499778579E-01 -0.12124644929E-01  0.88803259957E+00  0.88000000000E+00 0. -1.
        -11    1    4    4    0    0  0.84785314028E-01 -0.30065275458E-01 -0.72608630531E-02  0.90252155191E-01  0.51100000000E-03 0.  1.
         11    1    4    4    0    0  0.34008242032E-01 -0.24688058324E-01  0.30821141690E-02  0.42140494760E-01  0.51100000000E-03 0. -1.
</event>
<event>
 8    1  0.1118868E+005  0.1043930E+01  0.7957747E-01            NaN
         13   -1    0    0    0    0  0.00000000000E+00  0.00000000000E+00  0.74505805969E-08  0.10566000000E+00  0.10566000000E+00 0. -1.
     999900   -1    0    0    0    0 -0.00000000000E+00 -0.00000000000E+00 -0.74505805969E-08  0.93827000000E+00  0.93827000000E+00 0. -1.
     999902    2    1    2    0    0 -0.32614676632E-02 -0.13810061533E-02 -0.22652416179E-01  0.10210023680E+01  0.10207449041E+01 0.  0.
     999903    2    3    3    0    0 -0.22881985544E-01 -0.12741208674E+00 -0.14488677322E-01  0.13176930261E+00  0.19894778923E-01 0.  0.
         14    1    1    2    0    0  0.32614676632E-02  0.13810061533E-02  0.22652416179E-01  0.22927631976E-01  0.00000000000E+00 0. -1.
     999901    1    3    3    0    0  0.19620517881E-01  0.12603108059E+00 -0.81637388567E-02  0.88923306542E+00  0.88000000000E+00 0.  1.
        -11    1    4    4    0    0 -0.24274146057E-01 -0.91113537163E-01 -0.61349168514E-02  0.94492376131E-01  0.51100000000E-03 0.  1.
         11    1    4    4    0    0  0.13921605126E-02 -0.36298549581E-01 -0.83537604704E-02  0.37276926477E-01  0.51100000000E-03 0. -1.
</event>
<event>
 8    1  0.1118868E+005  0.1043930E+01  0.7957747E-01            NaN
         13   -1    0    0    0    0  0.00000000000E+00  0.00000000000E+00  0.74505805969E-08  0.10566000000E+00  0.10566000000E+00 0.  1.
     999900   -1    0    0    0    0 -0.00000000000E+00 -0.00000000000E+00 -0.74505805969E-08  0.93827000000E+00  0.93827000000E+00 0.  1.
     999902    2    1    2    0    0 -0.10965628397E-01 -0.16684380401E-01  0.70464219414E-02  0.10227577158E+01  0.10225385468E+01 0.  0.
     999903    2    3    3    0    0 -0.17706920283E-01 -0.92774028489E-01 -0.92897449754E-01  0.13381235357E+00  0.18848193798E-01 0.  0.
         14    1    1    2    0    0  0.10965628397E-01  0.16684380401E-01 -0.70464219414E-02  0.21172284186E-01  0.00000000000E+00 0.  1.
     999901    1    3    3    0    0  0.67412918865E-02  0.76089648089E-01  0.99943871696E-01  0.88894536224E+00  0.88000000000E+00 0. -1.
        -11    1    4    4    0    0  0.70112231249E-03 -0.58903384461E-04 -0.38547165316E-02  0.39515822964E-02  0.51100000000E-03 0. -1.
         11    1    4    4    0    0 -0.18408042596E-01 -0.92715125105E-01 -0.89042733223E-01  0.12986077128E+00  0.51100000000E-03 0.  1.
</event>
<event>
 8    1  0.1118868E+005  0.1043930E+01  0.7957747E-01            NaN
         13   -1    0    0    0    0  0.00000000000E+00  0.00000000000E+00  0.74505805969E-08  0.10566000000E+00  0.10566000000E+00 0.  1.
     999900   -1    0    0    0    0 -0.00000000000E+00 -0.00000000000E+00 -0.74505805969E-08  0.93827000000E+00  0.93827000000E+00 0. -1.
     999902    2    1    2    0    0  0.16441585224E-01  0.18153611871E-01 -0.16016736062E-02  0.10193852509E+01  0.10190897140E+01 0.  0.
     999903    2    3    3    0    0 -0.73454157881E-01  0.75597071073E-01 -0.74792642619E-01  0.12992591314E+00  0.13280551597E-01 0.  0.
         14    1    1    2    0    0 -0.16441585224E-01 -0.18153611871E-01  0.16016736062E-02  0.24544749072E-01  0.00000000000E+00 0.  1.
     999901    1    3    3    0    0  0.89895743104E-01 -0.57443459201E-01  0.73190969013E-01  0.88945933779E+00  0.88000000000E+00 0.  1.
        -11    1    4    4    0    0 -0.45206118575E-01  0.50612335353E-01 -0.41007563684E-01  0.79291128424E-01  0.51100000000E-03 0.  1.
         11    1    4    4    0    0 -0.28248039306E-01  0.24984735719E-01 -0.33785078935E-01  0.50634784716E-01  0.51100000000E-03 0. -1.
</event>
<event>
 8    1  0.1118868E+005  0.1043930E+01  0.7957747E-01            NaN
         13   -1    0    0    0    0  0.00000000000E+00  0.00000000000E+00  0.74505805969E-08  0.10566000000E+00  0.10566000000E+00 0. -1.
     999900   -1    0    0    0    0 -0.00000000000E+00 -0.00000000000E+00 -0.74505805969E-08  0.93827000000E+00  0.93827000000E+00 0.  1.
     999902    2    1    2    0    0 -0.19602460382E-01 -0.13348311916E-01 -0.26660749885E-02  0.10200649243E+01  0.10197857166E+01 0.  0.
     999903    2    3    3    0    0  0.12191208116E+00 -0.26175246269E-01  0.22288121524E-01  0.12831742209E+00  0.20515881628E-01 0.  0.
         14    1    1    2    0    0  0.19602460382E-01  0.13348311916E-01  0.26660749885E-02  0.23865075736E-01  0.00000000000E+00 0. -1.
     999901    1    3    3    0    0 -0.14151454155E+00  0.12826934353E-01 -0.24954196512E-01  0.89174750218E+00  0.88000000000E+00 0. -1.
        -11    1    4    4    0    0  0.63356174306E-01 -0.17972005254E-01  0.21170472514E-01  0.69176931292E-01  0.51100000000E-03 0. -1.
         11    1    4    4    0    0  0.58555906859E-01 -0.82032410148E-02  0.11176490100E-02  0.59140490795E-01  0.51100000000E-03 0.  1.
</event>
<event>
 8    1  0.1406133E+005  0.1043930E+01  0.7957747E-01            NaN
         13   -1    0    0    0    0  0.00000000000E+00  0.00000000000E+00  0.74505805969E-08  0.10566000000E+00  0.10566000000E+00 0.  1.
     999900   -1    0    0    0    0 -0.00000000000E+00 -0.00000000000E+00 -0.74505805969E-08  0.93827000000E+00  0.93827000000E+00 0. -1.
     999902    2    1    2    0    0  0.23987293905E-01  0.52371369845E-03  0.47820908713E-02  0.10194650672E+01  0.10191714725E+01 0.  0.
     999903    2    3    3    0    0  0.19983578520E-01 -0.12376691282E-01 -0.12613680158E+00  0.12967733598E+00  0.18793425873E-01 0.  0.
         14    1    1    2    0    0 -0.23987293905E-01 -0.52371369845E-03 -0.47820908713E-02  0.24464932823E-01  0.00000000000E+00 0. -1.
     999901    1    3    3    0    0  0.40037153847E-02  0.12900404980E-01  0.13091889245E+00  0.88978773120E+00  0.88000000000E+00 0.  1.
        -11    1    4    4    0    0  0.41775267066E-02 -0.13481341368E-01 -0.65215867898E-01  0.66727571821E-01  0.51100000000E-03 0. -1.
         11    1    4    4    0    0  0.15806051814E-01  0.11046500867E-02 -0.60920933686E-01  0.62949764161E-01  0.51100000000E-03 0.  1.
</event>
<event>
 8    1  0.1118868E+005  0.1043930E+01  0.7957747E-01            NaN
         13   -1    0    0    0    0  0.00000000000E+00  0.00000000000E+00  0.74505805969E-08  0.10566000000E+00  0.10566000000E+00 0.  1.
     999900   -1    0    0    0    0 -0.00000000000E+00 -0.00000000000E+00 -0.74505805969E-08  0.93827000000E+00  0.93827000000E+00 0.  1.
     999902    2    1    2    0    0  0.14864923603E-01  0.11360341447E-01  0.15001773810E-01  0.10199492467E+01  0.10196672934E+01 0.  0.
     999903    2    3    3    0    0  0.84288960612E-01 -0.42694870760E-01  0.87110110332E-01  0.13262671510E+00  0.32774889268E-01 0.  0.
         14    1    1    2    0    0 -0.14864923603E-01 -0.11360341447E-01 -0.15001773810E-01  0.23980753302E-01  0.00000000000E+00 0. -1.
     999901    1    3    3    0    0 -0.69424037009E-01  0.54055212207E-01 -0.72108336522E-01  0.88732253160E+00  0.88000000000E+00 0.  1.
        -11    1    4    4    0    0  0.48289986913E-01 -0.39050955791E-01  0.66462693768E-01  0.90964008092E-01  0.51100000000E-03 0. -1.
         11    1    4    4    0    0  0.35998973699E-01 -0.36439149691E-02  0.20647416564E-01  0.41662707010E-01  0.51100000000E-03 0.  1.
</event>
<event>
 8    1  0.1118868E+005  0.1043930E+01  0.7957747E-01            NaN
         13   -1    0    0    0    0  0.00000000000E+00  0.00000000000E+00  0.74505805969E-08  0.10566000000E+00  0.10566000000E+00 0.  1.
     999900   -1    0    0    0    0 -0.00000000000E+00 -0.00000000000E+00 -0.74505805969E-08  0.93827000000E+00  0.93827000000E+00 0. -1.
     999902    2    1    2    0    0 -0.39070027963E-02 -0.20790841106E-01 -0.11119425295E-01  0.10200309338E+01  0.10197509209E+01 0.  0.
     999903    2    3    3    0    0  0.58104291527E-01  0.77247577501E-01  0.80988216718E-01  0.12765167037E+00  0.19813146567E-01 0.  0.
         14    1    1    2    0    0  0.39070027963E-02  0.20790841106E-01  0.11119425295E-01  0.23899066167E-01  0.00000000000E+00 0.  1.
     999901    1    3    3    0    0 -0.62011294323E-01 -0.98038418607E-01 -0.92107642013E-01  0.89237926347E+00  0.88000000000E+00 0. -1.
        -11    1    4    4    0    0  0.44740410767E-01  0.56328267781E-01  0.70421271201E-01  0.10066774392E+00  0.51100000000E-03 0. -1.
         11    1    4    4    0    0  0.13363880760E-01  0.20919309720E-01  0.10566945517E-01  0.26983926451E-01  0.51100000000E-03 0.  1.
</event>
<event>
 8    1  0.1118868E+005  0.1043930E+01  0.7957747E-01            NaN
         13   -1    0    0    0    0  0.00000000000E+00  0.00000000000E+00  0.74505805969E-08  0.10566000000E+00  0.10566000000E+00 0.  1.
     999900   -1    0    0    0    0 -0.00000000000E+00 -0.00000000000E+00 -0.74505805969E-08  0.93827000000E+00  0.93827000000E+00 0. -1.
     999902    2    1    2    0    0  0.19947171568E-01 -0.68712260755E-02 -0.10210874083E-01  0.10204914559E+01  0.10202222533E+01 0.  0.
     999903    2    3    3    0    0 -0.11592535386E+00  0.24599913113E-01  0.43799807480E-01  0.12787231565E+00  0.19724669343E-01 0.  0.
         14    1    1    2    0    0 -0.19947171568E-01  0.68712260755E-02  0.10210874083E-01  0.23438544129E-01  0.00000000000E+00 0.  1.
     999901    1    3    3    0    0  0.13587252543E+00 -0.31471139188E-01 -0.54010681564E-01  0.89261914022E+00  0.88000000000E+00 0. -1.
        -11    1    4    4    0    0 -0.46396065523E-01  0.13545439029E-01  0.27480106237E-01  0.55601179613E-01  0.51100000000E-03 0.  1.
         11    1    4    4    0    0 -0.69529288339E-01  0.11054474084E-01  0.16319701243E-01  0.72271136036E-01  0.51100000000E-03 0. -1.
</event>
<event>
 8    1  0.1118868E+005  0.1043930E+01  0.7957747E-01            NaN
         13   -1    0    0    0    0  0.00000000000E+00  0.00000000000E+00  0.74505805969E-08  0.10566000000E+00  0.10566000000E+00 0. -1.
     999900   -1    0    0    0    0 -0.00000000000E+00 -0.00000000000E+00 -0.74505805969E-08  0.93827000000E+00  0.93827000000E+00 0.  1.
     999902    2    1    2    0    0 -0.22887641314E-01 -0.72850725321E-02 -0.13179473507E-03  0.10199105542E+01  0.10196276795E+01 0.  0.
     999903    2    3    3    0    0  0.22801495188E-01  0.41150314171E-02  0.12596167259E+00  0.12967630297E+00  0.20316469285E-01 0.  0.
         14    1    1    2    0    0  0.22887641314E-01  0.72850725321E-02  0.13179473507E-03  0.24019445801E-01  0.00000000000E+00 0. -1.
     999901    1    3    3    0    0 -0.45689136502E-01 -0.11400103949E-01 -0.12609346732E+00  0.89023425123E+00  0.88000000000E+00 0.  1.
        -11    1    4    4    0    0 -0.11371647754E-02 -0.45529988405E-02  0.31098122770E-01  0.31454368584E-01  0.51100000000E-03 0. -1.
         11    1    4    4    0    0  0.23938659964E-01  0.86680302576E-02  0.94863549817E-01  0.98221934384E-01  0.51100000000E-03 0.  1.
</event>
<event>
 8    1  0.1118868E+005  0.1043930E+01  0.7957747E-01            NaN
         13   -1    0    0    0    0  0.00000000000E+00  0.00000000000E+00  0.74505805969E-08  0.10566000000E+00  0.10566000000E+00 0. -1.
     999900   -1    0    0    0    0 -0.00000000000E+00 -0.00000000000E+00 -0.74505805969E-08  0.93827000000E+00  0.93827000000E+00 0.  1.
     999902    2    1    2    0    0  0.20539726861E-01  0.90963413660E-02 -0.55680401434E-02  0.10207863858E+01  0.10205239922E+01 0.  0.
     999903    2    3    3    0    0  0.26497644148E-01  0.30610313074E-01  0.12309044450E+00  0.13115086865E+00  0.20252812335E-01 0.  0.
         14    1    1    2    0    0 -0.20539726861E-01 -0.90963413660E-02  0.55680401434E-02  0.23143614169E-01  0.00000000000E+00 0. -1.
     999901    1    3    3    0    0 -0.59579172872E-02 -0.21513971709E-01 -0.12865848465E+00  0.88963551718E+00  0.88000000000E+00 0.  1.
        -11    1    4    4    0    0  0.85742753742E-02  0.16151312721E-01  0.82276701104E-01  0.84285821858E-01  0.51100000000E-03 0.  1.
         11    1    4    4    0    0  0.17923368774E-01  0.14459000354E-01  0.40813743401E-01  0.46865046792E-01  0.51100000000E-03 0. -1.
</event>
<event>
 8    1  0.1118868E+005  0.1043930E+01  0.7957747E-01            NaN
         13   -1    0    0    0    0  0.00000000000E+00  0.00000000000E+00  0.74505805969E-08  0.10566000000E+00  0.10566000000E+00 0. -1.
     999900   -1    0    0    0    0 -0.00000000000E+00 -0.00000000000E+00 -0.74505805969E-08  0.93827000000E+00  0.93827000000E+00 0.  1.
     999902    2    1    2    0    0  0.13384372774E-01 -0.79589909386E-02  0.17193072759E-01  0.10207332605E+01  0.10204696470E+01 0.  0.
     999903    2    3    3    0    0  0.79178213780E-02 -0.10942368062E+00 -0.68085000866E-01  0.13079094988E+00  0.20843978768E-01 0.  0.
         14    1    1    2    0    0 -0.13384372774E-01  0.79589909386E-02 -0.17193072759E-01  0.23196739474E-01  0.00000000000E+00 0.  1.
     999901    1    3    3    0    0  0.54665513961E-02  0.10146468969E+00  0.85278073626E-01  0.88994231065E+00  0.88000000000E+00 0. -1.
        -11    1    4    4    0    0  0.15042890340E-01 -0.75617087855E-01 -0.45903670387E-01  0.89730934473E-01  0.51100000000E-03 0.  1.
         11    1    4    4    0    0 -0.71250689624E-02 -0.33806592768E-01 -0.22181330480E-01  0.41060015406E-01  0.51100000000E-03 0. -1.
</event>
<event>
 8    1  0.1118868E+005  0.1043930E+01  0.7957747E-01            NaN
         13   -1    0    0    0    0  0.00000000000E+00  0.00000000000E+00  0.74505805969E-08  0.10566000000E+00  0.10566000000E+00 0.  1.
     999900   -1    0    0    0    0 -0.00000000000E+00 -0.00000000000E+00 -0.74505805969E-08  0.93827000000E+00  0.93827000000E+00 0. -1.
     999902    2    1    2    0    0  0.16949258917E-01 -0.12135631872E-01 -0.83018953434E-02  0.10214918092E+01  0.10212453397E+01 0.  0.
     999903    2    3    3    0    0 -0.48302042762E-01 -0.12043931856E+00  0.13690639581E-01  0.13218247468E+00  0.21120042855E-01 0.  0.
         14    1    1    2    0    0 -0.16949258917E-01  0.12135631872E-01  0.83018953434E-02  0.22438190771E-01  0.00000000000E+00 0. -1.
     999901    1    3    3    0    0  0.65251301679E-01  0.10830368669E+00 -0.21992534924E-01  0.88930933455E+00  0.88000000000E+00 0.  1.
        -11    1    4    4    0    0 -0.63367748744E-02 -0.19182442331E-01  0.99099434368E-02  0.22507530063E-01  0.51100000000E-03 0.  1.
         11    1    4    4    0    0 -0.41965267888E-01 -0.10125687623E+00  0.37806961442E-02  0.10967494462E+00  0.51100000000E-03 0. -1.
</event>
<event>
 8    1  0.1118868E+005  0.1043930E+01  0.7957747E-01            NaN
         13   -1    0    0    0    0  0.00000000000E+00  0.00000000000E+00  0.74505805969E-08  0.10566000000E+00  0.10566000000E+00 0. -1.
     999900   -1    0    0    0    0 -0.00000000000E+00 -0.00000000000E+00 -0.74505805969E-08  0.93827000000E+00  0.93827000000E+00 0. -1.
     999902    2    1    2    0    0 -0.33215988548E-02 -0.23459835771E-01  0.14781046114E-02  0.10201901241E+01  0.10199138727E+01 0.  0.
     999903    2    3    3    0    0  0.69941466914E-01 -0.10826315319E+00 -0.26199904396E-01  0.13265130715E+00  0.17239929375E-01 0.  0.
         14    1    1    2    0    0  0.33215988548E-02  0.23459835771E-01 -0.14781046114E-02  0.23739875876E-01  0.00000000000E+00 0.  1.
     999901    1    3    3    0    0 -0.73263065769E-01  0.84803317422E-01  0.27678009007E-01  0.88753881697E+00  0.88000000000E+00 0.  1.
        -11    1    4    4    0    0  0.65137780946E-01 -0.10498964086E+00 -0.27707351788E-01  0.12662430122E+00  0.51100000000E-03 0.  1.
         11    1    4    4    0    0  0.48036859688E-02 -0.32735123321E-02  0.15074473923E-02  0.60270059330E-02  0.51100000000E-03 0. -1.
</event>
<event>
 8    1  0.1118868E+005  0.1043930E+01  0.7957747E-01            NaN
         13   -1    0    0    0    0  0.00000000000E+00  0.00000000000E+00  0.74505805969E-08  0.10566000000E+00  0.10566000000E+00 0.  1.
     999900   -1    0    0    0    0 -0.00000000000E+00 -0.00000000000E+00 -0.74505805969E-08  0.93827000000E+00  0.93827000000E+00 0.  1.
     999902    2    1    2    0    0  0.34362507642E-02 -0.23243849778E-01 -0.63308227830E-02  0.10195955863E+01  0.10193051535E+01 0.  0.
     999903    2    3    3    0    0  0.88368233799E-01 -0.32126089649E-01 -0.89626460352E-01  0.13154688318E+00  0.20752101026E-01 0.  0.
         14    1    1    2    0    0 -0.34362507642E-02  0.23243849778E-01  0.63308227830E-02  0.24334413675E-01  0.00000000000E+00 0. -1.
     999901    1    3    3    0    0 -0.84931983035E-01  0.88822398707E-02  0.83295637569E-01  0.88804870315E+00  0.88000000000E+00 0. -1.
        -11    1    4    4    0    0  0.36350441814E-01 -0.23351283501E-01 -0.45772281812E-01  0.62944419645E-01  0.51100000000E-03 0. -1.
         11    1    4    4    0    0  0.52017791985E-01 -0.87748061476E-02 -0.43854178540E-01  0.68602463530E-01  0.51100000000E-03 0.  1.
</event>
<event>
 8    1  0.1118868E+005  0.1043930E+01  0.7957747E-01            NaN
         13   -1    0    0    0    0  0.00000000000E+00  0.00000000000E+00  0.74505805969E-08  0.10566000000E+00  0.10566000000E+00 0.  1.
     999900   -1    0    0    0    0 -0.00000000000E+00 -0.00000000000E+00 -0.74505805969E-08  0.93827000000E+00  0.93827000000E+00 0.  1.
     999902    2    1    2    0    0  0.16645741865E-01 -0.68496755394E-04 -0.17610373403E-01  0.10196975700E+01  0.10194095956E+01 0.  0.
     999903    2    3    3    0    0  0.83338707515E-01  0.10699885687E-01 -0.10145069593E+00  0.13313504571E+00  0.19309815332E-01 0.  0.
         14    1    1    2    0    0 -0.16645741865E-01  0.68496755394E-04  0.17610373403E-01  0.24232430035E-01  0.00000000000E+00 0.  1.
     999901    1    3    3    0    0 -0.66692965650E-01 -0.10768382442E-01  0.83840322528E-01  0.88656252425E+00  0.88000000000E+00 0. -1.
        -11    1    4    4    0    0  0.63807436709E-01  0.15184524538E-01 -0.83865022024E-01  0.10646859539E+00  0.51100000000E-03 0. -1.
         11    1    4    4    0    0  0.19531270806E-01 -0.44846388510E-02 -0.17585673906E-01  0.26666450319E-01  0.51100000000E-03 0.  1.
</event>
<event>
 8    1  0.1118868E+005  0.1043930E+01  0.7957747E-01            NaN
         13   -1    0    0    0    0  0.00000000000E+00  0.00000000000E+00  0.74505805969E-08  0.10566000000E+00  0.10566000000E+00 0. -1.
     999900   -1    0    0    0    0 -0.00000000000E+00 -0.00000000000E+00 -0.74505805969E-08  0.93827000000E+00  0.93827000000E+00 0.  1.
     999902    2    1    2    0    0  0.18163101101E-01  0.13674838601E-01  0.74727223569E-02  0.10199979915E+01  0.10197171969E+01 0.  0.
     999903    2    3    3    0    0  0.28223572612E-01 -0.66958207635E-01  0.10683000763E+00  0.13068658856E+00  0.19656100264E-01 0.  0.
         14    1    1    2    0    0 -0.18163101101E-01 -0.13674838601E-01 -0.74727223569E-02  0.23932008520E-01  0.00000000000E+00 0. -1.
     999901    1    3    3    0    0 -0.10060471511E-01  0.80633046236E-01 -0.99357285274E-01  0.88931140292E+00  0.88000000000E+00 0. -1.
        -11    1    4    4    0    0  0.15128181346E-01 -0.35155147674E-01  0.73081351792E-01  0.82497826514E-01  0.51100000000E-03 0. -1.
         11    1    4    4    0    0  0.13095391266E-01 -0.31803059961E-01  0.33748655839E-01  0.48188762043E-01  0.51100000000E-03 0.  1.
</event>
<event>
 8    1  0.1118868E+005  0.1043930E+01  0.7957747E-01            NaN
         13   -1    0    0    0    0  0.00000000000E+00  0.00000000000E+00  0.74505805969E-08  0.10566000000E+00  0.10566000000E+00 0.  1.
     999900   -1    0    0    0    0 -0.00000000000E+00 -0.00000000000E+00 -0.74505805969E-08  0.93827000000E+00  0.93827000000E+00 0. -1.
     999902    2    1    2    0    0 -0.15471058990E-01  0.24504036613E-02 -0.15524710764E-01  0.10218760936E+01  0.10216380846E+01 0.  0.
     999903    2    3    3    0    0 -0.37210762939E-01 -0.10118924227E-01  0.12320944236E+00  0.13065346820E+00  0.20068098056E-01 0.  0.
         14    1    1    2    0    0  0.15471058990E-01 -0.24504036613E-02  0.15524710764E-01  0.22053906427E-01  0.00000000000E+00 0.  1.
     999901    1    3    3    0    0  0.21739703949E-01  0.12569327889E-01 -0.13873415313E+00  0.89122262537E+00  0.88000000000E+00 0. -1.
        -11    1    4    4    0    0 -0.27067672237E-01  0.24999100282E-02  0.73182724890E-01  0.78069717393E-01  0.51100000000E-03 0. -1.
         11    1    4    4    0    0 -0.10143090702E-01 -0.12618834255E-01  0.50026717473E-01  0.52583750808E-01  0.51100000000E-03 0.  1.
</event>
<event>
 8    1  0.1118868E+005  0.1043930E+01  0.7957747E-01            NaN
         13   -1    0    0    0    0  0.00000000000E+00  0.00000000000E+00  0.74505805969E-08  0.10566000000E+00  0.10566000000E+00 0. -1.
     999900   -1    0    0    0    0 -0.00000000000E+00 -0.00000000000E+00 -0.74505805969E-08  0.93827000000E+00  0.93827000000E+00 0. -1.
     999902    2    1    2    0    0  0.28771932031E-01  0.88788211944E-03 -0.14973246167E-03  0.10151439821E+01  0.10147357634E+01 0.  0.
     999903    2    3    3    0    0 -0.65736277752E-01 -0.84094570772E-01  0.57849544172E-01  0.12412336779E+00  0.25824128720E-01 0.  0.
         14    1    1    2    0    0 -0.28771932031E-01 -0.88788211944E-03  0.14973246167E-03  0.28786017913E-01  0.00000000000E+00 0. -1.
     999901    1    3    3    0    0  0.94508209783E-01  0.84982452891E-01 -0.57999276634E-01  0.89102061430E+00  0.88000000000E+00 0.  1.
        -11    1    4    4    0    0 -0.23536876586E-01 -0.17389222304E-01  0.65764621933E-02  0.29998009730E-01  0.51100000000E-03 0.  1.
         11    1    4    4    0    0 -0.42199401165E-01 -0.66705348468E-01  0.51273081979E-01  0.94125358058E-01  0.51100000000E-03 0. -1.
</event>
<event>
 8    1  0.1220650E+005  0.1043930E+01  0.7957747E-01            NaN
         13   -1    0    0    0    0  0.00000000000E+00  0.00000000000E+00  0.74505805969E-08  0.10566000000E+00  0.10566000000E+00 0.  1.
     999900   -1    0    0    0    0 -0.00000000000E+00 -0.00000000000E+00 -0.74505805969E-08  0.93827000000E+00  0.93827000000E+00 0. -1.
     999902    2    1    2    0    0 -0.17436246909E-01 -0.60063666662E-02  0.15443262245E-01  0.10198760295E+01  0.10195923313E+01 0.  0.
     999903    2    3    3    0    0  0.61708911383E-01 -0.20328759959E-01 -0.10806837173E+00  0.12761810115E+00  0.19656005357E-01 0.  0.
         14    1    1    2    0    0  0.17436246909E-01  0.60063666662E-02 -0.15443262245E-01  0.24053970474E-01  0.00000000000E+00 0.  1.
     999901    1    3    3    0    0 -0.79145158292E-01  0.14322393293E-01  0.12351163397E+00  0.89225792838E+00  0.88000000000E+00 0.  1.
        -11    1    4    4    0    0  0.22115693526E-01 -0.15760641467E-01 -0.53991732174E-01  0.60438977355E-01  0.51100000000E-03 0. -1.
         11    1    4    4    0    0  0.39593217857E-01 -0.45681184914E-02 -0.54076639554E-01  0.67179123790E-01  0.51100000000E-03 0.  1.
</event>
<event>
 8    1  0.1118868E+005  0.1043930E+01  0.7957747E-01            NaN
         13   -1    0    0    0    0  0.00000000000E+00  0.00000000000E+00  0.74505805969E-08  0.10566000000E+00  0.10566000000E+00 0.  1.
     999900   -1    0    0    0    0 -0.00000000000E+00 -0.00000000000E+00 -0.74505805969E-08  0.93827000000E+00  0.93827000000E+00 0. -1.
     999902    2    1    2    0    0 -0.29526169616E-02 -0.83676609154E-02 -0.21288405638E-01  0.10208663509E+01  0.10206057880E+01 0.  0.
     999903    2    3    3    0    0  0.10597709152E+00  0.42139306379E-01 -0.63169675126E-01  0.13172593685E+00  0.18826829639E-01 0.  0.
         14    1    1    2    0    0  0.29526169616E-02  0.83676609154E-02  0.21288405638E-01  0.23063649120E-01  0.00000000000E+00 0.  1.
     999901    1    3    3    0    0 -0.10892970848E+00 -0.50506967295E-01  0.41881269488E-01  0.88914041403E+00  0.88000000000E+00 0. -1.
        -11    1    4    4    0    0  0.60520549373E-01  0.31525372777E-01 -0.44388240755E-01  0.81407389489E-01  0.51100000000E-03 0.  1.
         11    1    4    4    0    0  0.45456542143E-01  0.10613933602E-01 -0.18781434371E-01  0.50318547357E-01  0.51100000000E-03 0. -1.
</event>
<event>
 8    1  0.1118868E+005  0.1043930E+01  0.7957747E-01            NaN
         13   -1    0    0    0    0  0.00000000000E+00  0.00000000000E+00  0.74505805969E-08  0.10566000000E+00  0.10566000000E+00 0.  1.
     999900   -1    0    0    0    0 -0.00000000000E+00 -0.00000000000E+00 -0.74505805969E-08  0.93827000000E+00  0.93827000000E+00 0. -1.
     999902    2    1    2    0    0 -0.23601991210E-01 -0.12080676048E-01 -0.60882961334E-02  0.10167258813E+01  0.10163618714E+01 0.  0.
     999903    2    3    3    0    0  0.63993078961E-01  0.87398513899E-01  0.57898540281E-01  0.12450207489E+00  0.20369371553E-01 0.  0.
         14    1    1    2    0    0  0.23601991210E-01  0.12080676048E-01  0.60882961334E-02  0.27204118670E-01  0.00000000000E+00 0. -1.
     999901    1    3    3    0    0 -0.87595070171E-01 -0.99479189947E-01 -0.63986836415E-01  0.89222380644E+00  0.88000000000E+00 0. -1.
        -11    1    4    4    0    0  0.17087725407E-01  0.26548499160E-01  0.70077111953E-02  0.32344741527E-01  0.51100000000E-03 0. -1.
         11    1    4    4    0    0  0.46905353554E-01  0.60850014739E-01  0.50890829086E-01  0.92157333359E-01  0.51100000000E-03 0.  1.
</event>
<event>
 8    1  0.1118868E+005  0.1043930E+01  0.7957747E-01            NaN
         13   -1    0    0    0    0  0.00000000000E+00  0.00000000000E+00  0.74505805969E-08  0.10566000000E+00  0.10566000000E+00 0. -1.
     999900   -1    0    0    0    0 -0.00000000000E+00 -0.00000000000E+00 -0.74505805969E-08  0.93827000000E+00  0.93827000000E+00 0.  1.
     999902    2    1    2    0    0 -0.22335182374E-01 -0.54398095714E-02 -0.89874924810E-02  0.10192474774E+01  0.10189485725E+01 0.  0.
     999903    2    3    3    0    0 -0.93301860694E-02 -0.87249114735E-01 -0.95152798877E-01  0.13116732768E+00  0.21245054049E-01 0.  0.
         14    1    1    2    0    0  0.22335182374E-01  0.54398095714E-02  0.89874924810E-02  0.24682522581E-01  0.00000000000E+00 0.  1.
     999901    1    3    3    0    0 -0.13004996305E-01  0.81809305164E-01  0.86165306396E-01  0.88808014974E+00  0.88000000000E+00 0. -1.
        -11    1    4    4    0    0 -0.10042680121E-02 -0.15806997646E-02 -0.96519267764E-02  0.98452007335E-02  0.51100000000E-03 0.  1.
         11    1    4    4    0    0 -0.83259180573E-02 -0.85668414971E-01 -0.85500872101E-01  0.12132212694E+00  0.51100000000E-03 0. -1.
</event>
<event>
 8    1  0.1118868E+005  0.1043930E+01  0.7957747E-01            NaN
         13   -1    0    0    0    0  0.00000000000E+00  0.00000000000E+00  0.74505805969E-08  0.10566000000E+00  0.10566000000E+00 0.  1.
     999900   -1    0    0    0    0 -0.00000000000E+00 -0.00000000000E+00 -0.74505805969E-08  0.93827000000E+00  0.93827000000E+00 0. -1.
     999902    2    1    2    0    0 -0.54810987821E-02 -0.22320338876E-01 -0.38308582223E-02  0.10206294540E+01  0.10203634484E+01 0.  0.
     999903    2    3    3    0    0 -0.97572464366E-02 -0.10697928629E+00  0.75821385868E-01  0.13297529675E+00  0.19843775785E-01 0.  0.
         14    1    1    2    0    0  0.54810987821E-02  0.22320338876E-01  0.38308582223E-02  0.23300546048E-01  0.00000000000E+00 0. -1.
     999901    1    3    3    0    0  0.42761476545E-02  0.84658947411E-01 -0.79652244090E-01  0.88765415721E+00  0.88000000000E+00 0. -1.
        -11    1    4    4    0    0  0.41538273813E-03 -0.84049330217E-01  0.60730489449E-01  0.10369626764E+00  0.51100000000E-03 0.  1.
         11    1    4    4    0    0 -0.10172629175E-01 -0.22929956070E-01  0.15090896419E-01  0.29279029107E-01  0.51100000000E-03 0. -1.
</event>
<event>
 8    1  0.1118868E+005  0.1043930E+01  0.7957747E-01            NaN
         13   -1    0    0    0    0  0.00000000000E+00  0.00000000000E+00  0.74505805969E-08  0.10566000000E+00  0.10566000000E+00 0. -1.
     999900   -1    0    0    0    0 -0.00000000000E+00 -0.00000000000E+00 -0.74505805969E-08  0.93827000000E+00  0.93827000000E+00 0.  1.
     999902    2    1    2    0    0 -0.22662076312E-01  0.53895585270E-02 -0.45857424679E-02  0.10201887684E+01  0.10199124850E+01 0.  0.
     999903    2    3    3    0    0  0.38941014159E-01  0.12213550648E+00 -0.12372410323E-01  0.13030945674E+00  0.19849268289E-01 0.  0.
         14    1    1    2    0    0  0.22662076312E-01 -0.53895585270E-02  0.45857424679E-02  0.23741231599E-01  0.00000000000E+00 0. -1.
     999901    1    3    3    0    0 -0.61603090471E-01 -0.11674594796E+00  0.77866678554E-02  0.88987931166E+00  0.88000000000E+00 0. -1.
        -11    1    4    4    0    0  0.10825308602E-01  0.64012049700E-01 -0.23306918739E-02  0.64964783220E-01  0.51100000000E-03 0.  1.
         11    1    4    4    0    0  0.28115705557E-01  0.58123456784E-01 -0.10041718449E-01  0.65344673523E-01  0.51100000000E-03 0. -1.
</event>
<event>
 8    1  0.1118868E+005  0.1043930E+01  0.7957747E-01            NaN
         13   -1    0    0    0    0  0.00000000000E+00  0.00000000000E+00  0.74505805969E-08  0.10566000000E+00  0.10566000000E+00 0.  1.
     999900   -1    0    0    0    0 -0.00000000000E+00 -0.00000000000E+00 -0.74505805969E-08  0.93827000000E+00  0.93827000000E+00 0. -1.
     999902    2    1    2    0    0  0.13298907308E-01 -0.18361826884E-02 -0.21864811536E-01  0.10182725939E+01  0.10179492979E+01 0.  0.
     999903    2    3    3    0    0 -0.47093727042E-01 -0.87887382455E-01 -0.82739131624E-01  0.12992707438E+00  0.96576205244E-02 0.  0.
         14    1    1    2    0    0 -0.13298907308E-01  0.18361826884E-02  0.21864811536E-01  0.25657406064E-01  0.00000000000E+00 0. -1.
     999901    1    3    3    0    0  0.60392634350E-01  0.86051199766E-01  0.60874320088E-01  0.88834551955E+00  0.88000000000E+00 0. -1.
        -11    1    4    4    0    0 -0.31686839279E-01 -0.53656978461E-01 -0.46556701456E-01  0.77787625574E-01  0.51100000000E-03 0.  1.
         11    1    4    4    0    0 -0.15406887763E-01 -0.34230403994E-01 -0.36182430168E-01  0.52139448808E-01  0.51100000000E-03 0. -1.
</event>
<event>
 8    1  0.1118868E+005  0.1043930E+01  0.7957747E-01            NaN
         13   -1    0    0    0    0  0.00000000000E+00  0.00000000000E+00  0.74505805969E-08  0.10566000000E+00  0.10566000000E+00 0.  1.
     999900   -1    0    0    0    0 -0.00000000000E+00 -0.00000000000E+00 -0.74505805969E-08  0.93827000000E+00  0.93827000000E+00 0.  1.
     999902    2    1    2    0    0 -0.41355858213E-02  0.44017108535E-02  0.23766717314E-01  0.10194078675E+01  0.10191128816E+01 0.  0.
     999903    2    3    3    0    0 -0.43504219497E-02  0.96538602710E-01 -0.82021467971E-01  0.12829598167E+00  0.19842119837E-01 0.  0.
         14    1    1    2    0    0  0.41355858213E-02 -0.44017108535E-02 -0.23766717314E-01  0.24522132460E-01  0.00000000000E+00 0. -1.
     999901    1    3    3    0    0  0.21483612840E-03 -0.92136891857E-01  0.10578818529E+00  0.89111188587E+00  0.88000000000E+00 0.  1.
        -11    1    4    4    0    0 -0.85294437965E-02  0.29654479468E-01 -0.33565794610E-01  0.45596746077E-01  0.51100000000E-03 0. -1.
         11    1    4    4    0    0  0.41790218468E-02  0.66884123242E-01 -0.48455673361E-01  0.82699235591E-01  0.51100000000E-03 0.  1.
</event>
<event>
 8    1  0.1118868E+005  0.1043930E+01  0.7957747E-01            NaN
         13   -1    0    0    0    0  0.00000000000E+00  0.00000000000E+00  0.74505805969E-08  0.10566000000E+00  0.10566000000E+00 0. -1.
     999900   -1    0    0    0    0 -0.00000000000E+00 -0.00000000000E+00 -0.74505805969E-08  0.93827000000E+00  0.93827000000E+00 0. -1.
     999902    2    1    2    0    0 -0.78331260813E-02 -0.71279685119E-02 -0.20674002694E-01  0.10207011346E+01  0.10204367820E+01 0.  0.
     999903    2    3    3    0    0 -0.32370163106E-01  0.10359486787E+00 -0.72577651356E-01  0.13190666939E+00  0.18765123074E-01 0.  0.
         14    1    1    2    0    0  0.78331260813E-02  0.71279685119E-02  0.20674002694E-01  0.23228865377E-01  0.00000000000E+00 0. -1.
     999901    1    3    3    0    0  0.24537037025E-01 -0.11072283639E+00  0.51903648662E-01  0.88879446523E+00  0.88000000000E+00 0. -1.
        -11    1    4    4    0    0 -0.21713539521E-01  0.89347143602E-01 -0.64762599298E-01  0.11246708522E+00  0.51100000000E-03 0. -1.
         11    1    4    4    0    0 -0.10656623585E-01  0.14247724273E-01 -0.78150520573E-02  0.19439584174E-01  0.51100000000E-03 0.  1.
</event>
<event>
 8    1  0.1118868E+005  0.1043930E+01  0.7957747E-01            NaN
         13   -1    0    0    0    0  0.00000000000E+00  0.00000000000E+00  0.74505805969E-08  0.10566000000E+00  0.10566000000E+00 0.  1.
     999900   -1    0    0    0    0 -0.00000000000E+00 -0.00000000000E+00 -0.74505805969E-08  0.93827000000E+00  0.93827000000E+00 0. -1.
     999902    2    1    2    0    0  0.11762464987E-01 -0.88030529837E-02  0.17086583202E-01  0.10213955675E+01  0.10211469554E+01 0.  0.
     999903    2    3    3    0    0  0.13005929546E+00  0.68666059892E-02 -0.15786541814E-01  0.13273347158E+00  0.20159091271E-01 0.  0.
         14    1    1    2    0    0 -0.11762464987E-01  0.88030529837E-02 -0.17086583202E-01  0.22534432540E-01  0.00000000000E+00 0. -1.
     999901    1    3    3    0    0 -0.11829683047E+00 -0.15669658973E-01  0.32873125016E-01  0.88866209588E+00  0.88000000000E+00 0. -1.
        -11    1    4    4    0    0  0.25607834007E-01  0.58066820752E-02  0.35468132824E-02  0.26501315528E-01  0.51100000000E-03 0.  1.
         11    1    4    4    0    0  0.10445146145E+00  0.10599239141E-02 -0.19333355096E-01  0.10623215605E+00  0.51100000000E-03 0. -1.
</event>
<event>
 8    1  0.1118868E+005  0.1043930E+01  0.7957747E-01            NaN
         13   -1    0    0    0    0  0.00000000000E+00  0.00000000000E+00  0.74505805969E-08  0.10566000000E+00  0.10566000000E+00 0. -1.
     999900   -1    0    0    0    0 -0.00000000000E+00 -0.00000000000E+00 -0.74505805969E-08  0.93827000000E+00  0.93827000000E+00 0.  1.
     999902    2    1    2    0    0 -0.11085489671E-02 -0.20515994255E-01  0.11559538264E-01  0.10203554835E+01  0.10200831118E+01 0.  0.
     999903    2    3    3    0    0 -0.11174601561E+00  0.52908234151E-01 -0.32268287087E-01  0.12931527984E+00  0.19868215898E-01 0.  0.
         14    1    1    2    0    0  0.11085489671E-02  0.20515994255E-01 -0.11559538264E-01  0.23574516453E-01  0.00000000000E+00 0.  1.
     999901    1    3    3    0    0  0.11063746665E+00 -0.73424228406E-01  0.43827825351E-01  0.89104020370E+00  0.88000000000E+00 0. -1.
        -11    1    4    4    0    0 -0.89637619163E-01  0.49429588231E-01 -0.30724739465E-01  0.10687589858E+00  0.51100000000E-03 0.  1.
         11    1    4    4    0    0 -0.22108396450E-01  0.34786459196E-02 -0.15435476219E-02  0.22439381259E-01  0.51100000000E-03 0. -1.
</event>
<event>
 8    1  0.1118868E+005  0.1043930E+01  0.7957747E-01            NaN
         13   -1    0    0    0    0  0.00000000000E+00  0.00000000000E+00  0.74505805969E-08  0.10566000000E+00  0.10566000000E+00 0.  1.
     999900   -1    0    0    0    0 -0.00000000000E+00 -0.00000000000E+00 -0.74505805969E-08  0.93827000000E+00  0.93827000000E+00 0.  1.
     999902    2    1    2    0    0  0.55426486940E-02 -0.79641337803E-02  0.21996799738E-01  0.10198882118E+01  0.10196048043E+01 0.  0.
     999903    2    3    3    0    0  0.65960954771E-03 -0.95306934927E-01 -0.84721463198E-01  0.12913493696E+00  0.20353345852E-01 0.  0.
         14    1    1    2    0    0 -0.55426486940E-02  0.79641337803E-02 -0.21996799738E-01  0.24041788206E-01  0.00000000000E+00 0. -1.
     999901    1    3    3    0    0  0.48830391463E-02  0.87342801147E-01  0.10671826294E+00  0.89075327483E+00  0.88000000000E+00 0. -1.
        -11    1    4    4    0    0  0.97093793523E-02 -0.59382805355E-01 -0.48036667841E-01  0.76995923252E-01  0.51100000000E-03 0. -1.
         11    1    4    4    0    0 -0.90497698046E-02 -0.35924129572E-01 -0.36684795357E-01  0.52139013708E-01  0.51100000000E-03 0.  1.
</event>
<event>
 8    1  0.1118868E+005  0.1043930E+01  0.7957747E-01            NaN
         13   -1    0    0    0    0  0.00000000000E+00  0.00000000000E+00  0.74505805969E-08  0.10566000000E+00  0.10566000000E+00 0.  1.
     999900   -1    0    0    0    0 -0.00000000000E+00 -0.00000000000E+00 -0.74505805969E-08  0.93827000000E+00  0.93827000000E+00 0. -1.
     999902    2    1    2    0    0  0.85706477858E-02  0.20686626726E-01  0.88294407458E-02  0.10198602773E+01  0.10195762029E+01 0.  0.
     999903    2    3    3    0    0 -0.89665653649E-01  0.57454945488E-01 -0.71668238621E-01  0.12998266963E+00  0.20448906361E-01 0.  0.
         14    1    1    2    0    0 -0.85706477858E-02 -0.20686626726E-01 -0.88294407458E-02  0.24069722738E-01  0.00000000000E+00 0. -1.
     999901    1    3    3    0    0  0.98236301435E-01 -0.36768318762E-01  0.80497679366E-01  0.88987760763E+00  0.88000000000E+00 0.  1.
        -11    1    4    4    0    0 -0.69209894645E-01  0.51736037433E-01 -0.63440822380E-01  0.10719900257E+00  0.51100000000E-03 0. -1.
         11    1    4    4    0    0 -0.20455759004E-01  0.57189080552E-02 -0.82274162403E-02  0.22783667062E-01  0.51100000000E-03 0.  1.
</event>
<event>
 7    1  0.1127462E+005  0.1043930E+01  0.7957747E-01            NaN
         13   -1    0    0    0    0  0.00000000000E+00  0.00000000000E+00  0.74505805969E-08  0.10566000000E+00  0.10566000000E+00 0. -1.
     999900   -1    0    0    0    0 -0.00000000000E+00 -0.00000000000E+00 -0.74505805969E-08  0.93827000000E+00  0.93827000000E+00 0.  1.
     999903    2    1    2    0    0 -0.53752976769E-01 -0.44304549879E-01  0.63253323831E-01  0.95854935174E-01  0.18300545618E-01 0.  0.
         14    1    1    2    0    0 -0.28292285315E-01  0.24345762078E-01  0.43832345030E-01  0.57571208172E-01  0.00000000000E+00 0. -1.
     999901    1    1    2    0    0  0.82045262084E-01  0.19958787801E-01 -0.10708566886E+00  0.89050385665E+00  0.88000000000E+00 0.  1.
        -11    1    3    3    0    0 -0.25326129867E-01 -0.97787987453E-02  0.26856407666E-01  0.38191170611E-01  0.51100000000E-03 0. -1.
         11    1    3    3    0    0 -0.28426846902E-01 -0.34525751134E-01  0.36396916165E-01  0.57663764562E-01  0.51100000000E-03 0.  1.
</event>
<event>
 8    1  0.1118868E+005  0.1043930E+01  0.7957747E-01            NaN
         13   -1    0    0    0    0  0.00000000000E+00  0.00000000000E+00  0.74505805969E-08  0.10566000000E+00  0.10566000000E+00 0. -1.
     999900   -1    0    0    0    0 -0.00000000000E+00 -0.00000000000E+00 -0.74505805969E-08  0.93827000000E+00  0.93827000000E+00 0. -1.
     999902    2    1    2    0    0 -0.20815106107E-01  0.47567539334E-02  0.95645648329E-02  0.10205339266E+01  0.10202657100E+01 0.  0.
     999903    2    3    3    0    0 -0.32218157500E-01 -0.70253311750E-01  0.10510354303E+00  0.13211722488E+00  0.20848713802E-01 0.  0.
         14    1    1    2    0    0  0.20815106107E-01 -0.47567539334E-02 -0.95645648329E-02  0.23396073403E-01  0.00000000000E+00 0. -1.
     999901    1    3    3    0    0  0.11403051393E-01  0.75010065684E-01 -0.95538978200E-01  0.88841670172E+00  0.88000000000E+00 0. -1.
        -11    1    4    4    0    0 -0.77794912647E-02 -0.41808975428E-01  0.57211871270E-01  0.71287938994E-01  0.51100000000E-03 0.  1.
         11    1    4    4    0    0 -0.24438666236E-01 -0.28444336322E-01  0.47891671763E-01  0.60829285886E-01  0.51100000000E-03 0. -1.
</event>
<event>
 8    1  0.1118868E+005  0.1043930E+01  0.7957747E-01            NaN
         13   -1    0    0    0    0  0.00000000000E+00  0.00000000000E+00  0.74505805969E-08  0.10566000000E+00  0.10566000000E+00 0.  1.
     999900   -1    0    0    0    0 -0.00000000000E+00 -0.00000000000E+00 -0.74505805969E-08  0.93827000000E+00  0.93827000000E+00 0. -1.
     999902    2    1    2    0    0  0.10115403007E-01  0.16325540141E-01  0.13927875700E-01  0.10202059540E+01  0.10199300751E+01 0.  0.
     999903    2    3    3    0    0  0.22894660624E-01  0.48029105107E-01 -0.11679907077E+00  0.12989254847E+00  0.19977256891E-01 0.  0.
         14    1    1    2    0    0 -0.10115403007E-01 -0.16325540141E-01 -0.13927875700E-01  0.23724046038E-01  0.00000000000E+00 0.  1.
     999901    1    3    3    0    0 -0.12779257616E-01 -0.31703564966E-01  0.13072694647E+00  0.89031340549E+00  0.88000000000E+00 0.  1.
        -11    1    4    4    0    0  0.12437035478E-01  0.16330986116E-01 -0.25866553212E-01  0.33026060242E-01  0.51100000000E-03 0. -1.
         11    1    4    4    0    0  0.10457625145E-01  0.31698118990E-01 -0.90932517563E-01  0.96866488233E-01  0.51100000000E-03 0.  1.
</event>
<event>
 8    1  0.1118868E+005  0.1043930E+01  0.7957747E-01            NaN
         13   -1    0    0    0    0  0.00000000000E+00  0.00000000000E+00  0.74505805969E-08  0.10566000000E+00  0.10566000000E+00 0. -1.
     999900   -1    0    0    0    0 -0.00000000000E+00 -0.00000000000E+00 -0.74505805969E-08  0.93827000000E+00  0.93827000000E+00 0. -1.
     999902    2    1    2    0    0 -0.20901781381E-01  0.82755345760E-02  0.97583953949E-04  0.10214493759E+01  0.10212019629E+01 0.  0.
     999903    2    3    3    0    0  0.11982776879E+00  0.30734402132E-02  0.43990030489E-01  0.12917228052E+00  0.19550321342E-01 0.  0.
         14    1    1    2    0    0  0.20901781381E-01 -0.82755345760E-02 -0.97583953949E-04  0.22480624103E-01  0.00000000000E+00 0.  1.
     999901    1    3    3    0    0 -0.14072955017E+00  0.52020943628E-02 -0.43892446535E-01  0.89227709538E+00  0.88000000000E+00 0.  1.
        -11    1    4    4    0    0  0.67168526456E-01 -0.32769560983E-02  0.15709053361E-01  0.69060733170E-01  0.51100000000E-03 0. -1.
         11    1    4    4    0    0  0.52659242331E-01  0.63503963115E-02  0.28280977128E-01  0.60111547347E-01  0.51100000000E-03 0.  1.
</event>
<event>
 8    1  0.1118868E+005  0.1043930E+01  0.7957747E-01            NaN
         13   -1    0    0    0    0  0.00000000000E+00  0.00000000000E+00  0.74505805969E-08  0.10566000000E+00  0.10566000000E+00 0. -1.
     999900   -1    0    0    0    0 -0.00000000000E+00 -0.00000000000E+00 -0.74505805969E-08  0.93827000000E+00  0.93827000000E+00 0. -1.
     999902    2    1    2    0    0 -0.22745826931E-01 -0.61202839037E-02 -0.64595832070E-03  0.10203663038E+01  0.10200941849E+01 0.  0.
     999903    2    3    3    0    0 -0.72222607033E-01 -0.99202538668E-01  0.45480624304E-01  0.13287550407E+00  0.23025285037E-01 0.  0.
         14    1    1    2    0    0  0.22745826931E-01  0.61202839037E-02  0.64595832070E-03  0.23563696229E-01  0.00000000000E+00 0. -1.
     999901    1    3    3    0    0  0.49476780103E-01  0.93082254765E-01 -0.46126582624E-01  0.88749079970E+00  0.88000000000E+00 0. -1.
        -11    1    4    4    0    0 -0.42609090902E-01 -0.46820038718E-01  0.33100749411E-01  0.71439284611E-01  0.51100000000E-03 0.  1.
         11    1    4    4    0    0 -0.29613516131E-01 -0.52382499950E-01  0.12379874893E-01  0.61436219464E-01  0.51100000000E-03 0. -1.
</event>
<event>
 8    1  0.1118868E+005  0.1043930E+01  0.7957747E-01            NaN
         13   -1    0    0    0    0  0.00000000000E+00  0.00000000000E+00  0.74505805969E-08  0.10566000000E+00  0.10566000000E+00 0.  1.
     999900   -1    0    0    0    0 -0.00000000000E+00 -0.00000000000E+00 -0.74505805969E-08  0.93827000000E+00  0.93827000000E+00 0. -1.
     999902    2    1    2    0    0 -0.67921658207E-02 -0.71413315286E-02  0.22830578777E-01  0.10190630046E+01  0.10187595594E+01 0.  0.
     999903    2    3    3    0    0 -0.11932733060E+00 -0.47000374780E-01  0.17284045856E-01  0.13098436470E+00  0.20251382572E-01 0.  0.
         14    1    1    2    0    0  0.67921658207E-02  0.71413315286E-02 -0.22830578777E-01  0.24866995392E-01  0.00000000000E+00 0. -1.
     999901    1    3    3    0    0  0.11253516478E+00  0.39859043251E-01  0.55465329211E-02  0.88807863991E+00  0.88000000000E+00 0. -1.
        -11    1    4    4    0    0 -0.11009166777E+00 -0.47426892361E-01  0.12394179740E-01  0.12051291318E+00  0.51100000000E-03 0.  1.
         11    1    4    4    0    0 -0.92356628341E-02  0.42651758160E-03  0.48898661158E-02  0.10471451517E-01  0.51100000000E-03 0. -1.
</event>
<event>
 8    1  0.1118868E+005  0.1043930E+01  0.7957747E-01            NaN
         13   -1    0    0    0    0  0.00000000000E+00  0.00000000000E+00  0.74505805969E-08  0.10566000000E+00  0.10566000000E+00 0. -1.
     999900   -1    0    0    0    0 -0.00000000000E+00 -0.00000000000E+00 -0.74505805969E-08  0.93827000000E+00  0.93827000000E+00 0. -1.
     999902    2    1    2    0    0 -0.92445107828E-02 -0.21571705281E-01 -0.53657861955E-02  0.10198553015E+01  0.10195711083E+01 0.  0.
     999903    2    3    3    0    0  0.12072923746E+00 -0.44006049884E-01  0.33311059834E-02  0.12998333821E+00  0.19300019174E-01 0.  0.
         14    1    1    2    0    0  0.92445107828E-02  0.21571705281E-01  0.53657861955E-02  0.24074698541E-01  0.00000000000E+00 0.  1.
     999901    1    3    3    0    0 -0.12997374824E+00  0.22434344603E-01 -0.86968921790E-02  0.88987196325E+00  0.88000000000E+00 0.  1.
        -11    1    4    4    0    0  0.25882879441E-01 -0.35444075335E-02  0.60864452335E-02  0.26828943503E-01  0.51100000000E-03 0. -1.
         11    1    4    4    0    0  0.94846358018E-01 -0.40461642351E-01 -0.27553392501E-02  0.10315439470E+00  0.51100000000E-03 0.  1.
</event>
<event>
 8    1  0.1354998E+005  0.1043930E+01  0.7957747E-01            NaN
         13   -1    0    0    0    0  0.00000000000E+00  0.00000000000E+00  0.74505805969E-08  0.10566000000E+00  0.10566000000E+00 0. -1.
     999900   -1    0    0    0    0 -0.00000000000E+00 -0.00000000000E+00 -0.74505805969E-08  0.93827000000E+00  0.93827000000E+00 0.  1.
     999902    2    1    2    0    0 -0.84523098287E-02  0.12614252626E-01  0.18013647152E-01  0.10203704500E+01  0.10200984281E+01 0.  0.
     999903    2    3    3    0    0 -0.34805644391E-01  0.10633017727E+00  0.69645750834E-01  0.13349782846E+00  0.21297889889E-01 0.  0.
         14    1    1    2    0    0  0.84523098287E-02 -0.12614252626E-01 -0.18013647152E-01  0.23559549964E-01  0.00000000000E+00 0.  1.
     999901    1    3    3    0    0  0.26353334562E-01 -0.93715924645E-01 -0.51632103681E-01  0.88687262158E+00  0.88000000000E+00 0. -1.
        -11    1    4    4    0    0 -0.29771574810E-01  0.58148739814E-01  0.42951338952E-01  0.78183765881E-01  0.51100000000E-03 0.  1.
         11    1    4    4    0    0 -0.50340695811E-02  0.48181437458E-01  0.26694411882E-01  0.55314062577E-01  0.51100000000E-03 0. -1.
</event>
<event>
 8    1  0.1118868E+005  0.1043930E+01  0.7957747E-01            NaN
         13   -1    0    0    0    0  0.00000000000E+00  0.00000000000E+00  0.74505805969E-08  0.10566000000E+00  0.10566000000E+00 0. -1.
     999900   -1    0    0    0    0 -0.00000000000E+00 -0.00000000000E+00 -0.74505805969E-08  0.93827000000E+00  0.93827000000E+00 0.  1.
     999902    2    1    2    0    0 -0.22808129788E-02  0.94709788569E-02  0.21819284175E-01  0.10200347555E+01  0.10197548331E+01 0.  0.
     999903    2    3    3    0    0 -0.52276034513E-01  0.11759771771E+00 -0.15717396096E-01  0.13121536090E+00  0.20209586826E-01 0.  0.
         14    1    1    2    0    0  0.22808129788E-02 -0.94709788569E-02 -0.21819284175E-01  0.23895244512E-01  0.00000000000E+00 0. -1.
     999901    1    3    3    0    0  0.49995221535E-01 -0.10812673886E+00  0.37536680271E-01  0.88881939459E+00  0.88000000000E+00 0. -1.
        -11    1    4    4    0    0 -0.29093449960E-01  0.73793066297E-01 -0.34801677728E-03  0.79323563339E-01  0.51100000000E-03 0.  1.
         11    1    4    4    0    0 -0.23182584553E-01  0.43804651418E-01 -0.15369379318E-01  0.51891797560E-01  0.51100000000E-03 0. -1.
</event>
<event>
 8    1  0.1118868E+005  0.1043930E+01  0.7957747E-01            NaN
         13   -1    0    0    0    0  0.00000000000E+00  0.00000000000E+00  0.74505805969E-08  0.10566000000E+00  0.10566000000E+00 0.  1.
     999900   -1    0    0    0    0 -0.00000000000E+00 -0.00000000000E+00 -0.74505805969E-08  0.93827000000E+00  0.93827000000E+00 0.  1.
     999902    2    1    2    0    0  0.12421298203E-01  0.18471085972E-01 -0.75180253631E-02  0.10204355247E+01  0.10201650208E+01 0.  0.
     999903    2    3    3    0    0  0.60004839531E-01 -0.84215931354E-01  0.76125616874E-01  0.12925368249E+00  0.14781780391E-01 0.  0.
         14    1    1    2    0    0 -0.12421298203E-01 -0.18471085972E-01  0.75180253631E-02  0.23494475338E-01  0.00000000000E+00 0.  1.
     999901    1    3    3    0    0 -0.47583541328E-01  0.10268701733E+00 -0.83643642238E-01  0.89118184217E+00  0.88000000000E+00 0.  1.
        -11    1    4    4    0    0  0.22421522810E-01 -0.24368869863E-01  0.17657598975E-01  0.37531565729E-01  0.51100000000E-03 0.  1.
         11    1    4    4    0    0  0.37583316722E-01 -0.59847061491E-01  0.58468017900E-01  0.91722116760E-01  0.51100000000E-03 0. -1.
</event>
<event>
 8    1  0.1118868E+005  0.1043930E+01  0.7957747E-01            NaN
         13   -1    0    0    0    0  0.00000000000E+00  0.00000000000E+00  0.74505805969E-08  0.10566000000E+00  0.10566000000E+00 0.  1.
     999900   -1    0    0    0    0 -0.00000000000E+00 -0.00000000000E+00 -0.74505805969E-08  0.93827000000E+00  0.93827000000E+00 0. -1.
     999902    2    1    2    0    0 -0.22922585759E-02 -0.18539125127E-01  0.14167124784E-01  0.10204851491E+01  0.10202157999E+01 0.  0.
     999903    2    3    3    0    0  0.78717142425E-01 -0.51602841691E-01  0.91913387858E-01  0.13273506385E+00  0.17643257251E-01 0.  0.
         14    1    1    2    0    0  0.22922585759E-02  0.18539125127E-01 -0.14167124784E-01  0.23444850917E-01  0.00000000000E+00 0. -1.
     999901    1    3    3    0    0 -0.81009401001E-01  0.33063716564E-01 -0.77746263074E-01  0.88775008523E+00  0.88000000000E+00 0. -1.
        -11    1    4    4    0    0  0.37015688161E-01 -0.32310422649E-01  0.55340672224E-01  0.74006592308E-01  0.51100000000E-03 0.  1.
         11    1    4    4    0    0  0.41701454264E-01 -0.19292419041E-01  0.36572715634E-01  0.58728471546E-01  0.51100000000E-03 0. -1.
</event>
<event>
 8    1  0.1118868E+005  0.1043930E+01  0.7957747E-01            NaN
         13   -1    0    0    0    0  0.00000000000E+00  0.00000000000E+00  0.74505805969E-08  0.10566000000E+00  0.10566000000E+00 0.  1.
     999900   -1    0    0    0    0 -0.00000000000E+00 -0.00000000000E+00 -0.74505805969E-08  0.93827000000E+00  0.93827000000E+00 0.  1.
     999902    2    1    2    0    0  0.81429552774E-02  0.46687955039E-02  0.21881008883E-01  0.10201206757E+01  0.10198427865E+01 0.  0.
     999903    2    3    3    0    0  0.41146199174E-01 -0.95528475836E-01  0.78873807385E-01  0.13198955570E+00  0.19531152587E-01 0.  0.
         14    1    1    2    0    0 -0.81429552774E-02 -0.46687955039E-02 -0.21881008883E-01  0.23809324263E-01  0.00000000000E+00 0. -1.
     999901    1    3    3    0    0 -0.33003243896E-01  0.10019727134E+00 -0.56992798502E-01  0.88813112003E+00  0.88000000000E+00 0. -1.
        -11    1    4    4    0    0  0.21156173095E-01 -0.70419722125E-01  0.58592866705E-01  0.94020774693E-01  0.51100000000E-03 0.  1.
         11    1    4    4    0    0  0.19990026078E-01 -0.25108753710E-01  0.20280940680E-01  0.37968781010E-01  0.51100000000E-03 0. -1.
</event>
<event>
 8    1  0.1118868E+005  0.1043930E+01  0.7957747E-01            NaN
         13   -1    0    0    0    0  0.00000000000E+00  0.00000000000E+00  0.74505805969E-08  0.10566000000E+00  0.10566000000E+00 0. -1.
     999900   -1    0    0    0    0 -0.00000000000E+00 -0.00000000000E+00 -0.74505805969E-08  0.93827000000E+00  0.93827000000E+00 0. -1.
     999902    2    1    2    0    0 -0.19994811151E-01 -0.45877203501E-03 -0.12583629959E-01  0.10203005546E+01  0.10200268973E+01 0.  0.
     999903    2    3    3    0    0 -0.93708522151E-01 -0.89453299531E-01  0.18498398659E-01  0.13220155700E+00  0.18758491421E-01 0.  0.
         14    1    1    2    0    0  0.19994811151E-01  0.45877203501E-03  0.12583629959E-01  0.23629445353E-01  0.00000000000E+00 0. -1.
     999901    1    3    3    0    0  0.73713710999E-01  0.88994527496E-01 -0.31082028618E-01  0.88809899764E+00  0.88000000000E+00 0. -1.
        -11    1    4    4    0    0 -0.33040836998E-01 -0.21486856181E-01  0.99030707435E-03  0.39428717037E-01  0.51100000000E-03 0.  1.
         11    1    4    4    0    0 -0.60667685153E-01 -0.67966443350E-01  0.17508091584E-01  0.92772839966E-01  0.51100000000E-03 0. -1.
</event>
<event>
 8    1  0.1118868E+005  0.1043930E+01  0.7957747E-01            NaN
         13   -1    0    0    0    0  0.00000000000E+00  0.00000000000E+00  0.74505805969E-08  0.10566000000E+00  0.10566000000E+00 0. -1.
     999900   -1    0    0    0    0 -0.00000000000E+00 -0.00000000000E+00 -0.74505805969E-08  0.93827000000E+00  0.93827000000E+00 0. -1.
     999902    2    1    2    0    0 -0.19264032249E-01  0.93717530103E-02 -0.10518773725E-01  0.10200641815E+01  0.10197849563E+01 0.  0.
     999903    2    3    3    0    0 -0.20120801278E-01  0.12860457882E+00  0.56950978560E-02  0.13187496153E+00  0.20361409575E-01 0.  0.
         14    1    1    2    0    0  0.19264032249E-01 -0.93717530103E-02  0.10518773725E-01  0.23865818521E-01  0.00000000000E+00 0. -1.
     999901    1    3    3    0    0  0.85676902891E-03 -0.11923282581E+00 -0.16213871581E-01  0.88818921995E+00  0.88000000000E+00 0. -1.
        -11    1    4    4    0    0 -0.15248654546E-01  0.12429287074E+00  0.54380847703E-02  0.12534381943E+00  0.51100000000E-03 0. -1.
         11    1    4    4    0    0 -0.48721467328E-02  0.43117080846E-02  0.25701308567E-03  0.65311420991E-02  0.51100000000E-03 0.  1.
</event>
<event>
 8    1  0.1118868E+005  0.1043930E+01  0.7957747E-01            NaN
         13   -1    0    0    0    0  0.00000000000E+00  0.00000000000E+00  0.74505805969E-08  0.10566000000E+00  0.10566000000E+00 0. -1.
     999900   -1    0    0    0    0 -0.00000000000E+00 -0.00000000000E+00 -0.74505805969E-08  0.93827000000E+00  0.93827000000E+00 0.  1.
     999902    2    1    2    0    0  0.18324734344E-01 -0.10970257706E-01  0.78535822716E-02  0.10211743151E+01  0.10209207415E+01 0.  0.
     999903    2    3    3    0    0 -0.38384270044E-01  0.88886982844E-02 -0.12090101722E+00  0.12977763781E+00  0.25938738699E-01 0.  0.
         14    1    1    2    0    0 -0.18324734344E-01  0.10970257706E-01 -0.78535822716E-02  0.22755684947E-01  0.00000000000E+00 0. -1.
     999901    1    3    3    0    0  0.56709004388E-01 -0.19858955990E-01  0.12875459950E+00  0.89139667724E+00  0.88000000000E+00 0. -1.
        -11    1    4    4    0    0 -0.19897023841E-01 -0.46600114374E-02 -0.83016334302E-01  0.85496082637E-01  0.51100000000E-03 0. -1.
         11    1    4    4    0    0 -0.18487246203E-01  0.13548709722E-01 -0.37884682922E-01  0.44281555171E-01  0.51100000000E-03 0.  1.
</event>
<event>
 8    1  0.1118868E+005  0.1043930E+01  0.7957747E-01            NaN
         13   -1    0    0    0    0  0.00000000000E+00  0.00000000000E+00  0.74505805969E-08  0.10566000000E+00  0.10566000000E+00 0.  1.
     999900   -1    0    0    0    0 -0.00000000000E+00 -0.00000000000E+00 -0.74505805969E-08  0.93827000000E+00  0.93827000000E+00 0. -1.
     999902    2    1    2    0    0  0.14412972051E-01  0.10295848560E-01 -0.16068726595E-01  0.10200146862E+01  0.10197342878E+01 0.  0.
     999903    2    3    3    0    0  0.11274787800E+00 -0.47246519393E-01 -0.45901611991E-01  0.13216848390E+00  0.20426271464E-01 0.  0.
         14    1    1    2    0    0 -0.14412972051E-01 -0.10295848560E-01  0.16068726595E-01  0.23915313824E-01  0.00000000000E+00 0.  1.
     999901    1    3    3    0    0 -0.98334905949E-01  0.57542367953E-01  0.29832885396E-01  0.88784620227E+00  0.88000000000E+00 0. -1.
        -11    1    4    4    0    0  0.61437894511E-01 -0.29595500133E-01 -0.35622953446E-01  0.76940005481E-01  0.51100000000E-03 0. -1.
         11    1    4    4    0    0  0.51309983488E-01 -0.17651019260E-01 -0.10278658545E-01  0.55228478423E-01  0.51100000000E-03 0.  1.
</event>
<event>
 8    1  0.1118868E+005  0.1043930E+01  0.7957747E-01            NaN
         13   -1    0    0    0    0  0.00000000000E+00  0.00000000000E+00  0.74505805969E-08  0.10566000000E+00  0.10566000000E+00 0. -1.
     999900   -1    0    0    0    0 -0.00000000000E+00 -0.00000000000E+00 -0.74505805969E-08  0.93827000000E+00  0.93827000000E+00 0.  1.
     999902    2    1    2    0    0 -0.14095380846E-01 -0.18828520853E-02  0.12475345702E-01  0.10250128347E+01  0.10248382566E+01 0.  0.
     999903    2    3    3    0    0 -0.70804277653E-01  0.29339186148E-01  0.11187500072E+00  0.13705393582E+00  0.19842680291E-01 0.  0.
         14    1    1    2    0    0  0.14095380846E-01  0.18828520853E-02 -0.12475345702E-01  0.18917165315E-01  0.00000000000E+00 0.  1.
     999901    1    3    3    0    0  0.56708896808E-01 -0.31222038233E-01 -0.99399655017E-01  0.88795889886E+00  0.88000000000E+00 0.  1.
        -11    1    4    4    0    0 -0.43411309324E-01  0.27575562287E-01  0.67299750732E-01  0.84702248980E-01  0.51100000000E-03 0. -1.
         11    1    4    4    0    0 -0.27392968330E-01  0.17636238611E-02  0.44575249987E-01  0.52351686844E-01  0.51100000000E-03 0.  1.
</event>
<event>
 8    1  0.1118868E+005  0.1043930E+01  0.7957747E-01            NaN
         13   -1    0    0    0    0  0.00000000000E+00  0.00000000000E+00  0.74505805969E-08  0.10566000000E+00  0.10566000000E+00 0.  1.
     999900   -1    0    0    0    0 -0.00000000000E+00 -0.00000000000E+00 -0.74505805969E-08  0.93827000000E+00  0.93827000000E+00 0.  1.
     999902    2    1    2    0    0 -0.90245098160E-02  0.19151829856E-01 -0.11299795339E-01  0.10199316722E+01  0.10196493006E+01 0.  0.
     999903    2    3    3    0    0 -0.13106375896E-01  0.43602137801E-01 -0.12307448235E+00  0.13251516350E+00  0.18439545568E-01 0.  0.
         14    1    1    2    0    0  0.90245098160E-02 -0.19151829856E-01  0.11299795339E-01  0.23998327837E-01  0.00000000000E+00 0.  1.
     999901    1    3    3    0    0  0.40818660799E-02 -0.24450307945E-01  0.11177468702E+00  0.88741650866E+00  0.88000000000E+00 0. -1.
        -11    1    4    4    0    0 -0.11274999813E-01  0.19103364319E-01 -0.78964158518E-01  0.82022335986E-01  0.51100000000E-03 0.  1.
         11    1    4    4    0    0 -0.18313760829E-02  0.24498773482E-01 -0.44110323837E-01  0.50492827515E-01  0.51100000000E-03 0. -1.
</event>
<event>
 8    1  0.1118868E+005  0.1043930E+01  0.7957747E-01            NaN
         13   -1    0    0    0    0  0.00000000000E+00  0.00000000000E+00  0.74505805969E-08  0.10566000000E+00  0.10566000000E+00 0. -1.
     999900   -1    0    0    0    0 -0.00000000000E+00 -0.00000000000E+00 -0.74505805969E-08  0.93827000000E+00  0.93827000000E+00 0. -1.
     999902    2    1    2    0    0  0.13805579238E-01 -0.15504043772E-01  0.12310346516E-01  0.10197946727E+01  0.10195090291E+01 0.  0.
     999903    2    3    3    0    0  0.83187035515E-01 -0.95323354621E-01  0.36469369010E-01  0.13313319999E+00  0.19692873077E-01 0.  0.
         14    1    1    2    0    0 -0.13805579238E-01  0.15504043772E-01 -0.12310346516E-01  0.24135327276E-01  0.00000000000E+00 0.  1.
     999901    1    3    3    0    0 -0.69381456277E-01  0.79819310849E-01 -0.24159022495E-01  0.88666147273E+00  0.88000000000E+00 0. -1.
        -11    1    4    4    0    0  0.31019309935E-01 -0.39473209281E-01  0.49021725768E-02  0.50444268820E-01  0.51100000000E-03 0. -1.
         11    1    4    4    0    0  0.52167725580E-01 -0.55850145340E-01  0.31567196434E-01  0.82688931172E-01  0.51100000000E-03 0.  1.
</event>
<event>
 8    1  0.1118868E+005  0.1043930E+01  0.7957747E-01            NaN
         13   -1    0    0    0    0  0.00000000000E+00  0.00000000000E+00  0.74505805969E-08  0.10566000000E+00  0.10566000000E+00 0. -1.
     999900   -1    0    0    0    0 -0.00000000000E+00 -0.00000000000E+00 -0.74505805969E-08  0.93827000000E+00  0.93827000000E+00 0. -1.
     999902    2    1    2    0    0  0.20149167244E-01  0.11471295973E-01 -0.53536258133E-02  0.10201341835E+01  0.10198566132E+01 0.  0.
     999903    2    3    3    0    0 -0.77547916775E-01  0.79357624711E-01  0.63404435249E-01  0.12947097849E+00  0.20767760258E-01 0.  0.
         14    1    1    2    0    0 -0.20149167244E-01 -0.11471295973E-01  0.53536258133E-02  0.23795816466E-01  0.00000000000E+00 0.  1.
     999901    1    3    3    0    0  0.97697084020E-01 -0.67886328738E-01 -0.68758061063E-01  0.89066320504E+00  0.88000000000E+00 0. -1.
        -11    1    4    4    0    0 -0.62135080543E-01  0.60837416027E-01  0.39449392001E-01  0.95490706737E-01  0.51100000000E-03 0.  1.
         11    1    4    4    0    0 -0.15412836232E-01  0.18520208684E-01  0.23955043248E-01  0.33980271754E-01  0.51100000000E-03 0. -1.
</event>
<event>
 8    1  0.1118868E+005  0.1043930E+01  0.7957747E-01            NaN
         13   -1    0    0    0    0  0.00000000000E+00  0.00000000000E+00  0.74505805969E-08  0.10566000000E+00  0.10566000000E+00 0. -1.
     999900   -1    0    0    0    0 -0.00000000000E+00 -0.00000000000E+00 -0.74505805969E-08  0.93827000000E+00  0.93827000000E+00 0.  1.
     999902    2    1    2    0    0  0.23110155740E-01  0.36291718622E-02  0.75649458616E-03  0.10205243923E+01  0.10202559546E+01 0.  0.
     999903    2    3    3    0    0 -0.42559600593E-01 -0.10807982731E+00  0.53391335398E-01  0.12947902655E+00  0.20533264413E-01 0.  0.
         14    1    1    2    0    0 -0.23110155740E-01 -0.36291718622E-02 -0.75649458616E-03  0.23405607678E-01  0.00000000000E+00 0. -1.
     999901    1    3    3    0    0  0.65669756333E-01  0.11170899917E+00 -0.52634840812E-01  0.89104536577E+00  0.88000000000E+00 0.  1.
        -11    1    4    4    0    0 -0.17830348071E-01 -0.41470980839E-01  0.10047474595E-01  0.46249069513E-01  0.51100000000E-03 0. -1.
         11    1    4    4    0    0 -0.24729252522E-01 -0.66608846470E-01  0.43343860803E-01  0.83229957039E-01  0.51100000000E-03 0.  1.
</event>
<event>
 8    1  0.1118868E+005  0.1043930E+01  0.7957747E-01            NaN
         13   -1    0    0    0    0  0.00000000000E+00  0.00000000000E+00  0.74505805969E-08  0.10566000000E+00  0.10566000000E+00 0. -1.
     999900   -1    0    0    0    0 -0.00000000000E+00 -0.00000000000E+00 -0.74505805969E-08  0.93827000000E+00  0.93827000000E+00 0.  1.
     999902    2    1    2    0    0  0.31894980720E-01 -0.54764097125E-02 -0.18207841984E-01  0.10067977180E+01  0.10061127365E+01 0.  0.
     999903    2    3    3    0    0  0.44620038861E-01 -0.59281070921E-01 -0.94394118441E-01  0.12177725641E+00  0.20353312874E-01 0.  0.
         14    1    1    2    0    0 -0.31894980720E-01  0.54764097125E-02  0.18207841984E-01  0.37132282022E-01  0.00000000000E+00 0. -1.
     999901    1    3    3    0    0 -0.12725058141E-01  0.53804661209E-01  0.76186276457E-01  0.88502046157E+00  0.88000000000E+00 0. -1.
        -11    1    4    4    0    0  0.43750777708E-01 -0.49261920564E-01 -0.74330869550E-01  0.99328780606E-01  0.51100000000E-03 0.  1.
         11    1    4    4    0    0  0.86926115299E-03 -0.10019150358E-01 -0.20063248891E-01  0.22448475804E-01  0.51100000000E-03 0. -1.
</event>
<event>
 8    1  0.1118868E+005  0.1043930E+01  0.7957747E-01            NaN
         13   -1    0    0    0    0  0.00000000000E+00  0.00000000000E+00  0.74505805969E-08  0.10566000000E+00  0.10566000000E+00 0. -1.
     999900   -1    0    0    0    0 -0.00000000000E+00 -0.00000000000E+00 -0.74505805969E-08  0.93827000000E+00  0.93827000000E+00 0.  1.
     999902    2    1    2    0    0 -0.14055798408E-01  0.17109608753E-01 -0.84440970927E-02  0.10202317520E+01  0.10199564799E+01 0.  0.
     999903    2    3    3    0    0 -0.97395277525E-01 -0.83352562308E-01  0.12424599475E-01  0.13035894142E+00  0.20139344769E-01 0.  0.
         14    1    1    2    0    0  0.14055798408E-01 -0.17109608753E-01  0.84440970927E-02  0.23698247958E-01  0.00000000000E+00 0.  1.
     999901    1    3    3    0    0  0.83339479117E-01  0.10046217106E+00 -0.20868696567E-01  0.88987281063E+00  0.88000000000E+00 0. -1.
        -11    1    4    4    0    0 -0.62549374380E-01 -0.42838802672E-01  0.15890084239E-02  0.75831215989E-01  0.51100000000E-03 0. -1.
         11    1    4    4    0    0 -0.34845903145E-01 -0.40513759636E-01  0.10835591051E-01  0.54527725428E-01  0.51100000000E-03 0.  1.
</event>
<event>
 8    1  0.1160529E+005  0.1043930E+01  0.7957747E-01            NaN
         13   -1    0    0    0    0  0.00000000000E+00  0.00000000000E+00  0.74505805969E-08  0.10566000000E+00  0.10566000000E+00 0.  1.
     999900   -1    0    0    0    0 -0.00000000000E+00 -0.00000000000E+00 -0.74505805969E-08  0.93827000000E+00  0.93827000000E+00 0. -1.
     999902    2    1    2    0    0 -0.59359915047E-02  0.24476052600E-02 -0.22664692751E-01  0.10203733648E+01  0.10201014109E+01 0.  0.
     999903    2    3    3    0    0  0.23730175328E-01 -0.56870864587E-01  0.11057742954E+00  0.12787561939E+00  0.18093912029E-01 0.  0.
         14    1    1    2    0    0  0.59359915047E-02 -0.24476052600E-02  0.22664692751E-01  0.23556635247E-01  0.00000000000E+00 0.  1.
     999901    1    3    3    0    0 -0.29666166833E-01  0.59318469847E-01 -0.13324212229E+00  0.89249774536E+00  0.88000000000E+00 0. -1.
        -11    1    4    4    0    0  0.60386962421E-02 -0.37370969290E-01  0.63245272566E-01  0.73710791754E-01  0.51100000000E-03 0.  1.
         11    1    4    4    0    0  0.17691479086E-01 -0.19499895297E-01  0.47332156970E-01  0.54164827640E-01  0.51100000000E-03 0. -1.
</event>
<event>
 8    1  0.1118868E+005  0.1043930E+01  0.7957747E-01            NaN
         13   -1    0    0    0    0  0.00000000000E+00  0.00000000000E+00  0.74505805969E-08  0.10566000000E+00  0.10566000000E+00 0. -1.
     999900   -1    0    0    0    0 -0.00000000000E+00 -0.00000000000E+00 -0.74505805969E-08  0.93827000000E+00  0.93827000000E+00 0. -1.
     999902    2    1    2    0    0 -0.13936958775E-01  0.10078220491E-01  0.90414106620E-02  0.10244991880E+01  0.10243149075E+01 0.  0.
     999903    2    3    3    0    0  0.41225851506E-01  0.71878160747E-01  0.10486020206E+00  0.13543034419E+00  0.21901491405E-01 0.  0.
         14    1    1    2    0    0  0.13936958775E-01 -0.10078220491E-01 -0.90414106620E-02  0.19430811999E-01  0.00000000000E+00 0.  1.
     999901    1    3    3    0    0 -0.55162810281E-01 -0.61799940256E-01 -0.95818791400E-01  0.88906884381E+00  0.88000000000E+00 0. -1.
        -11    1    4    4    0    0  0.39426820689E-01  0.55211510610E-01  0.91922267727E-01  0.11424863027E+00  0.51100000000E-03 0.  1.
         11    1    4    4    0    0  0.17990308172E-02  0.16666650137E-01  0.12937934335E-01  0.21181713918E-01  0.51100000000E-03 0. -1.
</event>
<event>
 8    1  0.1118868E+005  0.1043930E+01  0.7957747E-01            NaN
         13   -1    0    0    0    0  0.00000000000E+00  0.00000000000E+00  0.74505805969E-08  0.10566000000E+00  0.10566000000E+00 0. -1.
     999900   -1    0    0    0    0 -0.00000000000E+00 -0.00000000000E+00 -0.74505805969E-08  0.93827000000E+00  0.93827000000E+00 0. -1.
     999902    2    1    2    0    0  0.62445188973E-02 -0.19822259289E-01 -0.10780463132E-01  0.10205177305E+01  0.10202491381E+01 0.  0.
     999903    2    3    3    0    0 -0.30708714469E-01 -0.48376082942E-01  0.11547456610E+00  0.13028113567E+00  0.18855459425E-01 0.  0.
         14    1    1    2    0    0 -0.62445188973E-02  0.19822259289E-01  0.10780463132E-01  0.23412269537E-01  0.00000000000E+00 0. -1.
     999901    1    3    3    0    0  0.36953233366E-01  0.28553823653E-01 -0.12625502923E+00  0.89023659479E+00  0.88000000000E+00 0.  1.
        -11    1    4    4    0    0 -0.19072136688E-01 -0.24417585304E-01  0.42509298080E-01  0.52604813602E-01  0.51100000000E-03 0. -1.
         11    1    4    4    0    0 -0.11636577781E-01 -0.23958497638E-01  0.72965268021E-01  0.77676322067E-01  0.51100000000E-03 0.  1.
</event>
<event>
 8    1  0.1118868E+005  0.1043930E+01  0.7957747E-01            NaN
         13   -1    0    0    0    0  0.00000000000E+00  0.00000000000E+00  0.74505805969E-08  0.10566000000E+00  0.10566000000E+00 0.  1.
     999900   -1    0    0    0    0 -0.00000000000E+00 -0.00000000000E+00 -0.74505805969E-08  0.93827000000E+00  0.93827000000E+00 0.  1.
     999902    2    1    2    0    0  0.50268212048E-02 -0.13677493902E-01  0.19454945551E-01  0.10196228472E+01  0.10193330726E+01 0.  0.
     999903    2    3    3    0    0 -0.15088295596E-01 -0.11323296076E+00  0.64547704342E-01  0.13263397140E+00  0.19390826832E-01 0.  0.
         14    1    1    2    0    0 -0.50268212048E-02  0.13677493902E-01 -0.19454945551E-01  0.24307152800E-01  0.00000000000E+00 0. -1.
     999901    1    3    3    0    0  0.20115116800E-01  0.99555466860E-01 -0.45092758792E-01  0.88698887580E+00  0.88000000000E+00 0.  1.
        -11    1    4    4    0    0 -0.22055606440E-02 -0.79043191205E-01  0.40027011171E-01  0.88629077158E-01  0.51100000000E-03 0.  1.
         11    1    4    4    0    0 -0.12882734952E-01 -0.34189769558E-01  0.24520693171E-01  0.44004894237E-01  0.51100000000E-03 0. -1.
</event>
<event>
 8    1  0.1118868E+005  0.1043930E+01  0.7957747E-01            NaN
         13   -1    0    0    0    0  0.00000000000E+00  0.00000000000E+00  0.74505805969E-08  0.10566000000E+00  0.10566000000E+00 0. -1.
     999900   -1    0    0    0    0 -0.00000000000E+00 -0.00000000000E+00 -0.74505805969E-08  0.93827000000E+00  0.93827000000E+00 0.  1.
     999902    2    1    2    0    0  0.20551215453E-01 -0.11023224855E-01 -0.40356473673E-02  0.10202625035E+01  0.10199879536E+01 0.  0.
     999903    2    3    3    0    0  0.59779912539E-01  0.11341389770E+00 -0.14983876709E-01  0.13057528209E+00  0.19724035998E-01 0.  0.
         14    1    1    2    0    0 -0.20551215453E-01  0.11023224855E-01  0.40356473673E-02  0.23667496540E-01  0.00000000000E+00 0.  1.
     999901    1    3    3    0    0 -0.39228697086E-01 -0.12443712256E+00  0.10948229342E-01  0.88968722137E+00  0.88000000000E+00 0. -1.
        -11    1    4    4    0    0  0.12930148354E-01  0.44386896666E-01 -0.71168981722E-02  0.46779233563E-01  0.51100000000E-03 0.  1.
         11    1    4    4    0    0  0.46849764186E-01  0.69027001036E-01 -0.78669785369E-02  0.83796048526E-01  0.51100000000E-03 0. -1.
</event>
<event>
 8    1  0.1118868E+005  0.1043930E+01  0.7957747E-01            NaN
         13   -1    0    0    0    0  0.00000000000E+00  0.00000000000E+00  0.74505805969E-08  0.10566000000E+00  0.10566000000E+00 0.  1.
     999900   -1    0    0    0    0 -0.00000000000E+00 -0.00000000000E+00 -0.74505805969E-08  0.93827000000E+00  0.93827000000E+00 0. -1.
     999902    2    1    2    0    0 -0.22315307651E-01  0.96275975469E-02 -0.31516117339E-02  0.10194229348E+01  0.10191283156E+01 0.  0.
     999903    2    3    3    0    0 -0.38279796139E-01 -0.86881679545E-01  0.85836319602E-01  0.12954218018E+00  0.19988337826E-01 0.  0.
         14    1    1    2    0    0  0.22315307651E-01 -0.96275975469E-02  0.31516117339E-02  0.24507065239E-01  0.00000000000E+00 0. -1.
     999901    1    3    3    0    0  0.15964488487E-01  0.96509277092E-01 -0.88987931336E-01  0.88988075459E+00  0.88000000000E+00 0. -1.
        -11    1    4    4    0    0 -0.31276162282E-01 -0.50261804463E-01  0.59172337204E-01  0.83702293434E-01  0.51100000000E-03 0.  1.
         11    1    4    4    0    0 -0.70036338568E-02 -0.36619875081E-01  0.26663982398E-01  0.45839886742E-01  0.51100000000E-03 0. -1.
</event>
<event>
 8    1  0.1118868E+005  0.1043930E+01  0.7957747E-01            NaN
         13   -1    0    0    0    0  0.00000000000E+00  0.00000000000E+00  0.74505805969E-08  0.10566000000E+00  0.10566000000E+00 0.  1.
     999900   -1    0    0    0    0 -0.00000000000E+00 -0.00000000000E+00 -0.74505805969E-08  0.93827000000E+00  0.93827000000E+00 0.  1.
     999902    2    1    2    0    0 -0.15972462224E-01  0.75296348649E-02  0.15772996821E-01  0.10202529567E+01  0.10199781827E+01 0.  0.
     999903    2    3    3    0    0  0.16879916842E-01  0.10044643552E+00  0.81831017139E-01  0.13229097964E+00  0.20740538256E-01 0.  0.
         14    1    1    2    0    0  0.15972462224E-01 -0.75296348649E-02 -0.15772996821E-01  0.23677043300E-01  0.00000000000E+00 0. -1.
     999901    1    3    3    0    0 -0.32852379067E-01 -0.92916800655E-01 -0.66058020318E-01  0.88796197706E+00  0.88000000000E+00 0.  1.
        -11    1    4    4    0    0  0.73415373452E-02  0.52200646885E-01  0.55331029964E-01  0.76423750913E-01  0.51100000000E-03 0.  1.
         11    1    4    4    0    0  0.95383794969E-02  0.48245788635E-01  0.26499987175E-01  0.55867228728E-01  0.51100000000E-03 0. -1.
</event>
<event>
 8    1  0.1118868E+005  0.1043930E+01  0.7957747E-01            NaN
         13   -1    0    0    0    0  0.00000000000E+00  0.00000000000E+00  0.74505805969E-08  0.10566000000E+00  0.10566000000E+00 0. -1.
     999900   -1    0    0    0    0 -0.00000000000E+00 -0.00000000000E+00 -0.74505805969E-08  0.93827000000E+00  0.93827000000E+00 0. -1.
     999902    2    1    2    0    0 -0.22429261124E-01  0.73379478631E-03  0.93794916541E-02  0.10196074781E+01  0.10193173325E+01 0.  0.
     999903    2    3    3    0    0  0.64076197086E-01 -0.10540090617E+00  0.31080610793E-01  0.12875468012E+00  0.19916155045E-01 0.  0.
         14    1    1    2    0    0  0.22429261124E-01 -0.73379478631E-03 -0.93794916541E-02  0.24322521930E-01  0.00000000000E+00 0.  1.
     999901    1    3    3    0    0 -0.86505458209E-01  0.10613470095E+00 -0.21701119138E-01  0.89085279795E+00  0.88000000000E+00 0.  1.
        -11    1    4    4    0    0  0.42261521891E-01 -0.54260268660E-01  0.11078307499E-01  0.69664933831E-01  0.51100000000E-03 0.  1.
         11    1    4    4    0    0  0.21814675195E-01 -0.51140637505E-01  0.20002303294E-01  0.59089746288E-01  0.51100000000E-03 0. -1.
</event>
<event>
 8    1  0.1118868E+005  0.1043930E+01  0.7957747E-01            NaN
         13   -1    0    0    0    0  0.00000000000E+00  0.00000000000E+00  0.74505805969E-08  0.10566000000E+00  0.10566000000E+00 0.  1.
     999900   -1    0    0    0    0 -0.00000000000E+00 -0.00000000000E+00 -0.74505805969E-08  0.93827000000E+00  0.93827000000E+00 0.  1.
     999902    2    1    2    0    0 -0.13766386470E-01  0.30144226670E-02 -0.18849702933E-01  0.10203946767E+01  0.10201232204E+01 0.  0.
     999903    2    3    3    0    0 -0.39903569339E-01 -0.12296288025E+00  0.61586064665E-02  0.13068750653E+00  0.18141972404E-01 0.  0.
         14    1    1    2    0    0  0.13766386470E-01 -0.30144226670E-02  0.18849702933E-01  0.23535323263E-01  0.00000000000E+00 0.  1.
     999901    1    3    3    0    0  0.26137182870E-01  0.12597730292E+00 -0.25008309400E-01  0.88970717021E+00  0.88000000000E+00 0. -1.
        -11    1    4    4    0    0 -0.26563435316E-01 -0.69591172792E-01 -0.45890124899E-02  0.74631545496E-01  0.51100000000E-03 0. -1.
         11    1    4    4    0    0 -0.13340134023E-01 -0.53371707462E-01  0.10747618956E-01  0.56055961033E-01  0.51100000000E-03 0.  1.
</event>
<event>
 8    1  0.1118868E+005  0.1043930E+01  0.7957747E-01            NaN
         13   -1    0    0    0    0  0.00000000000E+00  0.00000000000E+00  0.74505805969E-08  0.10566000000E+00  0.10566000000E+00 0.  1.
     999900   -1    0    0    0    0 -0.00000000000E+00 -0.00000000000E+00 -0.74505805969E-08  0.93827000000E+00  0.93827000000E+00 0.  1.
     999902    2    1    2    0    0  0.37894367941E-02 -0.22760419015E-01 -0.12376136906E-01  0.10177466986E+01  0.10174098374E+01 0.  0.
     999903    2    3    3    0    0 -0.42851939293E-01 -0.50041740403E-01  0.10777382675E+00  0.12794014539E+00  0.20322858728E-01 0.  0.
         14    1    1    2    0    0 -0.37894367941E-02  0.22760419015E-01  0.12376136906E-01  0.26183301352E-01  0.00000000000E+00 0.  1.
     999901    1    3    3    0    0  0.46641376087E-01  0.27281321387E-01 -0.12014996365E+00  0.88980655326E+00  0.88000000000E+00 0.  1.
        -11    1    4    4    0    0 -0.42384586444E-01 -0.42669936601E-01  0.10252320912E+00  0.11886314057E+00  0.51100000000E-03 0. -1.
         11    1    4    4    0    0 -0.46735284814E-03 -0.73718038015E-02  0.52506176276E-02  0.90770048168E-02  0.51100000000E-03 0.  1.
</event>
<event>
 8    1  0.1137901E+005  0.1043930E+01  0.7957747E-01            NaN
         13   -1    0    0    0    0  0.00000000000E+00  0.00000000000E+00  0.74505805969E-08  0.10566000000E+00  0.10566000000E+00 0. -1.
     999900   -1    0    0    0    0 -0.00000000000E+00 -0.00000000000E+00 -0.74505805969E-08  0.93827000000E+00  0.93827000000E+00 0.  1.
     999902    2    1    2    0    0 -0.19413698030E-01  0.14636198799E-01  0.73428962959E-02  0.10185325963E+01  0.10182159013E+01 0.  0.
     999903    2    3    3    0    0  0.40556770424E-01 -0.58273700934E-01  0.10447648095E+00  0.12816905046E+00  0.21709320032E-01 0.  0.
         14    1    1    2    0    0  0.19413698030E-01 -0.14636198799E-01 -0.73428962959E-02  0.25397403657E-01  0.00000000000E+00 0.  1.
     999901    1    3    3    0    0 -0.59970468455E-01  0.72909899732E-01 -0.97133584658E-01  0.89036354588E+00  0.88000000000E+00 0.  1.
        -11    1    4    4    0    0  0.96934523083E-02 -0.31659984589E-01  0.53256875701E-01  0.62712626897E-01  0.51100000000E-03 0. -1.
         11    1    4    4    0    0  0.30863318116E-01 -0.26613716344E-01  0.51219605252E-01  0.65456423566E-01  0.51100000000E-03 0.  1.
</event>
<event>
 8    1  0.1118868E+005  0.1043930E+01  0.7957747E-01            NaN
         13   -1    0    0    0    0  0.00000000000E+00  0.00000000000E+00  0.74505805969E-08  0.10566000000E+00  0.10566000000E+00 0.  1.
     999900   -1    0    0    0    0 -0.00000000000E+00 -0.00000000000E+00 -0.74505805969E-08  0.93827000000E+00  0.93827000000E+00 0. -1.
     999902    2    1    2    0    0  0.11852492439E-02  0.67988037061E-02 -0.22738124586E-01  0.10201676168E+01  0.10198908351E+01 0.  0.
     999903    2    3    3    0    0  0.19625644247E-01  0.89908793257E-01 -0.94090298316E-01  0.13318483720E+00  0.20407341978E-01 0.  0.
         14    1    1    2    0    0 -0.11852492439E-02 -0.67988037061E-02  0.22738124586E-01  0.23762383241E-01  0.00000000000E+00 0.  1.
     999901    1    3    3    0    0 -0.18440395003E-01 -0.83109989551E-01  0.71352173730E-01  0.88698277955E+00  0.88000000000E+00 0. -1.
        -11    1    4    4    0    0 -0.96925660427E-03  0.24827784765E-01 -0.34829752354E-01  0.42787043889E-01  0.51100000000E-03 0. -1.
         11    1    4    4    0    0  0.20594900851E-01  0.65081008492E-01 -0.59260545963E-01  0.90397793315E-01  0.51100000000E-03 0.  1.
</event>
<event>
 8    1  0.1118868E+005  0.1043930E+01  0.7957747E-01            NaN
         13   -1    0    0    0    0  0.00000000000E+00  0.00000000000E+00  0.74505805969E-08  0.10566000000E+00  0.10566000000E+00 0.  1.
     999900   -1    0    0    0    0 -0.00000000000E+00 -0.00000000000E+00 -0.74505805969E-08  0.93827000000E+00  0.93827000000E+00 0. -1.
     999902    2    1    2    0    0  0.69283373927E-02 -0.22215805379E-01  0.40438387940E-03  0.10206553916E+01  0.10203899848E+01 0.  0.
     999903    2    3    3    0    0 -0.24315209241E-02 -0.88866317989E-01  0.92920528212E-01  0.13324954608E+00  0.34901034386E-01 0.  0.
         14    1    1    2    0    0 -0.69283373927E-02  0.22215805379E-01 -0.40438387940E-03  0.23274608353E-01  0.00000000000E+00 0. -1.
     999901    1    3    3    0    0  0.93598583168E-02  0.66650512611E-01 -0.92516144333E-01  0.88740584556E+00  0.88000000000E+00 0. -1.
        -11    1    4    4    0    0  0.13006714830E-01 -0.50653540188E-01  0.65174526348E-01  0.83563962148E-01  0.51100000000E-03 0.  1.
         11    1    4    4    0    0 -0.15438235754E-01 -0.38212777802E-01  0.27746001864E-01  0.49685583935E-01  0.51100000000E-03 0. -1.
</event>
<event>
 8    1  0.1118868E+005  0.1043930E+01  0.7957747E-01            NaN
         13   -1    0    0    0    0  0.00000000000E+00  0.00000000000E+00  0.74505805969E-08  0.10566000000E+00  0.10566000000E+00 0. -1.
     999900   -1    0    0    0    0 -0.00000000000E+00 -0.00000000000E+00 -0.74505805969E-08  0.93827000000E+00  0.93827000000E+00 0. -1.
     999902    2    1    2    0    0 -0.19720725475E-01 -0.39494793910E-02  0.11485235466E-01  0.10207693430E+01  0.10205065583E+01 0.  0.
     999903    2    3    3    0    0  0.10533631789E+00  0.69937781613E-01  0.16398024487E-01  0.12884853542E+00  0.18601524341E-01 0.  0.
         14    1    1    2    0    0  0.19720725475E-01  0.39494793910E-02 -0.11485235466E-01  0.23160657038E-01  0.00000000000E+00 0.  1.
     999901    1    3    3    0    0 -0.12505704337E+00 -0.73887261004E-01 -0.49127890207E-02  0.89192080754E+00  0.88000000000E+00 0. -1.
        -11    1    4    4    0    0  0.38246998647E-01  0.24176439023E-01  0.14840927198E-01  0.47621920903E-01  0.51100000000E-03 0.  1.
         11    1    4    4    0    0  0.67089319247E-01  0.45761342590E-01  0.15570972891E-02  0.81226614515E-01  0.51100000000E-03 0. -1.
</event>
<event>
 8    1  0.1277360E+005  0.1043930E+01  0.7957747E-01            NaN
         13   -1    0    0    0    0  0.00000000000E+00  0.00000000000E+00  0.74505805969E-08  0.10566000000E+00  0.10566000000E+00 0. -1.
     999900   -1    0    0    0    0 -0.00000000000E+00 -0.00000000000E+00 -0.74505805969E-08  0.93827000000E+00  0.93827000000E+00 0. -1.
     999902    2    1    2    0    0  0.20198459554E-01 -0.11963901179E-01 -0.12978642263E-02  0.10204183614E+01  0.10201474575E+01 0.  0.
     999903    2    3    3    0    0 -0.16684998170E-01 -0.12907129287E-02 -0.12794782690E+00  0.13052257002E+00  0.19632620100E-01 0.  0.
         14    1    1    2    0    0 -0.20198459554E-01  0.11963901179E-01  0.12978642263E-02  0.23511638635E-01  0.00000000000E+00 0. -1.
     999901    1    3    3    0    0  0.36883457724E-01 -0.10673188250E-01  0.12664996268E+00  0.88989579134E+00  0.88000000000E+00 0.  1.
        -11    1    4    4    0    0 -0.16633628855E-01 -0.72422062282E-02 -0.71816386183E-01  0.74074162873E-01  0.51100000000E-03 0. -1.
         11    1    4    4    0    0 -0.51369314953E-04  0.59514932995E-02 -0.56131440722E-01  0.56448407150E-01  0.51100000000E-03 0.  1.
</event>
<event>
 8    1  0.1118868E+005  0.1043930E+01  0.7957747E-01            NaN
         13   -1    0    0    0    0  0.00000000000E+00  0.00000000000E+00  0.74505805969E-08  0.10566000000E+00  0.10566000000E+00 0.  1.
     999900   -1    0    0    0    0 -0.00000000000E+00 -0.00000000000E+00 -0.74505805969E-08  0.93827000000E+00  0.93827000000E+00 0.  1.
     999902    2    1    2    0    0  0.15855191330E-01 -0.75001223496E-02 -0.11318381346E-01  0.10230555016E+01  0.10228425170E+01 0.  0.
     999903    2    3    3    0    0 -0.12717523206E+00 -0.86592178659E-02 -0.26836978359E-01  0.13137177270E+00  0.17023441234E-01 0.  0.
         14    1    1    2    0    0 -0.15855191330E-01  0.75001223496E-02  0.11318381346E-01  0.20874498405E-01  0.00000000000E+00 0.  1.
     999901    1    3    3    0    0  0.14303042339E+00  0.11590955163E-02  0.15518597014E-01  0.89168372889E+00  0.88000000000E+00 0.  1.
        -11    1    4    4    0    0 -0.94119927720E-01  0.10945291017E-02 -0.19099239149E-01  0.96045826797E-01  0.51100000000E-03 0. -1.
         11    1    4    4    0    0 -0.33055304342E-01 -0.97537469675E-02 -0.77377392105E-02  0.35325945906E-01  0.51100000000E-03 0.  1.
</event>
<event>
 8    1  0.1118868E+005  0.1043930E+01  0.7957747E-01            NaN
         13   -1    0    0    0    0  0.00000000000E+00  0.00000000000E+00  0.74505805969E-08  0.10566000000E+00  0.10566000000E+00 0. -1.
     999900   -1    0    0    0    0 -0.00000000000E+00 -0.00000000000E+00 -0.74505805969E-08  0.93827000000E+00  0.93827000000E+00 0.  1.
     999902    2    1    2    0    0  0.11822984911E-01  0.18859073470E-01  0.94339821716E-02  0.10197546480E+01  0.10194680449E+01 0.  0.
     999903    2    3    3    0    0 -0.37795855194E-01  0.12459029883E+00 -0.63466687263E-02  0.13189759293E+00  0.20135182746E-01 0.  0.
         14    1    1    2    0    0 -0.11822984911E-01 -0.18859073470E-01 -0.94339821716E-02  0.24175351992E-01  0.00000000000E+00 0. -1.
     999901    1    3    3    0    0  0.49618840104E-01 -0.10573122536E+00  0.15780650898E-01  0.88785705508E+00  0.88000000000E+00 0. -1.
        -11    1    4    4    0    0 -0.10366483653E-01  0.62835793690E-01  0.25626669335E-02  0.63738758498E-01  0.51100000000E-03 0. -1.
         11    1    4    4    0    0 -0.27429371540E-01  0.61754505140E-01 -0.89093356598E-02  0.68158834432E-01  0.51100000000E-03 0.  1.
</event>
<event>
 8    1  0.1118868E+005  0.1043930E+01  0.7957747E-01            NaN
         13   -1    0    0    0    0  0.00000000000E+00  0.00000000000E+00  0.74505805969E-08  0.10566000000E+00  0.10566000000E+00 0. -1.
     999900   -1    0    0    0    0 -0.00000000000E+00 -0.00000000000E+00 -0.74505805969E-08  0.93827000000E+00  0.93827000000E+00 0.  1.
     999902    2    1    2    0    0  0.11242432513E-01  0.19980061444E-01 -0.60208247042E-02  0.10202267202E+01  0.10199513298E+01 0.  0.
     999903    2    3    3    0    0 -0.65118286600E-01 -0.97290054001E-01 -0.48143340475E-01  0.12817428577E+00  0.20127604021E-01 0.  0.
         14    1    1    2    0    0 -0.11242432513E-01 -0.19980061444E-01  0.60208247042E-02  0.23703279820E-01  0.00000000000E+00 0.  1.
     999901    1    3    3    0    0  0.76360719113E-01  0.11727011544E+00  0.42122515771E-01  0.89205243441E+00  0.88000000000E+00 0. -1.
        -11    1    4    4    0    0 -0.30229884306E-01 -0.44088753513E-01 -0.32827501430E-01  0.62734121996E-01  0.51100000000E-03 0.  1.
         11    1    4    4    0    0 -0.34888402294E-01 -0.53201300488E-01 -0.15315839045E-01  0.65440163775E-01  0.51100000000E-03 0. -1.
</event>
<event>
 8    1  0.1118868E+005  0.1043930E+01  0.7957747E-01            NaN
         13   -1    0    0    0    0  0.00000000000E+00  0.00000000000E+00  0.74505805969E-08  0.10566000000E+00  0.10566000000E+00 0.  1.
     999900   -1    0    0    0    0 -0.00000000000E+00 -0.00000000000E+00 -0.74505805969E-08  0.93827000000E+00  0.93827000000E+00 0.  1.
     999902    2    1    2    0    0 -0.18493085943E-01  0.79390050412E-02 -0.12119887943E-01  0.10204371561E+01  0.10201666903E+01 0.  0.
     999903    2    3    3    0    0  0.97276619267E-01  0.58512479526E-01 -0.60301544188E-01  0.13011037739E+00  0.20149023721E-01 0.  0.
         14    1    1    2    0    0  0.18493085943E-01 -0.79390050412E-02  0.12119887943E-01  0.23492843857E-01  0.00000000000E+00 0.  1.
     999901    1    3    3    0    0 -0.11576970521E+00 -0.50573474485E-01  0.48181656246E-01  0.89032677875E+00  0.88000000000E+00 0. -1.
        -11    1    4    4    0    0  0.32956433183E-01  0.21495568231E-01 -0.31870136299E-01  0.50637462915E-01  0.51100000000E-03 0.  1.
         11    1    4    4    0    0  0.64320186083E-01  0.37016911295E-01 -0.28431407889E-01  0.79472914475E-01  0.51100000000E-03 0. -1.
</event>
<event>
 8    1  0.1118868E+005  0.1043930E+01  0.7957747E-01            NaN
         13   -1    0    0    0    0  0.00000000000E+00  0.00000000000E+00  0.74505805969E-08  0.10566000000E+00  0.10566000000E+00 0. -1.
     999900   -1    0    0    0    0 -0.00000000000E+00 -0.00000000000E+00 -0.74505805969E-08  0.93827000000E+00  0.93827000000E+00 0. -1.
     999902    2    1    2    0    0 -0.92934944097E-02 -0.57758324472E-02 -0.20261552952E-01  0.10209026292E+01  0.10206428947E+01 0.  0.
     999903    2    3    3    0    0 -0.12802569967E+00  0.24031770879E-02 -0.29291622457E-01  0.13284532533E+00  0.19837496849E-01 0.  0.
         14    1    1    2    0    0  0.92934944097E-02  0.57758324472E-02  0.20261552952E-01  0.23027370819E-01  0.00000000000E+00 0. -1.
     999901    1    3    3    0    0  0.11873220526E+00 -0.81790095351E-02  0.90300695056E-02  0.88805730385E+00  0.88000000000E+00 0.  1.
        -11    1    4    4    0    0 -0.57349791682E-01  0.49355802646E-03 -0.30709843086E-02  0.57436349738E-01  0.51100000000E-03 0. -1.
         11    1    4    4    0    0 -0.70675907985E-01  0.19096190614E-02 -0.26220638149E-01  0.75408975596E-01  0.51100000000E-03 0.  1.
</event>
<event>
 8    1  0.1118868E+005  0.1043930E+01  0.7957747E-01            NaN
         13   -1    0    0    0    0  0.00000000000E+00  0.00000000000E+00  0.74505805969E-08  0.10566000000E+00  0.10566000000E+00 0. -1.
     999900   -1    0    0    0    0 -0.00000000000E+00 -0.00000000000E+00 -0.74505805969E-08  0.93827000000E+00  0.93827000000E+00 0. -1.
     999902    2    1    2    0    0 -0.13460267939E-02  0.21106887697E-01  0.11207893080E-01  0.10199940571E+01  0.10197131690E+01 0.  0.
     999903    2    3    3    0    0 -0.85037196454E-01 -0.94114432615E-01 -0.40691623453E-02  0.12841481048E+00  0.19620251319E-01 0.  0.
         14    1    1    2    0    0  0.13460267939E-02 -0.21106887697E-01 -0.11207893080E-01  0.23935942925E-01  0.00000000000E+00 0.  1.
     999901    1    3    3    0    0  0.83691169660E-01  0.11522132031E+00  0.15277055425E-01  0.89157924659E+00  0.88000000000E+00 0.  1.
        -11    1    4    4    0    0 -0.45379956119E-01 -0.41280100694E-01 -0.97032875512E-02  0.62111207048E-01  0.51100000000E-03 0. -1.
         11    1    4    4    0    0 -0.39657240335E-01 -0.52834331921E-01  0.56341252059E-02  0.66303603434E-01  0.51100000000E-03 0.  1.
</event>
<event>
 8    1  0.1118868E+005  0.1043930E+01  0.7957747E-01            NaN
         13   -1    0    0    0    0  0.00000000000E+00  0.00000000000E+00  0.74505805969E-08  0.10566000000E+00  0.10566000000E+00 0.  1.
     999900   -1    0    0    0    0 -0.00000000000E+00 -0.00000000000E+00 -0.74505805969E-08  0.93827000000E+00  0.93827000000E+00 0.  1.
     999902    2    1    2    0    0  0.78514331599E-02  0.28120515196E-02 -0.27300619018E-01  0.10153839594E+01  0.10149826149E+01 0.  0.
     999903    2    3    3    0    0 -0.10002489411E-01  0.11948133414E+00  0.31390788074E-01  0.12556646948E+00  0.20142434784E-01 0.  0.
         14    1    1    2    0    0 -0.78514331599E-02 -0.28120515196E-02  0.27300619018E-01  0.28546040622E-01  0.00000000000E+00 0.  1.
     999901    1    3    3    0    0  0.17853922571E-01 -0.11666928262E+00 -0.58691407093E-01  0.88981748990E+00  0.88000000000E+00 0.  1.
        -11    1    4    4    0    0  0.12083626987E-02  0.87479976117E-01  0.25646232685E-01  0.91171249492E-01  0.51100000000E-03 0.  1.
         11    1    4    4    0    0 -0.11210852110E-01  0.32001358026E-01  0.57445553894E-02  0.34395219990E-01  0.51100000000E-03 0. -1.
</event>
<event>
 8    1  0.1118868E+005  0.1043930E+01  0.7957747E-01            NaN
         13   -1    0    0    0    0  0.00000000000E+00  0.00000000000E+00  0.74505805969E-08  0.10566000000E+00  0.10566000000E+00 0.  1.
     999900   -1    0    0    0    0 -0.00000000000E+00 -0.00000000000E+00 -0.74505805969E-08  0.93827000000E+00  0.93827000000E+00 0.  1.
     999902    2    1    2    0    0 -0.42850604097E-02  0.18208138554E-01 -0.13886994125E-01  0.10206330762E+01  0.10203671543E+01 0.  0.
     999903    2    3    3    0    0 -0.73415984148E-01 -0.43567773081E-01  0.94727578109E-01  0.12912173406E+00  0.20274382187E-01 0.  0.
         14    1    1    2    0    0  0.42850604097E-02 -0.18208138554E-01  0.13886994125E-01  0.23296923792E-01  0.00000000000E+00 0.  1.
     999901    1    3    3    0    0  0.69130923738E-01  0.61775911635E-01 -0.10861457223E+00  0.89151134215E+00  0.88000000000E+00 0.  1.
        -11    1    4    4    0    0 -0.93695651345E-02 -0.15232747270E-02  0.19770626111E-01  0.21937362981E-01  0.51100000000E-03 0. -1.
         11    1    4    4    0    0 -0.64046419013E-01 -0.42044498354E-01  0.74956951997E-01  0.10718437108E+00  0.51100000000E-03 0.  1.
</event>
<event>
 7    1  0.1118868E+005  0.1043930E+01  0.7957747E-01            NaN
         13   -1    0    0    0    0  0.00000000000E+00  0.00000000000E+00  0.74505805969E-08  0.10566000000E+00  0.10566000000E+00 0.  1.
     999900   -1    0    0    0    0 -0.00000000000E+00 -0.00000000000E+00 -0.74505805969E-08  0.93827000000E+00  0.93827000000E+00 0.  1.
     999902    2    1    2    0    0 -0.11268105514E-01 -0.11414567387E-01  0.17212898175E-01  0.10204024329E+01  0.10201311576E+01 0.  0.
         14    1    1    2    0    0  0.11268105514E-01  0.11414567387E-01 -0.17212898175E-01  0.23527567109E-01  0.00000000000E+00 0. -1.
     999901    1    3    3    0    0 -0.80764994420E-01 -0.26322142615E-01  0.11685514611E+00  0.89177966151E+00  0.88000000000E+00 0. -1.
        -11    1    3    3    0    0  0.69190838589E-02  0.35219665398E-02 -0.42218077513E-01  0.42929071264E-01  0.51100000000E-03 0. -1.
         11    1    3    3    0    0  0.62577805047E-01  0.11385608688E-01 -0.57424170421E-01  0.85693700114E-01  0.51100000000E-03 0.  1.
</event>
<event>
 8    1  0.1118868E+005  0.1043930E+01  0.7957747E-01            NaN
         13   -1    0    0    0    0  0.00000000000E+00  0.00000000000E+00  0.74505805969E-08  0.10566000000E+00  0.10566000000E+00 0.  1.
     999900   -1    0    0    0    0 -0.00000000000E+00 -0.00000000000E+00 -0.74505805969E-08  0.93827000000E+00  0.93827000000E+00 0. -1.
     999902    2    1    2    0    0  0.13583698017E-01  0.26146490068E-02  0.19749886401E-01  0.10198175291E+01  0.10195324327E+01 0.  0.
     999903    2    3    3    0    0  0.63895346295E-01 -0.11238298647E+00  0.56643277407E-02  0.13079890099E+00  0.19071365045E-01 0.  0.
         14    1    1    2    0    0 -0.13583698017E-01 -0.26146490068E-02 -0.19749886401E-01  0.24112470925E-01  0.00000000000E+00 0. -1.
     999901    1    3    3    0    0 -0.50311648278E-01  0.11499763548E+00  0.14085558660E-01  0.88901862808E+00  0.88000000000E+00 0.  1.
        -11    1    4    4    0    0  0.27821400471E-01 -0.61519427226E-01  0.10149515710E-01  0.68278430273E-01  0.51100000000E-03 0.  1.
         11    1    4    4    0    0  0.36073945823E-01 -0.50863559248E-01 -0.44851879689E-02  0.62520470718E-01  0.51100000000E-03 0. -1.
</event>
<event>
 8    1  0.1118868E+005  0.1043930E+01  0.7957747E-01            NaN
         13   -1    0    0    0    0  0.00000000000E+00  0.00000000000E+00  0.74505805969E-08  0.10566000000E+00  0.10566000000E+00 0.  1.
     999900   -1    0    0    0    0 -0.00000000000E+00 -0.00000000000E+00 -0.74505805969E-08  0.93827000000E+00  0.93827000000E+00 0. -1.
     999902    2    1    2    0    0 -0.20238382140E-01 -0.59464942866E-02 -0.10493884763E-01  0.10203699804E+01  0.10200979474E+01 0.  0.
     999903    2    3    3    0    0  0.95298879883E-03 -0.55497773305E-01  0.11555839372E+00  0.12975582132E+00  0.20047936970E-01 0.  0.
         14    1    1    2    0    0  0.20238382140E-01  0.59464942866E-02  0.10493884763E-01  0.23560019596E-01  0.00000000000E+00 0.  1.
     999901    1    3    3    0    0 -0.21191370939E-01  0.49551279018E-01 -0.12605227848E+00  0.89061415909E+00  0.88000000000E+00 0. -1.
        -11    1    4    4    0    0 -0.14944469867E-02  0.13287929341E-02  0.53433961238E-02  0.57281817005E-02  0.51100000000E-03 0.  1.
         11    1    4    4    0    0  0.24474357855E-02 -0.56826566239E-01  0.11021499760E+00  0.12402763962E+00  0.51100000000E-03 0. -1.
</event>
<event>
 8    1  0.1118868E+005  0.1043930E+01  0.7957747E-01            NaN
         13   -1    0    0    0    0  0.00000000000E+00  0.00000000000E+00  0.74505805969E-08  0.10566000000E+00  0.10566000000E+00 0.  1.
     999900   -1    0    0    0    0 -0.00000000000E+00 -0.00000000000E+00 -0.74505805969E-08  0.93827000000E+00  0.93827000000E+00 0.  1.
     999902    2    1    2    0    0 -0.96480300875E-03 -0.23434922789E-01  0.69075504012E-03  0.10204650561E+01  0.10201952397E+01 0.  0.
     999903    2    3    3    0    0  0.11003692655E+00  0.44127197084E-01 -0.47785591833E-01  0.12960256376E+00  0.21401565799E-01 0.  0.
         14    1    1    2    0    0  0.96480300875E-03  0.23434922789E-01 -0.69075504012E-03  0.23464943927E-01  0.00000000000E+00 0.  1.
     999901    1    3    3    0    0 -0.11100172956E+00 -0.67562119872E-01  0.48476346873E-01  0.89086249231E+00  0.88000000000E+00 0. -1.
        -11    1    4    4    0    0  0.61433912420E-01  0.14378469860E-01 -0.19907962358E-01  0.66162331254E-01  0.51100000000E-03 0. -1.
         11    1    4    4    0    0  0.48603014132E-01  0.29748727224E-01 -0.27877629475E-01  0.63440232505E-01  0.51100000000E-03 0.  1.
</event>
<event>
 8    1  0.1118868E+005  0.1043930E+01  0.7957747E-01            NaN
         13   -1    0    0    0    0  0.00000000000E+00  0.00000000000E+00  0.74505805969E-08  0.10566000000E+00  0.10566000000E+00 0.  1.
     999900   -1    0    0    0    0 -0.00000000000E+00 -0.00000000000E+00 -0.74505805969E-08  0.93827000000E+00  0.93827000000E+00 0. -1.
     999902    2    1    2    0    0 -0.15446755165E-02 -0.85549226188E-02 -0.20908840104E-01  0.10212859651E+01  0.10210349015E+01 0.  0.
     999903    2    3    3    0    0 -0.60973490738E-01  0.11295920628E+00 -0.15289311491E-01  0.13093263818E+00  0.20785664283E-01 0.  0.
         14    1    1    2    0    0  0.15446755165E-02  0.85549226188E-02  0.20908840104E-01  0.22644034931E-01  0.00000000000E+00 0.  1.
     999901    1    3    3    0    0  0.59428815222E-01 -0.12151412889E+00 -0.56195286134E-02  0.89035332689E+00  0.88000000000E+00 0.  1.
        -11    1    4    4    0    0 -0.24853551965E-01  0.66929535412E-01 -0.11291762345E-01  0.72284346670E-01  0.51100000000E-03 0. -1.
         11    1    4    4    0    0 -0.36119938773E-01  0.46029670864E-01 -0.39975491454E-02  0.58648291510E-01  0.51100000000E-03 0.  1.
</event>
<event>
 8    1  0.1118868E+005  0.1043930E+01  0.7957747E-01            NaN
         13   -1    0    0    0    0  0.00000000000E+00  0.00000000000E+00  0.74505805969E-08  0.10566000000E+00  0.10566000000E+00 0.  1.
     999900   -1    0    0    0    0 -0.00000000000E+00 -0.00000000000E+00 -0.74505805969E-08  0.93827000000E+00  0.93827000000E+00 0. -1.
     999902    2    1    2    0    0  0.23995802344E-01  0.40470070762E-02  0.39931555606E-02  0.10192698685E+01  0.10189715122E+01 0.  0.
     999903    2    3    3    0    0  0.11106747715E-01 -0.95584078984E-01  0.84911719551E-01  0.12986540757E+00  0.19883359053E-01 0.  0.
         14    1    1    2    0    0 -0.23995802344E-01 -0.40470070762E-02 -0.39931555606E-02  0.24660131544E-01  0.00000000000E+00 0.  1.
     999901    1    3    3    0    0  0.12889054630E-01  0.99631086061E-01 -0.80918563990E-01  0.88940446088E+00  0.88000000000E+00 0. -1.
        -11    1    4    4    0    0  0.63030374302E-02 -0.78916775181E-02  0.12201622096E-01  0.15847635713E-01  0.51100000000E-03 0. -1.
         11    1    4    4    0    0  0.48037102846E-02 -0.87692401466E-01  0.72710097454E-01  0.11401777186E+00  0.51100000000E-03 0.  1.
</event>
<event>
 8    1  0.1118868E+005  0.1043930E+01  0.7957747E-01            NaN
         13   -1    0    0    0    0  0.00000000000E+00  0.00000000000E+00  0.74505805969E-08  0.10566000000E+00  0.10566000000E+00 0. -1.
     999900   -1    0    0    0    0 -0.00000000000E+00 -0.00000000000E+00 -0.74505805969E-08  0.93827000000E+00  0.93827000000E+00 0.  1.
     999902    2    1    2    0    0  0.22982543473E-01 -0.56159771795E-02  0.42048060199E-02  0.10199004994E+01  0.10196173850E+01 0.  0.
     999903    2    3    3    0    0  0.79318962435E-01 -0.38594971407E-01  0.96931359623E-01  0.13262398114E+00  0.20306705172E-01 0.  0.
         14    1    1    2    0    0 -0.22982543473E-01  0.56159771795E-02 -0.42048060199E-02  0.24029500574E-01  0.00000000000E+00 0.  1.
     999901    1    3    3    0    0 -0.56336418962E-01  0.32978994227E-01 -0.92726553603E-01  0.88727651829E+00  0.88000000000E+00 0.  1.
        -11    1    4    4    0    0  0.56064959417E-01 -0.26607885505E-01  0.80805013908E-01  0.10188704844E+00  0.51100000000E-03 0.  1.
         11    1    4    4    0    0  0.23254003018E-01 -0.11987085902E-01  0.16126345715E-01  0.30736932701E-01  0.51100000000E-03 0. -1.
</event>
<event>
 8    1  0.1118868E+005  0.1043930E+01  0.7957747E-01            NaN
         13   -1    0    0    0    0  0.00000000000E+00  0.00000000000E+00  0.74505805969E-08  0.10566000000E+00  0.10566000000E+00 0.  1.
     999900   -1    0    0    0    0 -0.00000000000E+00 -0.00000000000E+00 -0.74505805969E-08  0.93827000000E+00  0.93827000000E+00 0.  1.
     999902    2    1    2    0    0 -0.13009206493E-01  0.16274640321E-01  0.11129621993E-01  0.10203085721E+01  0.10200351025E+01 0.  0.
     999903    2    3    3    0    0  0.92409002145E-01  0.41203940402E-01 -0.77809881201E-01  0.12921671153E+00  0.20134362267E-01 0.  0.
         14    1    1    2    0    0  0.13009206493E-01 -0.16274640321E-01 -0.11129621993E-01  0.23621427918E-01  0.00000000000E+00 0. -1.
     999901    1    3    3    0    0 -0.10541820864E+00 -0.24929300081E-01  0.88939503194E-01  0.89109186055E+00  0.88000000000E+00 0. -1.
        -11    1    4    4    0    0  0.59065133711E-01  0.36565375887E-01 -0.53730934131E-01  0.87823636555E-01  0.51100000000E-03 0.  1.
         11    1    4    4    0    0  0.33343868434E-01  0.46385645151E-02 -0.24078947070E-01  0.41393074975E-01  0.51100000000E-03 0. -1.
</event>
<event>
 8    1  0.1118868E+005  0.1043930E+01  0.7957747E-01            NaN
         13   -1    0    0    0    0  0.00000000000E+00  0.00000000000E+00  0.74505805969E-08  0.10566000000E+00  0.10566000000E+00 0.  1.
     999900   -1    0    0    0    0 -0.00000000000E+00 -0.00000000000E+00 -0.74505805969E-08  0.93827000000E+00  0.93827000000E+00 0. -1.
     999902    2    1    2    0    0  0.15243661420E-01  0.23736564916E-01  0.25560909474E-02  0.10156046169E+01  0.10152095402E+01 0.  0.
     999903    2    3    3    0    0 -0.66150904578E-01 -0.87187769557E-01 -0.53411802338E-01  0.12315759413E+00  0.18366355814E-01 0.  0.
         14    1    1    2    0    0 -0.15243661420E-01 -0.23736564916E-01 -0.25560909474E-02  0.28325383112E-01  0.00000000000E+00 0.  1.
     999901    1    3    3    0    0  0.81394565997E-01  0.11092433447E+00  0.55967893285E-01  0.89244702276E+00  0.88000000000E+00 0.  1.
        -11    1    4    4    0    0 -0.22144684458E-01 -0.37650228737E-01 -0.29506037462E-01  0.52714268859E-01  0.51100000000E-03 0. -1.
         11    1    4    4    0    0 -0.44006220120E-01 -0.49537540820E-01 -0.23905764876E-01  0.70443325270E-01  0.51100000000E-03 0.  1.
</event>
<event>
 8    1  0.1118868E+005  0.1043930E+01  0.7957747E-01            NaN
         13   -1    0    0    0    0  0.00000000000E+00  0.00000000000E+00  0.74505805969E-08  0.10566000000E+00  0.10566000000E+00 0.  1.
     999900   -1    0    0    0    0 -0.00000000000E+00 -0.00000000000E+00 -0.74505805969E-08  0.93827000000E+00  0.93827000000E+00 0.  1.
     999902    2    1    2    0    0  0.26542531092E-02 -0.22780063972E-01  0.54672906187E-02  0.10203531546E+01  0.10200807284E+01 0.  0.
     999903    2    3    3    0    0 -0.42368407993E-01 -0.49085627484E-03 -0.12125740168E+00  0.12985722732E+00  0.19084524898E-01 0.  0.
         14    1    1    2    0    0 -0.26542531092E-02  0.22780063972E-01 -0.54672906187E-02  0.23576845439E-01  0.00000000000E+00 0.  1.
     999901    1    3    3    0    0  0.45022661103E-01 -0.22289207697E-01  0.12672469230E+00  0.89049592724E+00  0.88000000000E+00 0. -1.
        -11    1    4    4    0    0 -0.11933555597E-01  0.57863610984E-02 -0.56358623041E-01  0.57900321554E-01  0.51100000000E-03 0.  1.
         11    1    4    4    0    0 -0.30434852396E-01 -0.62772173733E-02 -0.64898778635E-01  0.71956905768E-01  0.51100000000E-03 0. -1.
</event>
<event>
 8    1  0.1118868E+005  0.1043930E+01  0.7957747E-01            NaN
         13   -1    0    0    0    0  0.00000000000E+00  0.00000000000E+00  0.74505805969E-08  0.10566000000E+00  0.10566000000E+00 0.  1.
     999900   -1    0    0    0    0 -0.00000000000E+00 -0.00000000000E+00 -0.74505805969E-08  0.93827000000E+00  0.93827000000E+00 0. -1.
     999902    2    1    2    0    0  0.19370658927E-01  0.10583587533E-01 -0.94618069888E-02  0.10199141606E+01  0.10196313718E+01 0.  0.
     999903    2    3    3    0    0 -0.72811202398E-01  0.64547460140E-01 -0.85652869298E-01  0.13018685791E+00  0.12014913629E-01 0.  0.
         14    1    1    2    0    0 -0.19370658927E-01 -0.10583587533E-01  0.94618069888E-02  0.24015839436E-01  0.00000000000E+00 0.  1.
     999901    1    3    3    0    0  0.92181861325E-01 -0.53963872608E-01  0.76191062309E-01  0.88972730265E+00  0.88000000000E+00 0. -1.
        -11    1    4    4    0    0 -0.49865723674E-01  0.41951854620E-01 -0.64264278370E-01  0.91524352491E-01  0.51100000000E-03 0. -1.
         11    1    4    4    0    0 -0.22945478724E-01  0.22595605521E-01 -0.21388590928E-01  0.38662505424E-01  0.51100000000E-03 0.  1.
</event>
<event>
 8    1  0.1118868E+005  0.1043930E+01  0.7957747E-01            NaN
         13   -1    0    0    0    0  0.00000000000E+00  0.00000000000E+00  0.74505805969E-08  0.10566000000E+00  0.10566000000E+00 0. -1.
     999900   -1    0    0    0    0 -0.00000000000E+00 -0.00000000000E+00 -0.74505805969E-08  0.93827000000E+00  0.93827000000E+00 0.  1.
     999902    2    1    2    0    0  0.11418903358E-01  0.75886375208E-02 -0.18879774260E-01  0.10205970908E+01  0.10203303373E+01 0.  0.
     999903    2    3    3    0    0  0.92251186253E-01  0.47573366922E-01  0.76978135256E-01  0.13080982675E+00  0.20299528582E-01 0.  0.
         14    1    1    2    0    0 -0.11418903358E-01 -0.75886375208E-02  0.18879774260E-01  0.23332909150E-01  0.00000000000E+00 0. -1.
     999901    1    3    3    0    0 -0.80832282894E-01 -0.39984729402E-01 -0.95857909516E-01  0.88978726410E+00  0.88000000000E+00 0.  1.
        -11    1    4    4    0    0  0.48271164043E-01  0.13608562022E-01  0.38217378852E-01  0.63056541339E-01  0.51100000000E-03 0.  1.
         11    1    4    4    0    0  0.43980022209E-01  0.33964804900E-01  0.38760756405E-01  0.67753285407E-01  0.51100000000E-03 0. -1.
</event>
<event>
 8    1  0.1118868E+005  0.1043930E+01  0.7957747E-01            NaN
         13   -1    0    0    0    0  0.00000000000E+00  0.00000000000E+00  0.74505805969E-08  0.10566000000E+00  0.10566000000E+00 0. -1.
     999900   -1    0    0    0    0 -0.00000000000E+00 -0.00000000000E+00 -0.74505805969E-08  0.93827000000E+00  0.93827000000E+00 0.  1.
     999902    2    1    2    0    0 -0.38601773179E-02 -0.18867945329E-02  0.22889593492E-01  0.10206406365E+01  0.10203748891E+01 0.  0.
     999903    2    3    3    0    0 -0.88958120879E-01 -0.87747569664E-01  0.38473136574E-01  0.13223949988E+00  0.19847413927E-01 0.  0.
         14    1    1    2    0    0  0.38601773179E-02  0.18867945329E-02 -0.22889593492E-01  0.23289363511E-01  0.00000000000E+00 0.  1.
     999901    1    3    3    0    0  0.85097943561E-01  0.85860775131E-01 -0.15583543082E-01  0.88840113660E+00  0.88000000000E+00 0. -1.
        -11    1    4    4    0    0 -0.73920979424E-01 -0.79151536043E-01  0.27537369377E-01  0.11174902546E+00  0.51100000000E-03 0. -1.
         11    1    4    4    0    0 -0.15037141455E-01 -0.85960336208E-02  0.10935767197E-01  0.20490474429E-01  0.51100000000E-03 0.  1.
</event>
<event>
 8    1  0.1118868E+005  0.1043930E+01  0.7957747E-01            NaN
         13   -1    0    0    0    0  0.00000000000E+00  0.00000000000E+00  0.74505805969E-08  0.10566000000E+00  0.10566000000E+00 0. -1.
     999900   -1    0    0    0    0 -0.00000000000E+00 -0.00000000000E+00 -0.74505805969E-08  0.93827000000E+00  0.93827000000E+00 0.  1.
     999902    2    1    2    0    0  0.13120961511E-01  0.16531177616E-01  0.10878067196E-01  0.10201861206E+01  0.10199097748E+01 0.  0.
     999903    2    3    3    0    0 -0.24934009706E-01 -0.89843062850E-01 -0.86359306713E-01  0.12765109787E+00  0.11974646082E-01 0.  0.
         14    1    1    2    0    0 -0.13120961511E-01 -0.16531177616E-01 -0.10878067196E-01  0.23743879427E-01  0.00000000000E+00 0.  1.
     999901    1    3    3    0    0  0.38054971217E-01  0.10637424047E+00  0.97237373909E-01  0.89253502270E+00  0.88000000000E+00 0. -1.
        -11    1    4    4    0    0 -0.16416129825E-01 -0.60542001524E-01 -0.65446352609E-01  0.90654892079E-01  0.51100000000E-03 0.  1.
         11    1    4    4    0    0 -0.85178798811E-02 -0.29301061326E-01 -0.20912954104E-01  0.36996205790E-01  0.51100000000E-03 0. -1.
</event>
<event>
 8    1  0.1118868E+005  0.1043930E+01  0.7957747E-01            NaN
         13   -1    0    0    0    0  0.00000000000E+00  0.00000000000E+00  0.74505805969E-08  0.10566000000E+00  0.10566000000E+00 0. -1.
     999900   -1    0    0    0    0 -0.00000000000E+00 -0.00000000000E+00 -0.74505805969E-08  0.93827000000E+00  0.93827000000E+00 0.  1.
     999902    2    1    2    0    0 -0.19807810757E-01  0.69347293308E-02 -0.81026322406E-02  0.10214335006E+01  0.10211857341E+01 0.  0.
     999903    2    3    3    0    0 -0.99285589315E-01  0.67904313062E-01  0.54348813716E-01  0.13355164438E+00  0.20337752752E-01 0.  0.
         14    1    1    2    0    0  0.19807810757E-01 -0.69347293308E-02  0.81026322406E-02  0.22496499441E-01  0.00000000000E+00 0. -1.
     999901    1    3    3    0    0  0.79477778558E-01 -0.60969583731E-01 -0.62451445957E-01  0.88788185618E+00  0.88000000000E+00 0.  1.
        -11    1    4    4    0    0 -0.20373389533E-01  0.24695746818E-01  0.13730580428E-01  0.34838841425E-01  0.51100000000E-03 0.  1.
         11    1    4    4    0    0 -0.78912199782E-01  0.43208566243E-01  0.40618233287E-01  0.98712802957E-01  0.51100000000E-03 0. -1.
</event>
<event>
 8    1  0.1118868E+005  0.1043930E+01  0.7957747E-01            NaN
         13   -1    0    0    0    0  0.00000000000E+00  0.00000000000E+00  0.74505805969E-08  0.10566000000E+00  0.10566000000E+00 0. -1.
     999900   -1    0    0    0    0 -0.00000000000E+00 -0.00000000000E+00 -0.74505805969E-08  0.93827000000E+00  0.93827000000E+00 0. -1.
     999902    2    1    2    0    0 -0.18858752291E-01  0.15852228816E-01 -0.72470932943E-02  0.10182499288E+01  0.10179260540E+01 0.  0.
     999903    2    3    3    0    0 -0.27254165479E-01 -0.63034587146E-01  0.10597908657E+00  0.12745602417E+00  0.17243044784E-01 0.  0.
         14    1    1    2    0    0  0.18858752291E-01 -0.15852228816E-01  0.72470932943E-02  0.25680071215E-01  0.00000000000E+00 0.  1.
     999901    1    3    3    0    0  0.83954131876E-02  0.78886815962E-01 -0.11322617987E+00  0.89079390462E+00  0.88000000000E+00 0. -1.
        -11    1    4    4    0    0 -0.43256696760E-03 -0.13588449294E-01  0.13208943021E-01  0.18962340708E-01  0.51100000000E-03 0.  1.
         11    1    4    4    0    0 -0.26821598511E-01 -0.49446137851E-01  0.92770143552E-01  0.10849368346E+00  0.51100000000E-03 0. -1.
</event>
<event>
 8    1  0.1118868E+005  0.1043930E+01  0.7957747E-01            NaN
         13   -1    0    0    0    0  0.00000000000E+00  0.00000000000E+00  0.74505805969E-08  0.10566000000E+00  0.10566000000E+00 0.  1.
     999900   -1    0    0    0    0 -0.00000000000E+00 -0.00000000000E+00 -0.74505805969E-08  0.93827000000E+00  0.93827000000E+00 0. -1.
     999902    2    1    2    0    0 -0.22285242197E-01 -0.81728758583E-03  0.88671996358E-02  0.10199315165E+01  0.10196491412E+01 0.  0.
     999903    2    3    3    0    0  0.25000471817E-01 -0.11404560413E+00 -0.51787990116E-01  0.12934988499E+00  0.20444398122E-01 0.  0.
         14    1    1    2    0    0  0.22285242197E-01  0.81728758583E-03 -0.88671996358E-02  0.23998483455E-01  0.00000000000E+00 0. -1.
     999901    1    3    3    0    0 -0.47285714014E-01  0.11322831654E+00  0.60655189752E-01  0.89058163155E+00  0.88000000000E+00 0. -1.
        -11    1    4    4    0    0  0.14206621130E-01 -0.30251681663E-01 -0.88494722464E-02  0.34576966429E-01  0.51100000000E-03 0.  1.
         11    1    4    4    0    0  0.10793850687E-01 -0.83793922467E-01 -0.42938517870E-01  0.94772918562E-01  0.51100000000E-03 0. -1.
</event>
<event>
 8    1  0.1118868E+005  0.1043930E+01  0.7957747E-01            NaN
         13   -1    0    0    0    0  0.00000000000E+00  0.00000000000E+00  0.74505805969E-08  0.10566000000E+00  0.10566000000E+00 0.  1.
     999900   -1    0    0    0    0 -0.00000000000E+00 -0.00000000000E+00 -0.74505805969E-08  0.93827000000E+00  0.93827000000E+00 0.  1.
     999902    2    1    2    0    0  0.10777403751E-02  0.18365910457E-01 -0.14939558313E-01  0.10202306626E+01  0.10199553649E+01 0.  0.
     999903    2    3    3    0    0 -0.47252415140E-01  0.47412527180E-01  0.10928428017E+00  0.12971897152E+00  0.20080319000E-01 0.  0.
         14    1    1    2    0    0 -0.10777403751E-02 -0.18365910457E-01  0.14939558313E-01  0.23699337413E-01  0.00000000000E+00 0.  1.
     999901    1    3    3    0    0  0.48330155515E-01 -0.29046616724E-01 -0.12422383848E+00  0.89051169106E+00  0.88000000000E+00 0.  1.
        -11    1    4    4    0    0 -0.45679736079E-01  0.49239248469E-01  0.10295898644E+00  0.12293069547E+00  0.51100000000E-03 0.  1.
         11    1    4    4    0    0 -0.15726790607E-02 -0.18267212882E-02  0.63252937253E-02  0.67882760554E-02  0.51100000000E-03 0. -1.
</event>
<event>
 8    1  0.1120390E+005  0.1043930E+01  0.7957747E-01            NaN
         13   -1    0    0    0    0  0.00000000000E+00  0.00000000000E+00  0.74505805969E-08  0.10566000000E+00  0.10566000000E+00 0. -1.
     999900   -1    0    0    0    0 -0.00000000000E+00 -0.00000000000E+00 -0.74505805969E-08  0.93827000000E+00  0.93827000000E+00 0.  1.
     999902    2    1    2    0    0  0.15277634213E-01  0.44712382754E-03 -0.18409417980E-01  0.10200027624E+01  0.10197220811E+01 0.  0.
     999903    2    3    3    0    0  0.18002273221E-01  0.56136752161E-01  0.11259235446E+00  0.12855998652E+00  0.19370468912E-01 0.  0.
         14    1    1    2    0    0 -0.15277634213E-01 -0.44712382754E-03  0.18409417980E-01  0.23927237559E-01  0.00000000000E+00 0. -1.
     999901    1    3    3    0    0 -0.27246390079E-02 -0.55689628333E-01 -0.13100177244E+00  0.89144277592E+00  0.88000000000E+00 0.  1.
        -11    1    4    4    0    0  0.14027415447E-01  0.14365076177E-01  0.37252337349E-01  0.42321644069E-01  0.51100000000E-03 0. -1.
         11    1    4    4    0    0  0.39748577739E-02  0.41771675984E-01  0.75340017113E-01  0.86238342449E-01  0.51100000000E-03 0.  1.
</event>
<event>
 8    1  0.1118868E+005  0.1043930E+01  0.7957747E-01            NaN
         13   -1    0    0    0    0  0.00000000000E+00  0.00000000000E+00  0.74505805969E-08  0.10566000000E+00  0.10566000000E+00 0. -1.
     999900   -1    0    0    0    0 -0.00000000000E+00 -0.00000000000E+00 -0.74505805969E-08  0.93827000000E+00  0.93827000000E+00 0.  1.
     999902    2    1    2    0    0  0.34184979754E-02 -0.13180287368E-02  0.23224991545E-01  0.10204177998E+01  0.10201468828E+01 0.  0.
     999903    2    3    3    0    0  0.45436178347E-01 -0.12040166658E+00 -0.10153612670E-01  0.13077712539E+00  0.20941658365E-01 0.  0.
         14    1    1    2    0    0 -0.34184979754E-02  0.13180287368E-02 -0.23224991545E-01  0.23512200247E-01  0.00000000000E+00 0.  1.
     999901    1    3    3    0    0 -0.42017680372E-01  0.11908363785E+00  0.33378604216E-01  0.88964067437E+00  0.88000000000E+00 0. -1.
        -11    1    4    4    0    0  0.26251506849E-01 -0.86112469807E-01 -0.14706318846E-01  0.91219712799E-01  0.51100000000E-03 0. -1.
         11    1    4    4    0    0  0.19184671498E-01 -0.34289196778E-01  0.45527061757E-02  0.39557412588E-01  0.51100000000E-03 0.  1.
</event>
<event>
 8    1  0.1118868E+005  0.1043930E+01  0.7957747E-01            NaN
         13   -1    0    0    0    0  0.00000000000E+00  0.00000000000E+00  0.74505805969E-08  0.10566000000E+00  0.10566000000E+00 0.  1.
     999900   -1    0    0    0    0 -0.00000000000E+00 -0.00000000000E+00 -0.74505805969E-08  0.93827000000E+00  0.93827000000E+00 0.  1.
     999902    2    1    2    0    0  0.22068291438E-01  0.14836218606E-01 -0.26906014547E-01  0.10061006927E+01  0.10053892517E+01 0.  0.
     999903    2    3    3    0    0 -0.50397328524E-01 -0.99325473177E-01  0.17883993117E-01  0.11464665425E+00  0.20459173388E-01 0.  0.
         14    1    1    2    0    0 -0.22068291438E-01 -0.14836218606E-01  0.26906014547E-01  0.37829307268E-01  0.00000000000E+00 0.  1.
     999901    1    3    3    0    0  0.72465619962E-01  0.11416169178E+00 -0.44790007664E-01  0.89145403849E+00  0.88000000000E+00 0. -1.
        -11    1    4    4    0    0 -0.94455035546E-02 -0.29122114494E-01 -0.28946609543E-02  0.30756385891E-01  0.51100000000E-03 0. -1.
         11    1    4    4    0    0 -0.40951824969E-01 -0.70203358683E-01  0.20778654071E-01  0.83890268355E-01  0.51100000000E-03 0.  1.
</event>
<event>
 8    1  0.1118868E+005  0.1043930E+01  0.7957747E-01            NaN
         13   -1    0    0    0    0  0.00000000000E+00  0.00000000000E+00  0.74505805969E-08  0.10566000000E+00  0.10566000000E+00 0.  1.
     999900   -1    0    0    0    0 -0.00000000000E+00 -0.00000000000E+00 -0.74505805969E-08  0.93827000000E+00  0.93827000000E+00 0.  1.
     999902    2    1    2    0    0 -0.11642917336E-01 -0.11682410854E-01  0.16251885173E-01  0.10207748706E+01  0.10205122127E+01 0.  0.
     999903    2    3    3    0    0  0.12625870813E+00  0.16784133557E-01  0.13796098517E-01  0.12957723068E+00  0.19415402556E-01 0.  0.
         14    1    1    2    0    0  0.11642917336E-01  0.11682410854E-01 -0.16251885173E-01  0.23155129434E-01  0.00000000000E+00 0. -1.
     999901    1    3    3    0    0 -0.13790162547E+00 -0.28466544411E-01  0.24557866564E-02  0.89119763989E+00  0.88000000000E+00 0. -1.
        -11    1    4    4    0    0  0.53419291413E-01  0.30745230692E-03  0.12589589186E-01  0.54886010047E-01  0.51100000000E-03 0.  1.
         11    1    4    4    0    0  0.72839416721E-01  0.16476681250E-01  0.12065093306E-02  0.74691220629E-01  0.51100000000E-03 0. -1.
</event>
<event>
 8    1  0.1118868E+005  0.1043930E+01  0.7957747E-01            NaN
         13   -1    0    0    0    0  0.00000000000E+00  0.00000000000E+00  0.74505805969E-08  0.10566000000E+00  0.10566000000E+00 0. -1.
     999900   -1    0    0    0    0 -0.00000000000E+00 -0.00000000000E+00 -0.74505805969E-08  0.93827000000E+00  0.93827000000E+00 0.  1.
     999902    2    1    2    0    0 -0.38117791957E-02 -0.21490561217E-01  0.11127488381E-01  0.10194311249E+01  0.10191367051E+01 0.  0.
     999903    2    3    3    0    0 -0.93107015454E-01 -0.56934157064E-01 -0.68857752496E-01  0.13059619849E+00  0.20088862917E-01 0.  0.
         14    1    1    2    0    0  0.38117791957E-02  0.21490561217E-01 -0.11127488381E-01  0.24498875070E-01  0.00000000000E+00 0.  1.
     999901    1    3    3    0    0  0.89295236258E-01  0.35443595848E-01  0.79985240877E-01  0.88883492644E+00  0.88000000000E+00 0. -1.
        -11    1    4    4    0    0 -0.62311550054E-01 -0.48694692361E-01 -0.49455718964E-01  0.93273959890E-01  0.51100000000E-03 0.  1.
         11    1    4    4    0    0 -0.30795465399E-01 -0.82394647030E-02 -0.19402033532E-01  0.37322238598E-01  0.51100000000E-03 0. -1.
</event>
<event>
 8    1  0.1118868E+005  0.1043930E+01  0.7957747E-01            NaN
         13   -1    0    0    0    0  0.00000000000E+00  0.00000000000E+00  0.74505805969E-08  0.10566000000E+00  0.10566000000E+00 0. -1.
     999900   -1    0    0    0    0 -0.00000000000E+00 -0.00000000000E+00 -0.74505805969E-08  0.93827000000E+00  0.93827000000E+00 0. -1.
     999902    2    1    2    0    0  0.12825069760E-01 -0.74916343111E-02 -0.18022289029E-01  0.10205759875E+01  0.10203087456E+01 0.  0.
     999903    2    3    3    0    0  0.11296202708E+00  0.46330311529E-01  0.43538816065E-01  0.13113010282E+00  0.19813077301E-01 0.  0.
         14    1    1    2    0    0 -0.12825069760E-01  0.74916343111E-02  0.18022289029E-01  0.23354012521E-01  0.00000000000E+00 0. -1.
     999901    1    3    3    0    0 -0.10013695732E+00 -0.53821945840E-01 -0.61561105093E-01  0.88944588466E+00  0.88000000000E+00 0.  1.
        -11    1    4    4    0    0  0.23954709057E-01  0.17695356819E-01  0.15127318720E-01  0.33407343977E-01  0.51100000000E-03 0.  1.
         11    1    4    4    0    0  0.89007318027E-01  0.28634954710E-01  0.28411497345E-01  0.97722758843E-01  0.51100000000E-03 0. -1.
</event>
<event>
 8    1  0.1118868E+005  0.1043930E+01  0.7957747E-01            NaN
         13   -1    0    0    0    0  0.00000000000E+00  0.00000000000E+00  0.74505805969E-08  0.10566000000E+00  0.10566000000E+00 0. -1.
     999900   -1    0    0    0    0 -0.00000000000E+00 -0.00000000000E+00 -0.74505805969E-08  0.93827000000E+00  0.93827000000E+00 0.  1.
     999902    2    1    2    0    0 -0.50497619232E-02  0.19950503549E-01 -0.35585159523E-02  0.10230449402E+01  0.10228317378E+01 0.  0.
     999903    2    3    3    0    0 -0.59599441516E-01  0.67506010185E-01  0.98696602586E-01  0.13417301296E+00  0.12337876844E-01 0.  0.
         14    1    1    2    0    0  0.50497619232E-02 -0.19950503549E-01  0.35585159523E-02  0.20885059807E-01  0.00000000000E+00 0.  1.
     999901    1    3    3    0    0  0.54549679592E-01 -0.47555506636E-01 -0.10225511854E+00  0.88887192723E+00  0.88000000000E+00 0.  1.
        -11    1    4    4    0    0 -0.49440770257E-01  0.50788723294E-01  0.82528664314E-01  0.10878936406E+00  0.51100000000E-03 0. -1.
         11    1    4    4    0    0 -0.10158671258E-01  0.16717286890E-01  0.16167938271E-01  0.25383648904E-01  0.51100000000E-03 0.  1.
</event>
<event>
 8    1  0.1118868E+005  0.1043930E+01  0.7957747E-01            NaN
         13   -1    0    0    0    0  0.00000000000E+00  0.00000000000E+00  0.74505805969E-08  0.10566000000E+00  0.10566000000E+00 0.  1.
     999900   -1    0    0    0    0 -0.00000000000E+00 -0.00000000000E+00 -0.74505805969E-08  0.93827000000E+00  0.93827000000E+00 0.  1.
     999902    2    1    2    0    0  0.84904338029E-02  0.23377969436E-01 -0.35565340242E-02  0.10188049954E+01  0.10184951413E+01 0.  0.
     999903    2    3    3    0    0  0.84432879171E-01 -0.73042502648E-01  0.58786676313E-01  0.12810255446E+00  0.22142106259E-01 0.  0.
         14    1    1    2    0    0 -0.84904338029E-02 -0.23377969436E-01  0.35565340242E-02  0.25125004584E-01  0.00000000000E+00 0.  1.
     999901    1    3    3    0    0 -0.75942445368E-01  0.96420472084E-01 -0.62343210337E-01  0.89070244095E+00  0.88000000000E+00 0.  1.
        -11    1    4    4    0    0  0.56438027318E-01 -0.61008170637E-01  0.39352395384E-01  0.91957163699E-01  0.51100000000E-03 0. -1.
         11    1    4    4    0    0  0.27994851853E-01 -0.12034332011E-01  0.19434280929E-01  0.36145390763E-01  0.51100000000E-03 0.  1.
</event>
<event>
 8    1  0.1118868E+005  0.1043930E+01  0.7957747E-01            NaN
         13   -1    0    0    0    0  0.00000000000E+00  0.00000000000E+00  0.74505805969E-08  0.10566000000E+00  0.10566000000E+00 0.  1.
     999900   -1    0    0    0    0 -0.00000000000E+00 -0.00000000000E+00 -0.74505805969E-08  0.93827000000E+00  0.93827000000E+00 0.  1.
     999902    2    1    2    0    0  0.22259893487E-03  0.13615802198E-01 -0.21508805295E-01  0.10184728139E+01  0.10181546073E+01 0.  0.
     999903    2    3    3    0    0 -0.75788456254E-01  0.99243147097E-01  0.29049469151E-01  0.12961632275E+00  0.19063764567E-01 0.  0.
         14    1    1    2    0    0 -0.22259893487E-03 -0.13615802198E-01  0.21508805295E-01  0.25457186117E-01  0.00000000000E+00 0.  1.
     999901    1    3    3    0    0  0.76011055189E-01 -0.85627344899E-01 -0.50558274446E-01  0.88885649113E+00  0.88000000000E+00 0.  1.
        -11    1    4    4    0    0 -0.51086244762E-01  0.79702999461E-01  0.24491159585E-01  0.97787783213E-01  0.51100000000E-03 0. -1.
         11    1    4    4    0    0 -0.24702211493E-01  0.19540147636E-01  0.45583095657E-02  0.31828539542E-01  0.51100000000E-03 0.  1.
</event>
<event>
 8    1  0.1118868E+005  0.1043930E+01  0.7957747E-01            NaN
         13   -1    0    0    0    0  0.00000000000E+00  0.00000000000E+00  0.74505805969E-08  0.10566000000E+00  0.10566000000E+00 0. -1.
     999900   -1    0    0    0    0 -0.00000000000E+00 -0.00000000000E+00 -0.74505805969E-08  0.93827000000E+00  0.93827000000E+00 0.  1.
     999902    2    1    2    0    0 -0.11479794428E-01 -0.18435077384E-01 -0.10108497276E-01  0.10199754707E+01  0.10196941411E+01 0.  0.
     999903    2    3    3    0    0 -0.17067841906E-01 -0.88786521765E-01  0.91783667544E-01  0.13128960646E+00  0.25265816058E-01 0.  0.
         14    1    1    2    0    0  0.11479794428E-01  0.18435077384E-01  0.10108497276E-01  0.23954529330E-01  0.00000000000E+00 0.  1.
     999901    1    3    3    0    0  0.55880474773E-02  0.70351444381E-01 -0.10189216482E+00  0.88868586421E+00  0.88000000000E+00 0.  1.
        -11    1    4    4    0    0 -0.20640780685E-01 -0.40562259408E-01  0.44941567176E-01  0.63963616978E-01  0.51100000000E-03 0. -1.
         11    1    4    4    0    0  0.35729387796E-02 -0.48224262357E-01  0.46842100368E-01  0.67325989479E-01  0.51100000000E-03 0.  1.
</event>
<event>
 8    1  0.1118868E+005  0.1043930E+01  0.7957747E-01            NaN
         13   -1    0    0    0    0  0.00000000000E+00  0.00000000000E+00  0.74505805969E-08  0.10566000000E+00  0.10566000000E+00 0. -1.
     999900   -1    0    0    0    0 -0.00000000000E+00 -0.00000000000E+00 -0.74505805969E-08  0.93827000000E+00  0.93827000000E+00 0. -1.
     999902    2    1    2    0    0  0.10370243802E-01 -0.14580237461E-01  0.16533588384E-01  0.10195684560E+01  0.10192773674E+01 0.  0.
     999903    2    3    3    0    0 -0.16175527206E-01 -0.99586905110E-03 -0.12511599963E+00  0.12774234134E+00  0.20036291317E-01 0.  0.
         14    1    1    2    0    0 -0.10370243802E-01  0.14580237461E-01 -0.16533588384E-01  0.24361543994E-01  0.00000000000E+00 0.  1.
     999901    1    3    3    0    0  0.26545771008E-01 -0.13584368410E-01  0.14164958802E+00  0.89182611467E+00  0.88000000000E+00 0.  1.
        -11    1    4    4    0    0 -0.12524354346E-01 -0.98520259695E-02 -0.86156071399E-01  0.87618785814E-01  0.51100000000E-03 0.  1.
         11    1    4    4    0    0 -0.36511728600E-02  0.88561569184E-02 -0.38959928235E-01  0.40123555521E-01  0.51100000000E-03 0. -1.
</event>
<event>
 8    1  0.1118868E+005  0.1043930E+01  0.7957747E-01            NaN
         13   -1    0    0    0    0  0.00000000000E+00  0.00000000000E+00  0.74505805969E-08  0.10566000000E+00  0.10566000000E+00 0.  1.
     999900   -1    0    0    0    0 -0.00000000000E+00 -0.00000000000E+00 -0.74505805969E-08  0.93827000000E+00  0.93827000000E+00 0.  1.
     999902    2    1    2    0    0 -0.69267814252E-02 -0.18538825879E-01  0.13079525952E-01  0.10202078086E+01  0.10199319734E+01 0.  0.
     999903    2    3    3    0    0 -0.99912220970E-01  0.46508750756E-01  0.68237667603E-01  0.13120842739E+00  0.20341001508E-01 0.  0.
         14    1    1    2    0    0  0.69267814252E-02  0.18538825879E-01 -0.13079525952E-01  0.23722191404E-01  0.00000000000E+00 0. -1.
     999901    1    3    3    0    0  0.92985439545E-01 -0.65047576635E-01 -0.55158141651E-01  0.88899938121E+00  0.88000000000E+00 0.  1.
        -11    1    4    4    0    0 -0.61633271039E-01  0.37807161797E-01  0.50063720310E-01  0.87947022658E-01  0.51100000000E-03 0.  1.
         11    1    4    4    0    0 -0.38278949931E-01  0.87015889594E-02  0.18173947292E-01  0.43261404733E-01  0.51100000000E-03 0. -1.
</event>
<event>
 8    1  0.1118868E+005  0.1043930E+01  0.7957747E-01            NaN
         13   -1    0    0    0    0  0.00000000000E+00  0.00000000000E+00  0.74505805969E-08  0.10566000000E+00  0.10566000000E+00 0. -1.
     999900   -1    0    0    0    0 -0.00000000000E+00 -0.00000000000E+00 -0.74505805969E-08  0.93827000000E+00  0.93827000000E+00 0.  1.
     999902    2    1    2    0    0 -0.26681740232E-02 -0.20718700903E-01  0.12577385352E-02  0.10230023717E+01  0.10227882904E+01 0.  0.
     999903    2    3    3    0    0 -0.51989031350E-02 -0.10826623701E-01 -0.13085933337E+00  0.13308148844E+00  0.21030289154E-01 0.  0.
         14    1    1    2    0    0  0.26681740232E-02  0.20718700903E-01 -0.12577385352E-02  0.20927628293E-01  0.00000000000E+00 0.  1.
     999901    1    3    3    0    0  0.25307291118E-02 -0.98920772023E-02  0.13211707190E+00  0.88992088326E+00  0.88000000000E+00 0. -1.
        -11    1    4    4    0    0 -0.87184421024E-02 -0.15697573550E-01 -0.89520483771E-01  0.91305000868E-01  0.51100000000E-03 0.  1.
         11    1    4    4    0    0  0.35195389674E-02  0.48709498488E-02 -0.41338849598E-01  0.41776487574E-01  0.51100000000E-03 0. -1.
</event>
<event>
 8    1  0.1118868E+005  0.1043930E+01  0.7957747E-01            NaN
         13   -1    0    0    0    0  0.00000000000E+00  0.00000000000E+00  0.74505805969E-08  0.10566000000E+00  0.10566000000E+00 0.  1.
     999900   -1    0    0    0    0 -0.00000000000E+00 -0.00000000000E+00 -0.74505805969E-08  0.93827000000E+00  0.93827000000E+00 0.  1.
     999902    2    1    2    0    0  0.41970527801E-02  0.23298833731E-01 -0.25392856847E-02  0.10201203617E+01  0.10198424650E+01 0.  0.
     999903    2    3    3    0    0 -0.29841639050E-01  0.10381294126E+00 -0.74808426806E-01  0.13284138480E+00  0.19567386120E-01 0.  0.
         14    1    1    2    0    0 -0.41970527801E-02 -0.23298833731E-01  0.25392856847E-02  0.23809638323E-01  0.00000000000E+00 0.  1.
     999901    1    3    3    0    0  0.34038691830E-01 -0.80514107529E-01  0.72269141121E-01  0.88727897688E+00  0.88000000000E+00 0. -1.
        -11    1    4    4    0    0 -0.32519588730E-01  0.90080136229E-01 -0.65560755909E-01  0.11606217485E+00  0.51100000000E-03 0. -1.
         11    1    4    4    0    0  0.26779496797E-02  0.13732805031E-01 -0.92476708970E-02  0.16779209950E-01  0.51100000000E-03 0.  1.
</event>
<event>
 8    1  0.1118868E+005  0.1043930E+01  0.7957747E-01            NaN
         13   -1    0    0    0    0  0.00000000000E+00  0.00000000000E+00  0.74505805969E-08  0.10566000000E+00  0.10566000000E+00 0. -1.
     999900   -1    0    0    0    0 -0.00000000000E+00 -0.00000000000E+00 -0.74505805969E-08  0.93827000000E+00  0.93827000000E+00 0.  1.
     999902    2    1    2    0    0 -0.23335163749E-02 -0.92132334290E-02  0.21254695238E-01  0.10206471514E+01  0.10203815544E+01 0.  0.
     999903    2    3    3    0    0 -0.42609102964E-02 -0.12932720582E+00  0.19390572608E-01  0.13248356503E+00  0.20789881546E-01 0.  0.
         14    1    1    2    0    0  0.23335163749E-02  0.92132334290E-02 -0.21254695238E-01  0.23282848592E-01  0.00000000000E+00 0.  1.
     999901    1    3    3    0    0  0.19273939215E-02  0.12011397239E+00  0.18641226304E-02  0.88816358638E+00  0.88000000000E+00 0.  1.
        -11    1    4    4    0    0  0.52723705527E-03 -0.11746635338E+00  0.13029221431E-01  0.11818901762E+00  0.51100000000E-03 0.  1.
         11    1    4    4    0    0 -0.47881473516E-02 -0.11860852447E-01  0.63613511768E-02  0.14294547409E-01  0.51100000000E-03 0. -1.
</event>
<event>
 8    1  0.1118868E+005  0.1043930E+01  0.7957747E-01            NaN
         13   -1    0    0    0    0  0.00000000000E+00  0.00000000000E+00  0.74505805969E-08  0.10566000000E+00  0.10566000000E+00 0. -1.
     999900   -1    0    0    0    0 -0.00000000000E+00 -0.00000000000E+00 -0.74505805969E-08  0.93827000000E+00  0.93827000000E+00 0. -1.
     999902    2    1    2    0    0 -0.21538558354E-01 -0.77375284306E-02 -0.44794347367E-02  0.10206095331E+01  0.10203430672E+01 0.  0.
     999903    2    3    3    0    0  0.86504760907E-01 -0.81896495184E-01  0.46098212122E-01  0.12946924695E+00  0.21145476160E-01 0.  0.
         14    1    1    2    0    0  0.21538558354E-01  0.77375284306E-02  0.44794347367E-02  0.23320466928E-01  0.00000000000E+00 0. -1.
     999901    1    3    3    0    0 -0.10804331926E+00  0.74158966754E-01 -0.50577646859E-01  0.89114028612E+00  0.88000000000E+00 0.  1.
        -11    1    4    4    0    0  0.12170246170E-01 -0.22651229568E-01  0.67492817163E-02  0.26589603559E-01  0.51100000000E-03 0. -1.
         11    1    4    4    0    0  0.74334514737E-01 -0.59245265617E-01  0.39348930406E-01  0.10287964339E+00  0.51100000000E-03 0.  1.
</event>
<event>
 7    1  0.1118868E+005  0.1043930E+01  0.7957747E-01            NaN
         13   -1    0    0    0    0  0.00000000000E+00  0.00000000000E+00  0.74505805969E-08  0.10566000000E+00  0.10566000000E+00 0. -1.
     999900   -1    0    0    0    0 -0.00000000000E+00 -0.00000000000E+00 -0.74505805969E-08  0.93827000000E+00  0.93827000000E+00 0. -1.
     999902    2    1    2    0    0  0.10075260682E-01 -0.62650949160E-02  0.20118643422E-01  0.10205735854E+01  0.10203062878E+01 0.  0.
         14    1    1    2    0    0 -0.10075260682E-01  0.62650949160E-02 -0.20118643422E-01  0.23356414649E-01  0.00000000000E+00 0.  1.
     999901    1    3    3    0    0 -0.72837899416E-01  0.47669703769E-01 -0.60199158316E-01  0.88634175063E+00  0.88000000000E+00 0.  1.
        -11    1    3    3    0    0  0.57028992140E-01 -0.49452080305E-01  0.38226086427E-01  0.84612699966E-01  0.51100000000E-03 0. -1.
         11    1    3    3    0    0  0.25884167958E-01 -0.44827183800E-02  0.42091715311E-01  0.49619134754E-01  0.51100000000E-03 0.  1.
</event>
<event>
 8    1  0.1118868E+005  0.1043930E+01  0.7957747E-01            NaN
         13   -1    0    0    0    0  0.00000000000E+00  0.00000000000E+00  0.74505805969E-08  0.10566000000E+00  0.10566000000E+00 0. -1.
     999900   -1    0    0    0    0 -0.00000000000E+00 -0.00000000000E+00 -0.74505805969E-08  0.93827000000E+00  0.93827000000E+00 0. -1.
     999902    2    1    2    0    0  0.37347699321E-02  0.15208945078E-01  0.17599666199E-01  0.10203713759E+01  0.10200993756E+01 0.  0.
     999903    2    3    3    0    0  0.21817147068E-01  0.51176692883E-01 -0.11519981228E+00  0.12949744955E+00  0.20088576118E-01 0.  0.
         14    1    1    2    0    0 -0.37347699321E-02 -0.15208945078E-01 -0.17599666199E-01  0.23558624051E-01  0.00000000000E+00 0.  1.
     999901    1    3    3    0    0 -0.18082377135E-01 -0.35967747805E-01  0.13279947848E+00  0.89087392639E+00  0.88000000000E+00 0.  1.
        -11    1    4    4    0    0  0.11817950389E-01  0.16321977572E-01 -0.61337275365E-01  0.64564644919E-01  0.51100000000E-03 0. -1.
         11    1    4    4    0    0  0.99991966783E-02  0.34854715311E-01 -0.53862536918E-01  0.64932804636E-01  0.51100000000E-03 0.  1.
</event>
<event>
 8    1  0.1118868E+005  0.1043930E+01  0.7957747E-01            NaN
         13   -1    0    0    0    0  0.00000000000E+00  0.00000000000E+00  0.74505805969E-08  0.10566000000E+00  0.10566000000E+00 0. -1.
     999900   -1    0    0    0    0 -0.00000000000E+00 -0.00000000000E+00 -0.74505805969E-08  0.93827000000E+00  0.93827000000E+00 0. -1.
     999902    2    1    2    0    0 -0.19104408842E-01  0.12700861960E-02 -0.14081243788E-01  0.10201629433E+01  0.10198860515E+01 0.  0.
     999903    2    3    3    0    0  0.65282386491E-01 -0.56965329734E-01 -0.95543991455E-01  0.13047273087E+00  0.19688586003E-01 0.  0.
         14    1    1    2    0    0  0.19104408842E-01 -0.12700861960E-02  0.14081243788E-01  0.23767056670E-01  0.00000000000E+00 0. -1.
     999901    1    3    3    0    0 -0.84386795333E-01  0.58235415930E-01  0.81462747667E-01  0.88969021246E+00  0.88000000000E+00 0.  1.
        -11    1    4    4    0    0  0.70879100616E-02 -0.14066548714E-01 -0.24348315159E-01  0.29003583121E-01  0.51100000000E-03 0. -1.
         11    1    4    4    0    0  0.58194476430E-01 -0.42898781020E-01 -0.71195676297E-01  0.10146914775E+00  0.51100000000E-03 0.  1.
</event>
<event>
 8    1  0.1118868E+005  0.1043930E+01  0.7957747E-01            NaN
         13   -1    0    0    0    0  0.00000000000E+00  0.00000000000E+00  0.74505805969E-08  0.10566000000E+00  0.10566000000E+00 0.  1.
     999900   -1    0    0    0    0 -0.00000000000E+00 -0.00000000000E+00 -0.74505805969E-08  0.93827000000E+00  0.93827000000E+00 0. -1.
     999902    2    1    2    0    0  0.48015589550E-02  0.22618980081E-01 -0.23545440049E-02  0.10206874290E+01  0.10204227607E+01 0.  0.
     999903    2    3    3    0    0 -0.41522505015E-01  0.96958490613E-01  0.78401698146E-01  0.13265935943E+00  0.18072411244E-01 0.  0.
         14    1    1    2    0    0 -0.48015589550E-02 -0.22618980081E-01  0.23545440049E-02  0.23242570980E-01  0.00000000000E+00 0. -1.
     999901    1    3    3    0    0  0.46324063970E-01 -0.74339510532E-01 -0.80756242151E-01  0.88802806959E+00  0.88000000000E+00 0. -1.
        -11    1    4    4    0    0 -0.22889386531E-01  0.68590694034E-01  0.45800359352E-01  0.85595218100E-01  0.51100000000E-03 0. -1.
         11    1    4    4    0    0 -0.18633118483E-01  0.28367796579E-01  0.32601338794E-01  0.47064141332E-01  0.51100000000E-03 0.  1.
</event>
<event>
 8    1  0.1118868E+005  0.1043930E+01  0.7957747E-01            NaN
         13   -1    0    0    0    0  0.00000000000E+00  0.00000000000E+00  0.74505805969E-08  0.10566000000E+00  0.10566000000E+00 0. -1.
     999900   -1    0    0    0    0 -0.00000000000E+00 -0.00000000000E+00 -0.74505805969E-08  0.93827000000E+00  0.93827000000E+00 0.  1.
     999902    2    1    2    0    0 -0.12944229527E-01 -0.19653958559E-01  0.62062698711E-02  0.10195917800E+01  0.10193012553E+01 0.  0.
     999903    2    3    3    0    0 -0.10106318692E+00 -0.14780124751E-01  0.81105096770E-01  0.13201162074E+00  0.20415960705E-01 0.  0.
         14    1    1    2    0    0  0.12944229527E-01  0.19653958559E-01 -0.62062698711E-02  0.24338219959E-01  0.00000000000E+00 0.  1.
     999901    1    3    3    0    0  0.88118957392E-01 -0.48738338076E-02 -0.74898826899E-01  0.88758015930E+00  0.88000000000E+00 0.  1.
        -11    1    4    4    0    0 -0.24518738139E-01 -0.54641979101E-03  0.97340986319E-02  0.26390924419E-01  0.51100000000E-03 0.  1.
         11    1    4    4    0    0 -0.76544448779E-01 -0.14233704960E-01  0.71370998138E-01  0.10562069632E+00  0.51100000000E-03 0. -1.
</event>
<event>
 8    1  0.1118868E+005  0.1043930E+01  0.7957747E-01            NaN
         13   -1    0    0    0    0  0.00000000000E+00  0.00000000000E+00  0.74505805969E-08  0.10566000000E+00  0.10566000000E+00 0.  1.
     999900   -1    0    0    0    0 -0.00000000000E+00 -0.00000000000E+00 -0.74505805969E-08  0.93827000000E+00  0.93827000000E+00 0.  1.
     999902    2    1    2    0    0  0.85885091688E-02  0.28842635811E-02 -0.22368091838E-01  0.10197967657E+01  0.10195111722E+01 0.  0.
     999903    2    3    3    0    0  0.83839192128E-02  0.92467162668E-01  0.86578680694E-01  0.12856473253E+00  0.20311480193E-01 0.  0.
         14    1    1    2    0    0 -0.85885091688E-02 -0.28842635811E-02  0.22368091838E-01  0.24133234317E-01  0.00000000000E+00 0. -1.
     999901    1    3    3    0    0  0.20458995600E-03 -0.89582899086E-01 -0.10894677253E+00  0.89123203315E+00  0.88000000000E+00 0.  1.
        -11    1    4    4    0    0  0.10426203303E-01  0.29518632755E-01  0.36567718287E-01  0.48140570591E-01  0.51100000000E-03 0. -1.
         11    1    4    4    0    0 -0.20422840901E-02  0.62948529912E-01  0.50010962407E-01  0.80424161943E-01  0.51100000000E-03 0.  1.
</event>
<event>
 8    1  0.1118868E+005  0.1043930E+01  0.7957747E-01            NaN
         13   -1    0    0    0    0  0.00000000000E+00  0.00000000000E+00  0.74505805969E-08  0.10566000000E+00  0.10566000000E+00 0.  1.
     999900   -1    0    0    0    0 -0.00000000000E+00 -0.00000000000E+00 -0.74505805969E-08  0.93827000000E+00  0.93827000000E+00 0.  1.
     999902    2    1    2    0    0  0.32143875874E-02 -0.20696760566E-01 -0.11853604053E-01  0.10198635064E+01  0.10195795092E+01 0.  0.
     999903    2    3    3    0    0  0.49731366164E-01  0.11402340192E+00  0.21774374678E-01  0.12776250739E+00  0.19354326002E-01 0.  0.
         14    1    1    2    0    0 -0.32143875874E-02  0.20696760566E-01  0.11853604053E-01  0.24066493607E-01  0.00000000000E+00 0.  1.
     999901    1    3    3    0    0 -0.46516978576E-01 -0.13472016249E+00 -0.33627978732E-01  0.89210099901E+00  0.88000000000E+00 0.  1.
        -11    1    4    4    0    0  0.16842171038E-01  0.49778390040E-01  0.17768165690E-01  0.55475360956E-01  0.51100000000E-03 0. -1.
         11    1    4    4    0    0  0.32889195126E-01  0.64245011880E-01  0.40062089888E-02  0.72287146430E-01  0.51100000000E-03 0.  1.
</event>
<event>
 8    1  0.1118868E+005  0.1043930E+01  0.7957747E-01            NaN
         13   -1    0    0    0    0  0.00000000000E+00  0.00000000000E+00  0.74505805969E-08  0.10566000000E+00  0.10566000000E+00 0. -1.
     999900   -1    0    0    0    0 -0.00000000000E+00 -0.00000000000E+00 -0.74505805969E-08  0.93827000000E+00  0.93827000000E+00 0.  1.
     999902    2    1    2    0    0  0.14036770456E-01  0.17332230297E-01  0.53514651482E-02  0.10209936683E+01  0.10207360067E+01 0.  0.
     999903    2    3    3    0    0  0.45482648200E-01  0.10618618693E+00  0.64466112288E-01  0.13398836374E+00  0.21279671125E-01 0.  0.
         14    1    1    2    0    0 -0.14036770456E-01 -0.17332230297E-01 -0.53514651482E-02  0.22936331685E-01  0.00000000000E+00 0. -1.
     999901    1    3    3    0    0 -0.31445877744E-01 -0.88853956630E-01 -0.59114647140E-01  0.88700530457E+00  0.88000000000E+00 0.  1.
        -11    1    4    4    0    0  0.42197514095E-02  0.61781453269E-02 -0.95371719598E-03  0.75595290282E-02  0.51100000000E-03 0.  1.
         11    1    4    4    0    0  0.41262896790E-01  0.10000804160E+00  0.65419829484E-01  0.12642883471E+00  0.51100000000E-03 0. -1.
</event>
<event>
 8    1  0.1118868E+005  0.1043930E+01  0.7957747E-01            NaN
         13   -1    0    0    0    0  0.00000000000E+00  0.00000000000E+00  0.74505805969E-08  0.10566000000E+00  0.10566000000E+00 0.  1.
     999900   -1    0    0    0    0 -0.00000000000E+00 -0.00000000000E+00 -0.74505805969E-08  0.93827000000E+00  0.93827000000E+00 0. -1.
     999902    2    1    2    0    0 -0.60353404095E-02 -0.22753947009E-01  0.24812943105E-02  0.10202588306E+01  0.10199841946E+01 0.  0.
     999903    2    3    3    0    0  0.10328165882E+00  0.70801882365E-01  0.19962446445E-01  0.12840206510E+00  0.20213447463E-01 0.  0.
         14    1    1    2    0    0  0.60353404095E-02  0.22753947009E-01 -0.24812943105E-02  0.23671169380E-01  0.00000000000E+00 0. -1.
     999901    1    3    3    0    0 -0.10931699923E+00 -0.93555829374E-01 -0.17481152135E-01  0.89185676552E+00  0.88000000000E+00 0. -1.
        -11    1    4    4    0    0  0.93637637292E-01  0.70430098627E-01  0.18790924632E-01  0.11866661653E+00  0.51100000000E-03 0.  1.
         11    1    4    4    0    0  0.96440215264E-02  0.37178373812E-03  0.11715218129E-02  0.97354485623E-02  0.51100000000E-03 0. -1.
</event>
<event>
 8    1  0.1118868E+005  0.1043930E+01  0.7957747E-01            NaN
         13   -1    0    0    0    0  0.00000000000E+00  0.00000000000E+00  0.74505805969E-08  0.10566000000E+00  0.10566000000E+00 0.  1.
     999900   -1    0    0    0    0 -0.00000000000E+00 -0.00000000000E+00 -0.74505805969E-08  0.93827000000E+00  0.93827000000E+00 0.  1.
     999902    2    1    2    0    0 -0.95979732319E-04 -0.24990077498E-01 -0.17436379835E-02  0.10188789829E+01  0.10185709736E+01 0.  0.
     999903    2    3    3    0    0  0.12069202968E+00  0.88379006686E-03  0.40948898397E-01  0.12922632431E+00  0.21337373353E-01 0.  0.
         14    1    1    2    0    0  0.95979732319E-04  0.24990077498E-01  0.17436379835E-02  0.25051017123E-01  0.00000000000E+00 0.  1.
     999901    1    3    3    0    0 -0.12078800941E+00 -0.25873867565E-01 -0.42692536381E-01  0.88965265857E+00  0.88000000000E+00 0.  1.
        -11    1    4    4    0    0  0.86784618070E-01  0.59638983697E-02  0.20756139603E-01  0.89432748306E-01  0.51100000000E-03 0.  1.
         11    1    4    4    0    0  0.33907411606E-01 -0.50801083029E-02  0.20192758794E-01  0.39793576000E-01  0.51100000000E-03 0. -1.
</event>
<event>
 8    1  0.1118868E+005  0.1043930E+01  0.7957747E-01            NaN
         13   -1    0    0    0    0  0.00000000000E+00  0.00000000000E+00  0.74505805969E-08  0.10566000000E+00  0.10566000000E+00 0. -1.
     999900   -1    0    0    0    0 -0.00000000000E+00 -0.00000000000E+00 -0.74505805969E-08  0.93827000000E+00  0.93827000000E+00 0.  1.
     999902    2    1    2    0    0  0.20957255244E-01  0.63418944053E-02 -0.60769556777E-03  0.10220257660E+01  0.10217910114E+01 0.  0.
     999903    2    3    3    0    0  0.10291795808E+00  0.54945806538E-01  0.64030252567E-01  0.13452480185E+00  0.19644371119E-01 0.  0.
         14    1    1    2    0    0 -0.20957255244E-01 -0.63418944053E-02  0.60769556777E-03  0.21904233972E-01  0.00000000000E+00 0.  1.
     999901    1    3    3    0    0 -0.81960702836E-01 -0.48603912132E-01 -0.64637948135E-01  0.88750096418E+00  0.88000000000E+00 0.  1.
        -11    1    4    4    0    0  0.14900171579E-01  0.10539262371E-01  0.18292632185E-01  0.25845167394E-01  0.51100000000E-03 0.  1.
         11    1    4    4    0    0  0.88017786501E-01  0.44406544167E-01  0.45737620382E-01  0.10867963445E+00  0.51100000000E-03 0. -1.
</event>
<event>
 8    1  0.1118868E+005  0.1043930E+01  0.7957747E-01            NaN
         13   -1    0    0    0    0  0.00000000000E+00  0.00000000000E+00  0.74505805969E-08  0.10566000000E+00  0.10566000000E+00 0. -1.
     999900   -1    0    0    0    0 -0.00000000000E+00 -0.00000000000E+00 -0.74505805969E-08  0.93827000000E+00  0.93827000000E+00 0. -1.
     999902    2    1    2    0    0  0.23273949362E-02  0.10399782333E-01  0.22030128023E-01  0.10194575914E+01  0.10191638151E+01 0.  0.
     999903    2    3    3    0    0  0.12194434971E+00 -0.33840405985E-01 -0.17341607702E-01  0.12939268162E+00  0.20643090753E-01 0.  0.
         14    1    1    2    0    0 -0.23273949362E-02 -0.10399782333E-01 -0.22030128023E-01  0.24472408554E-01  0.00000000000E+00 0.  1.
     999901    1    3    3    0    0 -0.11961695477E+00  0.44240188317E-01  0.39371735724E-01  0.89006490983E+00  0.88000000000E+00 0.  1.
        -11    1    4    4    0    0  0.59438464339E-01 -0.26011820606E-01 -0.40489747175E-02  0.65009239124E-01  0.51100000000E-03 0. -1.
         11    1    4    4    0    0  0.62505885369E-01 -0.78285853788E-02 -0.13292632984E-01  0.64383442495E-01  0.51100000000E-03 0.  1.
</event>
<event>
 8    1  0.1118868E+005  0.1043930E+01  0.7957747E-01            NaN
         13   -1    0    0    0    0  0.00000000000E+00  0.00000000000E+00  0.74505805969E-08  0.10566000000E+00  0.10566000000E+00 0.  1.
     999900   -1    0    0    0    0 -0.00000000000E+00 -0.00000000000E+00 -0.74505805969E-08  0.93827000000E+00  0.93827000000E+00 0. -1.
     999902    2    1    2    0    0 -0.13712423155E-01  0.18047919394E-01  0.86053490744E-02  0.10196852072E+01  0.10193969354E+01 0.  0.
     999903    2    3    3    0    0  0.48040839208E-01 -0.11495474748E+00 -0.15905601001E-01  0.12721450101E+00  0.20199626851E-01 0.  0.
         14    1    1    2    0    0  0.13712423155E-01 -0.18047919394E-01 -0.86053490744E-02  0.24244792759E-01  0.00000000000E+00 0.  1.
     999901    1    3    3    0    0 -0.61753262364E-01  0.13300266687E+00  0.24510950075E-01  0.89247070623E+00  0.88000000000E+00 0.  1.
        -11    1    4    4    0    0  0.17217292389E-01 -0.61232285832E-01 -0.14593560183E-01  0.65261482555E-01  0.51100000000E-03 0. -1.
         11    1    4    4    0    0  0.30823546819E-01 -0.53722461643E-01 -0.13120408172E-02  0.61953018454E-01  0.51100000000E-03 0.  1.
</event>
<event>
 8    1  0.1118868E+005  0.1043930E+01  0.7957747E-01            NaN
         13   -1    0    0    0    0  0.00000000000E+00  0.00000000000E+00  0.74505805969E-08  0.10566000000E+00  0.10566000000E+00 0.  1.
     999900   -1    0    0    0    0 -0.00000000000E+00 -0.00000000000E+00 -0.74505805969E-08  0.93827000000E+00  0.93827000000E+00 0. -1.
     999902    2    1    2    0    0  0.22548076604E-01  0.45987226951E-02 -0.39915998723E-02  0.10205741254E+01  0.10203068404E+01 0.  0.
     999903    2    3    3    0    0  0.22262085586E-01 -0.84805513020E-01 -0.95765166610E-01  0.13129599865E+00  0.19496067114E-01 0.  0.
         14    1    1    2    0    0 -0.22548076604E-01 -0.45987226951E-02  0.39915998723E-02  0.23355874603E-01  0.00000000000E+00 0. -1.
     999901    1    3    3    0    0  0.28599101727E-03  0.89404235716E-01  0.91773566737E-01  0.88927812674E+00  0.88000000000E+00 0. -1.
        -11    1    4    4    0    0  0.99483339797E-02 -0.69170612439E-01 -0.73161135779E-01  0.10117487773E+00  0.51100000000E-03 0. -1.
         11    1    4    4    0    0  0.12313751607E-01 -0.15634900582E-01 -0.22604030830E-01  0.30121120922E-01  0.51100000000E-03 0.  1.
</event>
<event>
 8    1  0.1118868E+005  0.1043930E+01  0.7957747E-01            NaN
         13   -1    0    0    0    0  0.00000000000E+00  0.00000000000E+00  0.74505805969E-08  0.10566000000E+00  0.10566000000E+00 0. -1.
     999900   -1    0    0    0    0 -0.00000000000E+00 -0.00000000000E+00 -0.74505805969E-08  0.93827000000E+00  0.93827000000E+00 0. -1.
     999902    2    1    2    0    0  0.23504358643E-01  0.27377803640E-02 -0.50016369488E-03  0.10202614453E+01  0.10199868707E+01 0.  0.
     999903    2    3    3    0    0  0.98993749588E-02 -0.80872889608E-01  0.99952418657E-01  0.13050498370E+00  0.20065963122E-01 0.  0.
         14    1    1    2    0    0 -0.23504358643E-01 -0.27377803640E-02  0.50016369488E-03  0.23668554672E-01  0.00000000000E+00 0.  1.
     999901    1    3    3    0    0  0.13604983684E-01  0.83610669972E-01 -0.10045258235E+00  0.88975646163E+00  0.88000000000E+00 0. -1.
        -11    1    4    4    0    0  0.14041363092E-01 -0.33313383804E-01  0.44236903197E-01  0.57132356361E-01  0.51100000000E-03 0. -1.
         11    1    4    4    0    0 -0.41419881332E-02 -0.47559505804E-01  0.55715515461E-01  0.73372627335E-01  0.51100000000E-03 0.  1.
</event>
<event>
 8    1  0.1118868E+005  0.1043930E+01  0.7957747E-01            NaN
         13   -1    0    0    0    0  0.00000000000E+00  0.00000000000E+00  0.74505805969E-08  0.10566000000E+00  0.10566000000E+00 0.  1.
     999900   -1    0    0    0    0 -0.00000000000E+00 -0.00000000000E+00 -0.74505805969E-08  0.93827000000E+00  0.93827000000E+00 0.  1.
     999902    2    1    2    0    0 -0.96564204323E-02 -0.21088778495E-01 -0.25080942720E-02  0.10206003285E+01  0.10203336499E+01 0.  0.
     999903    2    3    3    0    0 -0.46117565148E-01 -0.11845612049E+00  0.35792621004E-01  0.13365232602E+00  0.20570615819E-01 0.  0.
         14    1    1    2    0    0  0.96564204323E-02  0.21088778495E-01  0.25080942720E-02  0.23329671469E-01  0.00000000000E+00 0.  1.
     999901    1    3    3    0    0  0.36461144715E-01  0.97367341999E-01 -0.38300715276E-01  0.88694800251E+00  0.88000000000E+00 0. -1.
        -11    1    4    4    0    0 -0.15772566740E-01 -0.37027618322E-01  0.16460164448E-02  0.40283853729E-01  0.51100000000E-03 0. -1.
         11    1    4    4    0    0 -0.30344998408E-01 -0.81428502173E-01  0.34146604559E-01  0.93368472294E-01  0.51100000000E-03 0.  1.
</event>
<event>
 8    1  0.1118868E+005  0.1043930E+01  0.7957747E-01            NaN
         13   -1    0    0    0    0  0.00000000000E+00  0.00000000000E+00  0.74505805969E-08  0.10566000000E+00  0.10566000000E+00 0.  1.
     999900   -1    0    0    0    0 -0.00000000000E+00 -0.00000000000E+00 -0.74505805969E-08  0.93827000000E+00  0.93827000000E+00 0.  1.
     999902    2    1    2    0    0  0.34827941580E-02  0.91632706123E-02 -0.23031335406E-01  0.10188992630E+01  0.10185917584E+01 0.  0.
     999903    2    3    3    0    0 -0.27132527906E-02  0.79854159520E-01  0.97489776005E-01  0.12785440945E+00  0.21411330092E-01 0.  0.
         14    1    1    2    0    0 -0.34827941580E-02 -0.91632706123E-02  0.23031335406E-01  0.25030736986E-01  0.00000000000E+00 0.  1.
     999901    1    3    3    0    0  0.61960469486E-02 -0.70690888907E-01 -0.12052111141E+00  0.89104485357E+00  0.88000000000E+00 0.  1.
        -11    1    4    4    0    0  0.84976049545E-02  0.19568123103E-01  0.27295970256E-01  0.34647537358E-01  0.51100000000E-03 0. -1.
         11    1    4    4    0    0 -0.11210857745E-01  0.60286036416E-01  0.70193805749E-01  0.93206872090E-01  0.51100000000E-03 0.  1.
</event>
<event>
 8    1  0.1118868E+005  0.1043930E+01  0.7957747E-01            NaN
         13   -1    0    0    0    0  0.00000000000E+00  0.00000000000E+00  0.74505805969E-08  0.10566000000E+00  0.10566000000E+00 0. -1.
     999900   -1    0    0    0    0 -0.00000000000E+00 -0.00000000000E+00 -0.74505805969E-08  0.93827000000E+00  0.93827000000E+00 0.  1.
     999902    2    1    2    0    0 -0.52331381572E-02  0.13476904959E-01 -0.18973703725E-01  0.10200759828E+01  0.10197970370E+01 0.  0.
     999903    2    3    3    0    0 -0.30990015927E-01 -0.98069550293E-01  0.73271950418E-01  0.12787909360E+00  0.20156043288E-01 0.  0.
         14    1    1    2    0    0  0.52331381572E-02 -0.13476904959E-01  0.18973703725E-01  0.23854017173E-01  0.00000000000E+00 0. -1.
     999901    1    3    3    0    0  0.25756877770E-01  0.11154645525E+00 -0.92245654143E-01  0.89219688922E+00  0.88000000000E+00 0.  1.
        -11    1    4    4    0    0 -0.16934801937E-01 -0.78294780105E-01  0.60986912683E-01  0.10068030963E+00  0.51100000000E-03 0.  1.
         11    1    4    4    0    0 -0.14055213990E-01 -0.19774770187E-01  0.12285037735E-01  0.27198783970E-01  0.51100000000E-03 0. -1.
</event>
<event>
 8    1  0.1118868E+005  0.1043930E+01  0.7957747E-01            NaN
         13   -1    0    0    0    0  0.00000000000E+00  0.00000000000E+00  0.74505805969E-08  0.10566000000E+00  0.10566000000E+00 0.  1.
     999900   -1    0    0    0    0 -0.00000000000E+00 -0.00000000000E+00 -0.74505805969E-08  0.93827000000E+00  0.93827000000E+00 0. -1.
     999902    2    1    2    0    0 -0.16899283369E-01 -0.10798115911E-01 -0.12311608008E-01  0.10203978778E+01  0.10201264962E+01 0.  0.
     999903    2    3    3    0    0 -0.12963114517E+00  0.18606811607E-01 -0.87476823719E-02  0.13271222168E+00  0.19635798941E-01 0.  0.
         14    1    1    2    0    0  0.16899283369E-01  0.10798115911E-01  0.12311608008E-01  0.23532122245E-01  0.00000000000E+00 0.  1.
     999901    1    3    3    0    0  0.11273186180E+00 -0.29404927517E-01 -0.35639256356E-02  0.88768565607E+00  0.88000000000E+00 0. -1.
        -11    1    4    4    0    0 -0.77415364240E-01  0.13325743555E-01  0.41532619198E-02  0.78665270401E-01  0.51100000000E-03 0. -1.
         11    1    4    4    0    0 -0.52215780934E-01  0.52810680514E-02 -0.12900944292E-01  0.54046951283E-01  0.51100000000E-03 0.  1.
</event>
<event>
 8    1  0.1118868E+005  0.1043930E+01  0.7957747E-01            NaN
         13   -1    0    0    0    0  0.00000000000E+00  0.00000000000E+00  0.74505805969E-08  0.10566000000E+00  0.10566000000E+00 0. -1.
     999900   -1    0    0    0    0 -0.00000000000E+00 -0.00000000000E+00 -0.74505805969E-08  0.93827000000E+00  0.93827000000E+00 0.  1.
     999902    2    1    2    0    0 -0.20134854616E-01  0.98166323213E-02 -0.23658909388E-02  0.10214049899E+01  0.10211565880E+01 0.  0.
     999903    2    3    3    0    0 -0.11373586513E+00  0.47252324397E-01 -0.49955954919E-01  0.13437207370E+00  0.19789582638E-01 0.  0.
         14    1    1    2    0    0  0.20134854616E-01 -0.98166323213E-02  0.23658909388E-02  0.22525010110E-01  0.00000000000E+00 0. -1.
     999901    1    3    3    0    0  0.93601010516E-01 -0.37435692076E-01  0.47590063980E-01  0.88703291619E+00  0.88000000000E+00 0.  1.
        -11    1    4    4    0    0 -0.56924568786E-01  0.15996040025E-01 -0.31263896054E-01  0.66887757815E-01  0.51100000000E-03 0.  1.
         11    1    4    4    0    0 -0.56811296345E-01  0.31256284373E-01 -0.18692058865E-01  0.67484315888E-01  0.51100000000E-03 0. -1.
</event>
<event>
 8    1  0.1151562E+005  0.1043930E+01  0.7957747E-01            NaN
         13   -1    0    0    0    0  0.00000000000E+00  0.00000000000E+00  0.74505805969E-08  0.10566000000E+00  0.10566000000E+00 0. -1.
     999900   -1    0    0    0    0 -0.00000000000E+00 -0.00000000000E+00 -0.74505805969E-08  0.93827000000E+00  0.93827000000E+00 0. -1.
     999902    2    1    2    0    0 -0.19979106097E-01 -0.41880333703E-02  0.12621921408E-01  0.10199296416E+01  0.10196472216E+01 0.  0.
     999903    2    3    3    0    0  0.12197665360E+00 -0.30621402391E-01  0.14794719899E-01  0.12815899744E+00  0.19745140629E-01 0.  0.
         14    1    1    2    0    0  0.19979106097E-01  0.41880333703E-02 -0.12621921408E-01  0.24000358414E-01  0.00000000000E+00 0.  1.
     999901    1    3    3    0    0 -0.14195575970E+00  0.26433369021E-01 -0.21727984904E-02  0.89177064415E+00  0.88000000000E+00 0. -1.
        -11    1    4    4    0    0  0.82875384076E-01 -0.11290202737E-01  0.82382981867E-02  0.84047181045E-01  0.51100000000E-03 0.  1.
         11    1    4    4    0    0  0.39101269529E-01 -0.19331199654E-01  0.65564217120E-02  0.44111816393E-01  0.51100000000E-03 0. -1.
</event>
<event>
 8    1  0.1118868E+005  0.1043930E+01  0.7957747E-01            NaN
         13   -1    0    0    0    0  0.00000000000E+00  0.00000000000E+00  0.74505805969E-08  0.10566000000E+00  0.10566000000E+00 0. -1.
     999900   -1    0    0    0    0 -0.00000000000E+00 -0.00000000000E+00 -0.74505805969E-08  0.93827000000E+00  0.93827000000E+00 0.  1.
     999902    2    1    2    0    0  0.18563591977E-01  0.93274048949E-02 -0.96748898927E-03  0.10231323207E+01  0.10229209169E+01 0.  0.
     999903    2    3    3    0    0 -0.83319718537E-01 -0.64470228708E-01 -0.75214543849E-01  0.13109032346E+00  0.20708921088E-01 0.  0.
         14    1    1    2    0    0 -0.18563591977E-01 -0.93274048949E-02  0.96748898927E-03  0.20797679296E-01  0.00000000000E+00 0.  1.
     999901    1    3    3    0    0  0.10188331051E+00  0.73797633603E-01  0.74247054860E-01  0.89204199724E+00  0.88000000000E+00 0.  1.
        -11    1    4    4    0    0 -0.93161821936E-02 -0.76111914448E-02 -0.17890480907E-01  0.21565062345E-01  0.51100000000E-03 0. -1.
         11    1    4    4    0    0 -0.74003536343E-01 -0.56859037263E-01 -0.57324062942E-01  0.10952526112E+00  0.51100000000E-03 0.  1.
</event>
<event>
 8    1  0.1118868E+005  0.1043930E+01  0.7957747E-01            NaN
         13   -1    0    0    0    0  0.00000000000E+00  0.00000000000E+00  0.74505805969E-08  0.10566000000E+00  0.10566000000E+00 0. -1.
     999900   -1    0    0    0    0 -0.00000000000E+00 -0.00000000000E+00 -0.74505805969E-08  0.93827000000E+00  0.93827000000E+00 0.  1.
     999902    2    1    2    0    0 -0.22415034241E-03  0.76541790826E-02  0.22600336395E-01  0.10200676467E+01  0.10197885035E+01 0.  0.
     999903    2    3    3    0    0  0.38299880160E-01  0.59218695174E-01 -0.10553895310E+00  0.12846085119E+00  0.19748037597E-01 0.  0.
         14    1    1    2    0    0  0.22415034241E-03 -0.76541790826E-02 -0.22600336395E-01  0.23862353320E-01  0.00000000000E+00 0.  1.
     999901    1    3    3    0    0 -0.38524030503E-01 -0.51564516092E-01  0.12813928950E+00  0.89160679549E+00  0.88000000000E+00 0. -1.
        -11    1    4    4    0    0  0.19435558298E-01  0.16045878198E-01 -0.27539286173E-01  0.37334763123E-01  0.51100000000E-03 0. -1.
         11    1    4    4    0    0  0.18864321862E-01  0.43172816976E-01 -0.77999666928E-01  0.91126088070E-01  0.51100000000E-03 0.  1.
</event>
<event>
 8    1  0.1214402E+005  0.1043930E+01  0.7957747E-01            NaN
         13   -1    0    0    0    0  0.00000000000E+00  0.00000000000E+00  0.74505805969E-08  0.10566000000E+00  0.10566000000E+00 0. -1.
     999900   -1    0    0    0    0 -0.00000000000E+00 -0.00000000000E+00 -0.74505805969E-08  0.93827000000E+00  0.93827000000E+00 0.  1.
     999902    2    1    2    0    0 -0.19665200346E-01  0.10585849474E-01 -0.87279817614E-02  0.10199517186E+01  0.10196698241E+01 0.  0.
     999903    2    3    3    0    0 -0.81124531766E-02  0.12990969207E+00 -0.70828235605E-02  0.13182202540E+00  0.19609691491E-01 0.  0.
         14    1    1    2    0    0  0.19665200346E-01 -0.10585849474E-01  0.87279817614E-02  0.23978281410E-01  0.00000000000E+00 0.  1.
     999901    1    3    3    0    0 -0.11552747169E-01 -0.11932384260E+00 -0.16451582009E-02  0.88812969319E+00  0.88000000000E+00 0. -1.
        -11    1    4    4    0    0  0.59213927743E-02  0.43708748571E-01 -0.56641662475E-02  0.44473154760E-01  0.51100000000E-03 0. -1.
         11    1    4    4    0    0 -0.14033845951E-01  0.86200943501E-01 -0.14186573129E-02  0.87348870641E-01  0.51100000000E-03 0.  1.
</event>
<event>
 8    1  0.1118868E+005  0.1043930E+01  0.7957747E-01            NaN
         13   -1    0    0    0    0  0.00000000000E+00  0.00000000000E+00  0.74505805969E-08  0.10566000000E+00  0.10566000000E+00 0.  1.
     999900   -1    0    0    0    0 -0.00000000000E+00 -0.00000000000E+00 -0.74505805969E-08  0.93827000000E+00  0.93827000000E+00 0.  1.
     999902    2    1    2    0    0 -0.19245545345E-01  0.95506962855E-02 -0.85065443660E-02  0.10208222500E+01  0.10205606782E+01 0.  0.
     999903    2    3    3    0    0 -0.72431909886E-01  0.11013956674E+00  0.24450276759E-02  0.13342896219E+00  0.20498879469E-01 0.  0.
         14    1    1    2    0    0  0.19245545345E-01 -0.95506962855E-02  0.85065443660E-02  0.23107750046E-01  0.00000000000E+00 0. -1.
     999901    1    3    3    0    0  0.53186364542E-01 -0.10058887046E+00 -0.10951572042E-01  0.88739328776E+00  0.88000000000E+00 0.  1.
        -11    1    4    4    0    0 -0.42052584823E-01  0.52940932814E-01 -0.70103440744E-02  0.67974762247E-01  0.51100000000E-03 0.  1.
         11    1    4    4    0    0 -0.30379325064E-01  0.57198633928E-01  0.94553717503E-02  0.65454199946E-01  0.51100000000E-03 0. -1.
</event>
<event>
 8    1  0.1118868E+005  0.1043930E+01  0.7957747E-01            NaN
         13   -1    0    0    0    0  0.00000000000E+00  0.00000000000E+00  0.74505805969E-08  0.10566000000E+00  0.10566000000E+00 0. -1.
     999900   -1    0    0    0    0 -0.00000000000E+00 -0.00000000000E+00 -0.74505805969E-08  0.93827000000E+00  0.93827000000E+00 0.  1.
     999902    2    1    2    0    0  0.22120805988E-01  0.24875693887E-02  0.68414711905E-02  0.10206421537E+01  0.10203764413E+01 0.  0.
     999903    2    3    3    0    0  0.12252679053E+00 -0.19611530062E-01 -0.39573330468E-01  0.13344202644E+00  0.29039618249E-01 0.  0.
         14    1    1    2    0    0 -0.22120805988E-01 -0.24875693887E-02 -0.68414711905E-02  0.23287846339E-01  0.00000000000E+00 0.  1.
     999901    1    3    3    0    0 -0.10040598454E+00  0.22099099450E-01  0.46414801658E-01  0.88720012722E+00  0.88000000000E+00 0. -1.
        -11    1    4    4    0    0  0.98060056795E-01 -0.11870839148E-01 -0.19093572393E-01  0.10060575127E+00  0.51100000000E-03 0. -1.
         11    1    4    4    0    0  0.24466733732E-01 -0.77406909139E-02 -0.20479758075E-01  0.32836275172E-01  0.51100000000E-03 0.  1.
</event>
<event>
 8    1  0.1118868E+005  0.1043930E+01  0.7957747E-01            NaN
         13   -1    0    0    0    0  0.00000000000E+00  0.00000000000E+00  0.74505805969E-08  0.10566000000E+00  0.10566000000E+00 0.  1.
     999900   -1    0    0    0    0 -0.00000000000E+00 -0.00000000000E+00 -0.74505805969E-08  0.93827000000E+00  0.93827000000E+00 0.  1.
     999902    2    1    2    0    0  0.21058457470E-01  0.39233515038E-02  0.89446359513E-02  0.10207166885E+01  0.10204526938E+01 0.  0.
     999903    2    3    3    0    0  0.94481194328E-01 -0.29815814141E-01 -0.84870896971E-01  0.13204881815E+00  0.20448529735E-01 0.  0.
         14    1    1    2    0    0 -0.21058457470E-01 -0.39233515038E-02 -0.89446359513E-02  0.23213311491E-01  0.00000000000E+00 0. -1.
     999901    1    3    3    0    0 -0.73422736858E-01  0.33739165645E-01  0.93815532923E-01  0.88866787036E+00  0.88000000000E+00 0. -1.
        -11    1    4    4    0    0  0.59280680743E-01 -0.15226929491E-01 -0.39718661681E-01  0.72965003240E-01  0.51100000000E-03 0.  1.
         11    1    4    4    0    0  0.35200513586E-01 -0.14588884649E-01 -0.45152235290E-01  0.59083814913E-01  0.51100000000E-03 0. -1.
</event>
<event>
 8    1  0.1118868E+005  0.1043930E+01  0.7957747E-01            NaN
         13   -1    0    0    0    0  0.00000000000E+00  0.00000000000E+00  0.74505805969E-08  0.10566000000E+00  0.10566000000E+00 0. -1.
     999900   -1    0    0    0    0 -0.00000000000E+00 -0.00000000000E+00 -0.74505805969E-08  0.93827000000E+00  0.93827000000E+00 0. -1.
     999902    2    1    2    0    0 -0.16914857106E-01  0.54382588855E-02  0.15680051157E-01  0.10202329315E+01  0.10199576871E+01 0.  0.
     999903    2    3    3    0    0  0.14806476018E-01 -0.40922529989E-01  0.12299061420E+00  0.13193617780E+00  0.19661603153E-01 0.  0.
         14    1    1    2    0    0  0.16914857106E-01 -0.54382588855E-02 -0.15680051157E-01  0.23697068488E-01  0.00000000000E+00 0.  1.
     999901    1    3    3    0    0 -0.31721333125E-01  0.46360788875E-01 -0.10731056304E+00  0.88829675371E+00  0.88000000000E+00 0. -1.
        -11    1    4    4    0    0  0.60057405682E-03 -0.17889381174E-02  0.29841543042E-01  0.29905514557E-01  0.51100000000E-03 0. -1.
         11    1    4    4    0    0  0.14205901962E-01 -0.39133591872E-01  0.93149071155E-01  0.10203066324E+00  0.51100000000E-03 0.  1.
</event>
<event>
 8    1  0.1118868E+005  0.1043930E+01  0.7957747E-01            NaN
         13   -1    0    0    0    0  0.00000000000E+00  0.00000000000E+00  0.74505805969E-08  0.10566000000E+00  0.10566000000E+00 0.  1.
     999900   -1    0    0    0    0 -0.00000000000E+00 -0.00000000000E+00 -0.74505805969E-08  0.93827000000E+00  0.93827000000E+00 0.  1.
     999902    2    1    2    0    0  0.24806960282E-02 -0.62055433766E-02  0.22732076805E-01  0.10202359092E+01  0.10199607348E+01 0.  0.
     999903    2    3    3    0    0  0.70141567039E-01 -0.10268065246E+00 -0.34429822393E-01  0.13054330903E+00  0.19823900879E-01 0.  0.
         14    1    1    2    0    0 -0.24806960282E-02  0.62055433766E-02 -0.22732076805E-01  0.23694090766E-01  0.00000000000E+00 0. -1.
     999901    1    3    3    0    0 -0.67660871011E-01  0.96475109083E-01  0.57161899197E-01  0.88969260020E+00  0.88000000000E+00 0.  1.
        -11    1    4    4    0    0  0.12347837099E-01 -0.75934396148E-02 -0.59839138756E-02  0.15690689993E-01  0.51100000000E-03 0. -1.
         11    1    4    4    0    0  0.57793729941E-01 -0.95087212845E-01 -0.28445908517E-01  0.11485261904E+00  0.51100000000E-03 0.  1.
</event>
<event>
 8    1  0.1118868E+005  0.1043930E+01  0.7957747E-01            NaN
         13   -1    0    0    0    0  0.00000000000E+00  0.00000000000E+00  0.74505805969E-08  0.10566000000E+00  0.10566000000E+00 0. -1.
     999900   -1    0    0    0    0 -0.00000000000E+00 -0.00000000000E+00 -0.74505805969E-08  0.93827000000E+00  0.93827000000E+00 0.  1.
     999902    2    1    2    0    0 -0.16848434128E-01 -0.68224250890E-02  0.14919843019E-01  0.10204136880E+01  0.10201426751E+01 0.  0.
     999903    2    3    3    0    0  0.82658844577E-01  0.72406090343E-01 -0.62370001683E-01  0.12791574607E+00  0.19932247148E-01 0.  0.
         14    1    1    2    0    0  0.16848434128E-01  0.68224250890E-02 -0.14919843019E-01  0.23516312049E-01  0.00000000000E+00 0.  1.
     999901    1    3    3    0    0 -0.99507278705E-01 -0.79228515432E-01  0.77289844702E-01  0.89249794188E+00  0.88000000000E+00 0. -1.
        -11    1    4    4    0    0  0.43597874451E-01  0.50829705975E-01 -0.34970989186E-01  0.75549089152E-01  0.51100000000E-03 0.  1.
         11    1    4    4    0    0  0.39060970126E-01  0.21576384369E-01 -0.27399012497E-01  0.52366656915E-01  0.51100000000E-03 0. -1.
</event>
<event>
 8    1  0.1118868E+005  0.1043930E+01  0.7957747E-01            NaN
         13   -1    0    0    0    0  0.00000000000E+00  0.00000000000E+00  0.74505805969E-08  0.10566000000E+00  0.10566000000E+00 0. -1.
     999900   -1    0    0    0    0 -0.00000000000E+00 -0.00000000000E+00 -0.74505805969E-08  0.93827000000E+00  0.93827000000E+00 0. -1.
     999902    2    1    2    0    0 -0.81962367047E-02 -0.12081060736E-01 -0.15066673289E-01  0.10229506061E+01  0.10227354534E+01 0.  0.
     999903    2    3    3    0    0 -0.52272408913E-01  0.75076021370E-01 -0.96211219624E-01  0.13383671951E+00  0.16936793955E-01 0.  0.
         14    1    1    2    0    0  0.81962367047E-02  0.12081060736E-01  0.15066673289E-01  0.20979393905E-01  0.00000000000E+00 0. -1.
     999901    1    3    3    0    0  0.44076172208E-01 -0.87157082105E-01  0.81144546335E-01  0.88911388658E+00  0.88000000000E+00 0.  1.
        -11    1    4    4    0    0 -0.44510066036E-01  0.51246508231E-01 -0.72824005519E-01  0.99553741694E-01  0.51100000000E-03 0.  1.
         11    1    4    4    0    0 -0.77623428763E-02  0.23829513139E-01 -0.23387214105E-01  0.34282977816E-01  0.51100000000E-03 0. -1.
</event>
<event>
 8    1  0.1118868E+005  0.1043930E+01  0.7957747E-01            NaN
         13   -1    0    0    0    0  0.00000000000E+00  0.00000000000E+00  0.74505805969E-08  0.10566000000E+00  0.10566000000E+00 0.  1.
     999900   -1    0    0    0    0 -0.00000000000E+00 -0.00000000000E+00 -0.74505805969E-08  0.93827000000E+00  0.93827000000E+00 0. -1.
     999902    2    1    2    0    0 -0.19519622490E-01 -0.12981536044E-01  0.41316547695E-02  0.10201265021E+01  0.10198487505E+01 0.  0.
     999903    2    3    3    0    0  0.12169541904E+00 -0.35569636625E-01  0.77371357141E-02  0.12857453519E+00  0.19914159954E-01 0.  0.
         14    1    1    2    0    0  0.19519622490E-01  0.12981536044E-01 -0.41316547695E-02  0.23803497881E-01  0.00000000000E+00 0. -1.
     999901    1    3    3    0    0 -0.14121504153E+00  0.22588100581E-01 -0.36054809447E-02  0.89155196693E+00  0.88000000000E+00 0.  1.
        -11    1    4    4    0    0  0.52510588680E-01 -0.58162204825E-02  0.66726703522E-02  0.53253882439E-01  0.51100000000E-03 0.  1.
         11    1    4    4    0    0  0.69184830356E-01 -0.29753416142E-01  0.10644653619E-02  0.75320652752E-01  0.51100000000E-03 0. -1.
</event>
<event>
 8    1  0.1118868E+005  0.1043930E+01  0.7957747E-01            NaN
         13   -1    0    0    0    0  0.00000000000E+00  0.00000000000E+00  0.74505805969E-08  0.10566000000E+00  0.10566000000E+00 0.  1.
     999900   -1    0    0    0    0 -0.00000000000E+00 -0.00000000000E+00 -0.74505805969E-08  0.93827000000E+00  0.93827000000E+00 0. -1.
     999902    2    1    2    0    0 -0.18096802788E-01 -0.13037709443E-01 -0.42517293656E-02  0.10212242003E+01  0.10209717498E+01 0.  0.
     999903    2    3    3    0    0 -0.10772189820E+00 -0.61472091820E-01  0.46797648398E-01  0.13387726356E+00  0.18715671968E-01 0.  0.
         14    1    1    2    0    0  0.18096802788E-01  0.13037709443E-01  0.42517293656E-02  0.22705799728E-01  0.00000000000E+00 0.  1.
     999901    1    3    3    0    0  0.89625095415E-01  0.48434382377E-01 -0.51049377763E-01  0.88734693671E+00  0.88000000000E+00 0. -1.
        -11    1    4    4    0    0 -0.39683754193E-01 -0.18774005621E-01  0.78293831593E-02  0.44596232975E-01  0.51100000000E-03 0. -1.
         11    1    4    4    0    0 -0.68038144011E-01 -0.42698086199E-01  0.38968265239E-01  0.89281030584E-01  0.51100000000E-03 0.  1.
</event>
<event>
 8    1  0.1118868E+005  0.1043930E+01  0.7957747E-01            NaN
         13   -1    0    0    0    0  0.00000000000E+00  0.00000000000E+00  0.74505805969E-08  0.10566000000E+00  0.10566000000E+00 0.  1.
     999900   -1    0    0    0    0 -0.00000000000E+00 -0.00000000000E+00 -0.74505805969E-08  0.93827000000E+00  0.93827000000E+00 0. -1.
     999902    2    1    2    0    0  0.17279510109E-01 -0.14251681149E-01 -0.33489666437E-02  0.10212825396E+01  0.10210313992E+01 0.  0.
     999903    2    3    3    0    0 -0.11746678924E+00 -0.51352290825E-01  0.99648682645E-02  0.13015388523E+00  0.20130347609E-01 0.  0.
         14    1    1    2    0    0 -0.17279510109E-01  0.14251681149E-01  0.33489666437E-02  0.22647460404E-01  0.00000000000E+00 0.  1.
     999901    1    3    3    0    0  0.13474629935E+00  0.37100609676E-01 -0.13313834908E-01  0.89112865436E+00  0.88000000000E+00 0.  1.
        -11    1    4    4    0    0 -0.24639569335E-01 -0.12383645171E-01  0.10399563905E-01  0.29476687317E-01  0.51100000000E-03 0.  1.
         11    1    4    4    0    0 -0.92827219903E-01 -0.38968645653E-01 -0.43469564075E-03  0.10067719792E+00  0.51100000000E-03 0. -1.
</event>
<event>
 8    1  0.1118868E+005  0.1043930E+01  0.7957747E-01            NaN
         13   -1    0    0    0    0  0.00000000000E+00  0.00000000000E+00  0.74505805969E-08  0.10566000000E+00  0.10566000000E+00 0. -1.
     999900   -1    0    0    0    0 -0.00000000000E+00 -0.00000000000E+00 -0.74505805969E-08  0.93827000000E+00  0.93827000000E+00 0. -1.
     999902    2    1    2    0    0  0.13892491401E-01  0.18755347363E-01  0.67362508119E-02  0.10196371729E+01  0.10193477439E+01 0.  0.
     999903    2    3    3    0    0  0.71576502980E-02  0.27968563893E-01  0.12666855444E+00  0.13142886465E+00  0.19878411806E-01 0.  0.
         14    1    1    2    0    0 -0.13892491401E-01 -0.18755347363E-01 -0.67362508119E-02  0.24292827069E-01  0.00000000000E+00 0.  1.
     999901    1    3    3    0    0  0.67348411029E-02 -0.92132165301E-02 -0.11993230363E+00  0.88820830828E+00  0.88000000000E+00 0. -1.
        -11    1    4    4    0    0  0.14062847875E-01  0.17953900447E-01  0.78707675526E-01  0.81946723786E-01  0.51100000000E-03 0. -1.
         11    1    4    4    0    0 -0.69051975769E-02  0.10014663446E-01  0.47960878913E-01  0.49482140865E-01  0.51100000000E-03 0.  1.
</event>
<event>
 8    1  0.1118868E+005  0.1043930E+01  0.7957747E-01            NaN
         13   -1    0    0    0    0  0.00000000000E+00  0.00000000000E+00  0.74505805969E-08  0.10566000000E+00  0.10566000000E+00 0.  1.
     999900   -1    0    0    0    0 -0.00000000000E+00 -0.00000000000E+00 -0.74505805969E-08  0.93827000000E+00  0.93827000000E+00 0. -1.
     999902    2    1    2    0    0 -0.57240024216E-02  0.20076977458E-01  0.11236959091E-01  0.10202209621E+01  0.10199454363E+01 0.  0.
     999903    2    3    3    0    0 -0.69929472350E-01  0.16096100513E-01 -0.10673090026E+00  0.13002176779E+00  0.19103912506E-01 0.  0.
         14    1    1    2    0    0  0.57240024216E-02 -0.20076977458E-01 -0.11236959091E-01  0.23709037879E-01  0.00000000000E+00 0.  1.
     999901    1    3    3    0    0  0.64205469928E-01  0.39808769448E-02  0.11796785935E+00  0.89019919433E+00  0.88000000000E+00 0.  1.
        -11    1    4    4    0    0 -0.55617196795E-01  0.52771983302E-02 -0.74383100036E-01  0.93028103783E-01  0.51100000000E-03 0. -1.
         11    1    4    4    0    0 -0.14312275555E-01  0.10818902183E-01 -0.32347800227E-01  0.36993664005E-01  0.51100000000E-03 0.  1.
</event>
<event>
 8    1  0.1118868E+005  0.1043930E+01  0.7957747E-01            NaN
         13   -1    0    0    0    0  0.00000000000E+00  0.00000000000E+00  0.74505805969E-08  0.10566000000E+00  0.10566000000E+00 0.  1.
     999900   -1    0    0    0    0 -0.00000000000E+00 -0.00000000000E+00 -0.74505805969E-08  0.93827000000E+00  0.93827000000E+00 0.  1.
     999902    2    1    2    0    0  0.21782063868E-02  0.24370047022E-01  0.78749701028E-02  0.10182267137E+01  0.10179022455E+01 0.  0.
     999903    2    3    3    0    0  0.80460015814E-01  0.68459943312E-01 -0.73719313528E-01  0.12989705201E+00  0.16677198487E-01 0.  0.
         14    1    1    2    0    0 -0.21782063868E-02 -0.24370047022E-01 -0.78749701028E-02  0.25703286347E-01  0.00000000000E+00 0. -1.
     999901    1    3    3    0    0 -0.78281809428E-01 -0.44089896291E-01  0.81594283631E-01  0.88832966165E+00  0.88000000000E+00 0. -1.
        -11    1    4    4    0    0  0.29679226884E-01  0.33399914352E-01 -0.24483977970E-01  0.50952302062E-01  0.51100000000E-03 0.  1.
         11    1    4    4    0    0  0.50780788931E-01  0.35060028960E-01 -0.49235335558E-01  0.78944749943E-01  0.51100000000E-03 0. -1.
</event>
<event>
 8    1  0.1118868E+005  0.1043930E+01  0.7957747E-01            NaN
         13   -1    0    0    0    0  0.00000000000E+00  0.00000000000E+00  0.74505805969E-08  0.10566000000E+00  0.10566000000E+00 0. -1.
     999900   -1    0    0    0    0 -0.00000000000E+00 -0.00000000000E+00 -0.74505805969E-08  0.93827000000E+00  0.93827000000E+00 0. -1.
     999902    2    1    2    0    0  0.22794998314E-01 -0.66405445332E-02  0.40249738242E-02  0.10198486962E+01  0.10195643451E+01 0.  0.
     999903    2    3    3    0    0 -0.10554606774E+00  0.44207852256E-01  0.53212715057E-01  0.12772963316E+00  0.19722056878E-01 0.  0.
         14    1    1    2    0    0 -0.22794998314E-01  0.66405445332E-02 -0.40249738242E-02  0.24081303830E-01  0.00000000000E+00 0.  1.
     999901    1    3    3    0    0  0.12834106606E+00 -0.50848396789E-01 -0.49187741233E-01  0.89211906301E+00  0.88000000000E+00 0. -1.
        -11    1    4    4    0    0 -0.89747083166E-01  0.36482548899E-01  0.52338273980E-01  0.11011390173E+00  0.51100000000E-03 0.  1.
         11    1    4    4    0    0 -0.15798984576E-01  0.77253033574E-02  0.87444107728E-03  0.17615731429E-01  0.51100000000E-03 0. -1.
</event>
<event>
 8    1  0.1118868E+005  0.1043930E+01  0.7957747E-01            NaN
         13   -1    0    0    0    0  0.00000000000E+00  0.00000000000E+00  0.74505805969E-08  0.10566000000E+00  0.10566000000E+00 0.  1.
     999900   -1    0    0    0    0 -0.00000000000E+00 -0.00000000000E+00 -0.74505805969E-08  0.93827000000E+00  0.93827000000E+00 0. -1.
     999902    2    1    2    0    0 -0.11594853656E-01  0.10085950403E-01 -0.17541867183E-01  0.10206086765E+01  0.10203421908E+01 0.  0.
     999903    2    3    3    0    0 -0.28127530094E-01 -0.35161404467E-01 -0.12348647686E+00  0.13294606442E+00  0.19956546940E-01 0.  0.
         14    1    1    2    0    0  0.11594853656E-01 -0.10085950403E-01  0.17541867183E-01  0.23321323528E-01  0.00000000000E+00 0.  1.
     999901    1    3    3    0    0  0.16532676438E-01  0.45247354870E-01  0.10594460967E+00  0.88766261205E+00  0.88000000000E+00 0.  1.
        -11    1    4    4    0    0 -0.12254664373E-01 -0.26644339600E-01 -0.57583662437E-01  0.64623810877E-01  0.51100000000E-03 0. -1.
         11    1    4    4    0    0 -0.15872865721E-01 -0.85170648670E-02 -0.65902814418E-01  0.68322253544E-01  0.51100000000E-03 0.  1.
</event>
<event>
 8    1  0.1118868E+005  0.1043930E+01  0.7957747E-01            NaN
         13   -1    0    0    0    0  0.00000000000E+00  0.00000000000E+00  0.74505805969E-08  0.10566000000E+00  0.10566000000E+00 0. -1.
     999900   -1    0    0    0    0 -0.00000000000E+00 -0.00000000000E+00 -0.74505805969E-08  0.93827000000E+00  0.93827000000E+00 0. -1.
     999902    2    1    2    0    0 -0.17194859357E-01 -0.13485705075E-01  0.26679549681E-02  0.10219153364E+01  0.10216781829E+01 0.  0.
     999903    2    3    3    0    0 -0.33078439132E-01 -0.10943419920E+00  0.64344213757E-01  0.13441189273E+00  0.29263492138E-01 0.  0.
         14    1    1    2    0    0  0.17194859357E-01  0.13485705075E-01 -0.26679549681E-02  0.22014663600E-01  0.00000000000E+00 0. -1.
     999901    1    3    3    0    0  0.15883579775E-01  0.95948494128E-01 -0.61676258789E-01  0.88750344367E+00  0.88000000000E+00 0. -1.
        -11    1    4    4    0    0 -0.36972197849E-01 -0.94121611006E-01  0.61479836019E-01  0.11834632411E+00  0.51100000000E-03 0. -1.
         11    1    4    4    0    0  0.38937587170E-02 -0.15312588197E-01  0.28643777387E-02  0.16065568620E-01  0.51100000000E-03 0.  1.
</event>
<event>
 8    1  0.1118868E+005  0.1043930E+01  0.7957747E-01            NaN
         13   -1    0    0    0    0  0.00000000000E+00  0.00000000000E+00  0.74505805969E-08  0.10566000000E+00  0.10566000000E+00 0. -1.
     999900   -1    0    0    0    0 -0.00000000000E+00 -0.00000000000E+00 -0.74505805969E-08  0.93827000000E+00  0.93827000000E+00 0.  1.
     999902    2    1    2    0    0  0.13990299981E-01 -0.31846733853E-02 -0.19529033634E-01  0.10196966801E+01  0.10194086843E+01 0.  0.
     999903    2    3    3    0    0 -0.32500559467E-01  0.20554898644E-01  0.11965752351E+00  0.12722938940E+00  0.19763713508E-01 0.  0.
         14    1    1    2    0    0 -0.13990299981E-01  0.31846733853E-02  0.19529033634E-01  0.24233319888E-01  0.00000000000E+00 0.  1.
     999901    1    3    3    0    0  0.46490859448E-01 -0.23739572029E-01 -0.13918655714E+00  0.89246729071E+00  0.88000000000E+00 0.  1.
        -11    1    4    4    0    0 -0.21459478784E-01  0.52461226768E-02  0.84275724941E-01  0.87124565813E-01  0.51100000000E-03 0.  1.
         11    1    4    4    0    0 -0.11041080682E-01  0.15308775967E-01  0.35381798570E-01  0.40104823591E-01  0.51100000000E-03 0. -1.
</event>
<event>
 8    1  0.1118868E+005  0.1043930E+01  0.7957747E-01            NaN
         13   -1    0    0    0    0  0.00000000000E+00  0.00000000000E+00  0.74505805969E-08  0.10566000000E+00  0.10566000000E+00 0. -1.
     999900   -1    0    0    0    0 -0.00000000000E+00 -0.00000000000E+00 -0.74505805969E-08  0.93827000000E+00  0.93827000000E+00 0.  1.
     999902    2    1    2    0    0 -0.15963952163E-01  0.21266557277E-02  0.17870065461E-01  0.10198736147E+01  0.10195898589E+01 0.  0.
     999903    2    3    3    0    0  0.48070478968E-01  0.84107447448E-01  0.86110844216E-01  0.13112277086E+00  0.19831033276E-01 0.  0.
         14    1    1    2    0    0  0.15963952163E-01 -0.21266557277E-02 -0.17870065461E-01  0.24056385282E-01  0.00000000000E+00 0.  1.
     999901    1    3    3    0    0 -0.64034431131E-01 -0.81980791721E-01 -0.68240778755E-01  0.88875084386E+00  0.88000000000E+00 0.  1.
        -11    1    4    4    0    0  0.23762361388E-01  0.47924269909E-01  0.34909610797E-01  0.63877441339E-01  0.51100000000E-03 0. -1.
         11    1    4    4    0    0  0.24308117580E-01  0.36183177539E-01  0.51201233419E-01  0.67245329516E-01  0.51100000000E-03 0.  1.
</event>
<event>
 8    1  0.1118868E+005  0.1043930E+01  0.7957747E-01            NaN
         13   -1    0    0    0    0  0.00000000000E+00  0.00000000000E+00  0.74505805969E-08  0.10566000000E+00  0.10566000000E+00 0. -1.
     999900   -1    0    0    0    0 -0.00000000000E+00 -0.00000000000E+00 -0.74505805969E-08  0.93827000000E+00  0.93827000000E+00 0. -1.
     999902    2    1    2    0    0 -0.19327648530E-01 -0.48894238810E-02  0.12728762671E-01  0.10202765465E+01  0.10200023262E+01 0.  0.
     999903    2    3    3    0    0  0.11486130755E+00  0.51739241395E-01 -0.11149495078E-01  0.12798530881E+00  0.19643292914E-01 0.  0.
         14    1    1    2    0    0  0.19327648530E-01  0.48894238810E-02 -0.12728762671E-01  0.23653453505E-01  0.00000000000E+00 0.  1.
     999901    1    3    3    0    0 -0.13418895608E+00 -0.56628665276E-01  0.23878257748E-01  0.89229123769E+00  0.88000000000E+00 0.  1.
        -11    1    4    4    0    0  0.72006083772E-01  0.24483628870E-01 -0.34088151258E-03  0.76057225193E-01  0.51100000000E-03 0.  1.
         11    1    4    4    0    0  0.42855223781E-01  0.27255612525E-01 -0.10808613565E-01  0.51928083613E-01  0.51100000000E-03 0. -1.
</event>
<event>
 8    1  0.1118868E+005  0.1043930E+01  0.7957747E-01            NaN
         13   -1    0    0    0    0  0.00000000000E+00  0.00000000000E+00  0.74505805969E-08  0.10566000000E+00  0.10566000000E+00 0.  1.
     999900   -1    0    0    0    0 -0.00000000000E+00 -0.00000000000E+00 -0.74505805969E-08  0.93827000000E+00  0.93827000000E+00 0.  1.
     999902    2    1    2    0    0  0.20080383019E-01 -0.12347523825E-01  0.32371329825E-02  0.10201358378E+01  0.10198583065E+01 0.  0.
     999903    2    3    3    0    0 -0.31824896578E-01  0.79698642105E-01  0.94434601940E-01  0.12913436018E+00  0.19826531183E-01 0.  0.
         14    1    1    2    0    0 -0.20080383019E-01  0.12347523825E-01 -0.32371329825E-02  0.23794162241E-01  0.00000000000E+00 0.  1.
     999901    1    3    3    0    0  0.51905279597E-01 -0.92046165930E-01 -0.91197468958E-01  0.89100147758E+00  0.88000000000E+00 0.  1.
        -11    1    4    4    0    0 -0.17594554879E-01  0.64361622643E-01  0.77061240629E-01  0.10193469850E+00  0.51100000000E-03 0.  1.
         11    1    4    4    0    0 -0.14230341699E-01  0.15337019462E-01  0.17373361311E-01  0.27199661673E-01  0.51100000000E-03 0. -1.
</event>
<event>
 8    1  0.1118868E+005  0.1043930E+01  0.7957747E-01            NaN
         13   -1    0    0    0    0  0.00000000000E+00  0.00000000000E+00  0.74505805969E-08  0.10566000000E+00  0.10566000000E+00 0. -1.
     999900   -1    0    0    0    0 -0.00000000000E+00 -0.00000000000E+00 -0.74505805969E-08  0.93827000000E+00  0.93827000000E+00 0. -1.
     999902    2    1    2    0    0 -0.20987648134E-01 -0.50424304070E-02 -0.10030037671E-01  0.10201285476E+01  0.10198508443E+01 0.  0.
     999903    2    3    3    0    0 -0.95535230478E-02 -0.86289225521E-01  0.94861050851E-01  0.13010949089E+00  0.19818183755E-01 0.  0.
         14    1    1    2    0    0  0.20987648134E-01  0.50424304070E-02  0.10030037671E-01  0.23801452357E-01  0.00000000000E+00 0. -1.
     999901    1    3    3    0    0 -0.11434125086E-01  0.81246795114E-01 -0.10489108852E+00  0.89001905675E+00  0.88000000000E+00 0. -1.
        -11    1    4    4    0    0 -0.12590370057E-02 -0.38019523255E-01  0.28044287163E-01  0.47263225516E-01  0.51100000000E-03 0.  1.
         11    1    4    4    0    0 -0.82944860420E-02 -0.48269702266E-01  0.66816763689E-01  0.82846265374E-01  0.51100000000E-03 0. -1.
</event>
<event>
 8    1  0.1118868E+005  0.1043930E+01  0.7957747E-01            NaN
         13   -1    0    0    0    0  0.00000000000E+00  0.00000000000E+00  0.74505805969E-08  0.10566000000E+00  0.10566000000E+00 0. -1.
     999900   -1    0    0    0    0 -0.00000000000E+00 -0.00000000000E+00 -0.74505805969E-08  0.93827000000E+00  0.93827000000E+00 0.  1.
     999902    2    1    2    0    0  0.31146779868E-02 -0.19664016755E-01  0.12733622708E-01  0.10202969739E+01  0.10200232326E+01 0.  0.
     999903    2    3    3    0    0 -0.63344156838E-01  0.10898699455E+00 -0.11371638065E-01  0.12813727801E+00  0.19980006923E-01 0.  0.
         14    1    1    2    0    0 -0.31146779868E-02  0.19664016755E-01 -0.12733622708E-01  0.23633026069E-01  0.00000000000E+00 0.  1.
     999901    1    3    3    0    0  0.66458834825E-01 -0.12865101130E+00  0.24105260773E-01  0.89215969592E+00  0.88000000000E+00 0.  1.
        -11    1    4    4    0    0 -0.44747764799E-01  0.68252827924E-01 -0.15823963797E-01  0.83135250799E-01  0.51100000000E-03 0. -1.
         11    1    4    4    0    0 -0.18596392039E-01  0.40734166623E-01  0.44523257324E-02  0.45002027208E-01  0.51100000000E-03 0.  1.
</event>
<event>
 8    1  0.1118868E+005  0.1043930E+01  0.7957747E-01            NaN
         13   -1    0    0    0    0  0.00000000000E+00  0.00000000000E+00  0.74505805969E-08  0.10566000000E+00  0.10566000000E+00 0.  1.
     999900   -1    0    0    0    0 -0.00000000000E+00 -0.00000000000E+00 -0.74505805969E-08  0.93827000000E+00  0.93827000000E+00 0. -1.
     999902    2    1    2    0    0 -0.94748136535E-02 -0.19585980782E-01  0.71848372846E-02  0.10210170206E+01  0.10207598894E+01 0.  0.
     999903    2    3    3    0    0 -0.48270099407E-01  0.59465353767E-01  0.10464990956E+00  0.13126782675E+00  0.20334895433E-01 0.  0.
         14    1    1    2    0    0  0.94748136535E-02  0.19585980782E-01 -0.71848372846E-02  0.22912979373E-01  0.00000000000E+00 0.  1.
     999901    1    3    3    0    0  0.38795285754E-01 -0.79051334549E-01 -0.97465072280E-01  0.88974919388E+00  0.88000000000E+00 0. -1.
        -11    1    4    4    0    0 -0.45418917140E-01  0.43242611847E-01  0.80927323955E-01  0.10238307671E+00  0.51100000000E-03 0. -1.
         11    1    4    4    0    0 -0.28511822674E-02  0.16222741921E-01  0.23722585610E-01  0.28884750038E-01  0.51100000000E-03 0.  1.
</event>
<event>
 8    1  0.1118868E+005  0.1043930E+01  0.7957747E-01            NaN
         13   -1    0    0    0    0  0.00000000000E+00  0.00000000000E+00  0.74505805969E-08  0.10566000000E+00  0.10566000000E+00 0. -1.
     999900   -1    0    0    0    0 -0.00000000000E+00 -0.00000000000E+00 -0.74505805969E-08  0.93827000000E+00  0.93827000000E+00 0. -1.
     999902    2    1    2    0    0  0.25865778237E-01 -0.50277013903E-02 -0.50465742810E-02  0.10171012062E+01  0.10167473036E+01 0.  0.
     999903    2    3    3    0    0  0.82874960997E-01  0.30046188990E-01  0.92351230280E-01  0.12920112339E+00  0.19827958010E-01 0.  0.
         14    1    1    2    0    0 -0.25865778237E-01  0.50277013903E-02  0.50465742810E-02  0.26828793805E-01  0.00000000000E+00 0. -1.
     999901    1    3    3    0    0 -0.57009182761E-01 -0.35073890381E-01 -0.97397804561E-01  0.88790008280E+00  0.88000000000E+00 0. -1.
        -11    1    4    4    0    0  0.51923345167E-01  0.88047908210E-02  0.50273007380E-01  0.72809302337E-01  0.51100000000E-03 0. -1.
         11    1    4    4    0    0  0.30951615830E-01  0.21241398169E-01  0.42078222900E-01  0.56391821057E-01  0.51100000000E-03 0.  1.
</event>
<event>
 8    1  0.1118868E+005  0.1043930E+01  0.7957747E-01            NaN
         13   -1    0    0    0    0  0.00000000000E+00  0.00000000000E+00  0.74505805969E-08  0.10566000000E+00  0.10566000000E+00 0. -1.
     999900   -1    0    0    0    0 -0.00000000000E+00 -0.00000000000E+00 -0.74505805969E-08  0.93827000000E+00  0.93827000000E+00 0.  1.
     999902    2    1    2    0    0  0.12899449636E-01  0.59659648769E-02  0.18374729411E-01  0.10207002945E+01  0.10204359225E+01 0.  0.
     999903    2    3    3    0    0 -0.15903085875E-04  0.59977206339E-01 -0.11273849844E+00  0.12925500784E+00  0.19990560006E-01 0.  0.
         14    1    1    2    0    0 -0.12899449636E-01 -0.59659648769E-02 -0.18374729411E-01  0.23229705524E-01  0.00000000000E+00 0.  1.
     999901    1    3    3    0    0  0.12915352722E-01 -0.54011241462E-01  0.13111322785E+00  0.89144528663E+00  0.88000000000E+00 0. -1.
        -11    1    4    4    0    0 -0.18707050225E-02  0.43393595187E-01 -0.60966026919E-01  0.74857338984E-01  0.51100000000E-03 0. -1.
         11    1    4    4    0    0  0.18548019366E-02  0.16583611152E-01 -0.51772471521E-01  0.54397668860E-01  0.51100000000E-03 0.  1.
</event>
<event>
 8    1  0.1118868E+005  0.1043930E+01  0.7957747E-01            NaN
         13   -1    0    0    0    0  0.00000000000E+00  0.00000000000E+00  0.74505805969E-08  0.10566000000E+00  0.10566000000E+00 0.  1.
     999900   -1    0    0    0    0 -0.00000000000E+00 -0.00000000000E+00 -0.74505805969E-08  0.93827000000E+00  0.93827000000E+00 0.  1.
     999902    2    1    2    0    0 -0.16706093377E-01  0.11187249889E-01 -0.15598349108E-01  0.10184828664E+01  0.10181649142E+01 0.  0.
     999903    2    3    3    0    0 -0.22234637054E-01  0.71398402393E-01 -0.10666977852E+00  0.13171911375E+00  0.19477482578E-01 0.  0.
         14    1    1    2    0    0  0.16706093377E-01 -0.11187249889E-01  0.15598349108E-01  0.25447133649E-01  0.00000000000E+00 0.  1.
     999901    1    3    3    0    0  0.55285436763E-02 -0.60211152504E-01  0.91071429410E-01  0.88676375261E+00  0.88000000000E+00 0. -1.
        -11    1    4    4    0    0 -0.17237389624E-01  0.49419223577E-01 -0.88253533352E-01  0.10260767286E+00  0.51100000000E-03 0. -1.
         11    1    4    4    0    0 -0.49972474299E-02  0.21979178816E-01 -0.18416245167E-01  0.29111440884E-01  0.51100000000E-03 0.  1.
</event>
<event>
 8    1  0.1118868E+005  0.1043930E+01  0.7957747E-01            NaN
         13   -1    0    0    0    0  0.00000000000E+00  0.00000000000E+00  0.74505805969E-08  0.10566000000E+00  0.10566000000E+00 0.  1.
     999900   -1    0    0    0    0 -0.00000000000E+00 -0.00000000000E+00 -0.74505805969E-08  0.93827000000E+00  0.93827000000E+00 0.  1.
     999902    2    1    2    0    0 -0.12924295912E-01 -0.12631764631E-01  0.15437780607E-01  0.10201618707E+01  0.10198849535E+01 0.  0.
     999903    2    3    3    0    0 -0.38490310310E-02  0.57442183210E-01  0.11650227247E+00  0.13156367680E+00  0.20537821526E-01 0.  0.
         14    1    1    2    0    0  0.12924295912E-01  0.12631764631E-01 -0.15437780607E-01  0.23768129345E-01  0.00000000000E+00 0. -1.
     999901    1    3    3    0    0 -0.90752648806E-02 -0.70073947841E-01 -0.10106449186E+00  0.88859819385E+00  0.88000000000E+00 0.  1.
        -11    1    4    4    0    0 -0.61546944874E-02  0.55059936716E-01  0.96435379844E-01  0.11121834607E+00  0.51100000000E-03 0. -1.
         11    1    4    4    0    0  0.23056634564E-02  0.23822464945E-02  0.20066892621E-01  0.20345330737E-01  0.51100000000E-03 0.  1.
</event>
<event>
 8    1  0.1118868E+005  0.1043930E+01  0.7957747E-01            NaN
         13   -1    0    0    0    0  0.00000000000E+00  0.00000000000E+00  0.74505805969E-08  0.10566000000E+00  0.10566000000E+00 0.  1.
     999900   -1    0    0    0    0 -0.00000000000E+00 -0.00000000000E+00 -0.74505805969E-08  0.93827000000E+00  0.93827000000E+00 0. -1.
     999902    2    1    2    0    0  0.18764465622E-01  0.82324112843E-03 -0.14728320024E-01  0.10200614787E+01  0.10197821895E+01 0.  0.
     999903    2    3    3    0    0  0.10580279211E+00 -0.72197798877E-01 -0.27856982948E-01  0.13266072128E+00  0.20398590404E-01 0.  0.
         14    1    1    2    0    0 -0.18764465622E-01 -0.82324112843E-03  0.14728320024E-01  0.23868521252E-01  0.00000000000E+00 0.  1.
     999901    1    3    3    0    0 -0.87038326490E-01  0.73021040006E-01  0.13128662924E-01  0.88740075747E+00  0.88000000000E+00 0.  1.
        -11    1    4    4    0    0  0.32160200054E-01 -0.11617408787E-01 -0.46006565097E-02  0.34506083750E-01  0.51100000000E-03 0. -1.
         11    1    4    4    0    0  0.73642592058E-01 -0.60580390090E-01 -0.23256326439E-01  0.98154637531E-01  0.51100000000E-03 0.  1.
</event>
<event>
 8    1  0.1118868E+005  0.1043930E+01  0.7957747E-01            NaN
         13   -1    0    0    0    0  0.00000000000E+00  0.00000000000E+00  0.74505805969E-08  0.10566000000E+00  0.10566000000E+00 0. -1.
     999900   -1    0    0    0    0 -0.00000000000E+00 -0.00000000000E+00 -0.74505805969E-08  0.93827000000E+00  0.93827000000E+00 0. -1.
     999902    2    1    2    0    0  0.54931145645E-02 -0.12330655024E-01  0.21711528158E-01  0.10183642061E+01  0.10180432439E+01 0.  0.
     999903    2    3    3    0    0 -0.11539328394E+00 -0.47839666013E-01  0.28934769625E-01  0.12936106417E+00  0.17111996059E-01 0.  0.
         14    1    1    2    0    0 -0.54931145645E-02  0.12330655024E-01 -0.21711528158E-01  0.25565793864E-01  0.00000000000E+00 0.  1.
     999901    1    3    3    0    0  0.12088639850E+00  0.35509010988E-01 -0.72232414675E-02  0.88900314196E+00  0.88000000000E+00 0.  1.
        -11    1    4    4    0    0 -0.91653789414E-01 -0.42827671310E-01  0.28434901860E-01  0.10508773148E+00  0.51100000000E-03 0.  1.
         11    1    4    4    0    0 -0.23739494521E-01 -0.50119947030E-02  0.49986776524E-03  0.24273332688E-01  0.51100000000E-03 0. -1.
</event>
<event>
 8    1  0.1118868E+005  0.1043930E+01  0.7957747E-01            NaN
         13   -1    0    0    0    0  0.00000000000E+00  0.00000000000E+00  0.74505805969E-08  0.10566000000E+00  0.10566000000E+00 0.  1.
     999900   -1    0    0    0    0 -0.00000000000E+00 -0.00000000000E+00 -0.74505805969E-08  0.93827000000E+00  0.93827000000E+00 0.  1.
     999902    2    1    2    0    0 -0.11194131162E-01 -0.83461313206E-02  0.18768336483E-01  0.10205373316E+01  0.10202691940E+01 0.  0.
     999903    2    3    3    0    0 -0.44017089112E-01  0.95562191807E-01  0.77124226272E-01  0.13189809318E+00  0.19476243744E-01 0.  0.
         14    1    1    2    0    0  0.11194131162E-01  0.83461313206E-02 -0.18768336483E-01  0.23392668399E-01  0.00000000000E+00 0. -1.
     999901    1    3    3    0    0  0.32822957951E-01 -0.10390832313E+00 -0.58355889789E-01  0.88863923842E+00  0.88000000000E+00 0.  1.
        -11    1    4    4    0    0 -0.21611223440E-02  0.39467126629E-02  0.96545130841E-02  0.10663851768E-01  0.51100000000E-03 0.  1.
         11    1    4    4    0    0 -0.41855966768E-01  0.91615479144E-01  0.67469713188E-01  0.12123424142E+00  0.51100000000E-03 0. -1.
</event>
<event>
 8    1  0.1118868E+005  0.1043930E+01  0.7957747E-01            NaN
         13   -1    0    0    0    0  0.00000000000E+00  0.00000000000E+00  0.74505805969E-08  0.10566000000E+00  0.10566000000E+00 0. -1.
     999900   -1    0    0    0    0 -0.00000000000E+00 -0.00000000000E+00 -0.74505805969E-08  0.93827000000E+00  0.93827000000E+00 0.  1.
     999902    2    1    2    0    0  0.88700002555E-02 -0.21294175070E-01  0.40874427082E-02  0.10205029647E+01  0.10202340295E+01 0.  0.
     999903    2    3    3    0    0 -0.13880799923E-01 -0.22580607947E-02 -0.12792464764E+00  0.13016192633E+00  0.19484253796E-01 0.  0.
         14    1    1    2    0    0 -0.88700002555E-02  0.21294175070E-01 -0.40874427082E-02  0.23427035330E-01  0.00000000000E+00 0. -1.
     999901    1    3    3    0    0  0.22750800178E-01 -0.19036114275E-01  0.13201209035E+00  0.89034103834E+00  0.88000000000E+00 0. -1.
        -11    1    4    4    0    0 -0.59164386489E-02 -0.10126266699E-01 -0.46000220827E-01  0.47474487472E-01  0.51100000000E-03 0.  1.
         11    1    4    4    0    0 -0.79643612736E-02  0.78682059044E-02 -0.81924426816E-01  0.82687438857E-01  0.51100000000E-03 0. -1.
</event>
<event>
 8    1  0.1118868E+005  0.1043930E+01  0.7957747E-01            NaN
         13   -1    0    0    0    0  0.00000000000E+00  0.00000000000E+00  0.74505805969E-08  0.10566000000E+00  0.10566000000E+00 0.  1.
     999900   -1    0    0    0    0 -0.00000000000E+00 -0.00000000000E+00 -0.74505805969E-08  0.93827000000E+00  0.93827000000E+00 0.  1.
     999902    2    1    2    0    0  0.16423299989E-01  0.14227986426E-01  0.84533654480E-02  0.10206143450E+01  0.10203479904E+01 0.  0.
     999903    2    3    3    0    0  0.11917342581E+00 -0.35071511977E-01  0.41845681771E-01  0.13263738828E+00  0.20231147130E-01 0.  0.
         14    1    1    2    0    0 -0.16423299989E-01 -0.14227986426E-01 -0.84533654480E-02  0.23315654991E-01  0.00000000000E+00 0. -1.
     999901    1    3    3    0    0 -0.10275012582E+00  0.49299498403E-01 -0.33392316323E-01  0.88797695673E+00  0.88000000000E+00 0.  1.
        -11    1    4    4    0    0  0.23569539626E-01 -0.14829365564E-01  0.13060408350E-01  0.30761480271E-01  0.51100000000E-03 0.  1.
         11    1    4    4    0    0  0.95603886184E-01 -0.20242146413E-01  0.28785273421E-01  0.10187590800E+00  0.51100000000E-03 0. -1.
</event>
<event>
 8    1  0.1118868E+005  0.1043930E+01  0.7957747E-01            NaN
         13   -1    0    0    0    0  0.00000000000E+00  0.00000000000E+00  0.74505805969E-08  0.10566000000E+00  0.10566000000E+00 0.  1.
     999900   -1    0    0    0    0 -0.00000000000E+00 -0.00000000000E+00 -0.74505805969E-08  0.93827000000E+00  0.93827000000E+00 0.  1.
     999902    2    1    2    0    0  0.13317104630E-01  0.19485983120E-01  0.23946172891E-02  0.10202069520E+01  0.10199310967E+01 0.  0.
     999903    2    3    3    0    0  0.12433376360E+00 -0.31696595046E-01  0.20349142917E-01  0.13157501478E+00  0.20840777063E-01 0.  0.
         14    1    1    2    0    0 -0.13317104630E-01 -0.19485983120E-01 -0.23946172891E-02  0.23723047988E-01  0.00000000000E+00 0.  1.
     999901    1    3    3    0    0 -0.11101665897E+00  0.51182578165E-01 -0.17954525627E-01  0.88863193723E+00  0.88000000000E+00 0.  1.
        -11    1    4    4    0    0  0.46088369594E-01 -0.21808321960E-01  0.50962788631E-02  0.51244257217E-01  0.51100000000E-03 0. -1.
         11    1    4    4    0    0  0.78245394007E-01 -0.98882730860E-02  0.15252864054E-01  0.80330757564E-01  0.51100000000E-03 0.  1.
</event>
<event>
 8    1  0.1118868E+005  0.1043930E+01  0.7957747E-01            NaN
         13   -1    0    0    0    0  0.00000000000E+00  0.00000000000E+00  0.74505805969E-08  0.10566000000E+00  0.10566000000E+00 0.  1.
     999900   -1    0    0    0    0 -0.00000000000E+00 -0.00000000000E+00 -0.74505805969E-08  0.93827000000E+00  0.93827000000E+00 0. -1.
     999902    2    1    2    0    0  0.67160408962E-02  0.67000621874E-02 -0.21314435759E-01  0.10205997362E+01  0.10203330438E+01 0.  0.
     999903    2    3    3    0    0 -0.84640499953E-01  0.97936706430E-01  0.51658485955E-03  0.13091061279E+00  0.19537373961E-01 0.  0.
         14    1    1    2    0    0 -0.67160408962E-02 -0.67000621874E-02  0.21314435759E-01  0.23330263829E-01  0.00000000000E+00 0.  1.
     999901    1    3    3    0    0  0.91356540849E-01 -0.91236644243E-01 -0.21831020618E-01  0.88968912339E+00  0.88000000000E+00 0.  1.
        -11    1    4    4    0    0 -0.33798616126E-01  0.53335830518E-01  0.31651050375E-02  0.63224491140E-01  0.51100000000E-03 0.  1.
         11    1    4    4    0    0 -0.50841883827E-01  0.44600875912E-01 -0.26485201780E-02  0.67686121645E-01  0.51100000000E-03 0. -1.
</event>
<event>
 8    1  0.1118868E+005  0.1043930E+01  0.7957747E-01            NaN
         13   -1    0    0    0    0  0.00000000000E+00  0.00000000000E+00  0.74505805969E-08  0.10566000000E+00  0.10566000000E+00 0.  1.
     999900   -1    0    0    0    0 -0.00000000000E+00 -0.00000000000E+00 -0.74505805969E-08  0.93827000000E+00  0.93827000000E+00 0. -1.
     999902    2    1    2    0    0 -0.12355845289E-01 -0.20800730568E-01  0.94553789019E-02  0.10179542133E+01  0.10176227390E+01 0.  0.
     999903    2    3    3    0    0 -0.32793452603E-01  0.80422282864E-01 -0.89800189784E-01  0.12637389601E+00  0.19056059240E-01 0.  0.
         14    1    1    2    0    0  0.12355845289E-01  0.20800730568E-01 -0.94553789019E-02  0.25975786709E-01  0.00000000000E+00 0. -1.
     999901    1    3    3    0    0  0.20437607314E-01 -0.10122301343E+00  0.99255568686E-01  0.89158031728E+00  0.88000000000E+00 0.  1.
        -11    1    4    4    0    0 -0.13618135858E-01  0.54421496614E-01 -0.50368584784E-01  0.75395015565E-01  0.51100000000E-03 0. -1.
         11    1    4    4    0    0 -0.19175316745E-01  0.26000786250E-01 -0.39431605000E-01  0.50978880449E-01  0.51100000000E-03 0.  1.
</event>
<event>
 8    1  0.1118868E+005  0.1043930E+01  0.7957747E-01            NaN
         13   -1    0    0    0    0  0.00000000000E+00  0.00000000000E+00  0.74505805969E-08  0.10566000000E+00  0.10566000000E+00 0. -1.
     999900   -1    0    0    0    0 -0.00000000000E+00 -0.00000000000E+00 -0.74505805969E-08  0.93827000000E+00  0.93827000000E+00 0. -1.
     999902    2    1    2    0    0 -0.69390811693E-02  0.21905022458E-01 -0.18622740803E-02  0.10208768241E+01  0.10206165004E+01 0.  0.
     999903    2    3    3    0    0 -0.11397757472E+00  0.79217294515E-02  0.62940743824E-01  0.13191551853E+00  0.19660250769E-01 0.  0.
         14    1    1    2    0    0  0.69390811693E-02 -0.21905022458E-01  0.18622740803E-02  0.23053175944E-01  0.00000000000E+00 0.  1.
     999901    1    3    3    0    0  0.10703849355E+00  0.13983293007E-01 -0.64803017905E-01  0.88896130552E+00  0.88000000000E+00 0. -1.
        -11    1    4    4    0    0 -0.61996541577E-01  0.64664974040E-02  0.45089025958E-01  0.76932880740E-01  0.51100000000E-03 0. -1.
         11    1    4    4    0    0 -0.51981033144E-01  0.14552320474E-02  0.17851717867E-01  0.54982637794E-01  0.51100000000E-03 0.  1.
</event>
<event>
 8    1  0.1118868E+005  0.1043930E+01  0.7957747E-01            NaN
         13   -1    0    0    0    0  0.00000000000E+00  0.00000000000E+00  0.74505805969E-08  0.10566000000E+00  0.10566000000E+00 0. -1.
     999900   -1    0    0    0    0 -0.00000000000E+00 -0.00000000000E+00 -0.74505805969E-08  0.93827000000E+00  0.93827000000E+00 0. -1.
     999902    2    1    2    0    0  0.11252516995E-01  0.21882283955E-01 -0.34435382313E-03  0.10193216260E+01  0.10190245361E+01 0.  0.
     999903    2    3    3    0    0 -0.12080887305E+00 -0.31247676954E-01  0.17598675181E-01  0.12770233745E+00  0.20663312849E-01 0.  0.
         14    1    1    2    0    0 -0.11252516995E-01 -0.21882283955E-01  0.34435382313E-03  0.24608373968E-01  0.00000000000E+00 0.  1.
     999901    1    3    3    0    0  0.13206139005E+00  0.53129960909E-01 -0.17943029004E-01  0.89161928859E+00  0.88000000000E+00 0.  1.
        -11    1    4    4    0    0 -0.55989110301E-01 -0.40745713461E-02  0.97292535608E-02  0.56976329294E-01  0.51100000000E-03 0.  1.
         11    1    4    4    0    0 -0.64819762752E-01 -0.27173105608E-01  0.78694216203E-02  0.70726008153E-01  0.51100000000E-03 0. -1.
</event>
<event>
 8    1  0.1118868E+005  0.1043930E+01  0.7957747E-01            NaN
         13   -1    0    0    0    0  0.00000000000E+00  0.00000000000E+00  0.74505805969E-08  0.10566000000E+00  0.10566000000E+00 0.  1.
     999900   -1    0    0    0    0 -0.00000000000E+00 -0.00000000000E+00 -0.74505805969E-08  0.93827000000E+00  0.93827000000E+00 0.  1.
     999902    2    1    2    0    0  0.77255948880E-02  0.21000663883E-01 -0.80783612755E-02  0.10201398209E+01  0.10198623837E+01 0.  0.
     999903    2    3    3    0    0  0.93192027084E-01  0.28607356113E-02  0.89059227367E-01  0.13049422903E+00  0.20106220723E-01 0.  0.
         14    1    1    2    0    0 -0.77255948880E-02 -0.21000663883E-01  0.80783612755E-02  0.23790179082E-01  0.00000000000E+00 0.  1.
     999901    1    3    3    0    0 -0.85466432196E-01  0.18139928271E-01 -0.97137588642E-01  0.88964559188E+00  0.88000000000E+00 0.  1.
        -11    1    4    4    0    0  0.68508311123E-01  0.10982930127E-01  0.65289470382E-01  0.95273236068E-01  0.51100000000E-03 0. -1.
         11    1    4    4    0    0  0.24683715961E-01 -0.81221945161E-02  0.23769756985E-01  0.35220992966E-01  0.51100000000E-03 0.  1.
</event>
<event>
 8    1  0.1118868E+005  0.1043930E+01  0.7957747E-01            NaN
         13   -1    0    0    0    0  0.00000000000E+00  0.00000000000E+00  0.74505805969E-08  0.10566000000E+00  0.10566000000E+00 0. -1.
     999900   -1    0    0    0    0 -0.00000000000E+00 -0.00000000000E+00 -0.74505805969E-08  0.93827000000E+00  0.93827000000E+00 0. -1.
     999902    2    1    2    0    0  0.57434708120E-02 -0.21152259337E-01 -0.10226952151E-01  0.10197433077E+01  0.10194564324E+01 0.  0.
     999903    2    3    3    0    0 -0.26423500086E-01  0.57618716505E-01  0.10901000156E+00  0.12763511263E+00  0.19733820907E-01 0.  0.
         14    1    1    2    0    0 -0.57434708120E-02  0.21152259337E-01  0.10226952151E-01  0.24186692257E-01  0.00000000000E+00 0. -1.
     999901    1    3    3    0    0  0.32166970898E-01 -0.78770975842E-01 -0.11923695371E+00  0.89210819511E+00  0.88000000000E+00 0. -1.
        -11    1    4    4    0    0 -0.59471534451E-02  0.16142651238E-01  0.14873822046E-01  0.22747429005E-01  0.51100000000E-03 0. -1.
         11    1    4    4    0    0 -0.20476346641E-01  0.41476065267E-01  0.94136179516E-01  0.10488768363E+00  0.51100000000E-03 0.  1.
</event>
<event>
 8    1  0.1118868E+005  0.1043930E+01  0.7957747E-01            NaN
         13   -1    0    0    0    0  0.00000000000E+00  0.00000000000E+00  0.74505805969E-08  0.10566000000E+00  0.10566000000E+00 0. -1.
     999900   -1    0    0    0    0 -0.00000000000E+00 -0.00000000000E+00 -0.74505805969E-08  0.93827000000E+00  0.93827000000E+00 0. -1.
     999902    2    1    2    0    0 -0.17268732944E-01  0.12755791164E-01  0.88241874363E-02  0.10207182437E+01  0.10204542848E+01 0.  0.
     999903    2    3    3    0    0 -0.10794791066E-01  0.11829945390E+00 -0.54780154808E-01  0.13210871810E+00  0.18454260488E-01 0.  0.
         14    1    1    2    0    0  0.17268732944E-01 -0.12755791164E-01 -0.88241874363E-02  0.23211756280E-01  0.00000000000E+00 0.  1.
     999901    1    3    3    0    0 -0.64739418779E-02 -0.10554366274E+00  0.63604342245E-01  0.88860952562E+00  0.88000000000E+00 0.  1.
        -11    1    4    4    0    0 -0.74401690493E-02  0.11259342704E+00 -0.48016900896E-01  0.12263164282E+00  0.51100000000E-03 0. -1.
         11    1    4    4    0    0 -0.33546220164E-02  0.57060268623E-02 -0.67632539129E-02  0.94770752828E-02  0.51100000000E-03 0.  1.
</event>
<event>
 8    1  0.1118868E+005  0.1043930E+01  0.7957747E-01            NaN
         13   -1    0    0    0    0  0.00000000000E+00  0.00000000000E+00  0.74505805969E-08  0.10566000000E+00  0.10566000000E+00 0.  1.
     999900   -1    0    0    0    0 -0.00000000000E+00 -0.00000000000E+00 -0.74505805969E-08  0.93827000000E+00  0.93827000000E+00 0.  1.
     999902    2    1    2    0    0  0.19002397583E-01  0.16511931883E-01  0.35974329697E-02  0.10185001645E+01  0.10181826499E+01 0.  0.
     999903    2    3    3    0    0  0.73754287957E-01  0.84079675778E-01  0.67035186016E-01  0.13194079368E+00  0.20138768639E-01 0.  0.
         14    1    1    2    0    0 -0.19002397583E-01 -0.16511931883E-01 -0.35974329697E-02  0.25429835477E-01  0.00000000000E+00 0. -1.
     999901    1    3    3    0    0 -0.54751890374E-01 -0.67567743895E-01 -0.63437753046E-01  0.88655937084E+00  0.88000000000E+00 0.  1.
        -11    1    4    4    0    0  0.39859186113E-01  0.60059306460E-01  0.43442012857E-01  0.84162608159E-01  0.51100000000E-03 0. -1.
         11    1    4    4    0    0  0.33895101844E-01  0.24020369318E-01  0.23593173159E-01  0.47778185523E-01  0.51100000000E-03 0.  1.
</event>
<event>
 7    1  0.1118868E+005  0.1043930E+01  0.7957747E-01            NaN
         13   -1    0    0    0    0  0.00000000000E+00  0.00000000000E+00  0.74505805969E-08  0.10566000000E+00  0.10566000000E+00 0. -1.
     999900   -1    0    0    0    0 -0.00000000000E+00 -0.00000000000E+00 -0.74505805969E-08  0.93827000000E+00  0.93827000000E+00 0. -1.
     999903    2    1    2    0    0 -0.78020565353E-02 -0.30297465682E-01  0.52708502856E-01  0.63130740419E-01  0.15116070904E-01 0.  0.
         14    1    1    2    0    0  0.59219446198E-01  0.37574004641E-01  0.59736213304E-01  0.92125804271E-01  0.00000000000E+00 0. -1.
     999901    1    1    2    0    0 -0.51417389663E-01 -0.72765389587E-02 -0.11244471616E+00  0.88867345531E+00  0.88000000000E+00 0. -1.
        -11    1    3    3    0    0 -0.67693589660E-02 -0.12165799244E-01  0.11393090294E-01  0.17997069748E-01  0.51100000000E-03 0. -1.
         11    1    3    3    0    0 -0.10326975693E-02 -0.18131666438E-01  0.41315412562E-01  0.45133670671E-01  0.51100000000E-03 0.  1.
</event>
<event>
 8    1  0.1118868E+005  0.1043930E+01  0.7957747E-01            NaN
         13   -1    0    0    0    0  0.00000000000E+00  0.00000000000E+00  0.74505805969E-08  0.10566000000E+00  0.10566000000E+00 0. -1.
     999900   -1    0    0    0    0 -0.00000000000E+00 -0.00000000000E+00 -0.74505805969E-08  0.93827000000E+00  0.93827000000E+00 0.  1.
     999902    2    1    2    0    0  0.20127168984E-01  0.10902122245E-01 -0.65200276140E-02  0.10201293706E+01  0.10198516866E+01 0.  0.
     999903    2    3    3    0    0  0.10215912207E+00  0.83098995257E-01  0.49039155540E-02  0.13329672781E+00  0.20050935734E-01 0.  0.
         14    1    1    2    0    0 -0.20127168984E-01 -0.10902122245E-01  0.65200276140E-02  0.23800629421E-01  0.00000000000E+00 0.  1.
     999901    1    3    3    0    0 -0.82031953082E-01 -0.72196873013E-01 -0.11423943168E-01  0.88683264277E+00  0.88000000000E+00 0.  1.
        -11    1    4    4    0    0  0.46991872127E-01  0.26176843707E-01 -0.10427405038E-02  0.53803453618E-01  0.51100000000E-03 0. -1.
         11    1    4    4    0    0  0.55167249938E-01  0.56922151550E-01  0.59466560577E-02  0.79493274194E-01  0.51100000000E-03 0.  1.
</event>
<event>
 8    1  0.1118868E+005  0.1043930E+01  0.7957747E-01            NaN
         13   -1    0    0    0    0  0.00000000000E+00  0.00000000000E+00  0.74505805969E-08  0.10566000000E+00  0.10566000000E+00 0.  1.
     999900   -1    0    0    0    0 -0.00000000000E+00 -0.00000000000E+00 -0.74505805969E-08  0.93827000000E+00  0.93827000000E+00 0.  1.
     999902    2    1    2    0    0 -0.16612053662E-01  0.98099569745E-02  0.19398119625E-01  0.10165715895E+01  0.10162033821E+01 0.  0.
     999903    2    3    3    0    0  0.20654819022E-01  0.12467464831E+00  0.11454628440E-01  0.12828908024E+00  0.18880945881E-01 0.  0.
         14    1    1    2    0    0  0.16612053662E-01 -0.98099569745E-02 -0.19398119625E-01  0.27358410548E-01  0.00000000000E+00 0.  1.
     999901    1    3    3    0    0 -0.37266872685E-01 -0.11486469133E+00  0.79434911848E-02  0.88828250921E+00  0.88000000000E+00 0.  1.
        -11    1    4    4    0    0  0.23567408565E-01  0.92132739676E-01  0.85895575514E-02  0.95487727414E-01  0.51100000000E-03 0. -1.
         11    1    4    4    0    0 -0.29125895424E-02  0.32541908631E-01  0.28650708886E-02  0.32801352829E-01  0.51100000000E-03 0.  1.
</event>
<event>
 8    1  0.1118868E+005  0.1043930E+01  0.7957747E-01            NaN
         13   -1    0    0    0    0  0.00000000000E+00  0.00000000000E+00  0.74505805969E-08  0.10566000000E+00  0.10566000000E+00 0.  1.
     999900   -1    0    0    0    0 -0.00000000000E+00 -0.00000000000E+00 -0.74505805969E-08  0.93827000000E+00  0.93827000000E+00 0. -1.
     999902    2    1    2    0    0 -0.12779715500E-01  0.12706540481E-01 -0.15381188623E-01  0.10202369997E+01  0.10199618509E+01 0.  0.
     999903    2    3    3    0    0  0.10290899433E+00 -0.30293518379E-01 -0.70477735942E-01  0.12991766814E+00  0.20088077594E-01 0.  0.
         14    1    1    2    0    0  0.12779715500E-01 -0.12706540481E-01  0.15381188623E-01  0.23693000290E-01  0.00000000000E+00 0.  1.
     999901    1    3    3    0    0 -0.11568870983E+00  0.43000058860E-01  0.55096547319E-01  0.89031933157E+00  0.88000000000E+00 0.  1.
        -11    1    4    4    0    0  0.14533592157E-01 -0.10556034442E-01 -0.67891778587E-02  0.19209612727E-01  0.51100000000E-03 0. -1.
         11    1    4    4    0    0  0.88375402172E-01 -0.19737483937E-01 -0.63688558083E-01  0.11070805541E+00  0.51100000000E-03 0.  1.
</event>
<event>
 8    1  0.1118868E+005  0.1043930E+01  0.7957747E-01            NaN
         13   -1    0    0    0    0  0.00000000000E+00  0.00000000000E+00  0.74505805969E-08  0.10566000000E+00  0.10566000000E+00 0. -1.
     999900   -1    0    0    0    0 -0.00000000000E+00 -0.00000000000E+00 -0.74505805969E-08  0.93827000000E+00  0.93827000000E+00 0. -1.
     999902    2    1    2    0    0 -0.92938656054E-02  0.21638967787E-01 -0.75084891794E-02  0.10192116207E+01  0.10189118360E+01 0.  0.
     999903    2    3    3    0    0  0.11767884107E+00  0.42332908443E-01  0.26317224704E-01  0.12921471828E+00  0.19064688073E-01 0.  0.
         14    1    1    2    0    0  0.92938656054E-02 -0.21638967787E-01  0.75084891794E-02  0.24718379286E-01  0.00000000000E+00 0. -1.
     999901    1    3    3    0    0 -0.12697270668E+00 -0.20693940656E-01 -0.33825713884E-01  0.88999690243E+00  0.88000000000E+00 0.  1.
        -11    1    4    4    0    0  0.21999073834E-01  0.13577892718E-01 -0.15929706062E-03  0.25857395785E-01  0.51100000000E-03 0.  1.
         11    1    4    4    0    0  0.95679767237E-01  0.28755015725E-01  0.26476521765E-01  0.10335732250E+00  0.51100000000E-03 0. -1.
</event>
<event>
 8    1  0.1118868E+005  0.1043930E+01  0.7957747E-01            NaN
         13   -1    0    0    0    0  0.00000000000E+00  0.00000000000E+00  0.74505805969E-08  0.10566000000E+00  0.10566000000E+00 0.  1.
     999900   -1    0    0    0    0 -0.00000000000E+00 -0.00000000000E+00 -0.74505805969E-08  0.93827000000E+00  0.93827000000E+00 0. -1.
     999902    2    1    2    0    0 -0.18896018781E-01 -0.12746325763E-01 -0.93862837382E-02  0.10192798343E+01  0.10189817221E+01 0.  0.
     999903    2    3    3    0    0  0.67745575686E-01 -0.89204083378E-01  0.60660268798E-01  0.12896580313E+00  0.20141465930E-01 0.  0.
         14    1    1    2    0    0  0.18896018781E-01  0.12746325763E-01  0.93862837382E-02  0.24650165692E-01  0.00000000000E+00 0.  1.
     999901    1    3    3    0    0 -0.86641594467E-01  0.76457757615E-01 -0.70046552536E-01  0.89031403118E+00  0.88000000000E+00 0. -1.
        -11    1    4    4    0    0  0.38361447218E-01 -0.54585037782E-01  0.25083627097E-01  0.71278162516E-01  0.51100000000E-03 0. -1.
         11    1    4    4    0    0  0.29384128469E-01 -0.34619045596E-01  0.35576641701E-01  0.57687640613E-01  0.51100000000E-03 0.  1.
</event>
<event>
 8    1  0.1118868E+005  0.1043930E+01  0.7957747E-01            NaN
         13   -1    0    0    0    0  0.00000000000E+00  0.00000000000E+00  0.74505805969E-08  0.10566000000E+00  0.10566000000E+00 0.  1.
     999900   -1    0    0    0    0 -0.00000000000E+00 -0.00000000000E+00 -0.74505805969E-08  0.93827000000E+00  0.93827000000E+00 0.  1.
     999902    2    1    2    0    0  0.97443812803E-02  0.22450756548E-01 -0.19739994120E-03  0.10194549433E+01  0.10191611025E+01 0.  0.
     999903    2    3    3    0    0 -0.51847343935E-01 -0.13207947129E-01  0.11550097259E+00  0.12903302238E+00  0.21129345786E-01 0.  0.
         14    1    1    2    0    0 -0.97443812803E-02 -0.22450756548E-01  0.19739994120E-03  0.24475056749E-01  0.00000000000E+00 0. -1.
     999901    1    3    3    0    0  0.61591725215E-01  0.35658703677E-01 -0.11569837254E+00  0.89042192087E+00  0.88000000000E+00 0.  1.
        -11    1    4    4    0    0 -0.32520577852E-01 -0.17677155712E-01  0.65472582026E-01  0.75212963883E-01  0.51100000000E-03 0.  1.
         11    1    4    4    0    0 -0.19326766083E-01  0.44692085830E-02  0.50028390569E-01  0.53820058496E-01  0.51100000000E-03 0. -1.
</event>
<event>
 8    1  0.1118868E+005  0.1043930E+01  0.7957747E-01            NaN
         13   -1    0    0    0    0  0.00000000000E+00  0.00000000000E+00  0.74505805969E-08  0.10566000000E+00  0.10566000000E+00 0.  1.
     999900   -1    0    0    0    0 -0.00000000000E+00 -0.00000000000E+00 -0.74505805969E-08  0.93827000000E+00  0.93827000000E+00 0.  1.
     999902    2    1    2    0    0  0.16438146592E-01  0.93555340402E-02 -0.14341818456E-01  0.10201933946E+01  0.10199172201E+01 0.  0.
     999903    2    3    3    0    0  0.10062419043E+00  0.59934740017E-01 -0.60722283474E-01  0.13351606116E+00  0.20541229666E-01 0.  0.
         14    1    1    2    0    0 -0.16438146592E-01 -0.93555340402E-02  0.14341818456E-01  0.23736605427E-01  0.00000000000E+00 0.  1.
     999901    1    3    3    0    0 -0.84186043840E-01 -0.50579205977E-01  0.46380465018E-01  0.88667733341E+00  0.88000000000E+00 0.  1.
        -11    1    4    4    0    0  0.81453361298E-01  0.43158498708E-01 -0.39231478152E-01  0.10018321255E+00  0.51100000000E-03 0.  1.
         11    1    4    4    0    0  0.19170829134E-01  0.16776241309E-01 -0.21490805322E-01  0.33332848612E-01  0.51100000000E-03 0. -1.
</event>
<event>
 8    1  0.1118868E+005  0.1043930E+01  0.7957747E-01            NaN
         13   -1    0    0    0    0  0.00000000000E+00  0.00000000000E+00  0.74505805969E-08  0.10566000000E+00  0.10566000000E+00 0.  1.
     999900   -1    0    0    0    0 -0.00000000000E+00 -0.00000000000E+00 -0.74505805969E-08  0.93827000000E+00  0.93827000000E+00 0.  1.
     999902    2    1    2    0    0 -0.75919633643E-02  0.22282959558E-01 -0.46029602293E-03  0.10203847230E+01  0.10201130344E+01 0.  0.
     999903    2    3    3    0    0 -0.55211996803E-01 -0.87634579758E-01  0.74931589516E-01  0.12907474922E+00  0.17814702326E-01 0.  0.
         14    1    1    2    0    0  0.75919633643E-02 -0.22282959558E-01  0.46029602293E-03  0.23545276953E-01  0.00000000000E+00 0. -1.
     999901    1    3    3    0    0  0.47620033439E-01  0.10991753932E+00 -0.75391885539E-01  0.89130997382E+00  0.88000000000E+00 0.  1.
        -11    1    4    4    0    0 -0.32859515049E-01 -0.53296165591E-01  0.55729245263E-01  0.83822663371E-01  0.51100000000E-03 0. -1.
         11    1    4    4    0    0 -0.22352481754E-01 -0.34338414167E-01  0.19202344253E-01  0.45252085851E-01  0.51100000000E-03 0.  1.
</event>
<event>
 8    1  0.1118868E+005  0.1043930E+01  0.7957747E-01            NaN
         13   -1    0    0    0    0  0.00000000000E+00  0.00000000000E+00  0.74505805969E-08  0.10566000000E+00  0.10566000000E+00 0. -1.
     999900   -1    0    0    0    0 -0.00000000000E+00 -0.00000000000E+00 -0.74505805969E-08  0.93827000000E+00  0.93827000000E+00 0. -1.
     999902    2    1    2    0    0  0.82177203278E-02  0.14373205840E-01  0.17373584520E-01  0.10199308039E+01  0.10196484116E+01 0.  0.
     999903    2    3    3    0    0  0.10427513328E+00 -0.21815263661E-03 -0.74907457342E-01  0.12978714977E+00  0.18979622515E-01 0.  0.
         14    1    1    2    0    0 -0.82177203278E-02 -0.14373205840E-01 -0.17373584520E-01  0.23999196082E-01  0.00000000000E+00 0.  1.
     999901    1    3    3    0    0 -0.96057412948E-01  0.14591358477E-01  0.92281041862E-01  0.89014365414E+00  0.88000000000E+00 0. -1.
        -11    1    4    4    0    0  0.34214685264E-01  0.33651340440E-02 -0.35060120467E-01  0.49106435250E-01  0.51100000000E-03 0. -1.
         11    1    4    4    0    0  0.70060448012E-01 -0.35832866806E-02 -0.39847336876E-01  0.80680714524E-01  0.51100000000E-03 0.  1.
</event>
<event>
 8    1  0.1118868E+005  0.1043930E+01  0.7957747E-01            NaN
         13   -1    0    0    0    0  0.00000000000E+00  0.00000000000E+00  0.74505805969E-08  0.10566000000E+00  0.10566000000E+00 0.  1.
     999900   -1    0    0    0    0 -0.00000000000E+00 -0.00000000000E+00 -0.74505805969E-08  0.93827000000E+00  0.93827000000E+00 0. -1.
     999902    2    1    2    0    0 -0.13436302587E-02  0.20221154201E-01  0.11760516658E-01  0.10204990339E+01  0.10202300074E+01 0.  0.
     999903    2    3    3    0    0 -0.11580735854E+00  0.29494113536E-01  0.52018795384E-01  0.13212486620E+00  0.21674366669E-01 0.  0.
         14    1    1    2    0    0  0.13436302587E-02 -0.20221154201E-01 -0.11760516658E-01  0.23430966082E-01  0.00000000000E+00 0. -1.
     999901    1    3    3    0    0  0.11446372828E+00 -0.92729593350E-02 -0.40258278726E-01  0.88837416772E+00  0.88000000000E+00 0. -1.
        -11    1    4    4    0    0 -0.86218717682E-01  0.16110551635E-01  0.29253234317E-01  0.92462046223E-01  0.51100000000E-03 0.  1.
         11    1    4    4    0    0 -0.29588640853E-01  0.13383561901E-01  0.22765561067E-01  0.39662819975E-01  0.51100000000E-03 0. -1.
</event>
<event>
 8    1  0.1118868E+005  0.1043930E+01  0.7957747E-01            NaN
         13   -1    0    0    0    0  0.00000000000E+00  0.00000000000E+00  0.74505805969E-08  0.10566000000E+00  0.10566000000E+00 0. -1.
     999900   -1    0    0    0    0 -0.00000000000E+00 -0.00000000000E+00 -0.74505805969E-08  0.93827000000E+00  0.93827000000E+00 0.  1.
     999902    2    1    2    0    0 -0.55610319183E-02 -0.69967477761E-02  0.23140751075E-01  0.10191232687E+01  0.10188213106E+01 0.  0.
     999903    2    3    3    0    0  0.34508927463E-01  0.62945035964E-01 -0.10145041988E+00  0.12669937023E+00  0.24649525270E-01 0.  0.
         14    1    1    2    0    0  0.55610319183E-02  0.69967477761E-02 -0.23140751075E-01  0.24806731259E-01  0.00000000000E+00 0.  1.
     999901    1    3    3    0    0 -0.40069959381E-01 -0.69941783740E-01  0.12459117095E+00  0.89242389851E+00  0.88000000000E+00 0. -1.
        -11    1    4    4    0    0  0.49173025204E-02  0.23465284253E-01 -0.18926045742E-01  0.30549234976E-01  0.51100000000E-03 0.  1.
         11    1    4    4    0    0  0.29591624943E-01  0.39479751710E-01 -0.82524374135E-01  0.96150135253E-01  0.51100000000E-03 0. -1.
</event>
<event>
 8    1  0.1118868E+005  0.1043930E+01  0.7957747E-01            NaN
         13   -1    0    0    0    0  0.00000000000E+00  0.00000000000E+00  0.74505805969E-08  0.10566000000E+00  0.10566000000E+00 0. -1.
     999900   -1    0    0    0    0 -0.00000000000E+00 -0.00000000000E+00 -0.74505805969E-08  0.93827000000E+00  0.93827000000E+00 0. -1.
     999902    2    1    2    0    0 -0.72632304876E-04  0.26953318724E-02 -0.23476491961E-01  0.10202991777E+01  0.10200254880E+01 0.  0.
     999903    2    3    3    0    0 -0.26471313783E-01 -0.12228211049E+00 -0.32922024017E-01  0.13102673935E+00  0.20748536300E-01 0.  0.
         14    1    1    2    0    0  0.72632304876E-04 -0.26953318724E-02  0.23476491961E-01  0.23630822333E-01  0.00000000000E+00 0. -1.
     999901    1    3    3    0    0  0.26398681478E-01  0.12497744236E+00  0.94455320567E-02  0.88927243832E+00  0.88000000000E+00 0.  1.
        -11    1    4    4    0    0 -0.11119594889E-01 -0.91972409953E-01 -0.27324824351E-01  0.96589216426E-01  0.51100000000E-03 0. -1.
         11    1    4    4    0    0 -0.15351718894E-01 -0.30309700538E-01 -0.55971996659E-02  0.34437522919E-01  0.51100000000E-03 0.  1.
</event>
<event>
 8    1  0.1118868E+005  0.1043930E+01  0.7957747E-01            NaN
         13   -1    0    0    0    0  0.00000000000E+00  0.00000000000E+00  0.74505805969E-08  0.10566000000E+00  0.10566000000E+00 0. -1.
     999900   -1    0    0    0    0 -0.00000000000E+00 -0.00000000000E+00 -0.74505805969E-08  0.93827000000E+00  0.93827000000E+00 0. -1.
     999902    2    1    2    0    0  0.15695959412E-01 -0.14060474247E-01  0.11217802732E-01  0.10200574388E+01  0.10197780540E+01 0.  0.
     999903    2    3    3    0    0 -0.21926540988E-01 -0.58294806183E-01  0.11482435222E+00  0.13207858451E+00  0.19520834919E-01 0.  0.
         14    1    1    2    0    0 -0.15695959412E-01  0.14060474247E-01 -0.11217802732E-01  0.23872561154E-01  0.00000000000E+00 0.  1.
     999901    1    3    3    0    0  0.37622500400E-01  0.44234331936E-01 -0.10360654948E+00  0.88797885434E+00  0.88000000000E+00 0.  1.
        -11    1    4    4    0    0 -0.50566027565E-02 -0.36802902606E-01  0.76080510139E-01  0.84667160196E-01  0.51100000000E-03 0. -1.
         11    1    4    4    0    0 -0.16869938231E-01 -0.21491903577E-01  0.38743842076E-01  0.47411424310E-01  0.51100000000E-03 0.  1.
</event>
<event>
 8    1  0.1118868E+005  0.1043930E+01  0.7957747E-01            NaN
         13   -1    0    0    0    0  0.00000000000E+00  0.00000000000E+00  0.74505805969E-08  0.10566000000E+00  0.10566000000E+00 0. -1.
     999900   -1    0    0    0    0 -0.00000000000E+00 -0.00000000000E+00 -0.74505805969E-08  0.93827000000E+00  0.93827000000E+00 0. -1.
     999902    2    1    2    0    0 -0.13770083076E-01 -0.57570949868E-02 -0.19901145396E-01  0.10190540092E+01  0.10187503417E+01 0.  0.
     999903    2    3    3    0    0 -0.31004586597E-01 -0.12480169482E+00 -0.14126138399E-01  0.13085245798E+00  0.19648678181E-01 0.  0.
         14    1    1    2    0    0  0.13770083076E-01  0.57570949868E-02  0.19901145396E-01  0.24875990808E-01  0.00000000000E+00 0. -1.
     999901    1    3    3    0    0  0.17234503521E-01  0.11904459983E+00 -0.57750069973E-02  0.88820155121E+00  0.88000000000E+00 0.  1.
        -11    1    4    4    0    0 -0.17858505722E-01 -0.86827560376E-01 -0.12628904323E-02  0.88655555273E-01  0.51100000000E-03 0.  1.
         11    1    4    4    0    0 -0.13146080875E-01 -0.37974134445E-01 -0.12863247966E-01  0.42196902712E-01  0.51100000000E-03 0. -1.
</event>
<event>
 8    1  0.1292652E+005  0.1043930E+01  0.7957747E-01            NaN
         13   -1    0    0    0    0  0.00000000000E+00  0.00000000000E+00  0.74505805969E-08  0.10566000000E+00  0.10566000000E+00 0.  1.
     999900   -1    0    0    0    0 -0.00000000000E+00 -0.00000000000E+00 -0.74505805969E-08  0.93827000000E+00  0.93827000000E+00 0. -1.
     999902    2    1    2    0    0  0.74345654434E-02  0.14942236977E-01  0.17342129368E-01  0.10198615007E+01  0.10195774556E+01 0.  0.
     999903    2    3    3    0    0 -0.78561635865E-01  0.35767572777E-01  0.97610480197E-01  0.13178940371E+00  0.19732997569E-01 0.  0.
         14    1    1    2    0    0 -0.74345654434E-02 -0.14942236977E-01 -0.17342129368E-01  0.24068499334E-01  0.00000000000E+00 0. -1.
     999901    1    3    3    0    0  0.85996201309E-01 -0.20825335801E-01 -0.80268350829E-01  0.88807209696E+00  0.88000000000E+00 0. -1.
        -11    1    4    4    0    0 -0.43150186606E-01  0.15335550630E-01  0.64883022229E-01  0.79417790273E-01  0.51100000000E-03 0.  1.
         11    1    4    4    0    0 -0.35411449260E-01  0.20432022148E-01  0.32727457968E-01  0.52371613434E-01  0.51100000000E-03 0. -1.
</event>
<event>
 8    1  0.1118868E+005  0.1043930E+01  0.7957747E-01            NaN
         13   -1    0    0    0    0  0.00000000000E+00  0.00000000000E+00  0.74505805969E-08  0.10566000000E+00  0.10566000000E+00 0. -1.
     999900   -1    0    0    0    0 -0.00000000000E+00 -0.00000000000E+00 -0.74505805969E-08  0.93827000000E+00  0.93827000000E+00 0. -1.
     999902    2    1    2    0    0  0.37042165731E-02  0.41343913119E-02  0.23453981588E-01  0.10198280568E+01  0.10195432123E+01 0.  0.
     999903    2    3    3    0    0  0.81584892344E-01 -0.54328814217E-01  0.85463984273E-01  0.13228730482E+00  0.24251261731E-01 0.  0.
         14    1    1    2    0    0 -0.37042165731E-02 -0.41343913119E-02 -0.23453981588E-01  0.24101943163E-01  0.00000000000E+00 0.  1.
     999901    1    3    3    0    0 -0.77880675770E-01  0.58463205529E-01 -0.62010002685E-01  0.88754075202E+00  0.88000000000E+00 0. -1.
        -11    1    4    4    0    0  0.11822472535E-01 -0.68350706410E-02  0.24065306429E-02  0.13875934499E-01  0.51100000000E-03 0.  1.
         11    1    4    4    0    0  0.69762419809E-01 -0.47493743576E-01  0.83057453630E-01  0.11841137032E+00  0.51100000000E-03 0. -1.
</event>
<event>
 8    1  0.1118868E+005  0.1043930E+01  0.7957747E-01            NaN
         13   -1    0    0    0    0  0.00000000000E+00  0.00000000000E+00  0.74505805969E-08  0.10566000000E+00  0.10566000000E+00 0.  1.
     999900   -1    0    0    0    0 -0.00000000000E+00 -0.00000000000E+00 -0.74505805969E-08  0.93827000000E+00  0.93827000000E+00 0.  1.
     999902    2    1    2    0    0 -0.14562167273E-01  0.14537682663E-01  0.99614383868E-02  0.10210688717E+01  0.10208129160E+01 0.  0.
     999903    2    3    3    0    0 -0.30240882930E-01 -0.96077313528E-01 -0.79173932262E-01  0.12953838213E+00  0.19139480683E-01 0.  0.
         14    1    1    2    0    0  0.14562167273E-01 -0.14537682663E-01 -0.99614383868E-02  0.22861128311E-01  0.00000000000E+00 0. -1.
     999901    1    3    3    0    0  0.15678715657E-01  0.11061499619E+00  0.89135370649E-01  0.89153048956E+00  0.88000000000E+00 0.  1.
        -11    1    4    4    0    0 -0.25505728304E-01 -0.82727778547E-01 -0.58544518270E-01  0.10450908697E+00  0.51100000000E-03 0.  1.
         11    1    4    4    0    0 -0.47351546266E-02 -0.13349534981E-01 -0.20629413992E-01  0.25029295160E-01  0.51100000000E-03 0. -1.
</event>
<event>
 8    1  0.1118868E+005  0.1043930E+01  0.7957747E-01            NaN
         13   -1    0    0    0    0  0.00000000000E+00  0.00000000000E+00  0.74505805969E-08  0.10566000000E+00  0.10566000000E+00 0.  1.
     999900   -1    0    0    0    0 -0.00000000000E+00 -0.00000000000E+00 -0.74505805969E-08  0.93827000000E+00  0.93827000000E+00 0. -1.
     999902    2    1    2    0    0 -0.59106694636E-02 -0.13323143188E-01 -0.19739279654E-01  0.10193926546E+01  0.10190972981E+01 0.  0.
     999903    2    3    3    0    0  0.43567132899E-01 -0.10418498940E+00  0.60546158666E-01  0.12970187707E+00  0.20103047026E-01 0.  0.
         14    1    1    2    0    0  0.59106694636E-02  0.13323143188E-01  0.19739279654E-01  0.24537345398E-01  0.00000000000E+00 0.  1.
     999901    1    3    3    0    0 -0.49477802363E-01  0.90861846215E-01 -0.80285438319E-01  0.88969077753E+00  0.88000000000E+00 0. -1.
        -11    1    4    4    0    0  0.19067955471E-01 -0.63795344196E-01  0.27459192884E-01  0.72025698620E-01  0.51100000000E-03 0.  1.
         11    1    4    4    0    0  0.24499177428E-01 -0.40389645207E-01  0.33086965782E-01  0.57676178447E-01  0.51100000000E-03 0. -1.
</event>
