<event>
 8    1  0.1176534E+005  0.1043930E+01  0.7957747E-01            NaN
         13   -1    0    0    0    0  0.00000000000E+00  0.00000000000E+00  0.74505805969E-08  0.10566000000E+00  0.10566000000E+00 0. -1.
     999900   -1    0    0    0    0 -0.00000000000E+00 -0.00000000000E+00 -0.74505805969E-08  0.93827000000E+00  0.93827000000E+00 0.  1.
     999902    2    1    2    0    0  0.13359201713E-01  0.34917603174E-03 -0.19150183728E-01  0.10205779181E+01  0.10203107209E+01 0.  0.
     999903    2    3    3    0    0 -0.10704317430E-01  0.12145666046E+00  0.38653277458E-01  0.13007956552E+00  0.23670968000E-01 0.  0.
         14    1    1    2    0    0 -0.13359201713E-01 -0.34917603174E-03  0.19150183728E-01  0.23352081944E-01  0.00000000000E+00 0. -1.
     999901    1    3    3    0    0  0.24063519143E-01 -0.12110748443E+00 -0.57803461186E-01  0.89049835253E+00  0.88000000000E+00 0.  1.
        -11    1    4    4    0    0 -0.18094799044E-01  0.82475992106E-01  0.24024134219E-01  0.87790268095E-01  0.51100000000E-03 0.  1.
         11    1    4    4    0    0  0.73904816139E-02  0.38980668356E-01  0.14629143239E-01  0.42289297427E-01  0.51100000000E-03 0. -1.
</event>
<event>
 8    1  0.1176534E+005  0.1043930E+01  0.7957747E-01            NaN
         13   -1    0    0    0    0  0.00000000000E+00  0.00000000000E+00  0.74505805969E-08  0.10566000000E+00  0.10566000000E+00 0.  1.
     999900   -1    0    0    0    0 -0.00000000000E+00 -0.00000000000E+00 -0.74505805969E-08  0.93827000000E+00  0.93827000000E+00 0. -1.
     999902    2    1    2    0    0  0.40344435843E-02 -0.14924094523E-01 -0.17927797208E-01  0.10202569933E+01  0.10199823142E+01 0.  0.
     999903    2    3    3    0    0 -0.10574882391E+00  0.68382804207E-01  0.18727469970E-01  0.12877731671E+00  0.19335394992E-01 0.  0.
         14    1    1    2    0    0 -0.40344435843E-02  0.14924094523E-01  0.17927797208E-01  0.23673006676E-01  0.00000000000E+00 0.  1.
     999901    1    3    3    0    0  0.10978326749E+00 -0.83306898730E-01 -0.36655267178E-01  0.89147967661E+00  0.88000000000E+00 0. -1.
        -11    1    4    4    0    0 -0.71575644632E-02  0.52741397677E-04  0.30641451747E-02  0.78027954832E-02  0.51100000000E-03 0. -1.
         11    1    4    4    0    0 -0.98591259444E-01  0.68330062810E-01  0.15663324795E-01  0.12097452123E+00  0.51100000000E-03 0.  1.
</event>
<event>
 8    1  0.1176534E+005  0.1043930E+01  0.7957747E-01            NaN
         13   -1    0    0    0    0  0.00000000000E+00  0.00000000000E+00  0.74505805969E-08  0.10566000000E+00  0.10566000000E+00 0. -1.
     999900   -1    0    0    0    0 -0.00000000000E+00 -0.00000000000E+00 -0.74505805969E-08  0.93827000000E+00  0.93827000000E+00 0.  1.
     999902    2    1    2    0    0 -0.19549853667E-02 -0.24351376874E-01 -0.48018302230E-02  0.10190328295E+01  0.10187286383E+01 0.  0.
     999903    2    3    3    0    0  0.10455337617E+00  0.14613627999E-01 -0.71759921618E-01  0.12923190310E+00  0.20160154702E-01 0.  0.
         14    1    1    2    0    0  0.19549853667E-02  0.24351376874E-01  0.48018302230E-02  0.24897170460E-01  0.00000000000E+00 0. -1.
     999901    1    3    3    0    0 -0.10650836154E+00 -0.38965004873E-01  0.66958091395E-01  0.88980092644E+00  0.88000000000E+00 0. -1.
        -11    1    4    4    0    0  0.85266963601E-01  0.64803968217E-02 -0.64351007891E-01  0.10702225919E+00  0.51100000000E-03 0. -1.
         11    1    4    4    0    0  0.19286412569E-01  0.81332311776E-02 -0.74089137265E-02  0.22209643914E-01  0.51100000000E-03 0.  1.
</event>
<event>
 7    1  0.1176534E+005  0.1043930E+01  0.7957747E-01            NaN
         13   -1    0    0    0    0  0.00000000000E+00  0.00000000000E+00  0.74505805969E-08  0.10566000000E+00  0.10566000000E+00 0.  1.
     999900   -1    0    0    0    0 -0.00000000000E+00 -0.00000000000E+00 -0.74505805969E-08  0.93827000000E+00  0.93827000000E+00 0.  1.
     999903    2    1    2    0    0  0.27857868271E-01  0.11034863261E+00  0.10274049108E-01  0.11616670746E+00  0.20886988630E-01 0.  0.
         14    1    1    2    0    0  0.18971114379E-02 -0.54962724247E-03 -0.39897596884E-01  0.39946456151E-01  0.00000000000E+00 0. -1.
     999901    1    1    2    0    0 -0.29754979709E-01 -0.10979900536E+00  0.29623547776E-01  0.88781683639E+00  0.88000000000E+00 0. -1.
        -11    1    3    3    0    0  0.12323419336E-01  0.19987790331E-01  0.66370025946E-02  0.24406748061E-01  0.51100000000E-03 0.  1.
         11    1    3    3    0    0  0.15534448934E-01  0.90360842275E-01  0.36370465136E-02  0.91759959397E-01  0.51100000000E-03 0. -1.
</event>
<event>
 8    1  0.1176534E+005  0.1043930E+01  0.7957747E-01            NaN
         13   -1    0    0    0    0  0.00000000000E+00  0.00000000000E+00  0.74505805969E-08  0.10566000000E+00  0.10566000000E+00 0.  1.
     999900   -1    0    0    0    0 -0.00000000000E+00 -0.00000000000E+00 -0.74505805969E-08  0.93827000000E+00  0.93827000000E+00 0.  1.
     999902    2    1    2    0    0 -0.19942595064E-02  0.18206520383E-01  0.14951584710E-01  0.10202867274E+01  0.10200127459E+01 0.  0.
     999903    2    3    3    0    0  0.44127040606E-01 -0.86347543766E-01 -0.80722030621E-01  0.12775540168E+00  0.20057477533E-01 0.  0.
         14    1    1    2    0    0  0.19942595064E-02 -0.18206520383E-01 -0.14951584710E-01  0.23643272633E-01  0.00000000000E+00 0. -1.
     999901    1    3    3    0    0 -0.46121300112E-01  0.10455406415E+00  0.95673615331E-01  0.89253132568E+00  0.88000000000E+00 0.  1.
        -11    1    4    4    0    0  0.28959761454E-01 -0.50315722736E-01 -0.35822578327E-01  0.68219190679E-01  0.51100000000E-03 0. -1.
         11    1    4    4    0    0  0.15167279152E-01 -0.36031821030E-01 -0.44899452294E-01  0.59536211005E-01  0.51100000000E-03 0.  1.
</event>
<event>
 8    1  0.1176534E+005  0.1043930E+01  0.7957747E-01            NaN
         13   -1    0    0    0    0  0.00000000000E+00  0.00000000000E+00  0.74505805969E-08  0.10566000000E+00  0.10566000000E+00 0. -1.
     999900   -1    0    0    0    0 -0.00000000000E+00 -0.00000000000E+00 -0.74505805969E-08  0.93827000000E+00  0.93827000000E+00 0. -1.
     999902    2    1    2    0    0  0.20200810712E-01 -0.92382949555E-03  0.12767514066E-01  0.10200148243E+01  0.10197344292E+01 0.  0.
     999903    2    3    3    0    0  0.29635142050E-01  0.80968949000E-01  0.98209357376E-01  0.13204199679E+00  0.18862626874E-01 0.  0.
         14    1    1    2    0    0 -0.20200810712E-01  0.92382949555E-03 -0.12767514066E-01  0.23915175721E-01  0.00000000000E+00 0.  1.
     999901    1    3    3    0    0 -0.94343313383E-02 -0.81892778495E-01 -0.85441843309E-01  0.88797282749E+00  0.88000000000E+00 0. -1.
        -11    1    4    4    0    0  0.18008463001E-01  0.66510277526E-01  0.69608882391E-01  0.97946819167E-01  0.51100000000E-03 0. -1.
         11    1    4    4    0    0  0.11626679049E-01  0.14458671473E-01  0.28600474985E-01  0.34095177619E-01  0.51100000000E-03 0.  1.
</event>
<event>
 8    1  0.1176534E+005  0.1043930E+01  0.7957747E-01            NaN
         13   -1    0    0    0    0  0.00000000000E+00  0.00000000000E+00  0.74505805969E-08  0.10566000000E+00  0.10566000000E+00 0. -1.
     999900   -1    0    0    0    0 -0.00000000000E+00 -0.00000000000E+00 -0.74505805969E-08  0.93827000000E+00  0.93827000000E+00 0. -1.
     999902    2    1    2    0    0 -0.11408983556E-01  0.23396034150E-01 -0.25449341942E-02  0.10177763003E+01  0.10174402102E+01 0.  0.
     999903    2    3    3    0    0 -0.66260001455E-01  0.56752805161E-01 -0.94700151383E-01  0.13063826569E+00  0.22067376462E-01 0.  0.
         14    1    1    2    0    0  0.11408983556E-01 -0.23396034150E-01  0.25449341942E-02  0.26153699734E-01  0.00000000000E+00 0. -1.
     999901    1    3    3    0    0  0.54851017899E-01 -0.33356771011E-01  0.92155217189E-01  0.88713803458E+00  0.88000000000E+00 0.  1.
        -11    1    4    4    0    0 -0.51252751835E-01  0.34502486009E-01 -0.75886764513E-01  0.97858715814E-01  0.51100000000E-03 0.  1.
         11    1    4    4    0    0 -0.15007249620E-01  0.22250319152E-01 -0.18813386870E-01  0.32779549876E-01  0.51100000000E-03 0. -1.
</event>
<event>
 8    1  0.1176534E+005  0.1043930E+01  0.7957747E-01            NaN
         13   -1    0    0    0    0  0.00000000000E+00  0.00000000000E+00  0.74505805969E-08  0.10566000000E+00  0.10566000000E+00 0.  1.
     999900   -1    0    0    0    0 -0.00000000000E+00 -0.00000000000E+00 -0.74505805969E-08  0.93827000000E+00  0.93827000000E+00 0. -1.
     999902    2    1    2    0    0  0.13540440931E-01 -0.96103998175E-02  0.16014272701E-01  0.10208614011E+01  0.10206007251E+01 0.  0.
     999903    2    3    3    0    0  0.12723189297E+00  0.76592803315E-02 -0.28892852286E-01  0.13224413928E+00  0.20176627522E-01 0.  0.
         14    1    1    2    0    0 -0.13540440931E-01  0.96103998175E-02 -0.16014272701E-01  0.23068598905E-01  0.00000000000E+00 0. -1.
     999901    1    3    3    0    0 -0.11369145204E+00 -0.17269680149E-01  0.44907124988E-01  0.88861726181E+00  0.88000000000E+00 0. -1.
        -11    1    4    4    0    0  0.11656384363E+00  0.12330480121E-01 -0.24256361259E-01  0.11969879934E+00  0.51100000000E-03 0. -1.
         11    1    4    4    0    0  0.10668049336E-01 -0.46711997896E-02 -0.46364910269E-02  0.12545339938E-01  0.51100000000E-03 0.  1.
</event>
<event>
 8    1  0.1176534E+005  0.1043930E+01  0.7957747E-01            NaN
         13   -1    0    0    0    0  0.00000000000E+00  0.00000000000E+00  0.74505805969E-08  0.10566000000E+00  0.10566000000E+00 0.  1.
     999900   -1    0    0    0    0 -0.00000000000E+00 -0.00000000000E+00 -0.74505805969E-08  0.93827000000E+00  0.93827000000E+00 0.  1.
     999902    2    1    2    0    0 -0.13022083355E-01 -0.91343217720E-02 -0.17876487934E-01  0.10200013705E+01  0.10197206561E+01 0.  0.
     999903    2    3    3    0    0 -0.78037628657E-01  0.28985019927E-01  0.96845880087E-01  0.12936040632E+00  0.20615221722E-01 0.  0.
         14    1    1    2    0    0  0.13022083355E-01  0.91343217720E-02  0.17876487934E-01  0.23928629505E-01  0.00000000000E+00 0.  1.
     999901    1    3    3    0    0  0.65015545302E-01 -0.38119341699E-01 -0.11472236802E+00  0.89064096418E+00  0.88000000000E+00 0.  1.
        -11    1    4    4    0    0 -0.55476351220E-01  0.11652355852E-01  0.71562449303E-01  0.91295389877E-01  0.51100000000E-03 0. -1.
         11    1    4    4    0    0 -0.22561277437E-01  0.17332664075E-01  0.25283430785E-01  0.38065016442E-01  0.51100000000E-03 0.  1.
</event>
<event>
 8    1  0.1176534E+005  0.1043930E+01  0.7957747E-01            NaN
         13   -1    0    0    0    0  0.00000000000E+00  0.00000000000E+00  0.74505805969E-08  0.10566000000E+00  0.10566000000E+00 0. -1.
     999900   -1    0    0    0    0 -0.00000000000E+00 -0.00000000000E+00 -0.74505805969E-08  0.93827000000E+00  0.93827000000E+00 0.  1.
     999902    2    1    2    0    0 -0.15424127130E-01  0.21467586724E-02 -0.17618069391E-01  0.10204159906E+01  0.10201450314E+01 0.  0.
     999903    2    3    3    0    0 -0.11119958932E+00 -0.45813791085E-01 -0.53776593803E-01  0.13318400716E+00  0.19539846577E-01 0.  0.
         14    1    1    2    0    0  0.15424127130E-01 -0.21467586724E-02  0.17618069391E-01  0.23514009433E-01  0.00000000000E+00 0. -1.
     999901    1    3    3    0    0  0.95775462189E-01  0.47960549757E-01  0.36158524412E-01  0.88723198341E+00  0.88000000000E+00 0.  1.
        -11    1    4    4    0    0 -0.24064581817E-01 -0.56420000539E-02 -0.18794237666E-01  0.31055124426E-01  0.51100000000E-03 0.  1.
         11    1    4    4    0    0 -0.87135007502E-01 -0.40171791031E-01 -0.34982356137E-01  0.10212888274E+00  0.51100000000E-03 0. -1.
</event>
<event>
 8    1  0.1176534E+005  0.1043930E+01  0.7957747E-01            NaN
         13   -1    0    0    0    0  0.00000000000E+00  0.00000000000E+00  0.74505805969E-08  0.10566000000E+00  0.10566000000E+00 0.  1.
     999900   -1    0    0    0    0 -0.00000000000E+00 -0.00000000000E+00 -0.74505805969E-08  0.93827000000E+00  0.93827000000E+00 0.  1.
     999902    2    1    2    0    0 -0.91606909681E-02 -0.19514759699E-01  0.87770245524E-02  0.10206538262E+01  0.10203883833E+01 0.  0.
     999903    2    3    3    0    0  0.37867357383E-01  0.16577438224E-01 -0.12087542768E+00  0.12918086397E+00  0.19185369077E-01 0.  0.
         14    1    1    2    0    0  0.91606909681E-02  0.19514759699E-01 -0.87770245524E-02  0.23276173764E-01  0.00000000000E+00 0. -1.
     999901    1    3    3    0    0 -0.47028048351E-01 -0.36092197922E-01  0.12965245223E+00  0.89147296227E+00  0.88000000000E+00 0. -1.
        -11    1    4    4    0    0  0.10952885915E-01  0.11363704828E-01 -0.25972335993E-01  0.30396099342E-01  0.51100000000E-03 0.  1.
         11    1    4    4    0    0  0.26914471469E-01  0.52137333955E-02 -0.94903091684E-01  0.98784764628E-01  0.51100000000E-03 0. -1.
</event>
<event>
 8    1  0.1176534E+005  0.1043930E+01  0.7957747E-01            NaN
         13   -1    0    0    0    0  0.00000000000E+00  0.00000000000E+00  0.74505805969E-08  0.10566000000E+00  0.10566000000E+00 0. -1.
     999900   -1    0    0    0    0 -0.00000000000E+00 -0.00000000000E+00 -0.74505805969E-08  0.93827000000E+00  0.93827000000E+00 0.  1.
     999902    2    1    2    0    0 -0.70500491893E-02  0.30494848628E-02 -0.22925190881E-01  0.10197521811E+01  0.10194655187E+01 0.  0.
     999903    2    3    3    0    0  0.11291239747E+00  0.40379867995E-01 -0.45981891788E-01  0.13052996049E+00  0.23323656864E-01 0.  0.
         14    1    1    2    0    0  0.70500491893E-02 -0.30494848628E-02  0.22925190881E-01  0.24177818934E-01  0.00000000000E+00 0. -1.
     999901    1    3    3    0    0 -0.11996244666E+00 -0.37330383132E-01  0.23056700907E-01  0.88922222058E+00  0.88000000000E+00 0.  1.
        -11    1    4    4    0    0  0.10968331769E-01 -0.26407431899E-02 -0.65954817671E-02  0.13078200454E-01  0.51100000000E-03 0.  1.
         11    1    4    4    0    0  0.10194406571E+00  0.43020611185E-01 -0.39386410021E-01  0.11745176003E+00  0.51100000000E-03 0. -1.
</event>
<event>
 8    1  0.1176534E+005  0.1043930E+01  0.7957747E-01            NaN
         13   -1    0    0    0    0  0.00000000000E+00  0.00000000000E+00  0.74505805969E-08  0.10566000000E+00  0.10566000000E+00 0.  1.
     999900   -1    0    0    0    0 -0.00000000000E+00 -0.00000000000E+00 -0.74505805969E-08  0.93827000000E+00  0.93827000000E+00 0.  1.
     999902    2    1    2    0    0 -0.23027619303E-01 -0.64390211547E-03  0.29921922778E-02  0.10206998671E+01  0.10204354853E+01 0.  0.
     999903    2    3    3    0    0 -0.44878177631E-02 -0.12047519459E+00 -0.46618506620E-01  0.13100076944E+00  0.21295619634E-01 0.  0.
         14    1    1    2    0    0  0.23027619303E-01  0.64390211547E-03 -0.29921922778E-02  0.23230132917E-01  0.00000000000E+00 0.  1.
     999901    1    3    3    0    0 -0.18539801540E-01  0.11983129247E+00  0.49610698898E-01  0.88969909764E+00  0.88000000000E+00 0. -1.
        -11    1    4    4    0    0  0.44627593026E-02 -0.15279526463E-01 -0.11832736889E-01  0.19840739220E-01  0.51100000000E-03 0. -1.
         11    1    4    4    0    0 -0.89505770656E-02 -0.10519566813E+00 -0.34785769731E-01  0.11116003022E+00  0.51100000000E-03 0.  1.
</event>
<event>
 8    1  0.1176534E+005  0.1043930E+01  0.7957747E-01            NaN
         13   -1    0    0    0    0  0.00000000000E+00  0.00000000000E+00  0.74505805969E-08  0.10566000000E+00  0.10566000000E+00 0. -1.
     999900   -1    0    0    0    0 -0.00000000000E+00 -0.00000000000E+00 -0.74505805969E-08  0.93827000000E+00  0.93827000000E+00 0.  1.
     999902    2    1    2    0    0 -0.10176025711E-01 -0.78877980614E-02 -0.21650717337E-01  0.10187402716E+01  0.10184287989E+01 0.  0.
     999903    2    3    3    0    0  0.10701074469E+00 -0.29260347434E-01 -0.64115822752E-01  0.12969988429E+00  0.20093627008E-01 0.  0.
         14    1    1    2    0    0  0.10176025711E-01  0.78877980614E-02  0.21650717337E-01  0.25189728437E-01  0.00000000000E+00 0. -1.
     999901    1    3    3    0    0 -0.11718677040E+00  0.21372549372E-01  0.42465105415E-01  0.88904038727E+00  0.88000000000E+00 0. -1.
        -11    1    4    4    0    0  0.48255647668E-01 -0.20302534163E-01 -0.21665460992E-01  0.56660866092E-01  0.51100000000E-03 0.  1.
         11    1    4    4    0    0  0.58755097023E-01 -0.89578132710E-02 -0.42450361759E-01  0.73039018198E-01  0.51100000000E-03 0. -1.
</event>
<event>
 8    1  0.1176534E+005  0.1043930E+01  0.7957747E-01            NaN
         13   -1    0    0    0    0  0.00000000000E+00  0.00000000000E+00  0.74505805969E-08  0.10566000000E+00  0.10566000000E+00 0.  1.
     999900   -1    0    0    0    0 -0.00000000000E+00 -0.00000000000E+00 -0.74505805969E-08  0.93827000000E+00  0.93827000000E+00 0.  1.
     999902    2    1    2    0    0  0.56131085505E-02 -0.22266398552E-01  0.74341425667E-02  0.10197935966E+01  0.10195079273E+01 0.  0.
     999903    2    3    3    0    0 -0.11627541791E+00  0.47615459368E-01 -0.17387396951E-01  0.12830248855E+00  0.19287358924E-01 0.  0.
         14    1    1    2    0    0 -0.56131085505E-02  0.22266398552E-01 -0.74341425667E-02  0.24136403373E-01  0.00000000000E+00 0. -1.
     999901    1    3    3    0    0  0.12188852646E+00 -0.69881857921E-01  0.24821539518E-01  0.89149110807E+00  0.88000000000E+00 0. -1.
        -11    1    4    4    0    0 -0.48652892631E-01  0.10492472951E-01 -0.10345476294E-01  0.50837839753E-01  0.51100000000E-03 0.  1.
         11    1    4    4    0    0 -0.67622525283E-01  0.37122986418E-01 -0.70419206569E-02  0.77464648801E-01  0.51100000000E-03 0. -1.
</event>
<event>
 8    1  0.1176534E+005  0.1043930E+01  0.7957747E-01            NaN
         13   -1    0    0    0    0  0.00000000000E+00  0.00000000000E+00  0.74505805969E-08  0.10566000000E+00  0.10566000000E+00 0.  1.
     999900   -1    0    0    0    0 -0.00000000000E+00 -0.00000000000E+00 -0.74505805969E-08  0.93827000000E+00  0.93827000000E+00 0.  1.
     999902    2    1    2    0    0 -0.21081763830E-01 -0.86082251657E-02  0.76243538941E-02  0.10199159816E+01  0.10196332363E+01 0.  0.
     999903    2    3    3    0    0 -0.10556204035E+00 -0.77896340066E-01 -0.92646986284E-02  0.13299828527E+00  0.19786992895E-01 0.  0.
         14    1    1    2    0    0  0.21081763830E-01  0.86082251657E-02 -0.76243538941E-02  0.24014018385E-01  0.00000000000E+00 0. -1.
     999901    1    3    3    0    0  0.84480276515E-01  0.69288114900E-01  0.16889052522E-01  0.88691769634E+00  0.88000000000E+00 0. -1.
        -11    1    4    4    0    0 -0.80414713533E-01 -0.63419356679E-01 -0.14724505803E-01  0.10346793294E+00  0.51100000000E-03 0. -1.
         11    1    4    4    0    0 -0.25147326812E-01 -0.14476983387E-01  0.54598071749E-02  0.29530352337E-01  0.51100000000E-03 0.  1.
</event>
<event>
 8    1  0.1176534E+005  0.1043930E+01  0.7957747E-01            NaN
         13   -1    0    0    0    0  0.00000000000E+00  0.00000000000E+00  0.74505805969E-08  0.10566000000E+00  0.10566000000E+00 0. -1.
     999900   -1    0    0    0    0 -0.00000000000E+00 -0.00000000000E+00 -0.74505805969E-08  0.93827000000E+00  0.93827000000E+00 0. -1.
     999902    2    1    2    0    0 -0.12183370412E-01  0.18896302763E-01 -0.83243117317E-02  0.10199550352E+01  0.10196732196E+01 0.  0.
     999903    2    3    3    0    0  0.55396085413E-01 -0.73105815283E-01  0.86190281328E-01  0.12756253135E+00  0.20742427576E-01 0.  0.
         14    1    1    2    0    0  0.12183370412E-01 -0.18896302763E-01  0.83243117317E-02  0.23974964829E-01  0.00000000000E+00 0. -1.
     999901    1    3    3    0    0 -0.67579455826E-01  0.92002118046E-01 -0.94514593060E-01  0.89239250382E+00  0.88000000000E+00 0. -1.
        -11    1    4    4    0    0  0.13194053810E-01 -0.81512664305E-02  0.22213621253E-01  0.27096721029E-01  0.51100000000E-03 0. -1.
         11    1    4    4    0    0  0.42202031603E-01 -0.64954548852E-01  0.63976660075E-01  0.10046581032E+00  0.51100000000E-03 0.  1.
</event>
<event>
 8    1  0.1176534E+005  0.1043930E+01  0.7957747E-01            NaN
         13   -1    0    0    0    0  0.00000000000E+00  0.00000000000E+00  0.74505805969E-08  0.10566000000E+00  0.10566000000E+00 0.  1.
     999900   -1    0    0    0    0 -0.00000000000E+00 -0.00000000000E+00 -0.74505805969E-08  0.93827000000E+00  0.93827000000E+00 0. -1.
     999902    2    1    2    0    0 -0.78072002893E-02  0.11839602214E-01  0.18067765257E-01  0.10209610493E+01  0.10207026459E+01 0.  0.
     999903    2    3    3    0    0 -0.64511756951E-01 -0.18507408459E-01 -0.10885294701E+00  0.12953230000E+00  0.20624299205E-01 0.  0.
         14    1    1    2    0    0  0.78072002893E-02 -0.11839602214E-01 -0.18067765257E-01  0.22968950745E-01  0.00000000000E+00 0. -1.
     999901    1    3    3    0    0  0.56704556662E-01  0.30347010673E-01  0.12692071226E+00  0.89142874926E+00  0.88000000000E+00 0.  1.
        -11    1    4    4    0    0 -0.27567707109E-01 -0.17553110773E-01 -0.59331288594E-01  0.67738859603E-01  0.51100000000E-03 0. -1.
         11    1    4    4    0    0 -0.36944049842E-01 -0.95429768529E-03 -0.49521658412E-01  0.61793440393E-01  0.51100000000E-03 0.  1.
</event>
<event>
 8    1  0.1176534E+005  0.1043930E+01  0.7957747E-01            NaN
         13   -1    0    0    0    0  0.00000000000E+00  0.00000000000E+00  0.74505805969E-08  0.10566000000E+00  0.10566000000E+00 0.  1.
     999900   -1    0    0    0    0 -0.00000000000E+00 -0.00000000000E+00 -0.74505805969E-08  0.93827000000E+00  0.93827000000E+00 0. -1.
     999902    2    1    2    0    0 -0.16644592149E-01 -0.58380793000E-02  0.17814314998E-01  0.10188605876E+01  0.10185521202E+01 0.  0.
     999903    2    3    3    0    0  0.14639509240E-01 -0.15203428467E-01 -0.12361246221E+00  0.12697049458E+00  0.19899904831E-01 0.  0.
         14    1    1    2    0    0  0.16644592149E-01  0.58380793000E-02 -0.17814314998E-01  0.25069412369E-01  0.00000000000E+00 0. -1.
     999901    1    3    3    0    0 -0.31284101389E-01  0.93653491673E-02  0.14142677721E+00  0.89189009305E+00  0.88000000000E+00 0.  1.
        -11    1    4    4    0    0  0.71218923044E-02 -0.80010885549E-02 -0.10572582509E+00  0.10626829245E+00  0.51100000000E-03 0. -1.
         11    1    4    4    0    0  0.75176169360E-02 -0.72023399124E-02 -0.17886637121E-01  0.20702202132E-01  0.51100000000E-03 0.  1.
</event>
<event>
 8    1  0.1176534E+005  0.1043930E+01  0.7957747E-01            NaN
         13   -1    0    0    0    0  0.00000000000E+00  0.00000000000E+00  0.74505805969E-08  0.10566000000E+00  0.10566000000E+00 0.  1.
     999900   -1    0    0    0    0 -0.00000000000E+00 -0.00000000000E+00 -0.74505805969E-08  0.93827000000E+00  0.93827000000E+00 0.  1.
     999902    2    1    2    0    0 -0.22508223493E-01 -0.34419236388E-02 -0.61885489893E-02  0.10203341296E+01  0.10200612584E+01 0.  0.
     999903    2    3    3    0    0 -0.22725686009E-01 -0.17935984231E-01  0.12538693746E+00  0.13043400386E+00  0.21283536937E-01 0.  0.
         14    1    1    2    0    0  0.22508223493E-01  0.34419236388E-02  0.61885489893E-02  0.23595870438E-01  0.00000000000E+00 0. -1.
     999901    1    3    3    0    0  0.21746251678E-03  0.14494060593E-01 -0.13157548645E+00  0.88990012570E+00  0.88000000000E+00 0.  1.
        -11    1    4    4    0    0 -0.36704347741E-02 -0.11196453011E-01  0.20802204556E-01  0.23912872827E-01  0.51100000000E-03 0.  1.
         11    1    4    4    0    0 -0.19055251235E-01 -0.67395312210E-02  0.10458473290E+00  0.10652113104E+00  0.51100000000E-03 0. -1.
</event>
<event>
 8    1  0.1176534E+005  0.1043930E+01  0.7957747E-01            NaN
         13   -1    0    0    0    0  0.00000000000E+00  0.00000000000E+00  0.74505805969E-08  0.10566000000E+00  0.10566000000E+00 0. -1.
     999900   -1    0    0    0    0 -0.00000000000E+00 -0.00000000000E+00 -0.74505805969E-08  0.93827000000E+00  0.93827000000E+00 0.  1.
     999902    2    1    2    0    0 -0.93193446988E-02  0.69892737598E-02 -0.20359542949E-01  0.10204734205E+01  0.10202037987E+01 0.  0.
     999903    2    3    3    0    0  0.33867204856E-01  0.12453832984E+00  0.10282408688E-01  0.13107936393E+00  0.20476536677E-01 0.  0.
         14    1    1    2    0    0  0.93193446988E-02 -0.69892737598E-02  0.20359542949E-01  0.23456579512E-01  0.00000000000E+00 0. -1.
     999901    1    3    3    0    0 -0.43186549555E-01 -0.11754905608E+00 -0.30641951637E-01  0.88939405656E+00  0.88000000000E+00 0.  1.
        -11    1    4    4    0    0  0.18188727936E-01  0.89970721557E-01  0.15970317790E-03  0.91792413562E-01  0.51100000000E-03 0.  1.
         11    1    4    4    0    0  0.15678476920E-01  0.34567608284E-01  0.10122705510E-01  0.39286950364E-01  0.51100000000E-03 0. -1.
</event>
<event>
 8    1  0.1176534E+005  0.1043930E+01  0.7957747E-01            NaN
         13   -1    0    0    0    0  0.00000000000E+00  0.00000000000E+00  0.74505805969E-08  0.10566000000E+00  0.10566000000E+00 0. -1.
     999900   -1    0    0    0    0 -0.00000000000E+00 -0.00000000000E+00 -0.74505805969E-08  0.93827000000E+00  0.93827000000E+00 0.  1.
     999902    2    1    2    0    0  0.10592345041E-01  0.24955037292E-02  0.20575174107E-01  0.10206541949E+01  0.10203887605E+01 0.  0.
     999903    2    3    3    0    0  0.27613364953E-01 -0.95669213157E-01  0.85322548334E-01  0.13266869435E+00  0.20148174525E-01 0.  0.
         14    1    1    2    0    0 -0.10592345041E-01 -0.24955037292E-02 -0.20575174107E-01  0.23275805074E-01  0.00000000000E+00 0.  1.
     999901    1    3    3    0    0 -0.17021019911E-01  0.98164716887E-01 -0.64747374227E-01  0.88798550057E+00  0.88000000000E+00 0.  1.
        -11    1    4    4    0    0  0.22896563450E-01 -0.47142635039E-01  0.50234342449E-01  0.72597733701E-01  0.51100000000E-03 0. -1.
         11    1    4    4    0    0  0.47168015026E-02 -0.48526578119E-01  0.35088205885E-01  0.60070960651E-01  0.51100000000E-03 0.  1.
</event>
<event>
 8    1  0.1176534E+005  0.1043930E+01  0.7957747E-01            NaN
         13   -1    0    0    0    0  0.00000000000E+00  0.00000000000E+00  0.74505805969E-08  0.10566000000E+00  0.10566000000E+00 0.  1.
     999900   -1    0    0    0    0 -0.00000000000E+00 -0.00000000000E+00 -0.74505805969E-08  0.93827000000E+00  0.93827000000E+00 0.  1.
     999902    2    1    2    0    0 -0.22076234358E-01 -0.60795592286E-02 -0.61590329292E-02  0.10202180863E+01  0.10199424929E+01 0.  0.
     999903    2    3    3    0    0  0.11478507144E+00  0.21879103093E-01  0.47059869672E-01  0.12761237526E+00  0.20395568326E-01 0.  0.
         14    1    1    2    0    0  0.22076234358E-01  0.60795592286E-02  0.61590329292E-02  0.23711913682E-01  0.00000000000E+00 0.  1.
     999901    1    3    3    0    0 -0.13686130580E+00 -0.27958662322E-01 -0.53218902602E-01  0.89260571106E+00  0.88000000000E+00 0.  1.
        -11    1    4    4    0    0  0.96195250382E-01  0.25458516345E-01  0.36970945929E-01  0.10615448278E+00  0.51100000000E-03 0.  1.
         11    1    4    4    0    0  0.18589821059E-01 -0.35794132522E-02  0.10088923743E-01  0.21457892476E-01  0.51100000000E-03 0. -1.
</event>
<event>
 8    1  0.1176534E+005  0.1043930E+01  0.7957747E-01            NaN
         13   -1    0    0    0    0  0.00000000000E+00  0.00000000000E+00  0.74505805969E-08  0.10566000000E+00  0.10566000000E+00 0. -1.
     999900   -1    0    0    0    0 -0.00000000000E+00 -0.00000000000E+00 -0.74505805969E-08  0.93827000000E+00  0.93827000000E+00 0. -1.
     999902    2    1    2    0    0 -0.18264055065E-01  0.10330393886E-01  0.10596007317E-01  0.10204232325E+01  0.10201524422E+01 0.  0.
     999903    2    3    3    0    0  0.94103245021E-01  0.87154726739E-01  0.38283895308E-02  0.12993225061E+00  0.20405050020E-01 0.  0.
         14    1    1    2    0    0  0.18264055065E-01 -0.10330393886E-01 -0.10596007317E-01  0.23506767458E-01  0.00000000000E+00 0.  1.
     999901    1    3    3    0    0 -0.11236730009E+00 -0.76824332853E-01  0.67676177861E-02  0.89049098193E+00  0.88000000000E+00 0.  1.
        -11    1    4    4    0    0  0.53169244276E-01  0.50871999894E-01  0.12203515211E-01  0.74593001110E-01  0.51100000000E-03 0. -1.
         11    1    4    4    0    0  0.40934000746E-01  0.36282726845E-01 -0.83751256804E-02  0.55339249503E-01  0.51100000000E-03 0.  1.
</event>
<event>
 8    1  0.1176534E+005  0.1043930E+01  0.7957747E-01            NaN
         13   -1    0    0    0    0  0.00000000000E+00  0.00000000000E+00  0.74505805969E-08  0.10566000000E+00  0.10566000000E+00 0. -1.
     999900   -1    0    0    0    0 -0.00000000000E+00 -0.00000000000E+00 -0.74505805969E-08  0.93827000000E+00  0.93827000000E+00 0. -1.
     999902    2    1    2    0    0  0.11007454286E-01  0.17244489392E-01 -0.92800451766E-02  0.10214654568E+01  0.10212184015E+01 0.  0.
     999903    2    3    3    0    0  0.11429886640E+00  0.64559051536E-01 -0.16506818825E-01  0.13413236831E+00  0.22066154308E-01 0.  0.
         14    1    1    2    0    0 -0.11007454286E-01 -0.17244489392E-01  0.92800451766E-02  0.22464543234E-01  0.00000000000E+00 0. -1.
     999901    1    3    3    0    0 -0.10329141211E+00 -0.47314562145E-01  0.72267736489E-02  0.88733308845E+00  0.88000000000E+00 0.  1.
        -11    1    4    4    0    0  0.44705055320E-02 -0.10278510596E-02  0.17041928055E-02  0.49200906120E-02  0.51100000000E-03 0. -1.
         11    1    4    4    0    0  0.10982836087E+00  0.65586902596E-01 -0.18211011631E-01  0.12921227770E+00  0.51100000000E-03 0.  1.
</event>
<event>
 8    1  0.1176534E+005  0.1043930E+01  0.7957747E-01            NaN
         13   -1    0    0    0    0  0.00000000000E+00  0.00000000000E+00  0.74505805969E-08  0.10566000000E+00  0.10566000000E+00 0. -1.
     999900   -1    0    0    0    0 -0.00000000000E+00 -0.00000000000E+00 -0.74505805969E-08  0.93827000000E+00  0.93827000000E+00 0. -1.
     999902    2    1    2    0    0  0.10026240569E-01 -0.21280156746E-01 -0.22121415123E-02  0.10203023860E+01  0.10200287716E+01 0.  0.
     999903    2    3    3    0    0  0.83084467042E-02 -0.78812314239E-01  0.10383747777E+00  0.13206850822E+00  0.19479679445E-01 0.  0.
         14    1    1    2    0    0 -0.10026240569E-01  0.21280156746E-01  0.22121415123E-02  0.23627613954E-01  0.00000000000E+00 0. -1.
     999901    1    3    3    0    0  0.17177938650E-02  0.57532157493E-01 -0.10604961929E+00  0.88823387782E+00  0.88000000000E+00 0. -1.
        -11    1    4    4    0    0  0.11234319504E-01 -0.33642908191E-01  0.55291777891E-01  0.65692442713E-01  0.51100000000E-03 0.  1.
         11    1    4    4    0    0 -0.29258727999E-02 -0.45169406048E-01  0.48545699884E-01  0.66376065510E-01  0.51100000000E-03 0. -1.
</event>
<event>
 8    1  0.1176534E+005  0.1043930E+01  0.7957747E-01            NaN
         13   -1    0    0    0    0  0.00000000000E+00  0.00000000000E+00  0.74505805969E-08  0.10566000000E+00  0.10566000000E+00 0. -1.
     999900   -1    0    0    0    0 -0.00000000000E+00 -0.00000000000E+00 -0.74505805969E-08  0.93827000000E+00  0.93827000000E+00 0. -1.
     999902    2    1    2    0    0 -0.18693069689E-01 -0.54356847891E-02  0.13658636748E-01  0.10201490017E+01  0.10198717810E+01 0.  0.
     999903    2    3    3    0    0 -0.11582034516E+00 -0.39672755557E-01  0.48016258253E-01  0.13347751188E+00  0.22856185956E-01 0.  0.
         14    1    1    2    0    0  0.18693069689E-01  0.54356847891E-02 -0.13658636748E-01  0.23780998325E-01  0.00000000000E+00 0. -1.
     999901    1    3    3    0    0  0.97127275467E-01  0.34237070768E-01 -0.34357621505E-01  0.88667148979E+00  0.88000000000E+00 0. -1.
        -11    1    4    4    0    0 -0.10125554021E+00 -0.25965630383E-01  0.40569190299E-01  0.11212947296E+00  0.51100000000E-03 0.  1.
         11    1    4    4    0    0 -0.14564804947E-01 -0.13707125174E-01  0.74470679545E-02  0.21348038921E-01  0.51100000000E-03 0. -1.
</event>
<event>
 8    1  0.1176534E+005  0.1043930E+01  0.7957747E-01            NaN
         13   -1    0    0    0    0  0.00000000000E+00  0.00000000000E+00  0.74505805969E-08  0.10566000000E+00  0.10566000000E+00 0. -1.
     999900   -1    0    0    0    0 -0.00000000000E+00 -0.00000000000E+00 -0.74505805969E-08  0.93827000000E+00  0.93827000000E+00 0.  1.
     999902    2    1    2    0    0 -0.48086189332E-02 -0.16540060093E-01 -0.15715295105E-01  0.10206133342E+01  0.10203469562E+01 0.  0.
     999903    2    3    3    0    0  0.91994457757E-01  0.87686618711E-01 -0.10101094467E-01  0.12917317609E+00  0.20778689897E-01 0.  0.
         14    1    1    2    0    0  0.48086189332E-02  0.16540060093E-01  0.15715295105E-01  0.23316665803E-01  0.00000000000E+00 0. -1.
     999901    1    3    3    0    0 -0.96803076690E-01 -0.10422667880E+00 -0.56142006380E-02  0.89144015810E+00  0.88000000000E+00 0. -1.
        -11    1    4    4    0    0  0.67175092032E-01  0.50514721573E-01 -0.78752576149E-02  0.84418664337E-01  0.51100000000E-03 0.  1.
         11    1    4    4    0    0  0.24819365725E-01  0.37171897138E-01 -0.22258368518E-02  0.44754511756E-01  0.51100000000E-03 0. -1.
</event>
<event>
 8    1  0.1176534E+005  0.1043930E+01  0.7957747E-01            NaN
         13   -1    0    0    0    0  0.00000000000E+00  0.00000000000E+00  0.74505805969E-08  0.10566000000E+00  0.10566000000E+00 0.  1.
     999900   -1    0    0    0    0 -0.00000000000E+00 -0.00000000000E+00 -0.74505805969E-08  0.93827000000E+00  0.93827000000E+00 0. -1.
     999902    2    1    2    0    0 -0.93518534225E-02 -0.22668585838E-01  0.95514082429E-02  0.10176136297E+01  0.10172732907E+01 0.  0.
     999903    2    3    3    0    0  0.36401016121E-01 -0.11780446201E+00 -0.35673604406E-01  0.13015125767E+00  0.21536447634E-01 0.  0.
         14    1    1    2    0    0  0.93518534225E-02  0.22668585838E-01 -0.95514082429E-02  0.26316370299E-01  0.00000000000E+00 0. -1.
     999901    1    3    3    0    0 -0.45752869544E-01  0.95135876173E-01  0.45225012649E-01  0.88746237203E+00  0.88000000000E+00 0.  1.
        -11    1    4    4    0    0  0.36626630837E-01 -0.89597910882E-01 -0.30335041139E-01  0.10143851124E+00  0.51100000000E-03 0.  1.
         11    1    4    4    0    0 -0.22561471544E-03 -0.28206551129E-01 -0.53385632670E-02  0.28712746426E-01  0.51100000000E-03 0. -1.
</event>
<event>
 8    1  0.1176534E+005  0.1043930E+01  0.7957747E-01            NaN
         13   -1    0    0    0    0  0.00000000000E+00  0.00000000000E+00  0.74505805969E-08  0.10566000000E+00  0.10566000000E+00 0. -1.
     999900   -1    0    0    0    0 -0.00000000000E+00 -0.00000000000E+00 -0.74505805969E-08  0.93827000000E+00  0.93827000000E+00 0. -1.
     999902    2    1    2    0    0 -0.43757939081E-02 -0.13610837907E-01  0.12602939061E-01  0.10248712342E+01  0.10246940081E+01 0.  0.
     999903    2    3    3    0    0  0.69800172288E-01  0.77594758742E-01 -0.78772231419E-01  0.13236355547E+00  0.20543508391E-01 0.  0.
         14    1    1    2    0    0  0.43757939081E-02  0.13610837907E-01 -0.12602939061E-01  0.19058765800E-01  0.00000000000E+00 0.  1.
     999901    1    3    3    0    0 -0.74175966196E-01 -0.91205596648E-01  0.91375170480E-01  0.89250767874E+00  0.88000000000E+00 0.  1.
        -11    1    4    4    0    0  0.19513796357E-01  0.10106471897E-01 -0.19910734545E-01  0.29658514690E-01  0.51100000000E-03 0. -1.
         11    1    4    4    0    0  0.50286375931E-01  0.67488286844E-01 -0.58861496874E-01  0.10270504078E+00  0.51100000000E-03 0.  1.
</event>
<event>
 8    1  0.1176534E+005  0.1043930E+01  0.7957747E-01            NaN
         13   -1    0    0    0    0  0.00000000000E+00  0.00000000000E+00  0.74505805969E-08  0.10566000000E+00  0.10566000000E+00 0.  1.
     999900   -1    0    0    0    0 -0.00000000000E+00 -0.00000000000E+00 -0.74505805969E-08  0.93827000000E+00  0.93827000000E+00 0.  1.
     999902    2    1    2    0    0 -0.22063082962E-01  0.17198046594E-02  0.87607566232E-02  0.10201289871E+01  0.10198512941E+01 0.  0.
     999903    2    3    3    0    0  0.86984849861E-01 -0.91139653057E-01 -0.12595576411E-01  0.12829356311E+00  0.20683068591E-01 0.  0.
         14    1    1    2    0    0  0.22063082962E-01 -0.17198046594E-02 -0.87607566232E-02  0.23801012887E-01  0.00000000000E+00 0.  1.
     999901    1    3    3    0    0 -0.10904793282E+00  0.92859457716E-01  0.21356333034E-01  0.89183542400E+00  0.88000000000E+00 0.  1.
        -11    1    4    4    0    0  0.30750924643E-01 -0.41048819435E-01 -0.13268227619E-01  0.52980486300E-01  0.51100000000E-03 0.  1.
         11    1    4    4    0    0  0.56233925218E-01 -0.50090833621E-01  0.67265120831E-03  0.75313076813E-01  0.51100000000E-03 0. -1.
</event>
<event>
 8    1  0.1176534E+005  0.1043930E+01  0.7957747E-01            NaN
         13   -1    0    0    0    0  0.00000000000E+00  0.00000000000E+00  0.74505805969E-08  0.10566000000E+00  0.10566000000E+00 0.  1.
     999900   -1    0    0    0    0 -0.00000000000E+00 -0.00000000000E+00 -0.74505805969E-08  0.93827000000E+00  0.93827000000E+00 0. -1.
     999902    2    1    2    0    0 -0.12538886056E-01 -0.18437706095E-01 -0.78819812445E-02  0.10202805117E+01  0.10200063844E+01 0.  0.
     999903    2    3    3    0    0  0.37360524132E-01 -0.93832140659E-01 -0.83345612076E-01  0.13243534980E+00  0.19807863059E-01 0.  0.
         14    1    1    2    0    0  0.12538886056E-01  0.18437706095E-01  0.78819812445E-02  0.23649488322E-01  0.00000000000E+00 0.  1.
     999901    1    3    3    0    0 -0.49899410187E-01  0.75394434564E-01  0.75463630832E-01  0.88784516188E+00  0.88000000000E+00 0. -1.
        -11    1    4    4    0    0  0.14326901393E-01 -0.29906713395E-01 -0.39454929734E-01  0.51542450572E-01  0.51100000000E-03 0. -1.
         11    1    4    4    0    0  0.23033622739E-01 -0.63925427264E-01 -0.43890682343E-01  0.80892899223E-01  0.51100000000E-03 0.  1.
</event>
<event>
 8    1  0.1176534E+005  0.1043930E+01  0.7957747E-01            NaN
         13   -1    0    0    0    0  0.00000000000E+00  0.00000000000E+00  0.74505805969E-08  0.10566000000E+00  0.10566000000E+00 0. -1.
     999900   -1    0    0    0    0 -0.00000000000E+00 -0.00000000000E+00 -0.74505805969E-08  0.93827000000E+00  0.93827000000E+00 0.  1.
     999902    2    1    2    0    0  0.21059477341E-01  0.81753161890E-02 -0.74389756859E-02  0.10201460613E+01  0.10198687713E+01 0.  0.
     999903    2    3    3    0    0  0.10719099609E+00  0.21733351801E-01 -0.73876791656E-01  0.13334481963E+00  0.18995061255E-01 0.  0.
         14    1    1    2    0    0 -0.21059477341E-01 -0.81753161890E-02  0.74389756859E-02  0.23783938696E-01  0.00000000000E+00 0. -1.
     999901    1    3    3    0    0 -0.86131518750E-01 -0.13558035612E-01  0.66437815970E-01  0.88680124168E+00  0.88000000000E+00 0. -1.
        -11    1    4    4    0    0  0.81069075696E-01  0.24602891955E-01 -0.56839508792E-01  0.10202199865E+00  0.51100000000E-03 0.  1.
         11    1    4    4    0    0  0.26121920394E-01 -0.28695401534E-02 -0.17037282863E-01  0.31322820980E-01  0.51100000000E-03 0. -1.
</event>
<event>
 8    1  0.1176534E+005  0.1043930E+01  0.7957747E-01            NaN
         13   -1    0    0    0    0  0.00000000000E+00  0.00000000000E+00  0.74505805969E-08  0.10566000000E+00  0.10566000000E+00 0.  1.
     999900   -1    0    0    0    0 -0.00000000000E+00 -0.00000000000E+00 -0.74505805969E-08  0.93827000000E+00  0.93827000000E+00 0. -1.
     999902    2    1    2    0    0 -0.15773338275E-01  0.14664853355E-02 -0.15801491439E-01  0.10215551053E+01  0.10213100398E+01 0.  0.
     999903    2    3    3    0    0  0.12595207062E+00  0.16354558642E-01 -0.20245350898E-01  0.13008020712E+00  0.19483079049E-01 0.  0.
         14    1    1    2    0    0  0.15773338275E-01 -0.14664853355E-02  0.15801491439E-01  0.22374894665E-01  0.00000000000E+00 0.  1.
     999901    1    3    3    0    0 -0.14172540890E+00 -0.14888073306E-01  0.44438594589E-02  0.89147489821E+00  0.88000000000E+00 0.  1.
        -11    1    4    4    0    0  0.29139993949E-01 -0.44007541407E-02 -0.52150935411E-02  0.29932661191E-01  0.51100000000E-03 0. -1.
         11    1    4    4    0    0  0.96812076676E-01  0.20755312783E-01 -0.15030257357E-01  0.10014754593E+00  0.51100000000E-03 0.  1.
</event>
<event>
 8    1  0.1176534E+005  0.1043930E+01  0.7957747E-01            NaN
         13   -1    0    0    0    0  0.00000000000E+00  0.00000000000E+00  0.74505805969E-08  0.10566000000E+00  0.10566000000E+00 0.  1.
     999900   -1    0    0    0    0 -0.00000000000E+00 -0.00000000000E+00 -0.74505805969E-08  0.93827000000E+00  0.93827000000E+00 0. -1.
     999902    2    1    2    0    0  0.53957400926E-02 -0.21094974551E-01 -0.88999836868E-02  0.10204072095E+01  0.10201360456E+01 0.  0.
     999903    2    3    3    0    0 -0.86753296691E-01  0.24734067211E-01  0.89759462832E-01  0.12893346765E+00  0.20716402813E-01 0.  0.
         14    1    1    2    0    0 -0.53957400926E-02  0.21094974551E-01  0.88999836868E-02  0.23522790482E-01  0.00000000000E+00 0. -1.
     999901    1    3    3    0    0  0.92149036783E-01 -0.45829041762E-01 -0.98659446518E-01  0.89147374187E+00  0.88000000000E+00 0. -1.
        -11    1    4    4    0    0 -0.74638394976E-02 -0.22836419773E-02  0.13758068138E-01  0.15826227618E-01  0.51100000000E-03 0.  1.
         11    1    4    4    0    0 -0.79289457193E-01  0.27017709189E-01  0.76001394693E-01  0.11310724003E+00  0.51100000000E-03 0. -1.
</event>
<event>
 8    1  0.1176534E+005  0.1043930E+01  0.7957747E-01            NaN
         13   -1    0    0    0    0  0.00000000000E+00  0.00000000000E+00  0.74505805969E-08  0.10566000000E+00  0.10566000000E+00 0. -1.
     999900   -1    0    0    0    0 -0.00000000000E+00 -0.00000000000E+00 -0.74505805969E-08  0.93827000000E+00  0.93827000000E+00 0. -1.
     999902    2    1    2    0    0 -0.62343573451E-02 -0.14302560110E-01  0.17361050254E-01  0.10205882669E+01  0.10203213092E+01 0.  0.
     999903    2    3    3    0    0 -0.71360823856E-01  0.92764430147E-01  0.54815913841E-01  0.13092110227E+00  0.20927109896E-01 0.  0.
         14    1    1    2    0    0  0.62343573451E-02  0.14302560110E-01 -0.17361050254E-01  0.23341733079E-01  0.00000000000E+00 0.  1.
     999901    1    3    3    0    0  0.65126466511E-01 -0.10706699026E+00 -0.37454863587E-01  0.88966716465E+00  0.88000000000E+00 0. -1.
        -11    1    4    4    0    0 -0.19256456395E-01  0.37064930849E-01  0.26981210876E-01  0.49727930512E-01  0.51100000000E-03 0.  1.
         11    1    4    4    0    0 -0.52104367462E-01  0.55699499298E-01  0.27834702966E-01  0.81193171762E-01  0.51100000000E-03 0. -1.
</event>
<event>
 8    1  0.1176534E+005  0.1043930E+01  0.7957747E-01            NaN
         13   -1    0    0    0    0  0.00000000000E+00  0.00000000000E+00  0.74505805969E-08  0.10566000000E+00  0.10566000000E+00 0.  1.
     999900   -1    0    0    0    0 -0.00000000000E+00 -0.00000000000E+00 -0.74505805969E-08  0.93827000000E+00  0.93827000000E+00 0.  1.
     999902    2    1    2    0    0 -0.14110111851E-01 -0.16867826709E-01  0.14640744035E-01  0.10175108740E+01  0.10171678369E+01 0.  0.
     999903    2    3    3    0    0 -0.28889733833E-01 -0.12008010381E+00  0.39248511143E-01  0.13101397405E+00  0.19244940043E-01 0.  0.
         14    1    1    2    0    0  0.14110111851E-01  0.16867826709E-01 -0.14640744035E-01  0.26419126030E-01  0.00000000000E+00 0. -1.
     999901    1    3    3    0    0  0.14779621981E-01  0.10321227710E+00 -0.24607767108E-01  0.88649689992E+00  0.88000000000E+00 0. -1.
        -11    1    4    4    0    0 -0.66182251058E-02 -0.71037487454E-02  0.15297794625E-02  0.98420270266E-02  0.51100000000E-03 0. -1.
         11    1    4    4    0    0 -0.22271508727E-01 -0.11297635506E+00  0.37718731680E-01  0.12117194702E+00  0.51100000000E-03 0.  1.
</event>
<event>
 8    1  0.1176534E+005  0.1043930E+01  0.7957747E-01            NaN
         13   -1    0    0    0    0  0.00000000000E+00  0.00000000000E+00  0.74505805969E-08  0.10566000000E+00  0.10566000000E+00 0. -1.
     999900   -1    0    0    0    0 -0.00000000000E+00 -0.00000000000E+00 -0.74505805969E-08  0.93827000000E+00  0.93827000000E+00 0. -1.
     999902    2    1    2    0    0  0.17675684085E-01  0.50999785086E-02  0.13660806007E-01  0.10210158731E+01  0.10207587159E+01 0.  0.
     999903    2    3    3    0    0 -0.11729986679E+00 -0.46874021737E-01 -0.14216840461E-01  0.12877327205E+00  0.20591366629E-01 0.  0.
         14    1    1    2    0    0 -0.17675684085E-01 -0.50999785086E-02 -0.13660806007E-01  0.22914126852E-01  0.00000000000E+00 0.  1.
     999901    1    3    3    0    0  0.13497555088E+00  0.51974000246E-01  0.27877646467E-01  0.89224260109E+00  0.88000000000E+00 0. -1.
        -11    1    4    4    0    0 -0.64595657096E-01 -0.14758289328E-01 -0.78373867436E-02  0.66723996969E-01  0.51100000000E-03 0. -1.
         11    1    4    4    0    0 -0.52704209695E-01 -0.32115732409E-01 -0.63794537171E-02  0.62049275084E-01  0.51100000000E-03 0.  1.
</event>
<event>
 8    1  0.1176534E+005  0.1043930E+01  0.7957747E-01            NaN
         13   -1    0    0    0    0  0.00000000000E+00  0.00000000000E+00  0.74505805969E-08  0.10566000000E+00  0.10566000000E+00 0. -1.
     999900   -1    0    0    0    0 -0.00000000000E+00 -0.00000000000E+00 -0.74505805969E-08  0.93827000000E+00  0.93827000000E+00 0. -1.
     999902    2    1    2    0    0 -0.15730301816E-01 -0.16777911437E-01  0.10903622946E-02  0.10209054566E+01  0.10206457866E+01 0.  0.
     999903    2    3    3    0    0  0.99732467489E-01  0.58237487182E-01  0.52479609124E-01  0.12871723892E+00  0.21813945948E-01 0.  0.
         14    1    1    2    0    0  0.15730301816E-01  0.16777911437E-01 -0.10903622946E-02  0.23024543369E-01  0.00000000000E+00 0. -1.
     999901    1    3    3    0    0 -0.11546276930E+00 -0.75015398619E-01 -0.51389246829E-01  0.89218821771E+00  0.88000000000E+00 0. -1.
        -11    1    4    4    0    0  0.22226553425E-01  0.21441239677E-01  0.20889977157E-01  0.37288050401E-01  0.51100000000E-03 0.  1.
         11    1    4    4    0    0  0.77505914063E-01  0.36796247504E-01  0.31589631966E-01  0.91429188523E-01  0.51100000000E-03 0. -1.
</event>
<event>
 8    1  0.1176534E+005  0.1043930E+01  0.7957747E-01            NaN
         13   -1    0    0    0    0  0.00000000000E+00  0.00000000000E+00  0.74505805969E-08  0.10566000000E+00  0.10566000000E+00 0. -1.
     999900   -1    0    0    0    0 -0.00000000000E+00 -0.00000000000E+00 -0.74505805969E-08  0.93827000000E+00  0.93827000000E+00 0. -1.
     999902    2    1    2    0    0 -0.90311094901E-02  0.82079593762E-02 -0.19668784643E-01  0.10207828052E+01  0.10205203295E+01 0.  0.
     999903    2    3    3    0    0 -0.62904063205E-02 -0.36538281492E-01  0.12102846688E+00  0.12847935119E+00  0.22009967335E-01 0.  0.
         14    1    1    2    0    0  0.90311094901E-02 -0.82079593762E-02  0.19668784643E-01  0.23147194756E-01  0.00000000000E+00 0. -1.
     999901    1    3    3    0    0 -0.27407031696E-02  0.44746240868E-01 -0.14069725152E+00  0.89230345405E+00  0.88000000000E+00 0. -1.
        -11    1    4    4    0    0 -0.13762671673E-01 -0.18137065600E-01  0.55047424271E-01  0.59572177399E-01  0.51100000000E-03 0.  1.
         11    1    4    4    0    0  0.74722653527E-02 -0.18401215892E-01  0.65981042607E-01  0.68907173794E-01  0.51100000000E-03 0. -1.
</event>
<event>
 8    1  0.1176534E+005  0.1043930E+01  0.7957747E-01            NaN
         13   -1    0    0    0    0  0.00000000000E+00  0.00000000000E+00  0.74505805969E-08  0.10566000000E+00  0.10566000000E+00 0. -1.
     999900   -1    0    0    0    0 -0.00000000000E+00 -0.00000000000E+00 -0.74505805969E-08  0.93827000000E+00  0.93827000000E+00 0.  1.
     999902    2    1    2    0    0  0.55202246952E-02  0.23983624494E-01  0.31503776676E-02  0.10191184703E+01  0.10188163940E+01 0.  0.
     999903    2    3    3    0    0 -0.93762972811E-01 -0.26841967669E-01 -0.80534611445E-01  0.12813947422E+00  0.20540567520E-01 0.  0.
         14    1    1    2    0    0 -0.55202246952E-02 -0.23983624494E-01 -0.31503776676E-02  0.24811529659E-01  0.00000000000E+00 0. -1.
     999901    1    3    3    0    0  0.99283197507E-01  0.50825592163E-01  0.83684989113E-01  0.89097899612E+00  0.88000000000E+00 0. -1.
        -11    1    4    4    0    0 -0.54336417556E-01 -0.80982161982E-02 -0.35465471002E-01  0.65391804783E-01  0.51100000000E-03 0. -1.
         11    1    4    4    0    0 -0.39426555256E-01 -0.18743751471E-01 -0.45069140443E-01  0.62747669437E-01  0.51100000000E-03 0.  1.
</event>
<event>
 8    1  0.1176534E+005  0.1043930E+01  0.7957747E-01            NaN
         13   -1    0    0    0    0  0.00000000000E+00  0.00000000000E+00  0.74505805969E-08  0.10566000000E+00  0.10566000000E+00 0.  1.
     999900   -1    0    0    0    0 -0.00000000000E+00 -0.00000000000E+00 -0.74505805969E-08  0.93827000000E+00  0.93827000000E+00 0. -1.
     999902    2    1    2    0    0 -0.14351684413E-01  0.17315705295E-01 -0.57626273853E-02  0.10207133601E+01  0.10204492888E+01 0.  0.
     999903    2    3    3    0    0 -0.26306117776E-01  0.55705901421E-01  0.11456385493E+00  0.13161540260E+00  0.20064347955E-01 0.  0.
         14    1    1    2    0    0  0.14351684413E-01 -0.17315705295E-01  0.57626273853E-02  0.23216639933E-01  0.00000000000E+00 0.  1.
     999901    1    3    3    0    0  0.11954433362E-01 -0.38390196126E-01 -0.12032648231E+00  0.88909795747E+00  0.88000000000E+00 0.  1.
        -11    1    4    4    0    0 -0.25420928683E-01  0.31681657433E-01  0.68021475265E-01  0.79228361406E-01  0.51100000000E-03 0. -1.
         11    1    4    4    0    0 -0.88518909241E-03  0.24024243988E-01  0.46542379662E-01  0.52387041189E-01  0.51100000000E-03 0.  1.
</event>
<event>
 8    1  0.1176534E+005  0.1043930E+01  0.7957747E-01            NaN
         13   -1    0    0    0    0  0.00000000000E+00  0.00000000000E+00  0.74505805969E-08  0.10566000000E+00  0.10566000000E+00 0. -1.
     999900   -1    0    0    0    0 -0.00000000000E+00 -0.00000000000E+00 -0.74505805969E-08  0.93827000000E+00  0.93827000000E+00 0. -1.
     999902    2    1    2    0    0  0.12128933919E-01  0.55174842412E-02 -0.20014037734E-01  0.10198859700E+01  0.10196025091E+01 0.  0.
     999903    2    3    3    0    0 -0.53842335053E-01  0.84572982445E-01 -0.82970324026E-01  0.13164868524E+00  0.19892592904E-01 0.  0.
         14    1    1    2    0    0 -0.12128933919E-01 -0.55174842412E-02  0.20014037734E-01  0.24044029962E-01  0.00000000000E+00 0. -1.
     999901    1    3    3    0    0  0.65971268972E-01 -0.79055498204E-01  0.62956286291E-01  0.88823728480E+00  0.88000000000E+00 0. -1.
        -11    1    4    4    0    0 -0.33353476652E-01  0.64683635988E-01 -0.67024371119E-01  0.98939146016E-01  0.51100000000E-03 0. -1.
         11    1    4    4    0    0 -0.20488858400E-01  0.19889346457E-01 -0.15945952906E-01  0.32709539222E-01  0.51100000000E-03 0.  1.
</event>
<event>
 8    1  0.1176534E+005  0.1043930E+01  0.7957747E-01            NaN
         13   -1    0    0    0    0  0.00000000000E+00  0.00000000000E+00  0.74505805969E-08  0.10566000000E+00  0.10566000000E+00 0.  1.
     999900   -1    0    0    0    0 -0.00000000000E+00 -0.00000000000E+00 -0.74505805969E-08  0.93827000000E+00  0.93827000000E+00 0. -1.
     999902    2    1    2    0    0 -0.15586148851E-01 -0.12784530669E-01 -0.12769218394E-01  0.10200673681E+01  0.10197882184E+01 0.  0.
     999903    2    3    3    0    0 -0.26487556545E-01 -0.71197835111E-02 -0.12806006250E+00  0.13246221450E+00  0.19863954648E-01 0.  0.
         14    1    1    2    0    0  0.15586148851E-01  0.12784530669E-01  0.12769218394E-01  0.23862631850E-01  0.00000000000E+00 0.  1.
     999901    1    3    3    0    0  0.10901407694E-01 -0.56647471579E-02  0.11529084410E+00  0.88760515365E+00  0.88000000000E+00 0.  1.
        -11    1    4    4    0    0 -0.24737771847E-01 -0.12126726743E-01 -0.92890217701E-01  0.96891013634E-01  0.51100000000E-03 0.  1.
         11    1    4    4    0    0 -0.17497846978E-02  0.50069432314E-02 -0.35169844797E-01  0.35571200867E-01  0.51100000000E-03 0. -1.
</event>
<event>
 8    1  0.1176534E+005  0.1043930E+01  0.7957747E-01            NaN
         13   -1    0    0    0    0  0.00000000000E+00  0.00000000000E+00  0.74505805969E-08  0.10566000000E+00  0.10566000000E+00 0.  1.
     999900   -1    0    0    0    0 -0.00000000000E+00 -0.00000000000E+00 -0.74505805969E-08  0.93827000000E+00  0.93827000000E+00 0. -1.
     999902    2    1    2    0    0 -0.96323792903E-02  0.21142213082E-01 -0.61419274222E-02  0.10198987874E+01  0.10196156322E+01 0.  0.
     999903    2    3    3    0    0 -0.61425776176E-01 -0.10290033522E+00 -0.45146785309E-01  0.12883734809E+00  0.14114711237E-01 0.  0.
         14    1    1    2    0    0  0.96323792903E-02 -0.21142213082E-01  0.61419274222E-02  0.24031212563E-01  0.00000000000E+00 0.  1.
     999901    1    3    3    0    0  0.51793396886E-01  0.12404254830E+00  0.39004857887E-01  0.89106143935E+00  0.88000000000E+00 0.  1.
        -11    1    4    4    0    0 -0.40937060865E-01 -0.77862164407E-01 -0.37249126302E-01  0.95530718252E-01  0.51100000000E-03 0.  1.
         11    1    4    4    0    0 -0.20488715310E-01 -0.25038170808E-01 -0.78976590074E-02  0.33306629840E-01  0.51100000000E-03 0. -1.
</event>
<event>
 8    1  0.1176534E+005  0.1043930E+01  0.7957747E-01            NaN
         13   -1    0    0    0    0  0.00000000000E+00  0.00000000000E+00  0.74505805969E-08  0.10566000000E+00  0.10566000000E+00 0.  1.
     999900   -1    0    0    0    0 -0.00000000000E+00 -0.00000000000E+00 -0.74505805969E-08  0.93827000000E+00  0.93827000000E+00 0.  1.
     999902    2    1    2    0    0 -0.11604572717E-01 -0.16485784615E-01  0.13062756832E-01  0.10199074519E+01  0.10196245032E+01 0.  0.
     999903    2    3    3    0    0  0.37208212299E-01 -0.11570799971E+00 -0.45030700838E-01  0.13108655553E+00  0.19573675301E-01 0.  0.
         14    1    1    2    0    0  0.11604572717E-01  0.16485784615E-01 -0.13062756832E-01  0.24022548124E-01  0.00000000000E+00 0. -1.
     999901    1    3    3    0    0 -0.48812785016E-01  0.99222215095E-01  0.58093457670E-01  0.88882089634E+00  0.88000000000E+00 0.  1.
        -11    1    4    4    0    0  0.24921384413E-02 -0.36721443421E-01 -0.12405746095E-01  0.38843774509E-01  0.51100000000E-03 0. -1.
         11    1    4    4    0    0  0.34716073857E-01 -0.78986556288E-01 -0.32624954743E-01  0.92242781026E-01  0.51100000000E-03 0.  1.
</event>
<event>
 8    1  0.1176534E+005  0.1043930E+01  0.7957747E-01            NaN
         13   -1    0    0    0    0  0.00000000000E+00  0.00000000000E+00  0.74505805969E-08  0.10566000000E+00  0.10566000000E+00 0.  1.
     999900   -1    0    0    0    0 -0.00000000000E+00 -0.00000000000E+00 -0.74505805969E-08  0.93827000000E+00  0.93827000000E+00 0. -1.
     999902    2    1    2    0    0 -0.23516142522E-01 -0.22651632300E-01 -0.29952212332E-02  0.10111416369E+01  0.10106098818E+01 0.  0.
     999903    2    3    3    0    0 -0.87121614390E-01  0.83018996328E-01  0.56014508087E-02  0.12249894122E+00  0.22187494297E-01 0.  0.
         14    1    1    2    0    0  0.23516142522E-01  0.22651632300E-01  0.29952212332E-02  0.32788363107E-01  0.00000000000E+00 0.  1.
     999901    1    3    3    0    0  0.63605471868E-01 -0.10567062863E+00 -0.85966720419E-02  0.88864269567E+00  0.88000000000E+00 0.  1.
        -11    1    4    4    0    0 -0.85222725647E-01  0.77133009714E-01  0.92194036630E-02  0.11531553529E+00  0.51100000000E-03 0. -1.
         11    1    4    4    0    0 -0.18988887430E-02  0.58859866134E-02 -0.36179528543E-02  0.71834059280E-02  0.51100000000E-03 0.  1.
</event>
<event>
 8    1  0.1176534E+005  0.1043930E+01  0.7957747E-01            NaN
         13   -1    0    0    0    0  0.00000000000E+00  0.00000000000E+00  0.74505805969E-08  0.10566000000E+00  0.10566000000E+00 0.  1.
     999900   -1    0    0    0    0 -0.00000000000E+00 -0.00000000000E+00 -0.74505805969E-08  0.93827000000E+00  0.93827000000E+00 0.  1.
     999902    2    1    2    0    0 -0.17085390052E-01  0.11610005796E-01  0.13909872930E-01  0.10190264390E+01  0.10187220896E+01 0.  0.
     999903    2    3    3    0    0  0.62300408817E-01  0.98947449123E-01  0.52312138911E-01  0.13031688679E+00  0.23958140152E-01 0.  0.
         14    1    1    2    0    0  0.17085390052E-01 -0.11610005796E-01 -0.13909872930E-01  0.24903561045E-01  0.00000000000E+00 0. -1.
     999901    1    3    3    0    0 -0.79385798869E-01 -0.87337443326E-01 -0.38402265982E-01  0.88870955216E+00  0.88000000000E+00 0.  1.
        -11    1    4    4    0    0  0.24277745169E-01  0.19069607836E-01  0.14385300570E-01  0.34062543167E-01  0.51100000000E-03 0. -1.
         11    1    4    4    0    0  0.38022663648E-01  0.79877841287E-01  0.37926838341E-01  0.96254343627E-01  0.51100000000E-03 0.  1.
</event>
<event>
 8    1  0.1176534E+005  0.1043930E+01  0.7957747E-01            NaN
         13   -1    0    0    0    0  0.00000000000E+00  0.00000000000E+00  0.74505805969E-08  0.10566000000E+00  0.10566000000E+00 0. -1.
     999900   -1    0    0    0    0 -0.00000000000E+00 -0.00000000000E+00 -0.74505805969E-08  0.93827000000E+00  0.93827000000E+00 0.  1.
     999902    2    1    2    0    0 -0.20515067974E-01  0.74193276146E-02 -0.63585759643E-02  0.10212067537E+01  0.10209539107E+01 0.  0.
     999903    2    3    3    0    0 -0.96428276468E-01 -0.19123645909E-01 -0.88438304402E-01  0.13373595048E+00  0.19996110364E-01 0.  0.
         14    1    1    2    0    0  0.20515067974E-01 -0.74193276146E-02  0.63585759643E-02  0.22723246346E-01  0.00000000000E+00 0.  1.
     999901    1    3    3    0    0  0.75913208494E-01  0.26542973524E-01  0.82079728437E-01  0.88747080317E+00  0.88000000000E+00 0. -1.
        -11    1    4    4    0    0 -0.50734165116E-01 -0.20061405859E-01 -0.50300663040E-01  0.74208040928E-01  0.51100000000E-03 0. -1.
         11    1    4    4    0    0 -0.45694111351E-01  0.93775994944E-03 -0.38137641361E-01  0.59527909551E-01  0.51100000000E-03 0.  1.
</event>
<event>
 8    1  0.1176534E+005  0.1043930E+01  0.7957747E-01            NaN
         13   -1    0    0    0    0  0.00000000000E+00  0.00000000000E+00  0.74505805969E-08  0.10566000000E+00  0.10566000000E+00 0. -1.
     999900   -1    0    0    0    0 -0.00000000000E+00 -0.00000000000E+00 -0.74505805969E-08  0.93827000000E+00  0.93827000000E+00 0.  1.
     999902    2    1    2    0    0 -0.22235559002E-01 -0.39966318634E-02  0.67435011595E-02  0.10203531478E+01  0.10200807215E+01 0.  0.
     999903    2    3    3    0    0 -0.20965409062E-01 -0.41411369012E-02  0.12869896359E+00  0.13194177410E+00  0.19710685709E-01 0.  0.
         14    1    1    2    0    0  0.22235559002E-01  0.39966318634E-02 -0.67435011595E-02  0.23576852170E-01  0.00000000000E+00 0. -1.
     999901    1    3    3    0    0 -0.12701499397E-02  0.14450503780E-03 -0.12195546243E+00  0.88841137373E+00  0.88000000000E+00 0.  1.
        -11    1    4    4    0    0 -0.16189108919E-01  0.10132922483E-02  0.11813025205E+00  0.11923980703E+00  0.51100000000E-03 0. -1.
         11    1    4    4    0    0 -0.47763001433E-02 -0.51544291495E-02  0.10568711534E-01  0.12701967068E-01  0.51100000000E-03 0.  1.
</event>
<event>
 8    1  0.1176534E+005  0.1043930E+01  0.7957747E-01            NaN
         13   -1    0    0    0    0  0.00000000000E+00  0.00000000000E+00  0.74505805969E-08  0.10566000000E+00  0.10566000000E+00 0.  1.
     999900   -1    0    0    0    0 -0.00000000000E+00 -0.00000000000E+00 -0.74505805969E-08  0.93827000000E+00  0.93827000000E+00 0.  1.
     999902    2    1    2    0    0 -0.33115332952E-02 -0.26235500660E-01  0.71255192082E-02  0.10165431277E+01  0.10161741434E+01 0.  0.
     999903    2    3    3    0    0  0.51695787996E-01 -0.70083207197E-02 -0.11349222000E+00  0.12640598727E+00  0.19401509255E-01 0.  0.
         14    1    1    2    0    0  0.33115332952E-02  0.26235500660E-01 -0.71255192082E-02  0.27386872250E-01  0.00000000000E+00 0. -1.
     999901    1    3    3    0    0 -0.55007321291E-01 -0.19227179941E-01  0.12061773921E+00  0.89013714048E+00  0.88000000000E+00 0. -1.
        -11    1    4    4    0    0  0.23992560799E-01 -0.40978252001E-02 -0.75258559506E-01  0.79098337814E-01  0.51100000000E-03 0.  1.
         11    1    4    4    0    0  0.27703227197E-01 -0.29104955196E-02 -0.38233660498E-01  0.47307649459E-01  0.51100000000E-03 0. -1.
</event>
<event>
 8    1  0.1176534E+005  0.1043930E+01  0.7957747E-01            NaN
         13   -1    0    0    0    0  0.00000000000E+00  0.00000000000E+00  0.74505805969E-08  0.10566000000E+00  0.10566000000E+00 0.  1.
     999900   -1    0    0    0    0 -0.00000000000E+00 -0.00000000000E+00 -0.74505805969E-08  0.93827000000E+00  0.93827000000E+00 0. -1.
     999902    2    1    2    0    0 -0.39198849690E-02  0.18493677625E-01 -0.17841139590E-01  0.10179360032E+01  0.10176040579E+01 0.  0.
     999903    2    3    3    0    0  0.42951057648E-01  0.74188537693E-01 -0.97260445459E-01  0.13136607988E+00  0.21183017131E-01 0.  0.
         14    1    1    2    0    0  0.39198849690E-02 -0.18493677625E-01  0.17841139590E-01  0.25993996848E-01  0.00000000000E+00 0.  1.
     999901    1    3    3    0    0 -0.46870942617E-01 -0.55694860068E-01  0.79419305869E-01  0.88656992327E+00  0.88000000000E+00 0.  1.
        -11    1    4    4    0    0  0.43119486170E-03  0.17024418774E-01 -0.17679097306E-01  0.24552563332E-01  0.51100000000E-03 0. -1.
         11    1    4    4    0    0  0.42519862787E-01  0.57164118919E-01 -0.79581348153E-01  0.10681351655E+00  0.51100000000E-03 0.  1.
</event>
<event>
 8    1  0.1176534E+005  0.1043930E+01  0.7957747E-01            NaN
         13   -1    0    0    0    0  0.00000000000E+00  0.00000000000E+00  0.74505805969E-08  0.10566000000E+00  0.10566000000E+00 0. -1.
     999900   -1    0    0    0    0 -0.00000000000E+00 -0.00000000000E+00 -0.74505805969E-08  0.93827000000E+00  0.93827000000E+00 0.  1.
     999902    2    1    2    0    0 -0.12108758697E-01 -0.15256680509E-01  0.11668997666E-01  0.10212241892E+01  0.10209717385E+01 0.  0.
     999903    2    3    3    0    0 -0.11369839997E+00  0.52586433662E-01 -0.34527357831E-01  0.13158535990E+00  0.20734255209E-01 0.  0.
         14    1    1    2    0    0  0.12108758697E-01  0.15256680509E-01 -0.11668997666E-01  0.22705810795E-01  0.00000000000E+00 0. -1.
     999901    1    3    3    0    0  0.10158964127E+00 -0.67843114172E-01  0.46196355497E-01  0.88963882931E+00  0.88000000000E+00 0. -1.
        -11    1    4    4    0    0 -0.78558343423E-01  0.28708311151E-01 -0.15651681310E-01  0.85092988544E-01  0.51100000000E-03 0. -1.
         11    1    4    4    0    0 -0.35140056546E-01  0.23878122512E-01 -0.18875676521E-01  0.46492371351E-01  0.51100000000E-03 0.  1.
</event>
<event>
 8    1  0.1176534E+005  0.1043930E+01  0.7957747E-01            NaN
         13   -1    0    0    0    0  0.00000000000E+00  0.00000000000E+00  0.74505805969E-08  0.10566000000E+00  0.10566000000E+00 0.  1.
     999900   -1    0    0    0    0 -0.00000000000E+00 -0.00000000000E+00 -0.74505805969E-08  0.93827000000E+00  0.93827000000E+00 0. -1.
     999902    2    1    2    0    0  0.21674946694E-01 -0.69066305114E-02 -0.57603370681E-02  0.10204632929E+01  0.10201934355E+01 0.  0.
     999903    2    3    3    0    0 -0.93066198090E-01 -0.65209696755E-01  0.57394182751E-01  0.12886177248E+00  0.19940973253E-01 0.  0.
         14    1    1    2    0    0 -0.21674946694E-01  0.69066305114E-02  0.57603370681E-02  0.23466707105E-01  0.00000000000E+00 0.  1.
     999901    1    3    3    0    0  0.11474114478E+00  0.58303066243E-01 -0.63154519819E-01  0.89160152042E+00  0.88000000000E+00 0.  1.
        -11    1    4    4    0    0 -0.30315295513E-02 -0.40738436661E-02  0.76627598768E-02  0.92068118025E-02  0.51100000000E-03 0. -1.
         11    1    4    4    0    0 -0.90034668539E-01 -0.61135853089E-01  0.49731422874E-01  0.11965496067E+00  0.51100000000E-03 0.  1.
</event>
<event>
 8    1  0.1176534E+005  0.1043930E+01  0.7957747E-01            NaN
         13   -1    0    0    0    0  0.00000000000E+00  0.00000000000E+00  0.74505805969E-08  0.10566000000E+00  0.10566000000E+00 0.  1.
     999900   -1    0    0    0    0 -0.00000000000E+00 -0.00000000000E+00 -0.74505805969E-08  0.93827000000E+00  0.93827000000E+00 0. -1.
     999902    2    1    2    0    0  0.24710209945E-01 -0.33684930215E-02 -0.32839759681E-02  0.10187759602E+01  0.10184653805E+01 0.  0.
     999903    2    3    3    0    0 -0.67285682956E-01 -0.50693319578E-01 -0.94216618545E-01  0.12806184836E+00  0.20637102872E-01 0.  0.
         14    1    1    2    0    0 -0.24710209945E-01  0.33684930215E-02  0.32839759681E-02  0.25154039813E-01  0.00000000000E+00 0. -1.
     999901    1    3    3    0    0  0.91995892901E-01  0.47324826556E-01  0.90932642577E-01  0.89071411183E+00  0.88000000000E+00 0. -1.
        -11    1    4    4    0    0 -0.23724012911E-01 -0.18443763045E-01 -0.48965106619E-01  0.57452971821E-01  0.51100000000E-03 0. -1.
         11    1    4    4    0    0 -0.43561670045E-01 -0.32249556533E-01 -0.45251511927E-01  0.70608876540E-01  0.51100000000E-03 0.  1.
</event>
<event>
 8    1  0.1176534E+005  0.1043930E+01  0.7957747E-01            NaN
         13   -1    0    0    0    0  0.00000000000E+00  0.00000000000E+00  0.74505805969E-08  0.10566000000E+00  0.10566000000E+00 0. -1.
     999900   -1    0    0    0    0 -0.00000000000E+00 -0.00000000000E+00 -0.74505805969E-08  0.93827000000E+00  0.93827000000E+00 0. -1.
     999902    2    1    2    0    0  0.34041529789E-03  0.17444785770E-01 -0.16238395260E-01  0.10200946919E+01  0.10198161886E+01 0.  0.
     999903    2    3    3    0    0 -0.12170206083E+00 -0.37908734327E-02  0.40286890115E-01  0.12962266699E+00  0.18794678834E-01 0.  0.
         14    1    1    2    0    0 -0.34041529789E-03 -0.17444785770E-01  0.16238395260E-01  0.23835308132E-01  0.00000000000E+00 0. -1.
     999901    1    3    3    0    0  0.12204247612E+00  0.21235659203E-01 -0.56525285375E-01  0.89047202488E+00  0.88000000000E+00 0. -1.
        -11    1    4    4    0    0 -0.20008825880E-01  0.31988971374E-02  0.73152940326E-03  0.20282561777E-01  0.51100000000E-03 0. -1.
         11    1    4    4    0    0 -0.10169323495E+00 -0.69897705701E-02  0.39555360712E-01  0.10934010521E+00  0.51100000000E-03 0.  1.
</event>
<event>
 8    1  0.1176534E+005  0.1043930E+01  0.7957747E-01            NaN
         13   -1    0    0    0    0  0.00000000000E+00  0.00000000000E+00  0.74505805969E-08  0.10566000000E+00  0.10566000000E+00 0.  1.
     999900   -1    0    0    0    0 -0.00000000000E+00 -0.00000000000E+00 -0.74505805969E-08  0.93827000000E+00  0.93827000000E+00 0. -1.
     999902    2    1    2    0    0  0.19916130973E-01 -0.76158789657E-02 -0.10592865367E-01  0.10201211218E+01  0.10198432431E+01 0.  0.
     999903    2    3    3    0    0 -0.45114283153E-01 -0.11904124496E+00 -0.21629203683E-01  0.13064578895E+00  0.19859082858E-01 0.  0.
         14    1    1    2    0    0 -0.19916130973E-01  0.76158789657E-02  0.10592865367E-01  0.23808878219E-01  0.00000000000E+00 0. -1.
     999901    1    3    3    0    0  0.65030414126E-01  0.11142536600E+00  0.11036338316E-01  0.88947533283E+00  0.88000000000E+00 0.  1.
        -11    1    4    4    0    0 -0.16370881806E-01 -0.69536698141E-01 -0.88007299407E-02  0.71979664684E-01  0.51100000000E-03 0. -1.
         11    1    4    4    0    0 -0.28743401347E-01 -0.49504546822E-01 -0.12828473742E-01  0.58666124268E-01  0.51100000000E-03 0.  1.
</event>
<event>
 8    1  0.1176534E+005  0.1043930E+01  0.7957747E-01            NaN
         13   -1    0    0    0    0  0.00000000000E+00  0.00000000000E+00  0.74505805969E-08  0.10566000000E+00  0.10566000000E+00 0.  1.
     999900   -1    0    0    0    0 -0.00000000000E+00 -0.00000000000E+00 -0.74505805969E-08  0.93827000000E+00  0.93827000000E+00 0.  1.
     999902    2    1    2    0    0  0.12627235076E-01  0.69097701618E-02  0.18941934901E-01  0.10201394790E+01  0.10198620337E+01 0.  0.
     999903    2    3    3    0    0  0.11959933506E+00  0.44967316180E-01  0.29723306662E-01  0.13277954928E+00  0.20515196241E-01 0.  0.
         14    1    1    2    0    0 -0.12627235076E-01 -0.69097701618E-02 -0.18941934901E-01  0.23790520951E-01  0.00000000000E+00 0. -1.
     999901    1    3    3    0    0 -0.10697209998E+00 -0.38057546018E-01 -0.10781371761E-01  0.88735992977E+00  0.88000000000E+00 0.  1.
        -11    1    4    4    0    0  0.48110423373E-01  0.26499009289E-01  0.61548279134E-02  0.55271632490E-01  0.51100000000E-03 0.  1.
         11    1    4    4    0    0  0.71488911686E-01  0.18468306890E-01  0.23568478749E-01  0.77507916789E-01  0.51100000000E-03 0. -1.
</event>
<event>
 8    1  0.1176534E+005  0.1043930E+01  0.7957747E-01            NaN
         13   -1    0    0    0    0  0.00000000000E+00  0.00000000000E+00  0.74505805969E-08  0.10566000000E+00  0.10566000000E+00 0.  1.
     999900   -1    0    0    0    0 -0.00000000000E+00 -0.00000000000E+00 -0.74505805969E-08  0.93827000000E+00  0.93827000000E+00 0.  1.
     999902    2    1    2    0    0  0.15029810773E-01  0.12342072245E-01 -0.13936306992E-01  0.10200042270E+01  0.10197235805E+01 0.  0.
     999903    2    3    3    0    0  0.73295972959E-01  0.41840778673E-01 -0.10124101452E+00  0.13327584061E+00  0.19742245495E-01 0.  0.
         14    1    1    2    0    0 -0.15029810773E-01 -0.12342072245E-01  0.13936306992E-01  0.23925772961E-01  0.00000000000E+00 0.  1.
     999901    1    3    3    0    0 -0.58266162186E-01 -0.29498706428E-01  0.87304707532E-01  0.88672838643E+00  0.88000000000E+00 0. -1.
        -11    1    4    4    0    0  0.38781083646E-01  0.19976877726E-01 -0.67068095439E-01  0.80008990990E-01  0.51100000000E-03 0.  1.
         11    1    4    4    0    0  0.34514889314E-01  0.21863900947E-01 -0.34172919085E-01  0.53266849623E-01  0.51100000000E-03 0. -1.
</event>
<event>
 8    1  0.1176534E+005  0.1043930E+01  0.7957747E-01            NaN
         13   -1    0    0    0    0  0.00000000000E+00  0.00000000000E+00  0.74505805969E-08  0.10566000000E+00  0.10566000000E+00 0.  1.
     999900   -1    0    0    0    0 -0.00000000000E+00 -0.00000000000E+00 -0.74505805969E-08  0.93827000000E+00  0.93827000000E+00 0.  1.
     999902    2    1    2    0    0 -0.53700021575E-02  0.22302835753E-01  0.76793802386E-02  0.10197385493E+01  0.10194515597E+01 0.  0.
     999903    2    3    3    0    0 -0.68269820737E-01  0.10595552226E+00  0.37424604972E-01  0.13303739473E+00  0.20273288301E-01 0.  0.
         14    1    1    2    0    0  0.53700021575E-02 -0.22302835753E-01 -0.76793802386E-02  0.24191450693E-01  0.00000000000E+00 0.  1.
     999901    1    3    3    0    0  0.62899818580E-01 -0.83652686503E-01 -0.29745224733E-01  0.88670115458E+00  0.88000000000E+00 0. -1.
        -11    1    4    4    0    0 -0.18488953016E-01  0.46366083418E-01  0.17186020170E-01  0.52794653947E-01  0.51100000000E-03 0.  1.
         11    1    4    4    0    0 -0.49780867721E-01  0.59589438839E-01  0.20238584802E-01  0.80242740781E-01  0.51100000000E-03 0. -1.
</event>
<event>
 8    1  0.1176534E+005  0.1043930E+01  0.7957747E-01            NaN
         13   -1    0    0    0    0  0.00000000000E+00  0.00000000000E+00  0.74505805969E-08  0.10566000000E+00  0.10566000000E+00 0.  1.
     999900   -1    0    0    0    0 -0.00000000000E+00 -0.00000000000E+00 -0.74505805969E-08  0.93827000000E+00  0.93827000000E+00 0.  1.
     999902    2    1    2    0    0  0.98519182417E-02  0.18719545466E-01 -0.11053202235E-01  0.10200625545E+01  0.10197832908E+01 0.  0.
     999903    2    3    3    0    0 -0.12593777135E+00 -0.12878183230E-03 -0.21680645862E-01  0.12938469926E+00  0.20248732313E-01 0.  0.
         14    1    1    2    0    0 -0.98519182417E-02 -0.18719545466E-01  0.11053202235E-01  0.23867445510E-01  0.00000000000E+00 0. -1.
     999901    1    3    3    0    0  0.13578968959E+00  0.18848327298E-01  0.10627443627E-01  0.89067785523E+00  0.88000000000E+00 0. -1.
        -11    1    4    4    0    0 -0.21459319416E-01 -0.58197205460E-02 -0.89692818951E-02  0.23980839763E-01  0.51100000000E-03 0.  1.
         11    1    4    4    0    0 -0.10447845193E+00  0.56909387137E-02 -0.12711363967E-01  0.10540385950E+00  0.51100000000E-03 0. -1.
</event>
<event>
 8    1  0.1176534E+005  0.1043930E+01  0.7957747E-01            NaN
         13   -1    0    0    0    0  0.00000000000E+00  0.00000000000E+00  0.74505805969E-08  0.10566000000E+00  0.10566000000E+00 0.  1.
     999900   -1    0    0    0    0 -0.00000000000E+00 -0.00000000000E+00 -0.74505805969E-08  0.93827000000E+00  0.93827000000E+00 0.  1.
     999902    2    1    2    0    0 -0.16583945304E-01  0.15017247539E-01  0.93558129239E-02  0.10196797175E+01  0.10193913135E+01 0.  0.
     999903    2    3    3    0    0 -0.11920727212E+00  0.50028471721E-01  0.24243373886E-01  0.13289960243E+00  0.19008983166E-01 0.  0.
         14    1    1    2    0    0  0.16583945304E-01 -0.15017247539E-01 -0.93558129239E-02  0.24250282492E-01  0.00000000000E+00 0. -1.
     999901    1    3    3    0    0  0.10262332681E+00 -0.35011224182E-01 -0.14887560962E-01  0.88678011508E+00  0.88000000000E+00 0. -1.
        -11    1    4    4    0    0 -0.57640232459E-01  0.22040103833E-01  0.21485392675E-02  0.61749817140E-01  0.51100000000E-03 0. -1.
         11    1    4    4    0    0 -0.61567039657E-01  0.27988367887E-01  0.22094834618E-01  0.71149785291E-01  0.51100000000E-03 0.  1.
</event>
<event>
 8    1  0.1176534E+005  0.1043930E+01  0.7957747E-01            NaN
         13   -1    0    0    0    0  0.00000000000E+00  0.00000000000E+00  0.74505805969E-08  0.10566000000E+00  0.10566000000E+00 0. -1.
     999900   -1    0    0    0    0 -0.00000000000E+00 -0.00000000000E+00 -0.74505805969E-08  0.93827000000E+00  0.93827000000E+00 0. -1.
     999902    2    1    2    0    0 -0.11273271830E-01 -0.19606522874E-01  0.23095245712E-02  0.10211959660E+01  0.10209428802E+01 0.  0.
     999903    2    3    3    0    0 -0.94404830186E-01 -0.89789386124E-01 -0.25354218419E-01  0.13406476211E+00  0.18871094949E-01 0.  0.
         14    1    1    2    0    0  0.11273271830E-01  0.19606522874E-01 -0.23095245712E-02  0.22734033973E-01  0.00000000000E+00 0.  1.
     999901    1    3    3    0    0  0.83131558356E-01  0.70182863250E-01  0.27663742990E-01  0.88713120392E+00  0.88000000000E+00 0.  1.
        -11    1    4    4    0    0 -0.55768188750E-01 -0.61525826283E-01 -0.92467479215E-02  0.83554064200E-01  0.51100000000E-03 0. -1.
         11    1    4    4    0    0 -0.38636641436E-01 -0.28263559841E-01 -0.16107470498E-01  0.50510697909E-01  0.51100000000E-03 0.  1.
</event>
<event>
 8    1  0.1176534E+005  0.1043930E+01  0.7957747E-01            NaN
         13   -1    0    0    0    0  0.00000000000E+00  0.00000000000E+00  0.74505805969E-08  0.10566000000E+00  0.10566000000E+00 0.  1.
     999900   -1    0    0    0    0 -0.00000000000E+00 -0.00000000000E+00 -0.74505805969E-08  0.93827000000E+00  0.93827000000E+00 0. -1.
     999902    2    1    2    0    0  0.18891231492E-01  0.91655210763E-02 -0.10529741313E-01  0.10204404096E+01  0.10201700195E+01 0.  0.
     999903    2    3    3    0    0  0.63558030756E-01  0.11097311949E+00 -0.31270765919E-01  0.13320306812E+00  0.20261787516E-01 0.  0.
         14    1    1    2    0    0 -0.18891231492E-01 -0.91655210763E-02  0.10529741313E-01  0.23489590376E-01  0.00000000000E+00 0.  1.
     999901    1    3    3    0    0 -0.44666799264E-01 -0.10180759841E+00  0.20741024605E-01  0.88723734150E+00  0.88000000000E+00 0.  1.
        -11    1    4    4    0    0  0.61209319031E-02  0.26791788738E-01 -0.86052377737E-02  0.28802378188E-01  0.51100000000E-03 0. -1.
         11    1    4    4    0    0  0.57437098853E-01  0.84181330752E-01 -0.22665528145E-01  0.10440068994E+00  0.51100000000E-03 0.  1.
</event>
<event>
 8    1  0.1176534E+005  0.1043930E+01  0.7957747E-01            NaN
         13   -1    0    0    0    0  0.00000000000E+00  0.00000000000E+00  0.74505805969E-08  0.10566000000E+00  0.10566000000E+00 0. -1.
     999900   -1    0    0    0    0 -0.00000000000E+00 -0.00000000000E+00 -0.74505805969E-08  0.93827000000E+00  0.93827000000E+00 0.  1.
     999902    2    1    2    0    0 -0.25283564581E-02 -0.34841861577E-02  0.22683778556E-01  0.10208413459E+01  0.10205802112E+01 0.  0.
     999903    2    3    3    0    0 -0.11220056259E+00  0.59750901866E-01  0.28660716288E-01  0.13176182585E+00  0.19509115094E-01 0.  0.
         14    1    1    2    0    0  0.25283564581E-02  0.34841861577E-02 -0.22683778556E-01  0.23088654122E-01  0.00000000000E+00 0.  1.
     999901    1    3    3    0    0  0.10967220614E+00 -0.63235088024E-01 -0.59769377322E-02  0.88907952003E+00  0.88000000000E+00 0.  1.
        -11    1    4    4    0    0 -0.23727744181E-01  0.20531418926E-01  0.23385692636E-02  0.31468635723E-01  0.51100000000E-03 0. -1.
         11    1    4    4    0    0 -0.88472818414E-01  0.39219482940E-01  0.26322147025E-01  0.10029319012E+00  0.51100000000E-03 0.  1.
</event>
<event>
 8    1  0.1176534E+005  0.1043930E+01  0.7957747E-01            NaN
         13   -1    0    0    0    0  0.00000000000E+00  0.00000000000E+00  0.74505805969E-08  0.10566000000E+00  0.10566000000E+00 0. -1.
     999900   -1    0    0    0    0 -0.00000000000E+00 -0.00000000000E+00 -0.74505805969E-08  0.93827000000E+00  0.93827000000E+00 0. -1.
     999902    2    1    2    0    0  0.62134659670E-02 -0.18961869260E-01 -0.12698057057E-01  0.10202783553E+01  0.10200041774E+01 0.  0.
     999903    2    3    3    0    0 -0.23651893042E-01  0.30214965069E-01  0.12094960548E+00  0.12832992717E+00  0.19167863242E-01 0.  0.
         14    1    1    2    0    0 -0.62134659670E-02  0.18961869260E-01  0.12698057057E-01  0.23651644725E-01  0.00000000000E+00 0.  1.
     999901    1    3    3    0    0  0.29865359009E-01 -0.49176834329E-01 -0.13364766254E+00  0.89194842811E+00  0.88000000000E+00 0. -1.
        -11    1    4    4    0    0 -0.22631374444E-01  0.32826504154E-01  0.10961435208E+00  0.11664186978E+00  0.51100000000E-03 0. -1.
         11    1    4    4    0    0 -0.10205185983E-02 -0.26115390854E-02  0.11335253407E-01  0.11688057384E-01  0.51100000000E-03 0.  1.
</event>
<event>
 8    1  0.1176534E+005  0.1043930E+01  0.7957747E-01            NaN
         13   -1    0    0    0    0  0.00000000000E+00  0.00000000000E+00  0.74505805969E-08  0.10566000000E+00  0.10566000000E+00 0.  1.
     999900   -1    0    0    0    0 -0.00000000000E+00 -0.00000000000E+00 -0.74505805969E-08  0.93827000000E+00  0.93827000000E+00 0. -1.
     999902    2    1    2    0    0  0.80275328439E-02 -0.15954439800E-01 -0.15245460328E-01  0.10204478899E+01  0.10201776740E+01 0.  0.
     999903    2    3    3    0    0  0.38655659261E-03 -0.75448436061E-01 -0.10827044167E+00  0.13351408898E+00  0.20270853107E-01 0.  0.
         14    1    1    2    0    0 -0.80275328439E-02  0.15954439800E-01  0.15245460328E-01  0.23482110073E-01  0.00000000000E+00 0.  1.
     999901    1    3    3    0    0  0.76409762513E-02  0.59493996261E-01  0.93024981346E-01  0.88693380095E+00  0.88000000000E+00 0. -1.
        -11    1    4    4    0    0 -0.75915569991E-02 -0.35078334212E-01 -0.61561760396E-01  0.71261719968E-01  0.51100000000E-03 0. -1.
         11    1    4    4    0    0  0.79781135917E-02 -0.40370101849E-01 -0.46708681278E-01  0.62252369011E-01  0.51100000000E-03 0.  1.
</event>
<event>
 8    1  0.1176534E+005  0.1043930E+01  0.7957747E-01            NaN
         13   -1    0    0    0    0  0.00000000000E+00  0.00000000000E+00  0.74505805969E-08  0.10566000000E+00  0.10566000000E+00 0.  1.
     999900   -1    0    0    0    0 -0.00000000000E+00 -0.00000000000E+00 -0.74505805969E-08  0.93827000000E+00  0.93827000000E+00 0. -1.
     999902    2    1    2    0    0  0.15303807373E-01 -0.58314033977E-02 -0.17543405088E-01  0.10199303573E+01  0.10196479544E+01 0.  0.
     999903    2    3    3    0    0 -0.10609050018E+00 -0.59375053260E-01  0.34781397459E-01  0.12844766805E+00  0.22549204857E-01 0.  0.
         14    1    1    2    0    0 -0.15303807373E-01  0.58314033977E-02  0.17543405088E-01  0.23999642659E-01  0.00000000000E+00 0.  1.
     999901    1    3    3    0    0  0.12139430755E+00  0.53543649863E-01 -0.52324802547E-01  0.89148268929E+00  0.88000000000E+00 0. -1.
        -11    1    4    4    0    0 -0.81373904186E-01 -0.54874178393E-01  0.23612099629E-01  0.10094889849E+00  0.51100000000E-03 0.  1.
         11    1    4    4    0    0 -0.24716595994E-01 -0.45008748674E-02  0.11169297831E-01  0.27498769557E-01  0.51100000000E-03 0. -1.
</event>
<event>
 8    1  0.1176534E+005  0.1043930E+01  0.7957747E-01            NaN
         13   -1    0    0    0    0  0.00000000000E+00  0.00000000000E+00  0.74505805969E-08  0.10566000000E+00  0.10566000000E+00 0. -1.
     999900   -1    0    0    0    0 -0.00000000000E+00 -0.00000000000E+00 -0.74505805969E-08  0.93827000000E+00  0.93827000000E+00 0. -1.
     999902    2    1    2    0    0 -0.17819035911E-01  0.15768495055E-01  0.53199498632E-02  0.10195483400E+01  0.10192567646E+01 0.  0.
     999903    2    3    3    0    0 -0.50887287799E-01  0.10122012658E+00  0.65364012375E-01  0.13275592910E+00  0.22729991479E-01 0.  0.
         14    1    1    2    0    0  0.17819035911E-01 -0.15768495055E-01 -0.53199498632E-02  0.24381659985E-01  0.00000000000E+00 0.  1.
     999901    1    3    3    0    0  0.33068251889E-01 -0.85451631527E-01 -0.60044062512E-01  0.88679241091E+00  0.88000000000E+00 0. -1.
        -11    1    4    4    0    0 -0.40832676499E-01  0.74311170179E-01  0.59083442696E-01  0.10334685194E+00  0.51100000000E-03 0. -1.
         11    1    4    4    0    0 -0.10054611300E-01  0.26908956403E-01  0.62805696785E-02  0.29409077163E-01  0.51100000000E-03 0.  1.
</event>
<event>
 8    1  0.1176534E+005  0.1043930E+01  0.7957747E-01            NaN
         13   -1    0    0    0    0  0.00000000000E+00  0.00000000000E+00  0.74505805969E-08  0.10566000000E+00  0.10566000000E+00 0.  1.
     999900   -1    0    0    0    0 -0.00000000000E+00 -0.00000000000E+00 -0.74505805969E-08  0.93827000000E+00  0.93827000000E+00 0. -1.
     999902    2    1    2    0    0  0.18793135309E-01 -0.51890847290E-02  0.12953802531E-01  0.10205225325E+01  0.10202540516E+01 0.  0.
     999903    2    3    3    0    0 -0.11624063804E+00  0.23785366717E-01  0.47441300554E-01  0.12908379298E+00  0.18284392573E-01 0.  0.
         14    1    1    2    0    0 -0.18793135309E-01  0.51890847290E-02 -0.12953802531E-01  0.23407467506E-01  0.00000000000E+00 0. -1.
     999901    1    3    3    0    0  0.13503377334E+00 -0.28974451446E-01 -0.34487498023E-01  0.89143873951E+00  0.88000000000E+00 0. -1.
        -11    1    4    4    0    0 -0.91684743019E-01  0.12360628698E-01  0.41259798182E-01  0.10129910815E+00  0.51100000000E-03 0. -1.
         11    1    4    4    0    0 -0.24555895017E-01  0.11424738019E-01  0.61815023727E-02  0.27784684837E-01  0.51100000000E-03 0.  1.
</event>
<event>
 8    1  0.1176534E+005  0.1043930E+01  0.7957747E-01            NaN
         13   -1    0    0    0    0  0.00000000000E+00  0.00000000000E+00  0.74505805969E-08  0.10566000000E+00  0.10566000000E+00 0.  1.
     999900   -1    0    0    0    0 -0.00000000000E+00 -0.00000000000E+00 -0.74505805969E-08  0.93827000000E+00  0.93827000000E+00 0.  1.
     999902    2    1    2    0    0  0.74940783794E-02 -0.21175904517E-01 -0.77971376100E-02  0.10201523740E+01  0.10198752329E+01 0.  0.
     999903    2    3    3    0    0 -0.88664938908E-01 -0.24697146336E-01  0.89027543348E-01  0.12962782376E+00  0.20150652351E-01 0.  0.
         14    1    1    2    0    0 -0.74940783794E-02  0.21175904517E-01  0.77971376100E-02  0.23777625991E-01  0.00000000000E+00 0.  1.
     999901    1    3    3    0    0  0.96159017287E-01  0.35212418196E-02 -0.96824680958E-01  0.89052455025E+00  0.88000000000E+00 0.  1.
        -11    1    4    4    0    0 -0.40390439345E-01 -0.21418604243E-01  0.40111520417E-01  0.60822194875E-01  0.51100000000E-03 0.  1.
         11    1    4    4    0    0 -0.48274499562E-01 -0.32785420934E-02  0.48916022930E-01  0.68805628887E-01  0.51100000000E-03 0. -1.
</event>
<event>
 8    1  0.1176534E+005  0.1043930E+01  0.7957747E-01            NaN
         13   -1    0    0    0    0  0.00000000000E+00  0.00000000000E+00  0.74505805969E-08  0.10566000000E+00  0.10566000000E+00 0. -1.
     999900   -1    0    0    0    0 -0.00000000000E+00 -0.00000000000E+00 -0.74505805969E-08  0.93827000000E+00  0.93827000000E+00 0.  1.
     999902    2    1    2    0    0 -0.13112749647E-01  0.25902270651E-02 -0.19578557658E-01  0.10202240219E+01  0.10199485680E+01 0.  0.
     999903    2    3    3    0    0  0.11981358340E+00  0.37753227719E-01 -0.24468801933E-01  0.12953341277E+00  0.19989541937E-01 0.  0.
         14    1    1    2    0    0  0.13112749647E-01 -0.25902270651E-02  0.19578557658E-01  0.23705978139E-01  0.00000000000E+00 0. -1.
     999901    1    3    3    0    0 -0.13292633304E+00 -0.35163000654E-01  0.48902442750E-02  0.89069060909E+00  0.88000000000E+00 0. -1.
        -11    1    4    4    0    0  0.59036299498E-01  0.27455783618E-01 -0.17979456330E-01  0.67547218176E-01  0.51100000000E-03 0. -1.
         11    1    4    4    0    0  0.60777283898E-01  0.10297444102E-01 -0.64893456038E-02  0.61986194595E-01  0.51100000000E-03 0.  1.
</event>
<event>
 8    1  0.1176534E+005  0.1043930E+01  0.7957747E-01            NaN
         13   -1    0    0    0    0  0.00000000000E+00  0.00000000000E+00  0.74505805969E-08  0.10566000000E+00  0.10566000000E+00 0.  1.
     999900   -1    0    0    0    0 -0.00000000000E+00 -0.00000000000E+00 -0.74505805969E-08  0.93827000000E+00  0.93827000000E+00 0.  1.
     999902    2    1    2    0    0 -0.18777704704E-01  0.14386790695E-01 -0.11044087587E-02  0.10202487488E+01  0.10199738760E+01 0.  0.
     999903    2    3    3    0    0 -0.12161748244E+00 -0.23447322502E-01  0.42330109145E-01  0.13238952720E+00  0.19863529520E-01 0.  0.
         14    1    1    2    0    0  0.18777704704E-01 -0.14386790695E-01  0.11044087587E-02  0.23681251216E-01  0.00000000000E+00 0. -1.
     999901    1    3    3    0    0  0.10283977773E+00  0.37834113197E-01 -0.43434517903E-01  0.88785922158E+00  0.88000000000E+00 0.  1.
        -11    1    4    4    0    0 -0.56005439676E-01 -0.12829092935E-02  0.15602428205E-01  0.58154552844E-01  0.51100000000E-03 0.  1.
         11    1    4    4    0    0 -0.65612042762E-01 -0.22164413208E-01  0.26727680940E-01  0.74234974356E-01  0.51100000000E-03 0. -1.
</event>
<event>
 8    1  0.1176534E+005  0.1043930E+01  0.7957747E-01            NaN
         13   -1    0    0    0    0  0.00000000000E+00  0.00000000000E+00  0.74505805969E-08  0.10566000000E+00  0.10566000000E+00 0. -1.
     999900   -1    0    0    0    0 -0.00000000000E+00 -0.00000000000E+00 -0.74505805969E-08  0.93827000000E+00  0.93827000000E+00 0.  1.
     999902    2    1    2    0    0  0.14503226953E-01 -0.67818434561E-02 -0.17167281835E-01  0.10204554913E+01  0.10201854523E+01 0.  0.
     999903    2    3    3    0    0  0.10751128688E+00  0.71205229322E-01  0.17728566576E-01  0.13143906684E+00  0.18250061080E-01 0.  0.
         14    1    1    2    0    0 -0.14503226953E-01  0.67818434561E-02  0.17167281835E-01  0.23474508692E-01  0.00000000000E+00 0.  1.
     999901    1    3    3    0    0 -0.93008059931E-01 -0.77987072778E-01 -0.34895848411E-01  0.88901642447E+00  0.88000000000E+00 0.  1.
        -11    1    4    4    0    0  0.29829758533E-01  0.17177687658E-01  0.12658726029E-01  0.36679584418E-01  0.51100000000E-03 0. -1.
         11    1    4    4    0    0  0.77681528351E-01  0.54027541664E-01  0.50698405465E-02  0.94759482424E-01  0.51100000000E-03 0.  1.
</event>
<event>
 8    1  0.1176534E+005  0.1043930E+01  0.7957747E-01            NaN
         13   -1    0    0    0    0  0.00000000000E+00  0.00000000000E+00  0.74505805969E-08  0.10566000000E+00  0.10566000000E+00 0.  1.
     999900   -1    0    0    0    0 -0.00000000000E+00 -0.00000000000E+00 -0.74505805969E-08  0.93827000000E+00  0.93827000000E+00 0. -1.
     999902    2    1    2    0    0  0.24349091309E-01 -0.15746500800E-03  0.25841422821E-03  0.10195790283E+01  0.10192881954E+01 0.  0.
     999903    2    3    3    0    0  0.11835102344E+00  0.11971760763E-01 -0.56172445442E-01  0.13269238210E+00  0.17367695167E-01 0.  0.
         14    1    1    2    0    0 -0.24349091309E-01  0.15746500800E-03 -0.25841422821E-03  0.24350971658E-01  0.00000000000E+00 0.  1.
     999901    1    3    3    0    0 -0.94001932129E-01 -0.12129225771E-01  0.56430859670E-01  0.88688664624E+00  0.88000000000E+00 0.  1.
        -11    1    4    4    0    0  0.75323977025E-01  0.13314107730E-01 -0.42583620361E-01  0.87547660298E-01  0.51100000000E-03 0.  1.
         11    1    4    4    0    0  0.43027046413E-01 -0.13423469660E-02 -0.13588825081E-01  0.45144721801E-01  0.51100000000E-03 0. -1.
</event>
<event>
 8    1  0.1176534E+005  0.1043930E+01  0.7957747E-01            NaN
         13   -1    0    0    0    0  0.00000000000E+00  0.00000000000E+00  0.74505805969E-08  0.10566000000E+00  0.10566000000E+00 0. -1.
     999900   -1    0    0    0    0 -0.00000000000E+00 -0.00000000000E+00 -0.74505805969E-08  0.93827000000E+00  0.93827000000E+00 0. -1.
     999902    2    1    2    0    0 -0.45561890910E-03 -0.15500881552E-01 -0.17547371842E-01  0.10205121612E+01  0.10202434395E+01 0.  0.
     999903    2    3    3    0    0  0.45043276741E-01 -0.70675251070E-01 -0.10203507105E+00  0.13357781642E+00  0.20198748039E-01 0.  0.
         14    1    1    2    0    0  0.45561890910E-03  0.15500881552E-01  0.17547371842E-01  0.23417838842E-01  0.00000000000E+00 0. -1.
     999901    1    3    3    0    0 -0.45498895651E-01  0.55174369518E-01  0.84487699207E-01  0.88693434474E+00  0.88000000000E+00 0.  1.
        -11    1    4    4    0    0  0.26865147941E-02 -0.17786988109E-01 -0.27296008749E-01  0.32694457059E-01  0.51100000000E-03 0. -1.
         11    1    4    4    0    0  0.42356761947E-01 -0.52888262961E-01 -0.74739062300E-01  0.10088335936E+00  0.51100000000E-03 0.  1.
</event>
<event>
 8    1  0.1176534E+005  0.1043930E+01  0.7957747E-01            NaN
         13   -1    0    0    0    0  0.00000000000E+00  0.00000000000E+00  0.74505805969E-08  0.10566000000E+00  0.10566000000E+00 0.  1.
     999900   -1    0    0    0    0 -0.00000000000E+00 -0.00000000000E+00 -0.74505805969E-08  0.93827000000E+00  0.93827000000E+00 0. -1.
     999902    2    1    2    0    0  0.23180423274E-04 -0.11535648973E-01 -0.21126278286E-01  0.10198594502E+01  0.10195753561E+01 0.  0.
     999903    2    3    3    0    0  0.21041040798E-01 -0.11966128547E+00 -0.48890259598E-01  0.13255806824E+00  0.20489883702E-01 0.  0.
         14    1    1    2    0    0 -0.23180423274E-04  0.11535648973E-01  0.21126278286E-01  0.24070549823E-01  0.00000000000E+00 0.  1.
     999901    1    3    3    0    0 -0.21017860375E-01  0.10812563650E+00  0.27763981312E-01  0.88730138193E+00  0.88000000000E+00 0.  1.
        -11    1    4    4    0    0  0.13167307835E-01 -0.77226856790E-01 -0.20788537089E-01  0.81054239868E-01  0.51100000000E-03 0.  1.
         11    1    4    4    0    0  0.78737329636E-02 -0.42434428682E-01 -0.28101722508E-01  0.51503828375E-01  0.51100000000E-03 0. -1.
</event>
<event>
 8    1  0.1176534E+005  0.1043930E+01  0.7957747E-01            NaN
         13   -1    0    0    0    0  0.00000000000E+00  0.00000000000E+00  0.74505805969E-08  0.10566000000E+00  0.10566000000E+00 0. -1.
     999900   -1    0    0    0    0 -0.00000000000E+00 -0.00000000000E+00 -0.74505805969E-08  0.93827000000E+00  0.93827000000E+00 0. -1.
     999902    2    1    2    0    0  0.30303040472E-02  0.11909883431E-01 -0.45630181075E-03  0.10316321840E+01  0.10315588819E+01 0.  0.
     999903    2    3    3    0    0  0.21482173541E-01  0.51654585493E-01  0.12803188460E+00  0.14122254412E+00  0.20541750430E-01 0.  0.
         14    1    1    2    0    0 -0.30303040472E-02 -0.11909883431E-01  0.45630181075E-03  0.12297815956E-01  0.00000000000E+00 0. -1.
     999901    1    3    3    0    0 -0.18451869494E-01 -0.39744702062E-01 -0.12848818641E+00  0.89040963993E+00  0.88000000000E+00 0. -1.
        -11    1    4    4    0    0  0.13557259795E-01  0.93517162834E-02  0.32323966382E-01  0.36281590570E-01  0.51100000000E-03 0. -1.
         11    1    4    4    0    0  0.79249137458E-02  0.42302869210E-01  0.95707918214E-01  0.10494095355E+00  0.51100000000E-03 0.  1.
</event>
<event>
 8    1  0.1176534E+005  0.1043930E+01  0.7957747E-01            NaN
         13   -1    0    0    0    0  0.00000000000E+00  0.00000000000E+00  0.74505805969E-08  0.10566000000E+00  0.10566000000E+00 0.  1.
     999900   -1    0    0    0    0 -0.00000000000E+00 -0.00000000000E+00 -0.74505805969E-08  0.93827000000E+00  0.93827000000E+00 0. -1.
     999902    2    1    2    0    0 -0.19204854853E-01 -0.12732004702E-01 -0.30316796769E-02  0.10206894863E+01  0.10204248655E+01 0.  0.
     999903    2    3    3    0    0 -0.12894171408E+00 -0.15158658176E-01 -0.24523134750E-01  0.13361003693E+00  0.19862207405E-01 0.  0.
         14    1    1    2    0    0  0.19204854853E-01  0.12732004702E-01  0.30316796769E-02  0.23240513663E-01  0.00000000000E+00 0.  1.
     999901    1    3    3    0    0  0.10973685923E+00  0.24266534744E-02  0.21491455073E-01  0.88707944941E+00  0.88000000000E+00 0.  1.
        -11    1    4    4    0    0 -0.93469885743E-01 -0.93127877230E-02 -0.87252370089E-02  0.94338425034E-01  0.51100000000E-03 0.  1.
         11    1    4    4    0    0 -0.35471828336E-01 -0.58458704534E-02 -0.15797897741E-01  0.39271611896E-01  0.51100000000E-03 0. -1.
</event>
<event>
 8    1  0.1176534E+005  0.1043930E+01  0.7957747E-01            NaN
         13   -1    0    0    0    0  0.00000000000E+00  0.00000000000E+00  0.74505805969E-08  0.10566000000E+00  0.10566000000E+00 0.  1.
     999900   -1    0    0    0    0 -0.00000000000E+00 -0.00000000000E+00 -0.74505805969E-08  0.93827000000E+00  0.93827000000E+00 0.  1.
     999902    2    1    2    0    0 -0.10098196567E-01  0.19826497074E-01 -0.75365829491E-02  0.10204382218E+01  0.10201677808E+01 0.  0.
     999903    2    3    3    0    0 -0.11430360114E+00  0.19584350997E-01  0.59456813155E-01  0.13176114879E+00  0.19417200225E-01 0.  0.
         14    1    1    2    0    0  0.10098196567E-01 -0.19826497074E-01  0.75365829491E-02  0.23491778193E-01  0.00000000000E+00 0.  1.
     999901    1    3    3    0    0  0.10420540457E+00  0.24214607660E-03 -0.66993396104E-01  0.88867707301E+00  0.88000000000E+00 0.  1.
        -11    1    4    4    0    0 -0.57059140710E-01  0.19587594846E-01  0.29787745379E-01  0.67282912438E-01  0.51100000000E-03 0.  1.
         11    1    4    4    0    0 -0.57244460425E-01 -0.32438486057E-05  0.29669067777E-01  0.64478236357E-01  0.51100000000E-03 0. -1.
</event>
<event>
 8    1  0.1176534E+005  0.1043930E+01  0.7957747E-01            NaN
         13   -1    0    0    0    0  0.00000000000E+00  0.00000000000E+00  0.74505805969E-08  0.10566000000E+00  0.10566000000E+00 0.  1.
     999900   -1    0    0    0    0 -0.00000000000E+00 -0.00000000000E+00 -0.74505805969E-08  0.93827000000E+00  0.93827000000E+00 0.  1.
     999902    2    1    2    0    0 -0.10915448271E-01 -0.14323623886E-01 -0.29696006824E-03  0.10259188535E+01  0.10257607385E+01 0.  0.
     999903    2    3    3    0    0  0.15990606519E-01  0.94548206467E-02  0.13239517953E+00  0.13524688578E+00  0.20448555423E-01 0.  0.
         14    1    1    2    0    0  0.10915448271E-01  0.14323623886E-01  0.29696006824E-03  0.18011146479E-01  0.00000000000E+00 0.  1.
     999901    1    3    3    0    0 -0.26906054790E-01 -0.23778444533E-01 -0.13269213960E+00  0.89067196774E+00  0.88000000000E+00 0.  1.
        -11    1    4    4    0    0 -0.36328084968E-02  0.68618925104E-02  0.33964109756E-01  0.34844005782E-01  0.51100000000E-03 0.  1.
         11    1    4    4    0    0  0.19623415016E-01  0.25929281363E-02  0.98431069778E-01  0.10040288000E+00  0.51100000000E-03 0. -1.
</event>
<event>
 8    1  0.1176534E+005  0.1043930E+01  0.7957747E-01            NaN
         13   -1    0    0    0    0  0.00000000000E+00  0.00000000000E+00  0.74505805969E-08  0.10566000000E+00  0.10566000000E+00 0.  1.
     999900   -1    0    0    0    0 -0.00000000000E+00 -0.00000000000E+00 -0.74505805969E-08  0.93827000000E+00  0.93827000000E+00 0.  1.
     999902    2    1    2    0    0 -0.14496220088E-01  0.13013511342E-03  0.18483322182E-01  0.10204397780E+01  0.10201693732E+01 0.  0.
     999903    2    3    3    0    0  0.11460234628E+00 -0.10910986561E-02  0.58297671352E-01  0.13012909419E+00  0.20001859973E-01 0.  0.
         14    1    1    2    0    0  0.14496220088E-01 -0.13013511342E-03 -0.18483322182E-01  0.23490222027E-01  0.00000000000E+00 0. -1.
     999901    1    3    3    0    0 -0.12909856637E+00  0.12212337695E-02 -0.39814349169E-01  0.89031068378E+00  0.88000000000E+00 0.  1.
        -11    1    4    4    0    0  0.48029803254E-01 -0.63328498934E-03  0.35599545087E-01  0.59790064240E-01  0.51100000000E-03 0. -1.
         11    1    4    4    0    0  0.66572543024E-01 -0.45781366674E-03  0.22698126265E-01  0.70339029955E-01  0.51100000000E-03 0.  1.
</event>
<event>
 8    1  0.1176534E+005  0.1043930E+01  0.7957747E-01            NaN
         13   -1    0    0    0    0  0.00000000000E+00  0.00000000000E+00  0.74505805969E-08  0.10566000000E+00  0.10566000000E+00 0. -1.
     999900   -1    0    0    0    0 -0.00000000000E+00 -0.00000000000E+00 -0.74505805969E-08  0.93827000000E+00  0.93827000000E+00 0.  1.
     999902    2    1    2    0    0  0.14788067902E-01  0.18290675097E-01 -0.66476848926E-04  0.10204089421E+01  0.10201378186E+01 0.  0.
     999903    2    3    3    0    0 -0.27063786555E-01  0.81803291599E-01 -0.97626401989E-01  0.13175638387E+00  0.20114752430E-01 0.  0.
         14    1    1    2    0    0 -0.14788067902E-01 -0.18290675097E-01  0.66476848926E-04  0.23521057947E-01  0.00000000000E+00 0.  1.
     999901    1    3    3    0    0  0.41851854457E-01 -0.63512616503E-01  0.97559925141E-01  0.88865255819E+00  0.88000000000E+00 0.  1.
        -11    1    4    4    0    0 -0.31366854288E-02  0.53750944760E-02 -0.17013915150E-01  0.18123599693E-01  0.51100000000E-03 0. -1.
         11    1    4    4    0    0 -0.23927101126E-01  0.76428197123E-01 -0.80612486839E-01  0.11363278417E+00  0.51100000000E-03 0.  1.
</event>
<event>
 8    1  0.1176534E+005  0.1043930E+01  0.7957747E-01            NaN
         13   -1    0    0    0    0  0.00000000000E+00  0.00000000000E+00  0.74505805969E-08  0.10566000000E+00  0.10566000000E+00 0.  1.
     999900   -1    0    0    0    0 -0.00000000000E+00 -0.00000000000E+00 -0.74505805969E-08  0.93827000000E+00  0.93827000000E+00 0. -1.
     999902    2    1    2    0    0  0.19388535079E-01 -0.12373957637E-01 -0.44355332478E-02  0.10205055667E+01  0.10202366919E+01 0.  0.
     999903    2    3    3    0    0  0.74509234397E-01 -0.89579969704E-01 -0.61714659130E-01  0.13355576088E+00  0.21266055803E-01 0.  0.
         14    1    1    2    0    0 -0.19388535079E-01  0.12373957637E-01  0.44355332478E-02  0.23424433297E-01  0.00000000000E+00 0. -1.
     999901    1    3    3    0    0 -0.55120699318E-01  0.77206012067E-01  0.57279125882E-01  0.88694980583E+00  0.88000000000E+00 0. -1.
        -11    1    4    4    0    0  0.48116645429E-01 -0.50547788226E-01 -0.26179363281E-01  0.74537981223E-01  0.51100000000E-03 0.  1.
         11    1    4    4    0    0  0.26392588968E-01 -0.39032181477E-01 -0.35535295848E-01  0.59017779654E-01  0.51100000000E-03 0. -1.
</event>
<event>
 8    1  0.1176534E+005  0.1043930E+01  0.7957747E-01            NaN
         13   -1    0    0    0    0  0.00000000000E+00  0.00000000000E+00  0.74505805969E-08  0.10566000000E+00  0.10566000000E+00 0.  1.
     999900   -1    0    0    0    0 -0.00000000000E+00 -0.00000000000E+00 -0.74505805969E-08  0.93827000000E+00  0.93827000000E+00 0.  1.
     999902    2    1    2    0    0  0.60113071796E-02 -0.13951988620E-01 -0.18167242065E-01  0.10202478868E+01  0.10199729938E+01 0.  0.
     999903    2    3    3    0    0  0.96202221719E-01  0.77297124588E-01  0.33768074343E-01  0.12942911804E+00  0.19542282807E-01 0.  0.
         14    1    1    2    0    0 -0.60113071796E-02  0.13951988620E-01  0.18167242065E-01  0.23682113181E-01  0.00000000000E+00 0.  1.
     999901    1    3    3    0    0 -0.90190914540E-01 -0.91249113208E-01 -0.51935316408E-01  0.89081876878E+00  0.88000000000E+00 0.  1.
        -11    1    4    4    0    0  0.82524956419E-01  0.72795624705E-01  0.26057870658E-01  0.11308777632E+00  0.51100000000E-03 0. -1.
         11    1    4    4    0    0  0.13677265301E-01  0.45014998834E-02  0.77102036850E-02  0.16341341719E-01  0.51100000000E-03 0.  1.
</event>
<event>
 8    1  0.1176534E+005  0.1043930E+01  0.7957747E-01            NaN
         13   -1    0    0    0    0  0.00000000000E+00  0.00000000000E+00  0.74505805969E-08  0.10566000000E+00  0.10566000000E+00 0.  1.
     999900   -1    0    0    0    0 -0.00000000000E+00 -0.00000000000E+00 -0.74505805969E-08  0.93827000000E+00  0.93827000000E+00 0.  1.
     999902    2    1    2    0    0 -0.11152088459E-02 -0.19845751328E-01  0.87545042161E-02  0.10222104493E+01  0.10219796788E+01 0.  0.
     999903    2    3    3    0    0 -0.85830071345E-01 -0.84873972083E-01  0.55656683049E-01  0.13451394051E+00  0.20638351171E-01 0.  0.
         14    1    1    2    0    0  0.11152088459E-02  0.19845751328E-01 -0.87545042161E-02  0.21719550654E-01  0.00000000000E+00 0. -1.
     999901    1    3    3    0    0  0.84714862499E-01  0.65028220755E-01 -0.46902178833E-01  0.88769650884E+00  0.88000000000E+00 0.  1.
        -11    1    4    4    0    0 -0.33108738172E-01 -0.19358496078E-01  0.16738279223E-01  0.41849385014E-01  0.51100000000E-03 0.  1.
         11    1    4    4    0    0 -0.52721333173E-01 -0.65515476004E-01  0.38918403826E-01  0.92664555495E-01  0.51100000000E-03 0. -1.
</event>
<event>
 7    1  0.1176534E+005  0.1043930E+01  0.7957747E-01            NaN
         13   -1    0    0    0    0  0.00000000000E+00  0.00000000000E+00  0.74505805969E-08  0.10566000000E+00  0.10566000000E+00 0. -1.
     999900   -1    0    0    0    0 -0.00000000000E+00 -0.00000000000E+00 -0.74505805969E-08  0.93827000000E+00  0.93827000000E+00 0. -1.
     999903    2    1    2    0    0  0.11167041971E-01 -0.10337251809E+00  0.48764346538E-01  0.11671917716E+00  0.20852445948E-01 0.  0.
         14    1    1    2    0    0 -0.20563295861E-01  0.17153750440E-01 -0.33405577989E-01  0.42813933849E-01  0.00000000000E+00 0.  1.
     999901    1    1    2    0    0  0.93962538900E-02  0.86218767648E-01 -0.15358768548E-01  0.88439688899E+00  0.88000000000E+00 0. -1.
        -11    1    3    3    0    0  0.14299824029E-01 -0.42424945659E-01  0.24539956046E-01  0.51057140002E-01  0.51100000000E-03 0.  1.
         11    1    3    3    0    0 -0.31327820583E-02 -0.60947572429E-01  0.24224390492E-01  0.65662037161E-01  0.51100000000E-03 0. -1.
</event>
<event>
 8    1  0.1176534E+005  0.1043930E+01  0.7957747E-01            NaN
         13   -1    0    0    0    0  0.00000000000E+00  0.00000000000E+00  0.74505805969E-08  0.10566000000E+00  0.10566000000E+00 0.  1.
     999900   -1    0    0    0    0 -0.00000000000E+00 -0.00000000000E+00 -0.74505805969E-08  0.93827000000E+00  0.93827000000E+00 0. -1.
     999902    2    1    2    0    0  0.51957804085E-02  0.19719110508E-01 -0.99357574862E-02  0.10212461130E+01  0.10209941550E+01 0.  0.
     999903    2    3    3    0    0  0.39633764076E-01 -0.88037083618E-01  0.83382025020E-01  0.12911070811E+00  0.19890940313E-01 0.  0.
         14    1    1    2    0    0 -0.51957804085E-02 -0.19719110508E-01  0.99357574862E-02  0.22683887015E-01  0.00000000000E+00 0. -1.
     999901    1    3    3    0    0 -0.34437983668E-01  0.10775619413E+00 -0.93317782507E-01  0.89213540487E+00  0.88000000000E+00 0.  1.
        -11    1    4    4    0    0  0.14083966972E-01 -0.54953079438E-01  0.49798260040E-01  0.75487263094E-01  0.51100000000E-03 0. -1.
         11    1    4    4    0    0  0.25549797104E-01 -0.33084004180E-01  0.33583764980E-01  0.53623445021E-01  0.51100000000E-03 0.  1.
</event>
<event>
 8    1  0.1176534E+005  0.1043930E+01  0.7957747E-01            NaN
         13   -1    0    0    0    0  0.00000000000E+00  0.00000000000E+00  0.74505805969E-08  0.10566000000E+00  0.10566000000E+00 0.  1.
     999900   -1    0    0    0    0 -0.00000000000E+00 -0.00000000000E+00 -0.74505805969E-08  0.93827000000E+00  0.93827000000E+00 0.  1.
     999902    2    1    2    0    0  0.19066791471E-01  0.96725661013E-02  0.85271003286E-02  0.10209123435E+01  0.10206528306E+01 0.  0.
     999903    2    3    3    0    0 -0.64654942339E-01  0.10011308803E+00 -0.49141482252E-01  0.13045488681E+00  0.20017498588E-01 0.  0.
         14    1    1    2    0    0 -0.19066791471E-01 -0.96725661013E-02 -0.85271003286E-02  0.23017656527E-01  0.00000000000E+00 0.  1.
     999901    1    3    3    0    0  0.83721733810E-01 -0.90440521928E-01  0.57668582581E-01  0.89045745667E+00  0.88000000000E+00 0. -1.
        -11    1    4    4    0    0 -0.30640359046E-01  0.39696439272E-01 -0.30351416983E-01  0.58618329277E-01  0.51100000000E-03 0. -1.
         11    1    4    4    0    0 -0.34014583293E-01  0.60416648757E-01 -0.18790065270E-01  0.71836557528E-01  0.51100000000E-03 0.  1.
</event>
<event>
 8    1  0.1176534E+005  0.1043930E+01  0.7957747E-01            NaN
         13   -1    0    0    0    0  0.00000000000E+00  0.00000000000E+00  0.74505805969E-08  0.10566000000E+00  0.10566000000E+00 0. -1.
     999900   -1    0    0    0    0 -0.00000000000E+00 -0.00000000000E+00 -0.74505805969E-08  0.93827000000E+00  0.93827000000E+00 0.  1.
     999902    2    1    2    0    0 -0.25267466295E-01 -0.19524162149E-02  0.92759061614E-02  0.10169429806E+01  0.10165848349E+01 0.  0.
     999903    2    3    3    0    0 -0.61347396747E-01 -0.91312943171E-01 -0.63956035941E-01  0.12865812621E+00  0.18999532325E-01 0.  0.
         14    1    1    2    0    0  0.25267466295E-01  0.19524162149E-02 -0.92759061614E-02  0.26987019419E-01  0.00000000000E+00 0. -1.
     999901    1    3    3    0    0  0.36079930453E-01  0.89360526956E-01  0.73231942102E-01  0.88828485437E+00  0.88000000000E+00 0. -1.
        -11    1    4    4    0    0 -0.16615625592E-01 -0.39806163504E-01 -0.29221105832E-01  0.52103203488E-01  0.51100000000E-03 0.  1.
         11    1    4    4    0    0 -0.44731771155E-01 -0.51506779667E-01 -0.34734930109E-01  0.76554922722E-01  0.51100000000E-03 0. -1.
</event>
<event>
 8    1  0.1176534E+005  0.1043930E+01  0.7957747E-01            NaN
         13   -1    0    0    0    0  0.00000000000E+00  0.00000000000E+00  0.74505805969E-08  0.10566000000E+00  0.10566000000E+00 0.  1.
     999900   -1    0    0    0    0 -0.00000000000E+00 -0.00000000000E+00 -0.74505805969E-08  0.93827000000E+00  0.93827000000E+00 0. -1.
     999902    2    1    2    0    0 -0.10188890755E-01 -0.14283771639E-01 -0.16386147046E-01  0.10199228044E+01  0.10196402216E+01 0.  0.
     999903    2    3    3    0    0 -0.66092851457E-01 -0.83706408631E-01 -0.77608188991E-01  0.13330400592E+00  0.19284686553E-01 0.  0.
         14    1    1    2    0    0  0.10188890755E-01  0.14283771639E-01  0.16386147046E-01  0.24007195631E-01  0.00000000000E+00 0. -1.
     999901    1    3    3    0    0  0.55903960702E-01  0.69422636992E-01  0.61222041945E-01  0.88661879845E+00  0.88000000000E+00 0.  1.
        -11    1    4    4    0    0 -0.62342916473E-01 -0.68128849926E-01 -0.66478537089E-01  0.11378856024E+00  0.51100000000E-03 0. -1.
         11    1    4    4    0    0 -0.37499349843E-02 -0.15577558704E-01 -0.11129651902E-01  0.19515445678E-01  0.51100000000E-03 0.  1.
</event>
<event>
 8    1  0.1176534E+005  0.1043930E+01  0.7957747E-01            NaN
         13   -1    0    0    0    0  0.00000000000E+00  0.00000000000E+00  0.74505805969E-08  0.10566000000E+00  0.10566000000E+00 0.  1.
     999900   -1    0    0    0    0 -0.00000000000E+00 -0.00000000000E+00 -0.74505805969E-08  0.93827000000E+00  0.93827000000E+00 0. -1.
     999902    2    1    2    0    0 -0.87243122921E-02  0.21897319472E-01 -0.37523082282E-02  0.10200619033E+01  0.10197826241E+01 0.  0.
     999903    2    3    3    0    0  0.57463246162E-01 -0.82939209932E-01  0.75855987838E-01  0.12781251458E+00  0.20024255020E-01 0.  0.
         14    1    1    2    0    0  0.87243122921E-02 -0.21897319472E-01  0.37523082282E-02  0.23868096742E-01  0.00000000000E+00 0.  1.
     999901    1    3    3    0    0 -0.66187558454E-01  0.10483652940E+00 -0.79608296066E-01  0.89224938868E+00  0.88000000000E+00 0. -1.
        -11    1    4    4    0    0  0.30773862707E-01 -0.45243476600E-01  0.28645981380E-01  0.61764521944E-01  0.51100000000E-03 0.  1.
         11    1    4    4    0    0  0.26689383454E-01 -0.37695733333E-01  0.47210006458E-01  0.66047992637E-01  0.51100000000E-03 0. -1.
</event>
<event>
 8    1  0.1176534E+005  0.1043930E+01  0.7957747E-01            NaN
         13   -1    0    0    0    0  0.00000000000E+00  0.00000000000E+00  0.74505805969E-08  0.10566000000E+00  0.10566000000E+00 0. -1.
     999900   -1    0    0    0    0 -0.00000000000E+00 -0.00000000000E+00 -0.74505805969E-08  0.93827000000E+00  0.93827000000E+00 0. -1.
     999902    2    1    2    0    0 -0.12948373743E-01  0.17408942246E-01  0.90619743008E-02  0.10204172156E+01  0.10201462850E+01 0.  0.
     999903    2    3    3    0    0  0.84712007105E-01 -0.80243160203E-01 -0.48449006676E-01  0.12779131632E+00  0.19189199378E-01 0.  0.
         14    1    1    2    0    0  0.12948373743E-01 -0.17408942246E-01 -0.90619743008E-02  0.23512784415E-01  0.00000000000E+00 0. -1.
     999901    1    3    3    0    0 -0.97660380848E-01  0.97652102449E-01  0.57510980977E-01  0.89262589926E+00  0.88000000000E+00 0. -1.
        -11    1    4    4    0    0  0.28695256139E-01 -0.27261460874E-01 -0.68224463344E-02  0.40167298501E-01  0.51100000000E-03 0.  1.
         11    1    4    4    0    0  0.56016750966E-01 -0.52981699329E-01 -0.41626560342E-01  0.87624017823E-01  0.51100000000E-03 0. -1.
</event>
<event>
 8    1  0.1176534E+005  0.1043930E+01  0.7957747E-01            NaN
         13   -1    0    0    0    0  0.00000000000E+00  0.00000000000E+00  0.74505805969E-08  0.10566000000E+00  0.10566000000E+00 0. -1.
     999900   -1    0    0    0    0 -0.00000000000E+00 -0.00000000000E+00 -0.74505805969E-08  0.93827000000E+00  0.93827000000E+00 0. -1.
     999902    2    1    2    0    0 -0.12648126589E-01  0.15805663345E-01  0.11645412824E-01  0.10205759909E+01  0.10203087491E+01 0.  0.
     999903    2    3    3    0    0  0.37610856575E-01  0.11253271077E+00  0.55967509439E-01  0.13274349809E+00  0.20255533704E-01 0.  0.
         14    1    1    2    0    0  0.12648126589E-01 -0.15805663345E-01 -0.11645412824E-01  0.23354009074E-01  0.00000000000E+00 0. -1.
     999901    1    3    3    0    0 -0.50258983164E-01 -0.96727047427E-01 -0.44322096615E-01  0.88783249284E+00  0.88000000000E+00 0.  1.
        -11    1    4    4    0    0  0.19692473313E-01  0.85080458293E-01  0.36824143875E-01  0.94777405439E-01  0.51100000000E-03 0. -1.
         11    1    4    4    0    0  0.17918383262E-01  0.27452252479E-01  0.19143365563E-01  0.37966092649E-01  0.51100000000E-03 0.  1.
</event>
<event>
 8    1  0.1176534E+005  0.1043930E+01  0.7957747E-01            NaN
         13   -1    0    0    0    0  0.00000000000E+00  0.00000000000E+00  0.74505805969E-08  0.10566000000E+00  0.10566000000E+00 0.  1.
     999900   -1    0    0    0    0 -0.00000000000E+00 -0.00000000000E+00 -0.74505805969E-08  0.93827000000E+00  0.93827000000E+00 0. -1.
     999902    2    1    2    0    0  0.44228236808E-02 -0.84456324502E-02 -0.20234593077E-01  0.10215619685E+01  0.10213170549E+01 0.  0.
     999903    2    3    3    0    0 -0.71239818230E-01  0.65069772301E-02  0.10570769004E+00  0.12925603743E+00  0.20385166806E-01 0.  0.
         14    1    1    2    0    0 -0.44228236808E-02  0.84456324502E-02  0.20234593077E-01  0.22368031513E-01  0.00000000000E+00 0.  1.
     999901    1    3    3    0    0  0.75662641911E-01 -0.14952609680E-01 -0.12594228311E+00  0.89230593105E+00  0.88000000000E+00 0. -1.
        -11    1    4    4    0    0 -0.66162908552E-01  0.11480841786E-01  0.93420056598E-01  0.11505176353E+00  0.51100000000E-03 0.  1.
         11    1    4    4    0    0 -0.50769096781E-02 -0.49738645557E-02  0.12287633440E-01  0.14204273901E-01  0.51100000000E-03 0. -1.
</event>
<event>
 8    1  0.1176534E+005  0.1043930E+01  0.7957747E-01            NaN
         13   -1    0    0    0    0  0.00000000000E+00  0.00000000000E+00  0.74505805969E-08  0.10566000000E+00  0.10566000000E+00 0.  1.
     999900   -1    0    0    0    0 -0.00000000000E+00 -0.00000000000E+00 -0.74505805969E-08  0.93827000000E+00  0.93827000000E+00 0.  1.
     999902    2    1    2    0    0 -0.13818707005E-01  0.11812126731E-02  0.17026697809E-01  0.10219695728E+01  0.10217335990E+01 0.  0.
     999903    2    3    3    0    0 -0.20545349042E-01 -0.46236000316E-01  0.12272890268E+00  0.13435107592E+00  0.20686927135E-01 0.  0.
         14    1    1    2    0    0  0.13818707005E-01 -0.11812126731E-02 -0.17026697809E-01  0.21960427248E-01  0.00000000000E+00 0. -1.
     999901    1    3    3    0    0  0.67266420375E-02  0.47417212989E-01 -0.10570220488E+00  0.88761849683E+00  0.88000000000E+00 0.  1.
        -11    1    4    4    0    0  0.31396884515E-02 -0.13695005869E-02  0.13109961315E-01  0.13559696977E-01  0.51100000000E-03 0. -1.
         11    1    4    4    0    0 -0.23685037494E-01 -0.44866499729E-01  0.10961894137E+00  0.12079137894E+00  0.51100000000E-03 0.  1.
</event>
<event>
 8    1  0.1176534E+005  0.1043930E+01  0.7957747E-01            NaN
         13   -1    0    0    0    0  0.00000000000E+00  0.00000000000E+00  0.74505805969E-08  0.10566000000E+00  0.10566000000E+00 0. -1.
     999900   -1    0    0    0    0 -0.00000000000E+00 -0.00000000000E+00 -0.74505805969E-08  0.93827000000E+00  0.93827000000E+00 0.  1.
     999902    2    1    2    0    0 -0.15107320294E-02 -0.22687481838E-01  0.77952914681E-02  0.10198931385E+01  0.10196098485E+01 0.  0.
     999903    2    3    3    0    0  0.12175777657E+00  0.18781075148E-01 -0.33517017349E-01  0.12937560731E+00  0.20903884269E-01 0.  0.
         14    1    1    2    0    0  0.15107320294E-02  0.22687481838E-01 -0.77952914681E-02  0.24036861536E-01  0.00000000000E+00 0.  1.
     999901    1    3    3    0    0 -0.12326850859E+00 -0.41468556986E-01  0.41312308817E-01  0.89051753115E+00  0.88000000000E+00 0. -1.
        -11    1    4    4    0    0  0.46603875245E-01  0.79515773664E-02 -0.24789427930E-02  0.47345063616E-01  0.51100000000E-03 0.  1.
         11    1    4    4    0    0  0.75153901320E-01  0.10829497782E-01 -0.31038074556E-01  0.82030543696E-01  0.51100000000E-03 0. -1.
</event>
<event>
 8    1  0.1176534E+005  0.1043930E+01  0.7957747E-01            NaN
         13   -1    0    0    0    0  0.00000000000E+00  0.00000000000E+00  0.74505805969E-08  0.10566000000E+00  0.10566000000E+00 0.  1.
     999900   -1    0    0    0    0 -0.00000000000E+00 -0.00000000000E+00 -0.74505805969E-08  0.93827000000E+00  0.93827000000E+00 0.  1.
     999902    2    1    2    0    0  0.15759705802E-01  0.13836553230E-02  0.19781261327E-01  0.10186005482E+01  0.10182855669E+01 0.  0.
     999903    2    3    3    0    0  0.31711147649E-01 -0.39381274028E-01  0.12046592581E+00  0.13177833962E+00  0.17233974676E-01 0.  0.
         14    1    1    2    0    0 -0.15759705802E-01 -0.13836553230E-02 -0.19781261327E-01  0.25329451804E-01  0.00000000000E+00 0. -1.
     999901    1    3    3    0    0 -0.15951441846E-01  0.40764929351E-01 -0.10068466448E+00  0.88682220858E+00  0.88000000000E+00 0.  1.
        -11    1    4    4    0    0  0.22333475556E-01 -0.18133752911E-01  0.81298648860E-01  0.86240063500E-01  0.51100000000E-03 0.  1.
         11    1    4    4    0    0  0.93776720921E-02 -0.21247521117E-01  0.39167276947E-01  0.45538276120E-01  0.51100000000E-03 0. -1.
</event>
<event>
 8    1  0.1176534E+005  0.1043930E+01  0.7957747E-01            NaN
         13   -1    0    0    0    0  0.00000000000E+00  0.00000000000E+00  0.74505805969E-08  0.10566000000E+00  0.10566000000E+00 0. -1.
     999900   -1    0    0    0    0 -0.00000000000E+00 -0.00000000000E+00 -0.74505805969E-08  0.93827000000E+00  0.93827000000E+00 0. -1.
     999902    2    1    2    0    0 -0.21409003291E-01 -0.10688963627E-01  0.88980453483E-02  0.10184001238E+01  0.10180800743E+01 0.  0.
     999903    2    3    3    0    0  0.56066435718E-01  0.11162263700E+00 -0.29392878796E-02  0.12649054673E+00  0.19701794190E-01 0.  0.
         14    1    1    2    0    0  0.21409003291E-01  0.10688963627E-01 -0.88980453483E-02  0.25529876153E-01  0.00000000000E+00 0.  1.
     999901    1    3    3    0    0 -0.77475439009E-01 -0.12231160062E+00  0.11837333228E-01  0.89190957712E+00  0.88000000000E+00 0. -1.
        -11    1    4    4    0    0  0.22269662619E-01  0.57618684948E-01  0.63788181485E-02  0.62103149439E-01  0.51100000000E-03 0. -1.
         11    1    4    4    0    0  0.33796773099E-01  0.54003952050E-01 -0.93181060281E-02  0.64387397290E-01  0.51100000000E-03 0.  1.
</event>
<event>
 8    1  0.1176534E+005  0.1043930E+01  0.7957747E-01            NaN
         13   -1    0    0    0    0  0.00000000000E+00  0.00000000000E+00  0.74505805969E-08  0.10566000000E+00  0.10566000000E+00 0.  1.
     999900   -1    0    0    0    0 -0.00000000000E+00 -0.00000000000E+00 -0.74505805969E-08  0.93827000000E+00  0.93827000000E+00 0. -1.
     999902    2    1    2    0    0  0.18910005726E-01 -0.50985879835E-02  0.13887213842E-01  0.10199208637E+01  0.10196382347E+01 0.  0.
     999903    2    3    3    0    0 -0.74444431646E-01 -0.57297510173E-01  0.88078680652E-01  0.13034559868E+00  0.20177785646E-01 0.  0.
         14    1    1    2    0    0 -0.18910005726E-01  0.50985879835E-02 -0.13887213842E-01  0.24009136267E-01  0.00000000000E+00 0. -1.
     999901    1    3    3    0    0  0.93354437372E-01  0.52198922190E-01 -0.74191466811E-01  0.88957526506E+00  0.88000000000E+00 0. -1.
        -11    1    4    4    0    0 -0.29517084817E-01 -0.27739339430E-01  0.50483512621E-01  0.64726929602E-01  0.51100000000E-03 0. -1.
         11    1    4    4    0    0 -0.44927346829E-01 -0.29558170743E-01  0.37595168031E-01  0.65618669074E-01  0.51100000000E-03 0.  1.
</event>
<event>
 8    1  0.1176534E+005  0.1043930E+01  0.7957747E-01            NaN
         13   -1    0    0    0    0  0.00000000000E+00  0.00000000000E+00  0.74505805969E-08  0.10566000000E+00  0.10566000000E+00 0.  1.
     999900   -1    0    0    0    0 -0.00000000000E+00 -0.00000000000E+00 -0.74505805969E-08  0.93827000000E+00  0.93827000000E+00 0.  1.
     999902    2    1    2    0    0 -0.11900106186E-01 -0.15465270672E-01 -0.12235327281E-01  0.10208976237E+01  0.10206377750E+01 0.  0.
     999903    2    3    3    0    0 -0.27975123092E-01 -0.32117728933E-01 -0.12487551408E+00  0.13341606208E+00  0.19793826810E-01 0.  0.
         14    1    1    2    0    0  0.11900106186E-01  0.15465270672E-01  0.12235327281E-01  0.23032376296E-01  0.00000000000E+00 0.  1.
     999901    1    3    3    0    0  0.16075016906E-01  0.16652458261E-01  0.11264018680E+00  0.88748156162E+00  0.88000000000E+00 0. -1.
        -11    1    4    4    0    0 -0.30238263432E-01 -0.27216407235E-01 -0.10007070453E+00  0.10802542489E+00  0.51100000000E-03 0.  1.
         11    1    4    4    0    0  0.22631403402E-02 -0.49013216983E-02 -0.24804809559E-01  0.25390637189E-01  0.51100000000E-03 0. -1.
</event>
<event>
 8    1  0.1176534E+005  0.1043930E+01  0.7957747E-01            NaN
         13   -1    0    0    0    0  0.00000000000E+00  0.00000000000E+00  0.74505805969E-08  0.10566000000E+00  0.10566000000E+00 0.  1.
     999900   -1    0    0    0    0 -0.00000000000E+00 -0.00000000000E+00 -0.74505805969E-08  0.93827000000E+00  0.93827000000E+00 0.  1.
     999902    2    1    2    0    0  0.68138814756E-03 -0.16077617674E-01  0.18383229058E-01  0.10194985205E+01  0.10192057379E+01 0.  0.
     999903    2    3    3    0    0  0.88786608914E-01 -0.81430534989E-01  0.49518547303E-01  0.13214124084E+00  0.22253697500E-01 0.  0.
         14    1    1    2    0    0 -0.68138814756E-03  0.16077617674E-01 -0.18383229058E-01  0.24431479499E-01  0.00000000000E+00 0. -1.
     999901    1    3    3    0    0 -0.88105220767E-01  0.65352917315E-01 -0.31135318245E-01  0.88735727966E+00  0.88000000000E+00 0.  1.
        -11    1    4    4    0    0  0.27609330768E-01 -0.20138338612E-01  0.43023975496E-02  0.34447054638E-01  0.51100000000E-03 0.  1.
         11    1    4    4    0    0  0.61177278146E-01 -0.61292196377E-01  0.45216149753E-01  0.97694186201E-01  0.51100000000E-03 0. -1.
</event>
<event>
 8    1  0.1176534E+005  0.1043930E+01  0.7957747E-01            NaN
         13   -1    0    0    0    0  0.00000000000E+00  0.00000000000E+00  0.74505805969E-08  0.10566000000E+00  0.10566000000E+00 0.  1.
     999900   -1    0    0    0    0 -0.00000000000E+00 -0.00000000000E+00 -0.74505805969E-08  0.93827000000E+00  0.93827000000E+00 0.  1.
     999902    2    1    2    0    0  0.18616127225E-01  0.66825533050E-02  0.12836269418E-01  0.10203506335E+01  0.10200781484E+01 0.  0.
     999903    2    3    3    0    0  0.22815190150E-02  0.11037394840E+00  0.70089521840E-01  0.13226468060E+00  0.19844164047E-01 0.  0.
         14    1    1    2    0    0 -0.18616127225E-01 -0.66825533050E-02 -0.12836269418E-01  0.23579366491E-01  0.00000000000E+00 0. -1.
     999901    1    3    3    0    0  0.16334608210E-01 -0.10369139510E+00 -0.57253252422E-01  0.88808595291E+00  0.88000000000E+00 0. -1.
        -11    1    4    4    0    0  0.63812647927E-02  0.62344243701E-01  0.29603491518E-01  0.69311998197E-01  0.51100000000E-03 0.  1.
         11    1    4    4    0    0 -0.40997457777E-02  0.48029704704E-01  0.40486030322E-01  0.62952682402E-01  0.51100000000E-03 0. -1.
</event>
<event>
 8    1  0.1176534E+005  0.1043930E+01  0.7957747E-01            NaN
         13   -1    0    0    0    0  0.00000000000E+00  0.00000000000E+00  0.74505805969E-08  0.10566000000E+00  0.10566000000E+00 0.  1.
     999900   -1    0    0    0    0 -0.00000000000E+00 -0.00000000000E+00 -0.74505805969E-08  0.93827000000E+00  0.93827000000E+00 0.  1.
     999902    2    1    2    0    0  0.22645764326E-01  0.23779273024E-02  0.29221460766E-02  0.10209729941E+01  0.10207148626E+01 0.  0.
     999903    2    3    3    0    0  0.11381611705E-01 -0.67177124868E-01  0.11059571559E+00  0.13161458271E+00  0.21182041543E-01 0.  0.
         14    1    1    2    0    0 -0.22645764326E-01 -0.23779273024E-02 -0.29221460766E-02  0.22957005856E-01  0.00000000000E+00 0. -1.
     999901    1    3    3    0    0  0.11264152621E-01  0.69555052171E-01 -0.10767356952E+00  0.88935841143E+00  0.88000000000E+00 0.  1.
        -11    1    4    4    0    0  0.12785003904E-01 -0.35849367530E-01  0.45241380370E-01  0.59124251334E-01  0.51100000000E-03 0. -1.
         11    1    4    4    0    0 -0.14033921986E-02 -0.31327757339E-01  0.65354335223E-01  0.72490331376E-01  0.51100000000E-03 0.  1.
</event>
<event>
 8    1  0.1176534E+005  0.1043930E+01  0.7957747E-01            NaN
         13   -1    0    0    0    0  0.00000000000E+00  0.00000000000E+00  0.74505805969E-08  0.10566000000E+00  0.10566000000E+00 0.  1.
     999900   -1    0    0    0    0 -0.00000000000E+00 -0.00000000000E+00 -0.74505805969E-08  0.93827000000E+00  0.93827000000E+00 0. -1.
     999902    2    1    2    0    0 -0.26546916723E-01 -0.62327370477E-04 -0.64802599286E-02  0.10166035212E+01  0.10162361846E+01 0.  0.
     999903    2    3    3    0    0  0.68058438446E-01  0.79380261470E-01 -0.67138840052E-01  0.12590673699E+00  0.20290530327E-01 0.  0.
         14    1    1    2    0    0  0.26546916723E-01  0.62327370477E-04  0.64802599286E-02  0.27326478751E-01  0.00000000000E+00 0.  1.
     999901    1    3    3    0    0 -0.94605355169E-01 -0.79442588840E-01  0.60658580123E-01  0.89069678426E+00  0.88000000000E+00 0.  1.
        -11    1    4    4    0    0  0.33970127833E-01  0.31424982698E-01 -0.19579885189E-01  0.50250693006E-01  0.51100000000E-03 0. -1.
         11    1    4    4    0    0  0.34088310613E-01  0.47955278772E-01 -0.47558954863E-01  0.75656043983E-01  0.51100000000E-03 0.  1.
</event>
<event>
 8    1  0.1176534E+005  0.1043930E+01  0.7957747E-01            NaN
         13   -1    0    0    0    0  0.00000000000E+00  0.00000000000E+00  0.74505805969E-08  0.10566000000E+00  0.10566000000E+00 0. -1.
     999900   -1    0    0    0    0 -0.00000000000E+00 -0.00000000000E+00 -0.74505805969E-08  0.93827000000E+00  0.93827000000E+00 0. -1.
     999902    2    1    2    0    0  0.96148045805E-02 -0.70154358843E-02 -0.22555801123E-01  0.10184265694E+01  0.10181071910E+01 0.  0.
     999903    2    3    3    0    0  0.51190634730E-01  0.21574774784E-01  0.11210441000E+00  0.12675436380E+00  0.20330224018E-01 0.  0.
         14    1    1    2    0    0 -0.96148045805E-02  0.70154358843E-02  0.22555801123E-01  0.25503430594E-01  0.00000000000E+00 0. -1.
     999901    1    3    3    0    0 -0.41575830149E-01 -0.28590210668E-01 -0.13466021112E+00  0.89167220561E+00  0.88000000000E+00 0. -1.
        -11    1    4    4    0    0  0.32450125719E-01  0.13501687371E-01  0.48106987053E-01  0.59580613839E-01  0.51100000000E-03 0. -1.
         11    1    4    4    0    0  0.18740509010E-01  0.80730874133E-02  0.63997422947E-01  0.67173749957E-01  0.51100000000E-03 0.  1.
</event>
<event>
 8    1  0.1176534E+005  0.1043930E+01  0.7957747E-01            NaN
         13   -1    0    0    0    0  0.00000000000E+00  0.00000000000E+00  0.74505805969E-08  0.10566000000E+00  0.10566000000E+00 0.  1.
     999900   -1    0    0    0    0 -0.00000000000E+00 -0.00000000000E+00 -0.74505805969E-08  0.93827000000E+00  0.93827000000E+00 0. -1.
     999902    2    1    2    0    0 -0.64081124936E-02  0.21477881086E-01 -0.44793362782E-02  0.10210733219E+01  0.10208174670E+01 0.  0.
     999903    2    3    3    0    0  0.30938611990E-02 -0.85542794404E-01  0.94462188813E-01  0.12903456830E+00  0.19991824552E-01 0.  0.
         14    1    1    2    0    0  0.64081124936E-02 -0.21477881086E-01  0.44793362782E-02  0.22856678130E-01  0.00000000000E+00 0.  1.
     999901    1    3    3    0    0 -0.95019736926E-02  0.10702067549E+00 -0.98941525091E-01  0.89203875357E+00  0.88000000000E+00 0. -1.
        -11    1    4    4    0    0 -0.61142556084E-02 -0.60011036821E-01  0.59053320491E-01  0.84417204668E-01  0.51100000000E-03 0. -1.
         11    1    4    4    0    0  0.92081168074E-02 -0.25531757583E-01  0.35408868322E-01  0.44617363629E-01  0.51100000000E-03 0.  1.
</event>
<event>
 8    1  0.1176534E+005  0.1043930E+01  0.7957747E-01            NaN
         13   -1    0    0    0    0  0.00000000000E+00  0.00000000000E+00  0.74505805969E-08  0.10566000000E+00  0.10566000000E+00 0.  1.
     999900   -1    0    0    0    0 -0.00000000000E+00 -0.00000000000E+00 -0.74505805969E-08  0.93827000000E+00  0.93827000000E+00 0. -1.
     999902    2    1    2    0    0 -0.16727079964E-01  0.72284069433E-03  0.16420699283E-01  0.10204788365E+01  0.10202093407E+01 0.  0.
     999903    2    3    3    0    0 -0.45747623980E-01  0.98516713050E-01  0.73247279784E-01  0.13276542913E+00  0.21519928572E-01 0.  0.
         14    1    1    2    0    0  0.16727079964E-01 -0.72284069433E-03 -0.16420699283E-01  0.23451163462E-01  0.00000000000E+00 0. -1.
     999901    1    3    3    0    0  0.29020544016E-01 -0.97793872355E-01 -0.56826580501E-01  0.88771340741E+00  0.88000000000E+00 0. -1.
        -11    1    4    4    0    0 -0.43907954687E-01  0.85601512921E-01  0.56643346827E-01  0.11164343850E+00  0.51100000000E-03 0.  1.
         11    1    4    4    0    0 -0.18396692928E-02  0.12915200129E-01  0.16603932957E-01  0.21121990629E-01  0.51100000000E-03 0. -1.
</event>
<event>
 8    1  0.1176534E+005  0.1043930E+01  0.7957747E-01            NaN
         13   -1    0    0    0    0  0.00000000000E+00  0.00000000000E+00  0.74505805969E-08  0.10566000000E+00  0.10566000000E+00 0. -1.
     999900   -1    0    0    0    0 -0.00000000000E+00 -0.00000000000E+00 -0.74505805969E-08  0.93827000000E+00  0.93827000000E+00 0. -1.
     999902    2    1    2    0    0  0.23183665074E-01 -0.62860396395E-02  0.15174306059E-03  0.10199087668E+01  0.10196258494E+01 0.  0.
     999903    2    3    3    0    0 -0.14754487157E-01  0.12159974804E+00  0.35344915897E-01  0.12916040863E+00  0.20711215881E-01 0.  0.
         14    1    1    2    0    0 -0.23183665074E-01  0.62860396395E-02 -0.15174306059E-03  0.24021233244E-01  0.00000000000E+00 0.  1.
     999901    1    3    3    0    0  0.37938152230E-01 -0.12788578768E+00 -0.35193172837E-01  0.89074835812E+00  0.88000000000E+00 0.  1.
        -11    1    4    4    0    0 -0.14669447715E-01  0.39815546690E-01  0.12826616397E-01  0.44331181618E-01  0.51100000000E-03 0. -1.
         11    1    4    4    0    0 -0.85039441690E-04  0.81784201352E-01  0.22518299501E-01  0.84829227014E-01  0.51100000000E-03 0.  1.
</event>
<event>
 8    1  0.1176534E+005  0.1043930E+01  0.7957747E-01            NaN
         13   -1    0    0    0    0  0.00000000000E+00  0.00000000000E+00  0.74505805969E-08  0.10566000000E+00  0.10566000000E+00 0.  1.
     999900   -1    0    0    0    0 -0.00000000000E+00 -0.00000000000E+00 -0.74505805969E-08  0.93827000000E+00  0.93827000000E+00 0. -1.
     999902    2    1    2    0    0 -0.14474574361E-01  0.10368266886E-01 -0.61993956505E-02  0.10250767041E+01  0.10249033137E+01 0.  0.
     999903    2    3    3    0    0 -0.76772380531E-01  0.87156903033E-01 -0.70471051046E-01  0.13720939586E+00  0.19233437490E-01 0.  0.
         14    1    1    2    0    0  0.14474574361E-01 -0.10368266886E-01  0.61993956505E-02  0.18853295934E-01  0.00000000000E+00 0.  1.
     999901    1    3    3    0    0  0.62297806169E-01 -0.76788636147E-01  0.64271655396E-01  0.88786730821E+00  0.88000000000E+00 0.  1.
        -11    1    4    4    0    0 -0.43298818612E-01  0.61498035032E-01 -0.50069540049E-01  0.90354944346E-01  0.51100000000E-03 0. -1.
         11    1    4    4    0    0 -0.33473561918E-01  0.25658868001E-01 -0.20401510997E-01  0.46854451513E-01  0.51100000000E-03 0.  1.
</event>
<event>
 8    1  0.1176534E+005  0.1043930E+01  0.7957747E-01            NaN
         13   -1    0    0    0    0  0.00000000000E+00  0.00000000000E+00  0.74505805969E-08  0.10566000000E+00  0.10566000000E+00 0. -1.
     999900   -1    0    0    0    0 -0.00000000000E+00 -0.00000000000E+00 -0.74505805969E-08  0.93827000000E+00  0.93827000000E+00 0.  1.
     999902    2    1    2    0    0 -0.16387551595E-01  0.16292842579E-01 -0.24435362651E-02  0.10206925424E+01  0.10204279919E+01 0.  0.
     999903    2    3    3    0    0 -0.82153254340E-01  0.66129933346E-01 -0.79654412292E-01  0.13346631270E+00  0.18603922859E-01 0.  0.
         14    1    1    2    0    0  0.16387551595E-01 -0.16292842579E-01  0.24435362651E-02  0.23237457608E-01  0.00000000000E+00 0. -1.
     999901    1    3    3    0    0  0.65765702745E-01 -0.49837090767E-01  0.77210876027E-01  0.88722622969E+00  0.88000000000E+00 0. -1.
        -11    1    4    4    0    0 -0.17424503382E-01  0.58614822744E-02 -0.17321786533E-01  0.25264118870E-01  0.51100000000E-03 0.  1.
         11    1    4    4    0    0 -0.64728750958E-01  0.60268451072E-01 -0.62332625758E-01  0.10820219383E+00  0.51100000000E-03 0. -1.
</event>
<event>
 8    1  0.1176534E+005  0.1043930E+01  0.7957747E-01            NaN
         13   -1    0    0    0    0  0.00000000000E+00  0.00000000000E+00  0.74505805969E-08  0.10566000000E+00  0.10566000000E+00 0.  1.
     999900   -1    0    0    0    0 -0.00000000000E+00 -0.00000000000E+00 -0.74505805969E-08  0.93827000000E+00  0.93827000000E+00 0. -1.
     999902    2    1    2    0    0 -0.33174557999E-02  0.24851966232E-01 -0.48007754259E-02  0.10184021097E+01  0.10180821106E+01 0.  0.
     999903    2    3    3    0    0 -0.12743913167E+00  0.34956567681E-02 -0.12669013918E-01  0.12940031468E+00  0.18193010427E-01 0.  0.
         14    1    1    2    0    0  0.33174557999E-02 -0.24851966232E-01  0.48007754259E-02  0.25527890302E-01  0.00000000000E+00 0.  1.
     999901    1    3    3    0    0  0.12412167587E+00  0.21356309464E-01  0.78682384923E-02  0.88900179502E+00  0.88000000000E+00 0. -1.
        -11    1    4    4    0    0 -0.28998868305E-01  0.35084361967E-02 -0.10145794042E-01  0.30926392374E-01  0.51100000000E-03 0. -1.
         11    1    4    4    0    0 -0.98440263362E-01 -0.12779428568E-04 -0.25232198761E-02  0.98473922302E-01  0.51100000000E-03 0.  1.
</event>
<event>
 8    1  0.1176534E+005  0.1043930E+01  0.7957747E-01            NaN
         13   -1    0    0    0    0  0.00000000000E+00  0.00000000000E+00  0.74505805969E-08  0.10566000000E+00  0.10566000000E+00 0. -1.
     999900   -1    0    0    0    0 -0.00000000000E+00 -0.00000000000E+00 -0.74505805969E-08  0.93827000000E+00  0.93827000000E+00 0.  1.
     999902    2    1    2    0    0  0.23316216232E-01 -0.25695648420E-02  0.71498028393E-02  0.10194071885E+01  0.10191121860E+01 0.  0.
     999903    2    3    3    0    0  0.45790729673E-02  0.91461627369E-01  0.90634163196E-01  0.13027132483E+00  0.19231987559E-01 0.  0.
         14    1    1    2    0    0 -0.23316216232E-01  0.25695648420E-02 -0.71498028393E-02  0.24522811493E-01  0.00000000000E+00 0.  1.
     999901    1    3    3    0    0  0.18737143265E-01 -0.94031192211E-01 -0.83484360357E-01  0.88913586367E+00  0.88000000000E+00 0.  1.
        -11    1    4    4    0    0  0.24175100028E-03  0.58608360662E-01  0.69714560196E-01  0.91078973465E-01  0.51100000000E-03 0.  1.
         11    1    4    4    0    0  0.43373219670E-02  0.32853266707E-01  0.20919603000E-01  0.39192351369E-01  0.51100000000E-03 0. -1.
</event>
<event>
 8    1  0.1176534E+005  0.1043930E+01  0.7957747E-01            NaN
         13   -1    0    0    0    0  0.00000000000E+00  0.00000000000E+00  0.74505805969E-08  0.10566000000E+00  0.10566000000E+00 0. -1.
     999900   -1    0    0    0    0 -0.00000000000E+00 -0.00000000000E+00 -0.74505805969E-08  0.93827000000E+00  0.93827000000E+00 0. -1.
     999902    2    1    2    0    0 -0.24601081505E-01 -0.22086442320E-02 -0.99001915156E-02  0.10173197555E+01  0.10169716711E+01 0.  0.
     999903    2    3    3    0    0 -0.98001111919E-01 -0.83906231326E-01 -0.98433388384E-04  0.13043862780E+00  0.19228945376E-01 0.  0.
         14    1    1    2    0    0  0.24601081505E-01  0.22086442320E-02  0.99001915156E-02  0.26610244505E-01  0.00000000000E+00 0. -1.
     999901    1    3    3    0    0  0.73400030414E-01  0.81697587094E-01 -0.98017581272E-02  0.88688112770E+00  0.88000000000E+00 0. -1.
        -11    1    4    4    0    0 -0.29817597097E-01 -0.35221680679E-01 -0.55273012245E-02  0.46480835473E-01  0.51100000000E-03 0.  1.
         11    1    4    4    0    0 -0.68183514823E-01 -0.48684550647E-01  0.54288678362E-02  0.83957792326E-01  0.51100000000E-03 0. -1.
</event>
<event>
 8    1  0.1263534E+005  0.1043930E+01  0.7957747E-01            NaN
         13   -1    0    0    0    0  0.00000000000E+00  0.00000000000E+00  0.74505805969E-08  0.10566000000E+00  0.10566000000E+00 0. -1.
     999900   -1    0    0    0    0 -0.00000000000E+00 -0.00000000000E+00 -0.74505805969E-08  0.93827000000E+00  0.93827000000E+00 0.  1.
     999902    2    1    2    0    0 -0.86483388628E-02  0.12477325660E-01  0.18107488469E-01  0.10203003881E+01  0.10200267268E+01 0.  0.
     999903    2    3    3    0    0  0.23381729940E-01  0.82662541566E-02 -0.12420341531E+00  0.12828242203E+00  0.20367993862E-01 0.  0.
         14    1    1    2    0    0  0.86483388628E-02 -0.12477325660E-01 -0.18107488469E-01  0.23629611917E-01  0.00000000000E+00 0.  1.
     999901    1    3    3    0    0 -0.32030068803E-01  0.42110715038E-02  0.14231090378E+00  0.89201796605E+00  0.88000000000E+00 0. -1.
        -11    1    4    4    0    0  0.43239069511E-02 -0.36739976664E-02 -0.59657166151E-01  0.59928566013E-01  0.51100000000E-03 0. -1.
         11    1    4    4    0    0  0.19057822989E-01  0.11940251823E-01 -0.64546249159E-01  0.68353856015E-01  0.51100000000E-03 0.  1.
</event>
<event>
 8    1  0.1176534E+005  0.1043930E+01  0.7957747E-01            NaN
         13   -1    0    0    0    0  0.00000000000E+00  0.00000000000E+00  0.74505805969E-08  0.10566000000E+00  0.10566000000E+00 0.  1.
     999900   -1    0    0    0    0 -0.00000000000E+00 -0.00000000000E+00 -0.74505805969E-08  0.93827000000E+00  0.93827000000E+00 0.  1.
     999902    2    1    2    0    0 -0.18623332861E-01  0.77770316130E-02  0.18219786727E-01  0.10167404547E+01  0.10163768399E+01 0.  0.
     999903    2    3    3    0    0  0.48795390258E-02 -0.85001825066E-01  0.93911517444E-01  0.12832076817E+00  0.19943075747E-01 0.  0.
         14    1    1    2    0    0  0.18623332861E-01 -0.77770316130E-02 -0.18219786727E-01  0.27189545343E-01  0.00000000000E+00 0. -1.
     999901    1    3    3    0    0 -0.23502871887E-01  0.92778856679E-01 -0.75691730716E-01  0.88841968648E+00  0.88000000000E+00 0.  1.
        -11    1    4    4    0    0 -0.36725414524E-02 -0.56983584213E-01  0.52339468576E-01  0.77461587398E-01  0.51100000000E-03 0.  1.
         11    1    4    4    0    0  0.85520804781E-02 -0.28018240854E-01  0.41572048867E-01  0.50859180775E-01  0.51100000000E-03 0. -1.
</event>
<event>
 8    1  0.1176534E+005  0.1043930E+01  0.7957747E-01            NaN
         13   -1    0    0    0    0  0.00000000000E+00  0.00000000000E+00  0.74505805969E-08  0.10566000000E+00  0.10566000000E+00 0. -1.
     999900   -1    0    0    0    0 -0.00000000000E+00 -0.00000000000E+00 -0.74505805969E-08  0.93827000000E+00  0.93827000000E+00 0.  1.
     999902    2    1    2    0    0 -0.20330126553E-01  0.14221079983E-02  0.10007935856E-01  0.10212254803E+01  0.10209730586E+01 0.  0.
     999903    2    3    3    0    0  0.72439983634E-02  0.12867395871E+00 -0.15017684493E-01  0.13129309656E+00  0.20071950413E-01 0.  0.
         14    1    1    2    0    0  0.20330126553E-01 -0.14221079983E-02 -0.10007935856E-01  0.22704519747E-01  0.00000000000E+00 0.  1.
     999901    1    3    3    0    0 -0.27574124917E-01 -0.12725185071E+00  0.25025620349E-01  0.88993238369E+00  0.88000000000E+00 0. -1.
        -11    1    4    4    0    0 -0.30362550538E-02  0.40449568378E-01 -0.12446730393E-01  0.42433107890E-01  0.51100000000E-03 0.  1.
         11    1    4    4    0    0  0.10280253417E-01  0.88224390334E-01 -0.25709540998E-02  0.88859988668E-01  0.51100000000E-03 0. -1.
</event>
<event>
 8    1  0.1176534E+005  0.1043930E+01  0.7957747E-01            NaN
         13   -1    0    0    0    0  0.00000000000E+00  0.00000000000E+00  0.74505805969E-08  0.10566000000E+00  0.10566000000E+00 0.  1.
     999900   -1    0    0    0    0 -0.00000000000E+00 -0.00000000000E+00 -0.74505805969E-08  0.93827000000E+00  0.93827000000E+00 0. -1.
     999902    2    1    2    0    0 -0.54619950346E-03 -0.31587039069E-01 -0.52413122484E-02  0.10119064036E+01  0.10113995546E+01 0.  0.
     999903    2    3    3    0    0 -0.28333116007E-02 -0.11507295950E+00 -0.49477153074E-01  0.12684598794E+00  0.19801573609E-01 0.  0.
         14    1    1    2    0    0  0.54619950346E-03  0.31587039069E-01  0.52413122484E-02  0.32023596380E-01  0.00000000000E+00 0.  1.
     999901    1    3    3    0    0  0.22871120973E-02  0.83485920430E-01  0.44235840825E-01  0.88506041568E+00  0.88000000000E+00 0.  1.
        -11    1    4    4    0    0 -0.52564322160E-02 -0.71494391123E-01 -0.40309596455E-01  0.82244773263E-01  0.51100000000E-03 0.  1.
         11    1    4    4    0    0  0.24231206153E-02 -0.43578568376E-01 -0.91675566189E-02  0.44601214676E-01  0.51100000000E-03 0. -1.
</event>
<event>
 8    1  0.1176534E+005  0.1043930E+01  0.7957747E-01            NaN
         13   -1    0    0    0    0  0.00000000000E+00  0.00000000000E+00  0.74505805969E-08  0.10566000000E+00  0.10566000000E+00 0.  1.
     999900   -1    0    0    0    0 -0.00000000000E+00 -0.00000000000E+00 -0.74505805969E-08  0.93827000000E+00  0.93827000000E+00 0. -1.
     999902    2    1    2    0    0  0.14129007179E-01  0.17150704822E-01 -0.26309823692E-02  0.10215537271E+01  0.10213086310E+01 0.  0.
     999903    2    3    3    0    0  0.30791461705E-01 -0.67427771373E-01  0.10577426545E+00  0.13072105272E+00  0.20129081617E-01 0.  0.
         14    1    1    2    0    0 -0.14129007179E-01 -0.17150704822E-01  0.26309823692E-02  0.22376272880E-01  0.00000000000E+00 0. -1.
     999901    1    3    3    0    0 -0.16662454526E-01  0.84578476196E-01 -0.10840524782E+00  0.89083267440E+00  0.88000000000E+00 0. -1.
        -11    1    4    4    0    0  0.18294605416E-01 -0.58781676775E-01  0.83101808629E-01  0.10342219215E+00  0.51100000000E-03 0. -1.
         11    1    4    4    0    0  0.12496856289E-01 -0.86460945989E-02  0.22672456819E-01  0.27298860564E-01  0.51100000000E-03 0.  1.
</event>
<event>
 8    1  0.1176534E+005  0.1043930E+01  0.7957747E-01            NaN
         13   -1    0    0    0    0  0.00000000000E+00  0.00000000000E+00  0.74505805969E-08  0.10566000000E+00  0.10566000000E+00 0.  1.
     999900   -1    0    0    0    0 -0.00000000000E+00 -0.00000000000E+00 -0.74505805969E-08  0.93827000000E+00  0.93827000000E+00 0. -1.
     999902    2    1    2    0    0  0.15264582630E-01 -0.20947488666E-01 -0.10657372986E-02  0.10179889021E+01  0.10176583239E+01 0.  0.
     999903    2    3    3    0    0  0.60901779081E-01 -0.27950468580E-01  0.10943180468E+00  0.12987770286E+00  0.20065952146E-01 0.  0.
         14    1    1    2    0    0 -0.15264582630E-01  0.20947488666E-01  0.10657372986E-02  0.25941097900E-01  0.00000000000E+00 0.  1.
     999901    1    3    3    0    0 -0.45637196452E-01  0.70029799135E-02 -0.11049754198E+00  0.88811119924E+00  0.88000000000E+00 0. -1.
        -11    1    4    4    0    0  0.13535847030E-01 -0.12227833785E-01  0.17563798140E-01  0.25327597596E-01  0.51100000000E-03 0. -1.
         11    1    4    4    0    0  0.47365932051E-01 -0.15722634794E-01  0.91868006543E-01  0.10455010527E+00  0.51100000000E-03 0.  1.
</event>
<event>
 8    1  0.1176534E+005  0.1043930E+01  0.7957747E-01            NaN
         13   -1    0    0    0    0  0.00000000000E+00  0.00000000000E+00  0.74505805969E-08  0.10566000000E+00  0.10566000000E+00 0.  1.
     999900   -1    0    0    0    0 -0.00000000000E+00 -0.00000000000E+00 -0.74505805969E-08  0.93827000000E+00  0.93827000000E+00 0.  1.
     999902    2    1    2    0    0 -0.14336614032E-02 -0.51614573384E-02 -0.22563322640E-01  0.10207394943E+01  0.10204760240E+01 0.  0.
     999903    2    3    3    0    0 -0.70198674786E-01 -0.10807272853E+00 -0.21203605206E-01  0.13207690047E+00  0.19676030361E-01 0.  0.
         14    1    1    2    0    0  0.14336614032E-02  0.51614573384E-02  0.22563322640E-01  0.23190505717E-01  0.00000000000E+00 0.  1.
     999901    1    3    3    0    0  0.68765013383E-01  0.10291127119E+00 -0.13597174339E-02  0.88866259381E+00  0.88000000000E+00 0. -1.
        -11    1    4    4    0    0 -0.68015595715E-01 -0.93711765065E-01 -0.19794506390E-01  0.11747382592E+00  0.51100000000E-03 0. -1.
         11    1    4    4    0    0 -0.21830790713E-02 -0.14360963467E-01 -0.14090988159E-02  0.14603074553E-01  0.51100000000E-03 0.  1.
</event>
<event>
 8    1  0.1176534E+005  0.1043930E+01  0.7957747E-01            NaN
         13   -1    0    0    0    0  0.00000000000E+00  0.00000000000E+00  0.74505805969E-08  0.10566000000E+00  0.10566000000E+00 0. -1.
     999900   -1    0    0    0    0 -0.00000000000E+00 -0.00000000000E+00 -0.74505805969E-08  0.93827000000E+00  0.93827000000E+00 0.  1.
     999902    2    1    2    0    0 -0.16683133440E-01 -0.14326501440E-02  0.22808612964E-01  0.10156349076E+01  0.10152406874E+01 0.  0.
     999903    2    3    3    0    0  0.90181292731E-01  0.38405313472E-01  0.77780453925E-01  0.12657418290E+00  0.19068065005E-01 0.  0.
         14    1    1    2    0    0  0.16683133440E-01  0.14326501440E-02 -0.22808612964E-01  0.28295092387E-01  0.00000000000E+00 0.  1.
     999901    1    3    3    0    0 -0.10686442617E+00 -0.39837963616E-01 -0.54971840961E-01  0.88906072471E+00  0.88000000000E+00 0. -1.
        -11    1    4    4    0    0  0.66510744402E-01  0.32985823500E-01  0.66983974072E-01  0.99994287718E-01  0.51100000000E-03 0.  1.
         11    1    4    4    0    0  0.23670548329E-01  0.54194899715E-02  0.10796479854E-01  0.26579895184E-01  0.51100000000E-03 0. -1.
</event>
<event>
 8    1  0.1176534E+005  0.1043930E+01  0.7957747E-01            NaN
         13   -1    0    0    0    0  0.00000000000E+00  0.00000000000E+00  0.74505805969E-08  0.10566000000E+00  0.10566000000E+00 0.  1.
     999900   -1    0    0    0    0 -0.00000000000E+00 -0.00000000000E+00 -0.74505805969E-08  0.93827000000E+00  0.93827000000E+00 0.  1.
     999902    2    1    2    0    0 -0.24096680856E-01  0.40722703135E-02  0.13130215314E-02  0.10194563930E+01  0.10191625875E+01 0.  0.
     999903    2    3    3    0    0 -0.10578831181E+00 -0.10583565332E-01  0.76193013627E-01  0.13238518431E+00  0.20427504195E-01 0.  0.
         14    1    1    2    0    0  0.24096680856E-01 -0.40722703135E-02 -0.13130215314E-02  0.24473606995E-01  0.00000000000E+00 0. -1.
     999901    1    3    3    0    0  0.81691630953E-01  0.14655835646E-01 -0.74879992095E-01  0.88707120870E+00  0.88000000000E+00 0.  1.
        -11    1    4    4    0    0 -0.46682186140E-01  0.33411048631E-02  0.25618596120E-01  0.53356940248E-01  0.51100000000E-03 0. -1.
         11    1    4    4    0    0 -0.59106125670E-01 -0.13924670195E-01  0.50574417507E-01  0.79028244058E-01  0.51100000000E-03 0.  1.
</event>
<event>
 8    1  0.1176534E+005  0.1043930E+01  0.7957747E-01            NaN
         13   -1    0    0    0    0  0.00000000000E+00  0.00000000000E+00  0.74505805969E-08  0.10566000000E+00  0.10566000000E+00 0.  1.
     999900   -1    0    0    0    0 -0.00000000000E+00 -0.00000000000E+00 -0.74505805969E-08  0.93827000000E+00  0.93827000000E+00 0. -1.
     999902    2    1    2    0    0 -0.48090319258E-02 -0.20896362987E-01 -0.13272964985E-01  0.10187118245E+01  0.10183996392E+01 0.  0.
     999903    2    3    3    0    0 -0.11630320132E+00  0.39274961961E-01 -0.35684142650E-01  0.12935599078E+00  0.19765045921E-01 0.  0.
         14    1    1    2    0    0  0.48090319258E-02  0.20896362987E-01  0.13272964985E-01  0.25218175462E-01  0.00000000000E+00 0. -1.
     999901    1    3    3    0    0  0.11149416939E+00 -0.60171324948E-01  0.22411177665E-01  0.88935583376E+00  0.88000000000E+00 0. -1.
        -11    1    4    4    0    0 -0.66247698861E-01  0.15479626364E-01 -0.12011047989E-01  0.69086198560E-01  0.51100000000E-03 0.  1.
         11    1    4    4    0    0 -0.50055502457E-01  0.23795335597E-01 -0.23673094661E-01  0.60269792220E-01  0.51100000000E-03 0. -1.
</event>
<event>
 8    1  0.1176534E+005  0.1043930E+01  0.7957747E-01            NaN
         13   -1    0    0    0    0  0.00000000000E+00  0.00000000000E+00  0.74505805969E-08  0.10566000000E+00  0.10566000000E+00 0.  1.
     999900   -1    0    0    0    0 -0.00000000000E+00 -0.00000000000E+00 -0.74505805969E-08  0.93827000000E+00  0.93827000000E+00 0. -1.
     999902    2    1    2    0    0  0.23625448893E-01 -0.19265889778E-02  0.21412055740E-01  0.10119870867E+01  0.10114828293E+01 0.  0.
     999903    2    3    3    0    0  0.77832016510E-01  0.18714515899E-01 -0.91191712097E-01  0.12291790168E+00  0.19616990051E-01 0.  0.
         14    1    1    2    0    0 -0.23625448893E-01  0.19265889778E-02 -0.21412055740E-01  0.31942913322E-01  0.00000000000E+00 0. -1.
     999901    1    3    3    0    0 -0.54206567617E-01 -0.20641104877E-01  0.11260376784E+00  0.88906918500E+00  0.88000000000E+00 0.  1.
        -11    1    4    4    0    0  0.59894222990E-01  0.11159837677E-01 -0.56276300305E-01  0.82940599356E-01  0.51100000000E-03 0.  1.
         11    1    4    4    0    0  0.17937793520E-01  0.75546782219E-02 -0.34915411792E-01  0.39977302323E-01  0.51100000000E-03 0. -1.
</event>
<event>
 8    1  0.1176534E+005  0.1043930E+01  0.7957747E-01            NaN
         13   -1    0    0    0    0  0.00000000000E+00  0.00000000000E+00  0.74505805969E-08  0.10566000000E+00  0.10566000000E+00 0. -1.
     999900   -1    0    0    0    0 -0.00000000000E+00 -0.00000000000E+00 -0.74505805969E-08  0.93827000000E+00  0.93827000000E+00 0. -1.
     999902    2    1    2    0    0 -0.21786003500E-01  0.10485256088E-01 -0.11112760743E-02  0.10197265813E+01  0.10194393043E+01 0.  0.
     999903    2    3    3    0    0 -0.50461566167E-01 -0.11134989391E+00 -0.39377076224E-01  0.13004665954E+00  0.20406150811E-01 0.  0.
         14    1    1    2    0    0  0.21786003500E-01 -0.10485256088E-01  0.11112760743E-02  0.24203418730E-01  0.00000000000E+00 0.  1.
     999901    1    3    3    0    0  0.28675562667E-01  0.12183515000E+00  0.38265800150E-01  0.88967992173E+00  0.88000000000E+00 0. -1.
        -11    1    4    4    0    0 -0.44248165515E-01 -0.78352903359E-01 -0.24115732287E-01  0.93160653073E-01  0.51100000000E-03 0.  1.
         11    1    4    4    0    0 -0.62134006521E-02 -0.32996990553E-01 -0.15261343937E-01  0.36886006466E-01  0.51100000000E-03 0. -1.
</event>
<event>
 8    1  0.1176534E+005  0.1043930E+01  0.7957747E-01            NaN
         13   -1    0    0    0    0  0.00000000000E+00  0.00000000000E+00  0.74505805969E-08  0.10566000000E+00  0.10566000000E+00 0. -1.
     999900   -1    0    0    0    0 -0.00000000000E+00 -0.00000000000E+00 -0.74505805969E-08  0.93827000000E+00  0.93827000000E+00 0. -1.
     999902    2    1    2    0    0 -0.13595179247E-01 -0.19619383603E-01  0.63351679932E-02  0.10192341812E+01  0.10189349502E+01 0.  0.
     999903    2    3    3    0    0 -0.71897279577E-01  0.52817865973E-01 -0.91355848235E-01  0.12895904134E+00  0.18044322137E-01 0.  0.
         14    1    1    2    0    0  0.13595179247E-01  0.19619383603E-01 -0.63351679932E-02  0.24695818780E-01  0.00000000000E+00 0.  1.
     999901    1    3    3    0    0  0.58302100330E-01 -0.72437249576E-01  0.97691016228E-01  0.89027513988E+00  0.88000000000E+00 0.  1.
        -11    1    4    4    0    0 -0.35443610559E-01  0.22670180034E-01 -0.55246890373E-01  0.69445421801E-01  0.51100000000E-03 0. -1.
         11    1    4    4    0    0 -0.36453669018E-01  0.30147685939E-01 -0.36108957862E-01  0.59513619544E-01  0.51100000000E-03 0.  1.
</event>
<event>
 8    1  0.1176534E+005  0.1043930E+01  0.7957747E-01            NaN
         13   -1    0    0    0    0  0.00000000000E+00  0.00000000000E+00  0.74505805969E-08  0.10566000000E+00  0.10566000000E+00 0.  1.
     999900   -1    0    0    0    0 -0.00000000000E+00 -0.00000000000E+00 -0.74505805969E-08  0.93827000000E+00  0.93827000000E+00 0.  1.
     999902    2    1    2    0    0  0.16170175205E-01  0.79524966765E-02 -0.13603471667E-01  0.10213518865E+01  0.10211022989E+01 0.  0.
     999903    2    3    3    0    0 -0.80634399600E-01 -0.10427897309E-01  0.98006535253E-01  0.12884655974E+00  0.19634346509E-01 0.  0.
         14    1    1    2    0    0 -0.16170175205E-01 -0.79524966765E-02  0.13603471667E-01  0.22578113538E-01  0.00000000000E+00 0.  1.
     999901    1    3    3    0    0  0.96804574805E-01  0.18380393985E-01 -0.11161000692E+00  0.89250532672E+00  0.88000000000E+00 0.  1.
        -11    1    4    4    0    0 -0.54515619521E-01 -0.14170500732E-01  0.57438069138E-01  0.80449666066E-01  0.51100000000E-03 0.  1.
         11    1    4    4    0    0 -0.26118780078E-01  0.37426034231E-02  0.40568466115E-01  0.48396893672E-01  0.51100000000E-03 0. -1.
</event>
<event>
 8    1  0.1176534E+005  0.1043930E+01  0.7957747E-01            NaN
         13   -1    0    0    0    0  0.00000000000E+00  0.00000000000E+00  0.74505805969E-08  0.10566000000E+00  0.10566000000E+00 0.  1.
     999900   -1    0    0    0    0 -0.00000000000E+00 -0.00000000000E+00 -0.74505805969E-08  0.93827000000E+00  0.93827000000E+00 0.  1.
     999902    2    1    2    0    0  0.82943666537E-02  0.21820888897E-02  0.24945289372E-01  0.10175514956E+01  0.10172095265E+01 0.  0.
     999903    2    3    3    0    0  0.49702368306E-01 -0.96027214604E-02  0.11965865179E+00  0.13142276607E+00  0.19779100564E-01 0.  0.
         14    1    1    2    0    0 -0.82943666537E-02 -0.21820888897E-02 -0.24945289372E-01  0.26378504354E-01  0.00000000000E+00 0. -1.
     999901    1    3    3    0    0 -0.41408001653E-01  0.11784810350E-01 -0.94713362418E-01  0.88612872957E+00  0.88000000000E+00 0.  1.
        -11    1    4    4    0    0  0.32286484138E-01  0.20142046920E-02  0.84740760348E-01  0.90706844636E-01  0.51100000000E-03 0.  1.
         11    1    4    4    0    0  0.17415884169E-01 -0.11616926152E-01  0.34917891442E-01  0.40715921436E-01  0.51100000000E-03 0. -1.
</event>
<event>
 8    1  0.1176534E+005  0.1043930E+01  0.7957747E-01            NaN
         13   -1    0    0    0    0  0.00000000000E+00  0.00000000000E+00  0.74505805969E-08  0.10566000000E+00  0.10566000000E+00 0. -1.
     999900   -1    0    0    0    0 -0.00000000000E+00 -0.00000000000E+00 -0.74505805969E-08  0.93827000000E+00  0.93827000000E+00 0.  1.
     999902    2    1    2    0    0 -0.23701537322E-01  0.31650327912E-02 -0.30947350725E-02  0.10198186398E+01  0.10195335701E+01 0.  0.
     999903    2    3    3    0    0  0.11509231670E+00 -0.47185831935E-01  0.18324341451E-01  0.12726179552E+00  0.19673307075E-01 0.  0.
         14    1    1    2    0    0  0.23701537322E-01 -0.31650327912E-02  0.30947350725E-02  0.24111360168E-01  0.00000000000E+00 0. -1.
     999901    1    3    3    0    0 -0.13879385402E+00  0.50350864726E-01 -0.21419076524E-01  0.89255684431E+00  0.88000000000E+00 0. -1.
        -11    1    4    4    0    0  0.70910797782E-01 -0.31243251284E-01  0.19430595687E-02  0.77514634711E-01  0.51100000000E-03 0.  1.
         11    1    4    4    0    0  0.44181518913E-01 -0.15942580651E-01  0.16381281882E-01  0.49747160807E-01  0.51100000000E-03 0. -1.
</event>
<event>
 8    1  0.1176534E+005  0.1043930E+01  0.7957747E-01            NaN
         13   -1    0    0    0    0  0.00000000000E+00  0.00000000000E+00  0.74505805969E-08  0.10566000000E+00  0.10566000000E+00 0.  1.
     999900   -1    0    0    0    0 -0.00000000000E+00 -0.00000000000E+00 -0.74505805969E-08  0.93827000000E+00  0.93827000000E+00 0.  1.
     999902    2    1    2    0    0 -0.16256985401E-01 -0.15252138198E-01  0.92867671215E-02  0.10197812663E+01  0.10194953015E+01 0.  0.
     999903    2    3    3    0    0 -0.98254562812E-01 -0.79542545025E-01 -0.35762095254E-01  0.13248973639E+00  0.17135553969E-01 0.  0.
         14    1    1    2    0    0  0.16256985401E-01  0.15252138198E-01 -0.92867671215E-02  0.24148733662E-01  0.00000000000E+00 0.  1.
     999901    1    3    3    0    0  0.81997577412E-01  0.64290406827E-01  0.45048862376E-01  0.88729152995E+00  0.88000000000E+00 0. -1.
        -11    1    4    4    0    0 -0.53683567656E-01 -0.54231915166E-01 -0.20969424003E-01  0.79139142798E-01  0.51100000000E-03 0.  1.
         11    1    4    4    0    0 -0.44570995156E-01 -0.25310629859E-01 -0.14792671251E-01  0.53350593594E-01  0.51100000000E-03 0. -1.
</event>
<event>
 8    1  0.1176534E+005  0.1043930E+01  0.7957747E-01            NaN
         13   -1    0    0    0    0  0.00000000000E+00  0.00000000000E+00  0.74505805969E-08  0.10566000000E+00  0.10566000000E+00 0. -1.
     999900   -1    0    0    0    0 -0.00000000000E+00 -0.00000000000E+00 -0.74505805969E-08  0.93827000000E+00  0.93827000000E+00 0. -1.
     999902    2    1    2    0    0  0.19356046496E-01 -0.87940357456E-02 -0.97214971434E-02  0.10205526796E+01  0.10202848979E+01 0.  0.
     999903    2    3    3    0    0  0.36181262185E-01  0.11116768615E+00  0.53107052964E-01  0.13003522932E+00  0.20529579020E-01 0.  0.
         14    1    1    2    0    0 -0.19356046496E-01  0.87940357456E-02  0.97214971434E-02  0.23377320363E-01  0.00000000000E+00 0. -1.
     999901    1    3    3    0    0 -0.16825215689E-01 -0.11996172189E+00 -0.62828550107E-01  0.89051745031E+00  0.88000000000E+00 0. -1.
        -11    1    4    4    0    0  0.10706356694E-02  0.27633111984E-01  0.17168368364E-01  0.32553788288E-01  0.51100000000E-03 0. -1.
         11    1    4    4    0    0  0.35110626516E-01  0.83534574162E-01  0.35938684600E-01  0.97481441036E-01  0.51100000000E-03 0.  1.
</event>
<event>
 8    1  0.1176534E+005  0.1043930E+01  0.7957747E-01            NaN
         13   -1    0    0    0    0  0.00000000000E+00  0.00000000000E+00  0.74505805969E-08  0.10566000000E+00  0.10566000000E+00 0.  1.
     999900   -1    0    0    0    0 -0.00000000000E+00 -0.00000000000E+00 -0.74505805969E-08  0.93827000000E+00  0.93827000000E+00 0. -1.
     999902    2    1    2    0    0 -0.11993603459E-02 -0.27117282104E-01  0.40683454618E-02  0.10164830168E+01  0.10161123887E+01 0.  0.
     999903    2    3    3    0    0 -0.35538116111E-01 -0.31652328983E-01  0.11776695949E+00  0.12849253729E+00  0.19402261893E-01 0.  0.
         14    1    1    2    0    0  0.11993603459E-02  0.27117282104E-01 -0.40683454618E-02  0.27446983236E-01  0.00000000000E+00 0. -1.
     999901    1    3    3    0    0  0.34338755765E-01  0.45350468785E-02 -0.11369861403E+00  0.88799047947E+00  0.88000000000E+00 0. -1.
        -11    1    4    4    0    0 -0.24355644863E-01 -0.10563591504E-01  0.49518424023E-01  0.56188275831E-01  0.51100000000E-03 0. -1.
         11    1    4    4    0    0 -0.11182471248E-01 -0.21088737478E-01  0.68248535465E-01  0.72304261463E-01  0.51100000000E-03 0.  1.
</event>
<event>
 8    1  0.1176534E+005  0.1043930E+01  0.7957747E-01            NaN
         13   -1    0    0    0    0  0.00000000000E+00  0.00000000000E+00  0.74505805969E-08  0.10566000000E+00  0.10566000000E+00 0.  1.
     999900   -1    0    0    0    0 -0.00000000000E+00 -0.00000000000E+00 -0.74505805969E-08  0.93827000000E+00  0.93827000000E+00 0.  1.
     999902    2    1    2    0    0 -0.16968692042E-01 -0.15101226115E-01 -0.59380145528E-02  0.10204514235E+01  0.10201812898E+01 0.  0.
     999903    2    3    3    0    0 -0.12361702620E+00  0.41905479574E-01  0.29051575535E-02  0.13213738362E+00  0.20361970052E-01 0.  0.
         14    1    1    2    0    0  0.16968692042E-01  0.15101226115E-01  0.59380145528E-02  0.23478576546E-01  0.00000000000E+00 0.  1.
     999901    1    3    3    0    0  0.10664833416E+00 -0.57006705689E-01 -0.88431721064E-02  0.88831403983E+00  0.88000000000E+00 0. -1.
        -11    1    4    4    0    0 -0.10527675476E+00  0.38113238543E-01  0.92770091118E-02  0.11234828910E+00  0.51100000000E-03 0.  1.
         11    1    4    4    0    0 -0.18340271446E-01  0.37922410301E-02 -0.63718515583E-02  0.19789094522E-01  0.51100000000E-03 0. -1.
</event>
<event>
 8    1  0.1176534E+005  0.1043930E+01  0.7957747E-01            NaN
         13   -1    0    0    0    0  0.00000000000E+00  0.00000000000E+00  0.74505805969E-08  0.10566000000E+00  0.10566000000E+00 0.  1.
     999900   -1    0    0    0    0 -0.00000000000E+00 -0.00000000000E+00 -0.74505805969E-08  0.93827000000E+00  0.93827000000E+00 0. -1.
     999902    2    1    2    0    0  0.16480457348E-01  0.90004952168E-02 -0.94667380255E-02  0.10229006510E+01  0.10226844618E+01 0.  0.
     999903    2    3    3    0    0 -0.11344912355E+00 -0.38603652481E-01 -0.49485328677E-01  0.13118918512E+00  0.20021461430E-01 0.  0.
         14    1    1    2    0    0 -0.16480457348E-01 -0.90004952168E-02  0.94667380255E-02  0.21029348953E-01  0.00000000000E+00 0.  1.
     999901    1    3    3    0    0  0.12992958090E+00  0.47604147697E-01  0.40018590652E-01  0.89171146593E+00  0.88000000000E+00 0.  1.
        -11    1    4    4    0    0 -0.40712523306E-01 -0.40008802385E-02 -0.15146768887E-01  0.43625707162E-01  0.51100000000E-03 0.  1.
         11    1    4    4    0    0 -0.72736600247E-01 -0.34602772242E-01 -0.34338559790E-01  0.87563477956E-01  0.51100000000E-03 0. -1.
</event>
<event>
 8    1  0.1176534E+005  0.1043930E+01  0.7957747E-01            NaN
         13   -1    0    0    0    0  0.00000000000E+00  0.00000000000E+00  0.74505805969E-08  0.10566000000E+00  0.10566000000E+00 0. -1.
     999900   -1    0    0    0    0 -0.00000000000E+00 -0.00000000000E+00 -0.74505805969E-08  0.93827000000E+00  0.93827000000E+00 0. -1.
     999902    2    1    2    0    0  0.77051453533E-02 -0.13048085573E-01  0.18561287102E-01  0.10199687150E+01  0.10196872247E+01 0.  0.
     999903    2    3    3    0    0 -0.38339533244E-01 -0.11420803546E+00 -0.46393847996E-01  0.13060230146E+00  0.19778191033E-01 0.  0.
         14    1    1    2    0    0 -0.77051453533E-02  0.13048085573E-01 -0.18561287102E-01  0.23961285043E-01  0.00000000000E+00 0.  1.
     999901    1    3    3    0    0  0.46044678597E-01  0.10115994989E+00  0.64955135097E-01  0.88936641350E+00  0.88000000000E+00 0.  1.
        -11    1    4    4    0    0 -0.13073906900E-01 -0.52681852503E-01 -0.30311075959E-01  0.62171754612E-01  0.51100000000E-03 0. -1.
         11    1    4    4    0    0 -0.25265626344E-01 -0.61526182958E-01 -0.16082772036E-01  0.68430546844E-01  0.51100000000E-03 0.  1.
</event>
<event>
 8    1  0.1176534E+005  0.1043930E+01  0.7957747E-01            NaN
         13   -1    0    0    0    0  0.00000000000E+00  0.00000000000E+00  0.74505805969E-08  0.10566000000E+00  0.10566000000E+00 0. -1.
     999900   -1    0    0    0    0 -0.00000000000E+00 -0.00000000000E+00 -0.74505805969E-08  0.93827000000E+00  0.93827000000E+00 0. -1.
     999902    2    1    2    0    0  0.88226447626E-02  0.22399986471E-01  0.11496224670E-01  0.10172511388E+01  0.10169012330E+01 0.  0.
     999903    2    3    3    0    0 -0.81773952576E-01 -0.84639493225E-01  0.39812970845E-01  0.12569798177E+00  0.19081059694E-01 0.  0.
         14    1    1    2    0    0 -0.88226447626E-02 -0.22399986471E-01 -0.11496224670E-01  0.26678861223E-01  0.00000000000E+00 0.  1.
     999901    1    3    3    0    0  0.90596597339E-01  0.10703947970E+00 -0.28316746175E-01  0.89155315701E+00  0.88000000000E+00 0. -1.
        -11    1    4    4    0    0 -0.48764882344E-01 -0.43008043914E-01  0.13509870154E-01  0.66411469671E-01  0.51100000000E-03 0. -1.
         11    1    4    4    0    0 -0.33009070232E-01 -0.41631449311E-01  0.26303100690E-01  0.59286512094E-01  0.51100000000E-03 0.  1.
</event>
<event>
 8    1  0.1176534E+005  0.1043930E+01  0.7957747E-01            NaN
         13   -1    0    0    0    0  0.00000000000E+00  0.00000000000E+00  0.74505805969E-08  0.10566000000E+00  0.10566000000E+00 0. -1.
     999900   -1    0    0    0    0 -0.00000000000E+00 -0.00000000000E+00 -0.74505805969E-08  0.93827000000E+00  0.93827000000E+00 0. -1.
     999902    2    1    2    0    0  0.22492242093E-01 -0.18575196507E-02  0.58876478691E-02  0.10206058552E+01  0.10203393043E+01 0.  0.
     999903    2    3    3    0    0  0.38498923938E-01 -0.26072401607E-01 -0.12069362721E+00  0.13107485878E+00  0.21253933441E-01 0.  0.
         14    1    1    2    0    0 -0.22492242093E-01  0.18575196507E-02 -0.58876478691E-02  0.23324144809E-01  0.00000000000E+00 0. -1.
     999901    1    3    3    0    0 -0.16006681844E-01  0.24214881956E-01  0.12658127508E+00  0.88953099641E+00  0.88000000000E+00 0.  1.
        -11    1    4    4    0    0  0.18560806002E-01 -0.39318098197E-02 -0.67338732511E-01  0.69962337475E-01  0.51100000000E-03 0.  1.
         11    1    4    4    0    0  0.19938117936E-01 -0.22140591787E-01 -0.53354894696E-01  0.61112521307E-01  0.51100000000E-03 0. -1.
</event>
<event>
 8    1  0.1176534E+005  0.1043930E+01  0.7957747E-01            NaN
         13   -1    0    0    0    0  0.00000000000E+00  0.00000000000E+00  0.74505805969E-08  0.10566000000E+00  0.10566000000E+00 0. -1.
     999900   -1    0    0    0    0 -0.00000000000E+00 -0.00000000000E+00 -0.74505805969E-08  0.93827000000E+00  0.93827000000E+00 0. -1.
     999902    2    1    2    0    0  0.22113883763E-01  0.49007471512E-02  0.54914505483E-02  0.10206234085E+01  0.10203572633E+01 0.  0.
     999903    2    3    3    0    0  0.70040186697E-01  0.60248624492E-01  0.93807388206E-01  0.13317762263E+00  0.20023201063E-01 0.  0.
         14    1    1    2    0    0 -0.22113883763E-01 -0.49007471512E-02 -0.54914505483E-02  0.23306591489E-01  0.00000000000E+00 0.  1.
     999901    1    3    3    0    0 -0.47926302934E-01 -0.55347877340E-01 -0.88315937658E-01  0.88744578588E+00  0.88000000000E+00 0. -1.
        -11    1    4    4    0    0  0.38814345363E-01  0.25698648365E-01  0.35450241318E-01  0.58514567966E-01  0.51100000000E-03 0.  1.
         11    1    4    4    0    0  0.31225841334E-01  0.34549976127E-01  0.58357146888E-01  0.74663054660E-01  0.51100000000E-03 0. -1.
</event>
<event>
 8    1  0.1176534E+005  0.1043930E+01  0.7957747E-01            NaN
         13   -1    0    0    0    0  0.00000000000E+00  0.00000000000E+00  0.74505805969E-08  0.10566000000E+00  0.10566000000E+00 0.  1.
     999900   -1    0    0    0    0 -0.00000000000E+00 -0.00000000000E+00 -0.74505805969E-08  0.93827000000E+00  0.93827000000E+00 0. -1.
     999902    2    1    2    0    0  0.16147683546E-01  0.73987729337E-02 -0.17352239507E-01  0.10190987749E+01  0.10187962128E+01 0.  0.
     999903    2    3    3    0    0  0.71114611424E-01  0.60426394501E-01  0.86788471027E-01  0.12967279179E+00  0.23961575856E-01 0.  0.
         14    1    1    2    0    0 -0.16147683546E-01 -0.73987729337E-02  0.17352239507E-01  0.24831225116E-01  0.00000000000E+00 0.  1.
     999901    1    3    3    0    0 -0.54966927878E-01 -0.53027621568E-01 -0.10414071053E+00  0.88942598309E+00  0.88000000000E+00 0. -1.
        -11    1    4    4    0    0  0.59215296993E-01  0.56786008223E-01  0.65395635490E-01  0.10491878950E+00  0.51100000000E-03 0. -1.
         11    1    4    4    0    0  0.11899314431E-01  0.36403862780E-02  0.21392835537E-01  0.24754002292E-01  0.51100000000E-03 0.  1.
</event>
<event>
 8    1  0.1176534E+005  0.1043930E+01  0.7957747E-01            NaN
         13   -1    0    0    0    0  0.00000000000E+00  0.00000000000E+00  0.74505805969E-08  0.10566000000E+00  0.10566000000E+00 0.  1.
     999900   -1    0    0    0    0 -0.00000000000E+00 -0.00000000000E+00 -0.74505805969E-08  0.93827000000E+00  0.93827000000E+00 0.  1.
     999902    2    1    2    0    0  0.93810685235E-02 -0.18486772376E-01  0.11025108233E-01  0.10204498337E+01  0.10201796630E+01 0.  0.
     999903    2    3    3    0    0  0.53697692004E-01  0.10080204318E+00  0.58761110414E-01  0.13001594475E+00  0.20168880854E-01 0.  0.
         14    1    1    2    0    0 -0.93810685235E-02  0.18486772376E-01 -0.11025108233E-01  0.23480166334E-01  0.00000000000E+00 0. -1.
     999901    1    3    3    0    0 -0.44316623481E-01 -0.11928881556E+00 -0.47736002181E-01  0.89043388892E+00  0.88000000000E+00 0.  1.
        -11    1    4    4    0    0  0.24074198453E-01  0.50711586955E-01  0.17959091183E-01  0.58940836097E-01  0.51100000000E-03 0. -1.
         11    1    4    4    0    0  0.29623493551E-01  0.50090456226E-01  0.40802019231E-01  0.71075108649E-01  0.51100000000E-03 0.  1.
</event>
<event>
 8    1  0.1176534E+005  0.1043930E+01  0.7957747E-01            NaN
         13   -1    0    0    0    0  0.00000000000E+00  0.00000000000E+00  0.74505805969E-08  0.10566000000E+00  0.10566000000E+00 0. -1.
     999900   -1    0    0    0    0 -0.00000000000E+00 -0.00000000000E+00 -0.74505805969E-08  0.93827000000E+00  0.93827000000E+00 0.  1.
     999902    2    1    2    0    0 -0.10020956331E-01 -0.17965311532E-01 -0.10874923328E-01  0.10206612239E+01  0.10203959516E+01 0.  0.
     999903    2    3    3    0    0 -0.15566326825E-02  0.11518009874E+00  0.53135598826E-01  0.12830664638E+00  0.19243840387E-01 0.  0.
         14    1    1    2    0    0  0.10020956331E-01  0.17965311532E-01  0.10874923328E-01  0.23268776109E-01  0.00000000000E+00 0. -1.
     999901    1    3    3    0    0 -0.84643236487E-02 -0.13314541027E+00 -0.64010522154E-01  0.89235457751E+00  0.88000000000E+00 0.  1.
        -11    1    4    4    0    0  0.70633379742E-02  0.63301707637E-01  0.34976063346E-01  0.72667620446E-01  0.51100000000E-03 0. -1.
         11    1    4    4    0    0 -0.86199706567E-02  0.51878391102E-01  0.18159535480E-01  0.55639025938E-01  0.51100000000E-03 0.  1.
</event>
<event>
 8    1  0.1176534E+005  0.1043930E+01  0.7957747E-01            NaN
         13   -1    0    0    0    0  0.00000000000E+00  0.00000000000E+00  0.74505805969E-08  0.10566000000E+00  0.10566000000E+00 0.  1.
     999900   -1    0    0    0    0 -0.00000000000E+00 -0.00000000000E+00 -0.74505805969E-08  0.93827000000E+00  0.93827000000E+00 0. -1.
     999902    2    1    2    0    0  0.15730746130E-01  0.14864053587E-02 -0.18608314573E-01  0.10195182171E+01  0.10192259120E+01 0.  0.
     999903    2    3    3    0    0  0.41854613076E-01  0.18084123061E-01 -0.12316276577E+00  0.13278850970E+00  0.19618289822E-01 0.  0.
         14    1    1    2    0    0 -0.15730746130E-01 -0.14864053587E-02  0.18608314573E-01  0.24411782933E-01  0.00000000000E+00 0.  1.
     999901    1    3    3    0    0 -0.26123866945E-01 -0.16597717703E-01  0.10455445119E+00  0.88672970736E+00  0.88000000000E+00 0.  1.
        -11    1    4    4    0    0  0.32276835428E-01  0.21696172236E-01 -0.89149363759E-01  0.97264526805E-01  0.51100000000E-03 0. -1.
         11    1    4    4    0    0  0.95777776477E-02 -0.36120491741E-02 -0.34013402007E-01  0.35523982899E-01  0.51100000000E-03 0.  1.
</event>
<event>
 8    1  0.1176534E+005  0.1043930E+01  0.7957747E-01            NaN
         13   -1    0    0    0    0  0.00000000000E+00  0.00000000000E+00  0.74505805969E-08  0.10566000000E+00  0.10566000000E+00 0. -1.
     999900   -1    0    0    0    0 -0.00000000000E+00 -0.00000000000E+00 -0.74505805969E-08  0.93827000000E+00  0.93827000000E+00 0.  1.
     999902    2    1    2    0    0  0.38514504803E-02  0.11230577185E-01  0.24319558154E-01  0.10168671021E+01  0.10165069124E+01 0.  0.
     999903    2    3    3    0    0 -0.22380247719E-01 -0.12239617215E+00  0.59780731048E-02  0.12620407927E+00  0.20249291880E-01 0.  0.
         14    1    1    2    0    0 -0.38514504803E-02 -0.11230577185E-01 -0.24319558154E-01  0.27062897914E-01  0.00000000000E+00 0.  1.
     999901    1    3    3    0    0  0.26231698200E-01  0.13362674934E+00  0.18341485049E-01  0.89066302281E+00  0.88000000000E+00 0. -1.
        -11    1    4    4    0    0 -0.71679777883E-02 -0.19891024736E-01  0.78471326376E-02  0.22558177725E-01  0.51100000000E-03 0.  1.
         11    1    4    4    0    0 -0.15212269931E-01 -0.10250514742E+00 -0.18690595328E-02  0.10364590155E+00  0.51100000000E-03 0. -1.
</event>
<event>
 8    1  0.1176534E+005  0.1043930E+01  0.7957747E-01            NaN
         13   -1    0    0    0    0  0.00000000000E+00  0.00000000000E+00  0.74505805969E-08  0.10566000000E+00  0.10566000000E+00 0. -1.
     999900   -1    0    0    0    0 -0.00000000000E+00 -0.00000000000E+00 -0.74505805969E-08  0.93827000000E+00  0.93827000000E+00 0. -1.
     999902    2    1    2    0    0  0.80933946954E-02 -0.30182353193E-02  0.23720883149E-01  0.10186853356E+01  0.10183724858E+01 0.  0.
     999903    2    3    3    0    0  0.10953357928E+00 -0.62287571692E-01  0.28614675104E-01  0.13086389272E+00  0.20717437299E-01 0.  0.
         14    1    1    2    0    0 -0.80933946954E-02  0.30182353193E-02 -0.23720883149E-01  0.25244664377E-01  0.00000000000E+00 0.  1.
     999901    1    3    3    0    0 -0.10144018459E+00  0.59269336373E-01 -0.48937919559E-02  0.88782144291E+00  0.88000000000E+00 0. -1.
        -11    1    4    4    0    0  0.68985504393E-01 -0.43615751168E-01  0.90407307104E-02  0.82117778215E-01  0.51100000000E-03 0.  1.
         11    1    4    4    0    0  0.40548074890E-01 -0.18671820525E-01  0.19573944394E-01  0.48746114503E-01  0.51100000000E-03 0. -1.
</event>
<event>
 8    1  0.1176534E+005  0.1043930E+01  0.7957747E-01            NaN
         13   -1    0    0    0    0  0.00000000000E+00  0.00000000000E+00  0.74505805969E-08  0.10566000000E+00  0.10566000000E+00 0. -1.
     999900   -1    0    0    0    0 -0.00000000000E+00 -0.00000000000E+00 -0.74505805969E-08  0.93827000000E+00  0.93827000000E+00 0.  1.
     999902    2    1    2    0    0 -0.32835489745E-02  0.13969537075E-02  0.23152584159E-01  0.10205040459E+01  0.10202351358E+01 0.  0.
     999903    2    3    3    0    0 -0.10907959728E+00 -0.67108676105E-01  0.22244823646E-01  0.13152336600E+00  0.20040725416E-01 0.  0.
         14    1    1    2    0    0  0.32835489745E-02 -0.13969537075E-02 -0.23152584159E-01  0.23425954127E-01  0.00000000000E+00 0.  1.
     999901    1    3    3    0    0  0.10579604830E+00  0.68505629812E-01  0.90776051305E-03  0.88898067987E+00  0.88000000000E+00 0. -1.
        -11    1    4    4    0    0 -0.34152936775E-01 -0.10986771303E-01  0.35130535320E-02  0.36051836294E-01  0.51100000000E-03 0.  1.
         11    1    4    4    0    0 -0.74926660502E-01 -0.56121904801E-01  0.18731770114E-01  0.95471529710E-01  0.51100000000E-03 0. -1.
</event>
<event>
 8    1  0.1176534E+005  0.1043930E+01  0.7957747E-01            NaN
         13   -1    0    0    0    0  0.00000000000E+00  0.00000000000E+00  0.74505805969E-08  0.10566000000E+00  0.10566000000E+00 0.  1.
     999900   -1    0    0    0    0 -0.00000000000E+00 -0.00000000000E+00 -0.74505805969E-08  0.93827000000E+00  0.93827000000E+00 0. -1.
     999902    2    1    2    0    0  0.87698156859E-02 -0.16371029995E-01  0.14193635661E-01  0.10205552362E+01  0.10202875137E+01 0.  0.
     999903    2    3    3    0    0  0.43934454608E-01  0.68367653816E-01  0.10148930013E+00  0.13148958653E+00  0.19622969556E-01 0.  0.
         14    1    1    2    0    0 -0.87698156859E-02  0.16371029995E-01 -0.14193635661E-01  0.23374763818E-01  0.00000000000E+00 0. -1.
     999901    1    3    3    0    0 -0.35164638922E-01 -0.84738683811E-01 -0.87295664467E-01  0.88906564966E+00  0.88000000000E+00 0. -1.
        -11    1    4    4    0    0  0.21305464228E-01  0.20307119611E-01  0.46468038568E-01  0.55007650761E-01  0.51100000000E-03 0. -1.
         11    1    4    4    0    0  0.22628990380E-01  0.48060534204E-01  0.55021261560E-01  0.76481935764E-01  0.51100000000E-03 0.  1.
</event>
<event>
 7    1  0.1176534E+005  0.1043930E+01  0.7957747E-01            NaN
         13   -1    0    0    0    0  0.00000000000E+00  0.00000000000E+00  0.74505805969E-08  0.10566000000E+00  0.10566000000E+00 0. -1.
     999900   -1    0    0    0    0 -0.00000000000E+00 -0.00000000000E+00 -0.74505805969E-08  0.93827000000E+00  0.93827000000E+00 0. -1.
     999902    2    1    2    0    0  0.67647162538E-02 -0.32017102476E-02 -0.21630966945E-01  0.10210408964E+01  0.10207843068E+01 0.  0.
         14    1    1    2    0    0 -0.67647162538E-02  0.32017102476E-02  0.21630966945E-01  0.22889103641E-01  0.00000000000E+00 0. -1.
     999901    1    3    3    0    0 -0.72359694290E-02  0.60244040260E-01  0.95308928424E-01  0.88722347550E+00  0.88000000000E+00 0.  1.
        -11    1    3    3    0    0  0.96379733173E-02 -0.45253029721E-01 -0.80423605991E-01  0.92784399282E-01  0.51100000000E-03 0. -1.
         11    1    3    3    0    0  0.43627123655E-02 -0.18192720787E-01 -0.36516289378E-01  0.41033021577E-01  0.51100000000E-03 0.  1.
</event>
<event>
 8    1  0.1176534E+005  0.1043930E+01  0.7957747E-01            NaN
         13   -1    0    0    0    0  0.00000000000E+00  0.00000000000E+00  0.74505805969E-08  0.10566000000E+00  0.10566000000E+00 0. -1.
     999900   -1    0    0    0    0 -0.00000000000E+00 -0.00000000000E+00 -0.74505805969E-08  0.93827000000E+00  0.93827000000E+00 0.  1.
     999902    2    1    2    0    0 -0.49564860202E-03 -0.84487490678E-02  0.19603367860E-01  0.10225777388E+01  0.10223547881E+01 0.  0.
     999903    2    3    3    0    0  0.10033768714E+00  0.15420854029E-01  0.86791487516E-01  0.13395444233E+00  0.10275023794E-01 0.  0.
         14    1    1    2    0    0  0.49564860202E-03  0.84487490678E-02 -0.19603367860E-01  0.21352261234E-01  0.00000000000E+00 0.  1.
     999901    1    3    3    0    0 -0.10083333575E+00 -0.23869603097E-01 -0.67188119656E-01  0.88862329644E+00  0.88000000000E+00 0.  1.
        -11    1    4    4    0    0  0.56563373810E-01  0.56828913137E-02  0.43084721061E-01  0.71332074275E-01  0.51100000000E-03 0. -1.
         11    1    4    4    0    0  0.43774313333E-01  0.97379627156E-02  0.43706766455E-01  0.62622368053E-01  0.51100000000E-03 0.  1.
</event>
<event>
 8    1  0.1176534E+005  0.1043930E+01  0.7957747E-01            NaN
         13   -1    0    0    0    0  0.00000000000E+00  0.00000000000E+00  0.74505805969E-08  0.10566000000E+00  0.10566000000E+00 0. -1.
     999900   -1    0    0    0    0 -0.00000000000E+00 -0.00000000000E+00 -0.74505805969E-08  0.93827000000E+00  0.93827000000E+00 0. -1.
     999902    2    1    2    0    0 -0.11506129829E-01  0.21430610271E-02  0.20320019924E-01  0.10204803317E+01  0.10202108706E+01 0.  0.
     999903    2    3    3    0    0  0.56910400607E-02 -0.48041449682E-01  0.12222252841E+00  0.13301295257E+00  0.20340360726E-01 0.  0.
         14    1    1    2    0    0  0.11506129829E-01 -0.21430610271E-02 -0.20320019924E-01  0.23449668311E-01  0.00000000000E+00 0.  1.
     999901    1    3    3    0    0 -0.17197169889E-01  0.50184510709E-01 -0.10190250849E+00  0.88746737912E+00  0.88000000000E+00 0. -1.
        -11    1    4    4    0    0  0.80634180274E-02 -0.12589264156E-01  0.21387766032E-01  0.26099922205E-01  0.51100000000E-03 0.  1.
         11    1    4    4    0    0 -0.23723779667E-02 -0.35452185526E-01  0.10083476238E+00  0.10691303036E+00  0.51100000000E-03 0. -1.
</event>
<event>
 8    1  0.1176534E+005  0.1043930E+01  0.7957747E-01            NaN
         13   -1    0    0    0    0  0.00000000000E+00  0.00000000000E+00  0.74505805969E-08  0.10566000000E+00  0.10566000000E+00 0.  1.
     999900   -1    0    0    0    0 -0.00000000000E+00 -0.00000000000E+00 -0.74505805969E-08  0.93827000000E+00  0.93827000000E+00 0.  1.
     999902    2    1    2    0    0 -0.68199482356E-02 -0.73400394404E-02  0.23551551333E-01  0.10183357928E+01  0.10180141077E+01 0.  0.
     999903    2    3    3    0    0 -0.96775085775E-01 -0.44115150358E-01  0.74813319745E-01  0.13150316796E+00  0.19608331232E-01 0.  0.
         14    1    1    2    0    0  0.68199482356E-02  0.73400394404E-02 -0.23551551333E-01  0.25594207218E-01  0.00000000000E+00 0. -1.
     999901    1    3    3    0    0  0.89955137540E-01  0.36775110918E-01 -0.51261768412E-01  0.88683262482E+00  0.88000000000E+00 0.  1.
        -11    1    4    4    0    0 -0.52143851288E-01 -0.13010206683E-01  0.37257929106E-01  0.65396185725E-01  0.51100000000E-03 0. -1.
         11    1    4    4    0    0 -0.44631234487E-01 -0.31104943676E-01  0.37555390638E-01  0.66106982233E-01  0.51100000000E-03 0.  1.
</event>
<event>
 8    1  0.1176534E+005  0.1043930E+01  0.7957747E-01            NaN
         13   -1    0    0    0    0  0.00000000000E+00  0.00000000000E+00  0.74505805969E-08  0.10566000000E+00  0.10566000000E+00 0.  1.
     999900   -1    0    0    0    0 -0.00000000000E+00 -0.00000000000E+00 -0.74505805969E-08  0.93827000000E+00  0.93827000000E+00 0. -1.
     999902    2    1    2    0    0 -0.13999194934E-01  0.16680431627E-01  0.84710129641E-02  0.10205639494E+01  0.10202964288E+01 0.  0.
     999903    2    3    3    0    0 -0.38877867878E-01 -0.94275228021E-01  0.80132494581E-01  0.13035865024E+00  0.13147386661E-01 0.  0.
         14    1    1    2    0    0  0.13999194934E-01 -0.16680431627E-01 -0.84710129641E-02  0.23366050558E-01  0.00000000000E+00 0. -1.
     999901    1    3    3    0    0  0.24878672945E-01  0.11095565965E+00 -0.71661481617E-01  0.89020529920E+00  0.88000000000E+00 0. -1.
        -11    1    4    4    0    0 -0.30018090369E-01 -0.73727305623E-01  0.69062527187E-01  0.10538830640E+00  0.51100000000E-03 0.  1.
         11    1    4    4    0    0 -0.88597775098E-02 -0.20547922399E-01  0.11069967394E-01  0.24970343841E-01  0.51100000000E-03 0. -1.
</event>
<event>
 8    1  0.1176534E+005  0.1043930E+01  0.7957747E-01            NaN
         13   -1    0    0    0    0  0.00000000000E+00  0.00000000000E+00  0.74505805969E-08  0.10566000000E+00  0.10566000000E+00 0.  1.
     999900   -1    0    0    0    0 -0.00000000000E+00 -0.00000000000E+00 -0.74505805969E-08  0.93827000000E+00  0.93827000000E+00 0. -1.
     999902    2    1    2    0    0  0.12120188466E-01 -0.18073856760E-01  0.10189704935E-01  0.10199009893E+01  0.10196178866E+01 0.  0.
     999903    2    3    3    0    0  0.10003203759E+00 -0.74143226465E-02 -0.81422822943E-01  0.13072441849E+00  0.19945344545E-01 0.  0.
         14    1    1    2    0    0 -0.12120188466E-01  0.18073856760E-01 -0.10189704935E-01  0.24029010660E-01  0.00000000000E+00 0. -1.
     999901    1    3    3    0    0 -0.87911849124E-01 -0.10659534114E-01  0.91612527878E-01  0.88917657085E+00  0.88000000000E+00 0.  1.
        -11    1    4    4    0    0  0.12742057026E-01 -0.26387283345E-02 -0.20059609496E-01  0.23915935244E-01  0.51100000000E-03 0.  1.
         11    1    4    4    0    0  0.87289980563E-01 -0.47755943120E-02 -0.61363213447E-01  0.10680848325E+00  0.51100000000E-03 0. -1.
</event>
<event>
 8    1  0.1176534E+005  0.1043930E+01  0.7957747E-01            NaN
         13   -1    0    0    0    0  0.00000000000E+00  0.00000000000E+00  0.74505805969E-08  0.10566000000E+00  0.10566000000E+00 0.  1.
     999900   -1    0    0    0    0 -0.00000000000E+00 -0.00000000000E+00 -0.74505805969E-08  0.93827000000E+00  0.93827000000E+00 0. -1.
     999902    2    1    2    0    0  0.19854889166E-01  0.95862072574E-02 -0.90729715497E-02  0.10200882130E+01  0.10198095565E+01 0.  0.
     999903    2    3    3    0    0 -0.10455615674E+00  0.48788023723E-01 -0.54765671316E-01  0.12930052027E+00  0.20176338042E-01 0.  0.
         14    1    1    2    0    0 -0.19854889166E-01 -0.95862072574E-02  0.90729715497E-02  0.23841786974E-01  0.00000000000E+00 0.  1.
     999901    1    3    3    0    0  0.12441104590E+00 -0.39201816466E-01  0.45692699766E-01  0.89078769276E+00  0.88000000000E+00 0.  1.
        -11    1    4    4    0    0 -0.12644018266E-01  0.47644611673E-02 -0.14209076905E-01  0.19614542452E-01  0.51100000000E-03 0. -1.
         11    1    4    4    0    0 -0.91912138471E-01  0.44023562556E-01 -0.40556594411E-01  0.10968597782E+00  0.51100000000E-03 0.  1.
</event>
<event>
 8    1  0.1176534E+005  0.1043930E+01  0.7957747E-01            NaN
         13   -1    0    0    0    0  0.00000000000E+00  0.00000000000E+00  0.74505805969E-08  0.10566000000E+00  0.10566000000E+00 0.  1.
     999900   -1    0    0    0    0 -0.00000000000E+00 -0.00000000000E+00 -0.74505805969E-08  0.93827000000E+00  0.93827000000E+00 0. -1.
     999902    2    1    2    0    0 -0.38706264219E-03 -0.19341563223E-01 -0.15590844091E-01  0.10190840686E+01  0.10187811437E+01 0.  0.
     999903    2    3    3    0    0  0.97371682373E-01 -0.76167625896E-01  0.35994265563E-01  0.13035070190E+00  0.20321578927E-01 0.  0.
         14    1    1    2    0    0  0.38706264219E-03  0.19341563223E-01  0.15590844091E-01  0.24845931355E-01  0.00000000000E+00 0.  1.
     999901    1    3    3    0    0 -0.97758745015E-01  0.56826062673E-01 -0.51585109654E-01  0.88873336674E+00  0.88000000000E+00 0. -1.
        -11    1    4    4    0    0  0.57681525242E-01 -0.53028509041E-01  0.30485247226E-01  0.84076111617E-01  0.51100000000E-03 0.  1.
         11    1    4    4    0    0  0.39690157131E-01 -0.23139116855E-01  0.55090183370E-02  0.46274590284E-01  0.51100000000E-03 0. -1.
</event>
<event>
 8    1  0.1176534E+005  0.1043930E+01  0.7957747E-01            NaN
         13   -1    0    0    0    0  0.00000000000E+00  0.00000000000E+00  0.74505805969E-08  0.10566000000E+00  0.10566000000E+00 0. -1.
     999900   -1    0    0    0    0 -0.00000000000E+00 -0.00000000000E+00 -0.74505805969E-08  0.93827000000E+00  0.93827000000E+00 0. -1.
     999902    2    1    2    0    0  0.21800738228E-01  0.41061208814E-02  0.82045732269E-02  0.10202773588E+01  0.10200031575E+01 0.  0.
     999903    2    3    3    0    0  0.37850249800E-01 -0.26468942585E-01  0.12066961311E+00  0.13244809222E+00  0.29122075333E-01 0.  0.
         14    1    1    2    0    0 -0.21800738228E-01 -0.41061208814E-02 -0.82045732269E-02  0.23652641244E-01  0.00000000000E+00 0. -1.
     999901    1    3    3    0    0 -0.16049511572E-01  0.30575063466E-01 -0.11246503989E+00  0.88782926654E+00  0.88000000000E+00 0. -1.
        -11    1    4    4    0    0  0.18872982370E-01 -0.83539249187E-02  0.21265199661E-01  0.29638612699E-01  0.51100000000E-03 0.  1.
         11    1    4    4    0    0  0.18977267430E-01 -0.18115017666E-01  0.99404413451E-01  0.10280947952E+00  0.51100000000E-03 0. -1.
</event>
<event>
 8    1  0.1176534E+005  0.1043930E+01  0.7957747E-01            NaN
         13   -1    0    0    0    0  0.00000000000E+00  0.00000000000E+00  0.74505805969E-08  0.10566000000E+00  0.10566000000E+00 0.  1.
     999900   -1    0    0    0    0 -0.00000000000E+00 -0.00000000000E+00 -0.74505805969E-08  0.93827000000E+00  0.93827000000E+00 0.  1.
     999902    2    1    2    0    0  0.13511400490E-01  0.12140817199E-01  0.15526905853E-01  0.10200335109E+01  0.10197535590E+01 0.  0.
     999903    2    3    3    0    0 -0.64781576328E-01  0.10998695635E+00 -0.18734334078E-01  0.13049571535E+00  0.19605439383E-01 0.  0.
         14    1    1    2    0    0 -0.13511400490E-01 -0.12140817199E-01 -0.15526905853E-01  0.23896489090E-01  0.00000000000E+00 0. -1.
     999901    1    3    3    0    0  0.78292976818E-01 -0.97846139150E-01  0.34261239931E-01  0.88953779556E+00  0.88000000000E+00 0.  1.
        -11    1    4    4    0    0 -0.64415088024E-01  0.99319330005E-01 -0.15926483160E-01  0.11944683698E+00  0.51100000000E-03 0.  1.
         11    1    4    4    0    0 -0.36648830396E-03  0.10667626343E-01 -0.28078509176E-02  0.11048878371E-01  0.51100000000E-03 0. -1.
</event>
<event>
 8    1  0.1176534E+005  0.1043930E+01  0.7957747E-01            NaN
         13   -1    0    0    0    0  0.00000000000E+00  0.00000000000E+00  0.74505805969E-08  0.10566000000E+00  0.10566000000E+00 0. -1.
     999900   -1    0    0    0    0 -0.00000000000E+00 -0.00000000000E+00 -0.74505805969E-08  0.93827000000E+00  0.93827000000E+00 0. -1.
     999902    2    1    2    0    0  0.18008915599E-01  0.95145157900E-02  0.10744539043E-01  0.10209019265E+01  0.10206421759E+01 0.  0.
     999903    2    3    3    0    0 -0.35608978227E-01  0.79028114506E-01 -0.94877692740E-01  0.13024875334E+00  0.21201862032E-01 0.  0.
         14    1    1    2    0    0 -0.18008915599E-01 -0.95145157900E-02 -0.10744539043E-01  0.23028073541E-01  0.00000000000E+00 0. -1.
     999901    1    3    3    0    0  0.53617893825E-01 -0.69513598716E-01  0.10562223178E+00  0.89065317312E+00  0.88000000000E+00 0.  1.
        -11    1    4    4    0    0  0.15823511954E-02  0.15252640281E-01 -0.14519231888E-01  0.21123827457E-01  0.51100000000E-03 0.  1.
         11    1    4    4    0    0 -0.37191329422E-01  0.63775474225E-01 -0.80358460852E-01  0.10912492588E+00  0.51100000000E-03 0. -1.
</event>
<event>
 8    1  0.1176534E+005  0.1043930E+01  0.7957747E-01            NaN
         13   -1    0    0    0    0  0.00000000000E+00  0.00000000000E+00  0.74505805969E-08  0.10566000000E+00  0.10566000000E+00 0. -1.
     999900   -1    0    0    0    0 -0.00000000000E+00 -0.00000000000E+00 -0.74505805969E-08  0.93827000000E+00  0.93827000000E+00 0.  1.
     999902    2    1    2    0    0 -0.97135956516E-02  0.20449801698E-02 -0.20817026611E-01  0.10208673791E+01  0.10206068397E+01 0.  0.
     999903    2    3    3    0    0  0.14613013956E-01  0.52396080195E-01  0.11484377212E+00  0.12871780113E+00  0.20500998451E-01 0.  0.
         14    1    1    2    0    0  0.97135956516E-02 -0.20449801698E-02  0.20817026611E-01  0.23062620868E-01  0.00000000000E+00 0. -1.
     999901    1    3    3    0    0 -0.24326609608E-01 -0.50351100025E-01 -0.13566079873E+00  0.89214957800E+00  0.88000000000E+00 0.  1.
        -11    1    4    4    0    0  0.38704657140E-02  0.20614589748E-01  0.67535780455E-01  0.70719760873E-01  0.51100000000E-03 0.  1.
         11    1    4    4    0    0  0.10742548242E-01  0.31781490447E-01  0.47307991665E-01  0.57998040261E-01  0.51100000000E-03 0. -1.
</event>
<event>
 8    1  0.1176534E+005  0.1043930E+01  0.7957747E-01            NaN
         13   -1    0    0    0    0  0.00000000000E+00  0.00000000000E+00  0.74505805969E-08  0.10566000000E+00  0.10566000000E+00 0.  1.
     999900   -1    0    0    0    0 -0.00000000000E+00 -0.00000000000E+00 -0.74505805969E-08  0.93827000000E+00  0.93827000000E+00 0.  1.
     999902    2    1    2    0    0  0.59636505271E-02  0.18526224773E-02 -0.21511347491E-01  0.10215305489E+01  0.10212849392E+01 0.  0.
     999903    2    3    3    0    0 -0.77081364248E-01 -0.69600198899E-01 -0.80199755910E-01  0.13279756909E+00  0.20432060763E-01 0.  0.
         14    1    1    2    0    0 -0.59636505271E-02 -0.18526224773E-02  0.21511347491E-01  0.22399451077E-01  0.00000000000E+00 0.  1.
     999901    1    3    3    0    0  0.83045014775E-01  0.71452821376E-01  0.58688408419E-01  0.88873297983E+00  0.88000000000E+00 0. -1.
        -11    1    4    4    0    0 -0.28303242770E-01 -0.31236414142E-01 -0.44079165072E-01  0.60991975162E-01  0.51100000000E-03 0.  1.
         11    1    4    4    0    0 -0.48778121478E-01 -0.38363784757E-01 -0.36120590838E-01  0.71805593927E-01  0.51100000000E-03 0. -1.
</event>
<event>
 8    1  0.1176534E+005  0.1043930E+01  0.7957747E-01            NaN
         13   -1    0    0    0    0  0.00000000000E+00  0.00000000000E+00  0.74505805969E-08  0.10566000000E+00  0.10566000000E+00 0. -1.
     999900   -1    0    0    0    0 -0.00000000000E+00 -0.00000000000E+00 -0.74505805969E-08  0.93827000000E+00  0.93827000000E+00 0. -1.
     999902    2    1    2    0    0  0.23168533134E-01  0.45124967458E-02 -0.12125057095E-02  0.10202949894E+01  0.10200212016E+01 0.  0.
     999903    2    3    3    0    0  0.87028063051E-01 -0.94946919368E-01 -0.21869396681E-01  0.13215258972E+00  0.19930760233E-01 0.  0.
         14    1    1    2    0    0 -0.23168533134E-01 -0.45124967458E-02  0.12125057095E-02  0.23635010569E-01  0.00000000000E+00 0.  1.
     999901    1    3    3    0    0 -0.63859529916E-01  0.99459416114E-01  0.20656890972E-01  0.88814239971E+00  0.88000000000E+00 0.  1.
        -11    1    4    4    0    0  0.46448965863E-01 -0.62060702998E-01 -0.19136719583E-01  0.79846806096E-01  0.51100000000E-03 0. -1.
         11    1    4    4    0    0  0.40579097187E-01 -0.32886216370E-01 -0.27326770983E-02  0.52305783627E-01  0.51100000000E-03 0.  1.
</event>
<event>
 8    1  0.1176534E+005  0.1043930E+01  0.7957747E-01            NaN
         13   -1    0    0    0    0  0.00000000000E+00  0.00000000000E+00  0.74505805969E-08  0.10566000000E+00  0.10566000000E+00 0. -1.
     999900   -1    0    0    0    0 -0.00000000000E+00 -0.00000000000E+00 -0.74505805969E-08  0.93827000000E+00  0.93827000000E+00 0. -1.
     999902    2    1    2    0    0  0.34881153860E-02 -0.25412649506E-01 -0.19049282163E-04  0.10182790728E+01  0.10179559421E+01 0.  0.
     999903    2    3    3    0    0 -0.51069874902E-01  0.58453727587E-01  0.98711711132E-01  0.12712369545E+00  0.19785389531E-01 0.  0.
         14    1    1    2    0    0 -0.34881153860E-02  0.25412649506E-01  0.19049282163E-04  0.25650927210E-01  0.00000000000E+00 0. -1.
     999901    1    3    3    0    0  0.54557990288E-01 -0.83866377093E-01 -0.98730760414E-01  0.89115537734E+00  0.88000000000E+00 0. -1.
        -11    1    4    4    0    0 -0.91509104941E-02  0.23217773252E-01  0.25355288395E-01  0.35580274426E-01  0.51100000000E-03 0. -1.
         11    1    4    4    0    0 -0.41918964408E-01  0.35235954335E-01  0.73356422737E-01  0.91543421024E-01  0.51100000000E-03 0.  1.
</event>
<event>
 8    1  0.1176534E+005  0.1043930E+01  0.7957747E-01            NaN
         13   -1    0    0    0    0  0.00000000000E+00  0.00000000000E+00  0.74505805969E-08  0.10566000000E+00  0.10566000000E+00 0.  1.
     999900   -1    0    0    0    0 -0.00000000000E+00 -0.00000000000E+00 -0.74505805969E-08  0.93827000000E+00  0.93827000000E+00 0.  1.
     999902    2    1    2    0    0 -0.13321556310E-01 -0.10275225170E-01  0.15512886019E-01  0.10210456440E+01  0.10207891621E+01 0.  0.
     999903    2    3    3    0    0  0.35840553191E-01 -0.12203664348E+00  0.31553971530E-01  0.13247103038E+00  0.19376097763E-01 0.  0.
         14    1    1    2    0    0  0.13321556310E-01  0.10275225170E-01 -0.15512886019E-01  0.22884355955E-01  0.00000000000E+00 0. -1.
     999901    1    3    3    0    0 -0.49162109501E-01  0.11176141831E+00 -0.16041085511E-01  0.88857461367E+00  0.88000000000E+00 0.  1.
        -11    1    4    4    0    0  0.12798568999E-01 -0.76531774164E-01  0.17172293867E-01  0.79473672514E-01  0.51100000000E-03 0. -1.
         11    1    4    4    0    0  0.23041984191E-01 -0.45504869316E-01  0.14381677663E-01  0.52997357862E-01  0.51100000000E-03 0.  1.
</event>
<event>
 8    1  0.1176534E+005  0.1043930E+01  0.7957747E-01            NaN
         13   -1    0    0    0    0  0.00000000000E+00  0.00000000000E+00  0.74505805969E-08  0.10566000000E+00  0.10566000000E+00 0. -1.
     999900   -1    0    0    0    0 -0.00000000000E+00 -0.00000000000E+00 -0.74505805969E-08  0.93827000000E+00  0.93827000000E+00 0.  1.
     999902    2    1    2    0    0  0.71119186948E-03 -0.20261998764E-01  0.10854394458E-01  0.10209327770E+01  0.10206737299E+01 0.  0.
     999903    2    3    3    0    0  0.34755388784E-02 -0.10562308111E+00  0.80141944411E-01  0.13408728842E+00  0.19706725453E-01 0.  0.
         14    1    1    2    0    0 -0.71119186948E-03  0.20261998764E-01 -0.10854394458E-01  0.22997223024E-01  0.00000000000E+00 0.  1.
     999901    1    3    3    0    0 -0.27643470090E-02  0.85361082347E-01 -0.69287549953E-01  0.88684548856E+00  0.88000000000E+00 0.  1.
        -11    1    4    4    0    0  0.11007632138E-01 -0.70211446101E-01  0.57127545607E-01  0.91184607895E-01  0.51100000000E-03 0.  1.
         11    1    4    4    0    0 -0.75320932595E-02 -0.35411635010E-01  0.23014398804E-01  0.42902680525E-01  0.51100000000E-03 0. -1.
</event>
<event>
 8    1  0.1176534E+005  0.1043930E+01  0.7957747E-01            NaN
         13   -1    0    0    0    0  0.00000000000E+00  0.00000000000E+00  0.74505805969E-08  0.10566000000E+00  0.10566000000E+00 0.  1.
     999900   -1    0    0    0    0 -0.00000000000E+00 -0.00000000000E+00 -0.74505805969E-08  0.93827000000E+00  0.93827000000E+00 0.  1.
     999902    2    1    2    0    0 -0.30815691888E-02 -0.18443769353E-01 -0.18000894181E-01  0.10179742514E+01  0.10176432948E+01 0.  0.
     999903    2    3    3    0    0 -0.27284477416E-01  0.85403587414E-01  0.85504238267E-01  0.12551508326E+00  0.20120783092E-01 0.  0.
         14    1    1    2    0    0  0.30815691888E-02  0.18443769353E-01  0.18000894181E-01  0.25955748649E-01  0.00000000000E+00 0.  1.
     999901    1    3    3    0    0  0.24202908227E-01 -0.10384735677E+00 -0.10350513245E+00  0.89245916810E+00  0.88000000000E+00 0.  1.
        -11    1    4    4    0    0 -0.50925364740E-02  0.19415959955E-01  0.87902522413E-02  0.21919011934E-01  0.51100000000E-03 0.  1.
         11    1    4    4    0    0 -0.22191940942E-01  0.65987627459E-01  0.76713986026E-01  0.10359607132E+00  0.51100000000E-03 0. -1.
</event>
<event>
 8    1  0.1176534E+005  0.1043930E+01  0.7957747E-01            NaN
         13   -1    0    0    0    0  0.00000000000E+00  0.00000000000E+00  0.74505805969E-08  0.10566000000E+00  0.10566000000E+00 0. -1.
     999900   -1    0    0    0    0 -0.00000000000E+00 -0.00000000000E+00 -0.74505805969E-08  0.93827000000E+00  0.93827000000E+00 0.  1.
     999902    2    1    2    0    0  0.18865664821E-01  0.15681109605E-01  0.52891544722E-03  0.10193924724E+01  0.10190971115E+01 0.  0.
     999903    2    3    3    0    0 -0.77925932880E-01  0.83584475315E-01 -0.58174748456E-01  0.12954664274E+00  0.18417810922E-01 0.  0.
         14    1    1    2    0    0 -0.18865664821E-01 -0.15681109605E-01 -0.52891544722E-03  0.24537527567E-01  0.00000000000E+00 0.  1.
     999901    1    3    3    0    0  0.96791597700E-01 -0.67903365710E-01  0.58703663904E-01  0.88984582969E+00  0.88000000000E+00 0. -1.
        -11    1    4    4    0    0 -0.18720254868E-01  0.25134662727E-01 -0.78502099042E-02  0.32312321632E-01  0.51100000000E-03 0. -1.
         11    1    4    4    0    0 -0.59205678011E-01  0.58449812588E-01 -0.50324538552E-01  0.97234321111E-01  0.51100000000E-03 0.  1.
</event>
<event>
 8    1  0.1176534E+005  0.1043930E+01  0.7957747E-01            NaN
         13   -1    0    0    0    0  0.00000000000E+00  0.00000000000E+00  0.74505805969E-08  0.10566000000E+00  0.10566000000E+00 0.  1.
     999900   -1    0    0    0    0 -0.00000000000E+00 -0.00000000000E+00 -0.74505805969E-08  0.93827000000E+00  0.93827000000E+00 0. -1.
     999902    2    1    2    0    0  0.18126737810E-01 -0.11999080235E-01  0.86963256608E-02  0.10205166997E+01  0.10202480834E+01 0.  0.
     999903    2    3    3    0    0  0.15328019010E-01  0.11206414826E+00  0.61333164740E-01  0.13025260726E+00  0.20264824441E-01 0.  0.
         14    1    1    2    0    0 -0.18126737810E-01  0.11999080235E-01 -0.86963256608E-02  0.23413300283E-01  0.00000000000E+00 0. -1.
     999901    1    3    3    0    0  0.27987188006E-02 -0.12406322849E+00 -0.52636839080E-01  0.89026409246E+00  0.88000000000E+00 0.  1.
        -11    1    4    4    0    0 -0.34991209132E-02  0.88322424758E-02  0.85414460702E-02  0.12785529957E-01  0.51100000000E-03 0.  1.
         11    1    4    4    0    0  0.18827139923E-01  0.10323190578E+00  0.52791718670E-01  0.11746707730E+00  0.51100000000E-03 0. -1.
</event>
<event>
 7    1  0.1176534E+005  0.1043930E+01  0.7957747E-01            NaN
         13   -1    0    0    0    0  0.00000000000E+00  0.00000000000E+00  0.74505805969E-08  0.10566000000E+00  0.10566000000E+00 0. -1.
     999900   -1    0    0    0    0 -0.00000000000E+00 -0.00000000000E+00 -0.74505805969E-08  0.93827000000E+00  0.93827000000E+00 0. -1.
     999902    2    1    2    0    0 -0.18296575878E-01  0.14464811211E-01 -0.55531926585E-02  0.10199543165E+01  0.10196724838E+01 0.  0.
         14    1    1    2    0    0  0.18296575878E-01 -0.14464811211E-01  0.55531926585E-02  0.23975683535E-01  0.00000000000E+00 0. -1.
     999901    1    3    3    0    0  0.88550148669E-01 -0.55011937257E-01 -0.20041249930E-01  0.88637976837E+00  0.88000000000E+00 0. -1.
        -11    1    3    3    0    0 -0.53032499240E-01  0.54381517660E-01  0.52279553812E-03  0.75962687386E-01  0.51100000000E-03 0.  1.
         11    1    3    3    0    0 -0.53814225307E-01  0.15095230808E-01  0.13965261733E-01  0.57611860713E-01  0.51100000000E-03 0. -1.
</event>
<event>
 8    1  0.1176534E+005  0.1043930E+01  0.7957747E-01            NaN
         13   -1    0    0    0    0  0.00000000000E+00  0.00000000000E+00  0.74505805969E-08  0.10566000000E+00  0.10566000000E+00 0.  1.
     999900   -1    0    0    0    0 -0.00000000000E+00 -0.00000000000E+00 -0.74505805969E-08  0.93827000000E+00  0.93827000000E+00 0. -1.
     999902    2    1    2    0    0 -0.13833271081E-01 -0.23059947750E-01  0.16743970724E-02  0.10169870198E+01  0.10166300577E+01 0.  0.
     999903    2    3    3    0    0 -0.11540112631E+00  0.47845580363E-01 -0.13742143551E-01  0.12817810167E+00  0.25182528166E-01 0.  0.
         14    1    1    2    0    0  0.13833271081E-01  0.23059947750E-01 -0.16743970724E-02  0.26942980247E-01  0.00000000000E+00 0.  1.
     999901    1    3    3    0    0  0.10156785523E+00 -0.70905528113E-01  0.15416540624E-01  0.88880891808E+00  0.88000000000E+00 0. -1.
        -11    1    4    4    0    0 -0.85915606530E-01  0.44499559591E-01 -0.36361924224E-02  0.96825540358E-01  0.51100000000E-03 0. -1.
         11    1    4    4    0    0 -0.29485519781E-01  0.33460207717E-02 -0.10105951129E-01  0.31352561315E-01  0.51100000000E-03 0.  1.
</event>
<event>
 8    1  0.1176534E+005  0.1043930E+01  0.7957747E-01            NaN
         13   -1    0    0    0    0  0.00000000000E+00  0.00000000000E+00  0.74505805969E-08  0.10566000000E+00  0.10566000000E+00 0.  1.
     999900   -1    0    0    0    0 -0.00000000000E+00 -0.00000000000E+00 -0.74505805969E-08  0.93827000000E+00  0.93827000000E+00 0. -1.
     999902    2    1    2    0    0  0.20581748388E-01  0.34233790853E-02 -0.90462738298E-02  0.10211887828E+01  0.10209355352E+01 0.  0.
     999903    2    3    3    0    0  0.10307699390E+00 -0.34805923339E-01  0.73239588808E-01  0.13268559859E+00  0.20127387674E-01 0.  0.
         14    1    1    2    0    0 -0.20581748388E-01 -0.34233790853E-02  0.90462738298E-02  0.22741217234E-01  0.00000000000E+00 0.  1.
     999901    1    3    3    0    0 -0.82495245510E-01  0.38229302424E-01 -0.82285862638E-01  0.88850318417E+00  0.88000000000E+00 0. -1.
        -11    1    4    4    0    0  0.10107260734E+00 -0.30039915269E-01  0.69631161503E-01  0.12635991547E+00  0.51100000000E-03 0.  1.
         11    1    4    4    0    0  0.20043865614E-02 -0.47660080697E-02  0.36084273049E-02  0.63256831269E-02  0.51100000000E-03 0. -1.
</event>
<event>
 8    1  0.1176534E+005  0.1043930E+01  0.7957747E-01            NaN
         13   -1    0    0    0    0  0.00000000000E+00  0.00000000000E+00  0.74505805969E-08  0.10566000000E+00  0.10566000000E+00 0. -1.
     999900   -1    0    0    0    0 -0.00000000000E+00 -0.00000000000E+00 -0.74505805969E-08  0.93827000000E+00  0.93827000000E+00 0.  1.
     999902    2    1    2    0    0  0.13295471283E-01  0.12467138558E-01  0.15325735928E-01  0.10201166155E+01  0.10198386303E+01 0.  0.
     999903    2    3    3    0    0  0.33300229595E-01  0.10870682577E-01  0.12657894158E+00  0.13288495757E+00  0.20226380472E-01 0.  0.
         14    1    1    2    0    0 -0.13295471283E-01 -0.12467138558E-01 -0.15325735928E-01  0.23813384518E-01  0.00000000000E+00 0.  1.
     999901    1    3    3    0    0 -0.20004758311E-01  0.15964559814E-02 -0.11125320565E+00  0.88723165791E+00  0.88000000000E+00 0.  1.
        -11    1    4    4    0    0  0.13523303599E-01  0.25911767275E-03  0.21283761583E-01  0.25223134427E-01  0.51100000000E-03 0.  1.
         11    1    4    4    0    0  0.19776925995E-01  0.10611564904E-01  0.10529518000E+00  0.10766182315E+00  0.51100000000E-03 0. -1.
</event>
<event>
 8    1  0.1176534E+005  0.1043930E+01  0.7957747E-01            NaN
         13   -1    0    0    0    0  0.00000000000E+00  0.00000000000E+00  0.74505805969E-08  0.10566000000E+00  0.10566000000E+00 0.  1.
     999900   -1    0    0    0    0 -0.00000000000E+00 -0.00000000000E+00 -0.74505805969E-08  0.93827000000E+00  0.93827000000E+00 0.  1.
     999902    2    1    2    0    0 -0.19300760814E-01 -0.92316815207E-02  0.84557947132E-02  0.10209247011E+01  0.10206654700E+01 0.  0.
     999903    2    3    3    0    0 -0.13226239765E+00  0.41104059900E-02  0.15206437739E-02  0.13357672034E+00  0.18171147225E-01 0.  0.
         14    1    1    2    0    0  0.19300760814E-01  0.92316815207E-02 -0.84557947132E-02  0.23005298867E-01  0.00000000000E+00 0.  1.
     999901    1    3    3    0    0  0.11296163683E+00 -0.13342087511E-01  0.69351509394E-02  0.88734798079E+00  0.88000000000E+00 0. -1.
        -11    1    4    4    0    0 -0.82110469859E-01  0.81499049311E-03 -0.76961802507E-02  0.82475970933E-01  0.51100000000E-03 0.  1.
         11    1    4    4    0    0 -0.50151927787E-01  0.32954154969E-02  0.92168240246E-02  0.51100749409E-01  0.51100000000E-03 0. -1.
</event>
<event>
 8    1  0.1176534E+005  0.1043930E+01  0.7957747E-01            NaN
         13   -1    0    0    0    0  0.00000000000E+00  0.00000000000E+00  0.74505805969E-08  0.10566000000E+00  0.10566000000E+00 0. -1.
     999900   -1    0    0    0    0 -0.00000000000E+00 -0.00000000000E+00 -0.74505805969E-08  0.93827000000E+00  0.93827000000E+00 0.  1.
     999902    2    1    2    0    0 -0.13547525142E-03 -0.16281653538E-01 -0.15072983607E-01  0.10217420431E+01  0.10215011000E+01 0.  0.
     999903    2    3    3    0    0 -0.50662750178E-01 -0.53581872024E-01 -0.11051459593E+00  0.13435632475E+00  0.20010367835E-01 0.  0.
         14    1    1    2    0    0  0.13547525142E-03  0.16281653538E-01  0.15072983607E-01  0.22187956876E-01  0.00000000000E+00 0. -1.
     999901    1    3    3    0    0  0.50527274927E-01  0.37300218485E-01  0.95441612326E-01  0.88738571837E+00  0.88000000000E+00 0. -1.
        -11    1    4    4    0    0 -0.19733307962E-01 -0.33481461397E-01 -0.65414111253E-01  0.76089938707E-01  0.51100000000E-03 0.  1.
         11    1    4    4    0    0 -0.30929442216E-01 -0.20100410627E-01 -0.45100484680E-01  0.58266386043E-01  0.51100000000E-03 0. -1.
</event>
<event>
 8    1  0.1176534E+005  0.1043930E+01  0.7957747E-01            NaN
         13   -1    0    0    0    0  0.00000000000E+00  0.00000000000E+00  0.74505805969E-08  0.10566000000E+00  0.10566000000E+00 0. -1.
     999900   -1    0    0    0    0 -0.00000000000E+00 -0.00000000000E+00 -0.74505805969E-08  0.93827000000E+00  0.93827000000E+00 0. -1.
     999902    2    1    2    0    0  0.10656006928E-01 -0.20858029791E-01 -0.40394092610E-02  0.10201618550E+01  0.10198849375E+01 0.  0.
     999903    2    3    3    0    0 -0.37734187910E-01  0.11616164476E+00 -0.31968489283E-01  0.12780764522E+00  0.19884999838E-01 0.  0.
         14    1    1    2    0    0 -0.10656006928E-01  0.20858029791E-01  0.40394092610E-02  0.23768145018E-01  0.00000000000E+00 0.  1.
     999901    1    3    3    0    0  0.48390194838E-01 -0.13701967455E+00  0.27929080022E-01  0.89235420976E+00  0.88000000000E+00 0. -1.
        -11    1    4    4    0    0 -0.28758785181E-01  0.90814972550E-01 -0.16190454142E-01  0.96627216097E-01  0.51100000000E-03 0.  1.
         11    1    4    4    0    0 -0.89754027296E-02  0.25346672212E-01 -0.15778035141E-01  0.31180429122E-01  0.51100000000E-03 0. -1.
</event>
<event>
 8    1  0.1176534E+005  0.1043930E+01  0.7957747E-01            NaN
         13   -1    0    0    0    0  0.00000000000E+00  0.00000000000E+00  0.74505805969E-08  0.10566000000E+00  0.10566000000E+00 0. -1.
     999900   -1    0    0    0    0 -0.00000000000E+00 -0.00000000000E+00 -0.74505805969E-08  0.93827000000E+00  0.93827000000E+00 0.  1.
     999902    2    1    2    0    0  0.14842675243E-01 -0.16448726860E-02 -0.17629107773E-01  0.10208259732E+01  0.10205644867E+01 0.  0.
     999903    2    3    3    0    0 -0.80581469554E-01  0.49337166837E-01 -0.89020396558E-01  0.13133080631E+00  0.19890209052E-01 0.  0.
         14    1    1    2    0    0 -0.14842675243E-01  0.16448726860E-02  0.17629107773E-01  0.23104026822E-01  0.00000000000E+00 0. -1.
     999901    1    3    3    0    0  0.95424144797E-01 -0.50982039523E-01  0.71391288786E-01  0.88949516687E+00  0.88000000000E+00 0.  1.
        -11    1    4    4    0    0 -0.57650567938E-01  0.24929996683E-01 -0.62500051423E-01  0.88609312530E-01  0.51100000000E-03 0. -1.
         11    1    4    4    0    0 -0.22930901616E-01  0.24407170154E-01 -0.26520345135E-01  0.42721493782E-01  0.51100000000E-03 0.  1.
</event>
<event>
 8    1  0.1176534E+005  0.1043930E+01  0.7957747E-01            NaN
         13   -1    0    0    0    0  0.00000000000E+00  0.00000000000E+00  0.74505805969E-08  0.10566000000E+00  0.10566000000E+00 0.  1.
     999900   -1    0    0    0    0 -0.00000000000E+00 -0.00000000000E+00 -0.74505805969E-08  0.93827000000E+00  0.93827000000E+00 0. -1.
     999902    2    1    2    0    0  0.41314110164E-02 -0.21576499051E-01 -0.11983868690E-02  0.10219288637E+01  0.10216920047E+01 0.  0.
     999903    2    3    3    0    0  0.65881621478E-01 -0.99074899602E-01 -0.59541575060E-01  0.13444758603E+00  0.19357955669E-01 0.  0.
         14    1    1    2    0    0 -0.41314110164E-02  0.21576499051E-01  0.11983868690E-02  0.22001136320E-01  0.00000000000E+00 0.  1.
     999901    1    3    3    0    0 -0.61750210461E-01  0.77498400551E-01  0.58343188191E-01  0.88748127766E+00  0.88000000000E+00 0.  1.
        -11    1    4    4    0    0  0.24354357682E-01 -0.22158827968E-01 -0.12867616018E-01  0.35355127747E-01  0.51100000000E-03 0.  1.
         11    1    4    4    0    0  0.41527263796E-01 -0.76916071634E-01 -0.46673959043E-01  0.99092458278E-01  0.51100000000E-03 0. -1.
</event>
<event>
 8    1  0.1176534E+005  0.1043930E+01  0.7957747E-01            NaN
         13   -1    0    0    0    0  0.00000000000E+00  0.00000000000E+00  0.74505805969E-08  0.10566000000E+00  0.10566000000E+00 0. -1.
     999900   -1    0    0    0    0 -0.00000000000E+00 -0.00000000000E+00 -0.74505805969E-08  0.93827000000E+00  0.93827000000E+00 0.  1.
     999902    2    1    2    0    0  0.72940598757E-02 -0.22346079618E-01 -0.38032148884E-02  0.10201179227E+01  0.10198399684E+01 0.  0.
     999903    2    3    3    0    0 -0.58372960291E-01 -0.95553738328E-01  0.66645139009E-01  0.13184178913E+00  0.20068966236E-01 0.  0.
         14    1    1    2    0    0 -0.72940598757E-02  0.22346079618E-01  0.38032148884E-02  0.23812077340E-01  0.00000000000E+00 0.  1.
     999901    1    3    3    0    0  0.65667020167E-01  0.73207658710E-01 -0.70448353897E-01  0.88827613353E+00  0.88000000000E+00 0. -1.
        -11    1    4    4    0    0 -0.38704011781E-01 -0.71304214418E-01  0.57015438880E-01  0.99163062243E-01  0.51100000000E-03 0.  1.
         11    1    4    4    0    0 -0.19668948511E-01 -0.24249523911E-01  0.96297001287E-02  0.32678726887E-01  0.51100000000E-03 0. -1.
</event>
<event>
 8    1  0.1176534E+005  0.1043930E+01  0.7957747E-01            NaN
         13   -1    0    0    0    0  0.00000000000E+00  0.00000000000E+00  0.74505805969E-08  0.10566000000E+00  0.10566000000E+00 0. -1.
     999900   -1    0    0    0    0 -0.00000000000E+00 -0.00000000000E+00 -0.74505805969E-08  0.93827000000E+00  0.93827000000E+00 0. -1.
     999902    2    1    2    0    0  0.14360072381E-01  0.24112278726E-02 -0.20468830905E-01  0.10188103118E+01  0.10185005904E+01 0.  0.
     999903    2    3    3    0    0  0.80697102713E-02 -0.10535107651E+00  0.69080954964E-01  0.12770344553E+00  0.19287874835E-01 0.  0.
         14    1    1    2    0    0 -0.14360072381E-01 -0.24112278726E-02  0.20468830905E-01  0.25119688240E-01  0.00000000000E+00 0. -1.
     999901    1    3    3    0    0  0.62903621101E-02  0.10776230438E+00 -0.89549785868E-01  0.89110686623E+00  0.88000000000E+00 0. -1.
        -11    1    4    4    0    0 -0.30263373344E-02 -0.59368175849E-01  0.45405420652E-01  0.74804093249E-01  0.51100000000E-03 0.  1.
         11    1    4    4    0    0  0.11096047606E-01 -0.45982900658E-01  0.23675534311E-01  0.52899352277E-01  0.51100000000E-03 0. -1.
</event>
<event>
 8    1  0.1176534E+005  0.1043930E+01  0.7957747E-01            NaN
         13   -1    0    0    0    0  0.00000000000E+00  0.00000000000E+00  0.74505805969E-08  0.10566000000E+00  0.10566000000E+00 0. -1.
     999900   -1    0    0    0    0 -0.00000000000E+00 -0.00000000000E+00 -0.74505805969E-08  0.93827000000E+00  0.93827000000E+00 0. -1.
     999902    2    1    2    0    0 -0.18500257448E-01 -0.34940478790E-02  0.17896167623E-01  0.10179542284E+01  0.10176227544E+01 0.  0.
     999903    2    3    3    0    0  0.18790570875E-01  0.65201941236E-01  0.10883127565E+00  0.12982195293E+00  0.20127449123E-01 0.  0.
         14    1    1    2    0    0  0.18500257448E-01  0.34940478790E-02 -0.17896167623E-01  0.25975771631E-01  0.00000000000E+00 0. -1.
     999901    1    3    3    0    0 -0.37290828323E-01 -0.68695989115E-01 -0.90935108032E-01  0.88813227544E+00  0.88000000000E+00 0. -1.
        -11    1    4    4    0    0  0.97942880238E-02  0.58007426767E-01  0.85336594085E-01  0.10365030173E+00  0.51100000000E-03 0.  1.
         11    1    4    4    0    0  0.89962828513E-02  0.71945144684E-02  0.23494681570E-01  0.26171651202E-01  0.51100000000E-03 0. -1.
</event>
<event>
 8    1  0.1176534E+005  0.1043930E+01  0.7957747E-01            NaN
         13   -1    0    0    0    0  0.00000000000E+00  0.00000000000E+00  0.74505805969E-08  0.10566000000E+00  0.10566000000E+00 0. -1.
     999900   -1    0    0    0    0 -0.00000000000E+00 -0.00000000000E+00 -0.74505805969E-08  0.93827000000E+00  0.93827000000E+00 0. -1.
     999902    2    1    2    0    0 -0.74999134140E-02 -0.18743484751E-02  0.22977629584E-01  0.10196867877E+01  0.10193985538E+01 0.  0.
     999903    2    3    3    0    0  0.13836064862E-01 -0.10956030955E+00 -0.62173752857E-01  0.12878710300E+00  0.22926932550E-01 0.  0.
         14    1    1    2    0    0  0.74999134140E-02  0.18743484751E-02 -0.22977629584E-01  0.24243212343E-01  0.00000000000E+00 0.  1.
     999901    1    3    3    0    0 -0.21335978276E-01  0.10768596108E+00  0.85151382440E-01  0.89089968465E+00  0.88000000000E+00 0. -1.
        -11    1    4    4    0    0  0.34331090996E-02 -0.21959736804E-02 -0.57116312869E-02  0.70350829030E-02  0.51100000000E-03 0.  1.
         11    1    4    4    0    0  0.10402955763E-01 -0.10736433587E+00 -0.56462121570E-01  0.12175202010E+00  0.51100000000E-03 0. -1.
</event>
<event>
 8    1  0.1176534E+005  0.1043930E+01  0.7957747E-01            NaN
         13   -1    0    0    0    0  0.00000000000E+00  0.00000000000E+00  0.74505805969E-08  0.10566000000E+00  0.10566000000E+00 0.  1.
     999900   -1    0    0    0    0 -0.00000000000E+00 -0.00000000000E+00 -0.74505805969E-08  0.93827000000E+00  0.93827000000E+00 0.  1.
     999902    2    1    2    0    0 -0.11115813911E-01 -0.16127089482E-01 -0.14409541083E-01  0.10196137666E+01  0.10193237728E+01 0.  0.
     999903    2    3    3    0    0  0.54163784314E-01  0.10877924440E+00  0.32044882080E-01  0.12718952238E+00  0.19587255878E-01 0.  0.
         14    1    1    2    0    0  0.11115813911E-01  0.16127089482E-01  0.14409541083E-01  0.24316233431E-01  0.00000000000E+00 0.  1.
     999901    1    3    3    0    0 -0.65279598225E-01 -0.12490633388E+00 -0.46454423163E-01  0.89242424419E+00  0.88000000000E+00 0.  1.
        -11    1    4    4    0    0  0.34731683429E-01  0.62090027433E-01  0.93533605180E-02  0.71757980841E-01  0.51100000000E-03 0.  1.
         11    1    4    4    0    0  0.19432100885E-01  0.46689216963E-01  0.22691521562E-01  0.55431541537E-01  0.51100000000E-03 0. -1.
</event>
<event>
 8    1  0.1176534E+005  0.1043930E+01  0.7957747E-01            NaN
         13   -1    0    0    0    0  0.00000000000E+00  0.00000000000E+00  0.74505805969E-08  0.10566000000E+00  0.10566000000E+00 0.  1.
     999900   -1    0    0    0    0 -0.00000000000E+00 -0.00000000000E+00 -0.74505805969E-08  0.93827000000E+00  0.93827000000E+00 0. -1.
     999902    2    1    2    0    0 -0.17151152399E-01 -0.14098875808E-01  0.96944776376E-02  0.10197035016E+01  0.10194156699E+01 0.  0.
     999903    2    3    3    0    0 -0.57539241672E-01 -0.11524177706E+00 -0.23502094095E-01  0.13236867382E+00  0.19434141844E-01 0.  0.
         14    1    1    2    0    0  0.17151152399E-01  0.14098875808E-01 -0.96944776376E-02  0.24226498392E-01  0.00000000000E+00 0. -1.
     999901    1    3    3    0    0  0.40388089273E-01  0.10114290126E+00  0.33196571733E-01  0.88733482779E+00  0.88000000000E+00 0.  1.
        -11    1    4    4    0    0 -0.35548115849E-01 -0.77973364196E-01 -0.24337364512E-01  0.89084692832E-01  0.51100000000E-03 0. -1.
         11    1    4    4    0    0 -0.21991125823E-01 -0.37268412868E-01  0.83527041649E-03  0.43283980989E-01  0.51100000000E-03 0.  1.
</event>
<event>
 8    1  0.1176534E+005  0.1043930E+01  0.7957747E-01            NaN
         13   -1    0    0    0    0  0.00000000000E+00  0.00000000000E+00  0.74505805969E-08  0.10566000000E+00  0.10566000000E+00 0.  1.
     999900   -1    0    0    0    0 -0.00000000000E+00 -0.00000000000E+00 -0.74505805969E-08  0.93827000000E+00  0.93827000000E+00 0.  1.
     999902    2    1    2    0    0  0.19653200050E-01 -0.11830591274E-01  0.59057360410E-02  0.10202426852E+01  0.10199676700E+01 0.  0.
     999903    2    3    3    0    0  0.58373227394E-01 -0.10463869808E+00 -0.53346802122E-01  0.13253583696E+00  0.19057176344E-01 0.  0.
         14    1    1    2    0    0 -0.19653200050E-01  0.11830591274E-01 -0.59057360410E-02  0.23687314755E-01  0.00000000000E+00 0.  1.
     999901    1    3    3    0    0 -0.38720027344E-01  0.92808106809E-01  0.59252538163E-01  0.88770684828E+00  0.88000000000E+00 0. -1.
        -11    1    4    4    0    0  0.19264985090E-01 -0.50711373214E-01 -0.29689005879E-01  0.61842390113E-01  0.51100000000E-03 0. -1.
         11    1    4    4    0    0  0.39108242304E-01 -0.53927324869E-01 -0.23657796243E-01  0.70693446851E-01  0.51100000000E-03 0.  1.
</event>
<event>
 8    1  0.1176534E+005  0.1043930E+01  0.7957747E-01            NaN
         13   -1    0    0    0    0  0.00000000000E+00  0.00000000000E+00  0.74505805969E-08  0.10566000000E+00  0.10566000000E+00 0. -1.
     999900   -1    0    0    0    0 -0.00000000000E+00 -0.00000000000E+00 -0.74505805969E-08  0.93827000000E+00  0.93827000000E+00 0.  1.
     999902    2    1    2    0    0 -0.53334464132E-02  0.23032714826E-01 -0.55827141163E-02  0.10196376494E+01  0.10193482318E+01 0.  0.
     999903    2    3    3    0    0  0.67091941405E-01 -0.48460972367E-01 -0.96900880177E-01  0.12907839161E+00  0.20534267865E-01 0.  0.
         14    1    1    2    0    0  0.53334464132E-02 -0.23032714826E-01  0.55827141163E-02  0.24292350644E-01  0.00000000000E+00 0.  1.
     999901    1    3    3    0    0 -0.72425387818E-01  0.71493687193E-01  0.91318166060E-01  0.89055925775E+00  0.88000000000E+00 0. -1.
        -11    1    4    4    0    0  0.28982253857E-01 -0.27073220741E-01 -0.59757298153E-01  0.71722563559E-01  0.51100000000E-03 0.  1.
         11    1    4    4    0    0  0.38109687547E-01 -0.21387751627E-01 -0.37143582024E-01  0.57355828049E-01  0.51100000000E-03 0. -1.
</event>
<event>
 8    1  0.1176534E+005  0.1043930E+01  0.7957747E-01            NaN
         13   -1    0    0    0    0  0.00000000000E+00  0.00000000000E+00  0.74505805969E-08  0.10566000000E+00  0.10566000000E+00 0.  1.
     999900   -1    0    0    0    0 -0.00000000000E+00 -0.00000000000E+00 -0.74505805969E-08  0.93827000000E+00  0.93827000000E+00 0. -1.
     999902    2    1    2    0    0  0.50926123864E-02  0.22981956731E-01  0.40791132445E-02  0.10200397467E+01  0.10197599427E+01 0.  0.
     999903    2    3    3    0    0  0.11949944424E+00 -0.44936190017E-01  0.14582454124E-01  0.12997676132E+00  0.19543084953E-01 0.  0.
         14    1    1    2    0    0 -0.50926123864E-02 -0.22981956731E-01 -0.40791132445E-02  0.23890253263E-01  0.00000000000E+00 0. -1.
     999901    1    3    3    0    0 -0.11440683185E+00  0.67918146748E-01 -0.10503340879E-01  0.89006298541E+00  0.88000000000E+00 0.  1.
        -11    1    4    4    0    0  0.77463492284E-01 -0.22547468878E-01  0.16328414434E-01  0.82315607442E-01  0.51100000000E-03 0. -1.
         11    1    4    4    0    0  0.42035951954E-01 -0.22388721139E-01 -0.17459603101E-02  0.47661153882E-01  0.51100000000E-03 0.  1.
</event>
<event>
 8    1  0.1176534E+005  0.1043930E+01  0.7957747E-01            NaN
         13   -1    0    0    0    0  0.00000000000E+00  0.00000000000E+00  0.74505805969E-08  0.10566000000E+00  0.10566000000E+00 0.  1.
     999900   -1    0    0    0    0 -0.00000000000E+00 -0.00000000000E+00 -0.74505805969E-08  0.93827000000E+00  0.93827000000E+00 0. -1.
     999902    2    1    2    0    0  0.19767464980E-01 -0.36914520743E-02 -0.12760985851E-01  0.10201135718E+01  0.10198355148E+01 0.  0.
     999903    2    3    3    0    0  0.75057190787E-01  0.71508319401E-01  0.77038546055E-01  0.13063287203E+00  0.19570080344E-01 0.  0.
         14    1    1    2    0    0 -0.19767464980E-01  0.36914520743E-02  0.12760985851E-01  0.23816428155E-01  0.00000000000E+00 0. -1.
     999901    1    3    3    0    0 -0.55289725807E-01 -0.75199771476E-01 -0.89799531905E-01  0.88948069981E+00  0.88000000000E+00 0. -1.
        -11    1    4    4    0    0  0.71215441675E-01  0.71216481746E-01  0.70199686931E-01  0.12276678529E+00  0.51100000000E-03 0. -1.
         11    1    4    4    0    0  0.38417491121E-02  0.29183765550E-03  0.68388591232E-02  0.78660867377E-02  0.51100000000E-03 0.  1.
</event>
<event>
 8    1  0.1176534E+005  0.1043930E+01  0.7957747E-01            NaN
         13   -1    0    0    0    0  0.00000000000E+00  0.00000000000E+00  0.74505805969E-08  0.10566000000E+00  0.10566000000E+00 0. -1.
     999900   -1    0    0    0    0 -0.00000000000E+00 -0.00000000000E+00 -0.74505805969E-08  0.93827000000E+00  0.93827000000E+00 0.  1.
     999902    2    1    2    0    0 -0.41275124660E-02  0.24085707639E-01  0.23909621858E-02  0.10193764998E+01  0.10190807495E+01 0.  0.
     999903    2    3    3    0    0  0.64076071175E-01  0.27720839896E-01  0.10833474718E+00  0.13039448166E+00  0.19801907484E-01 0.  0.
         14    1    1    2    0    0  0.41275124660E-02 -0.24085707639E-01 -0.23909621858E-02  0.24553500195E-01  0.00000000000E+00 0.  1.
     999901    1    3    3    0    0 -0.68203583641E-01 -0.36351322567E-02 -0.10594378499E+00  0.88898201815E+00  0.88000000000E+00 0.  1.
        -11    1    4    4    0    0  0.49680595505E-01  0.17651248701E-01  0.93734275535E-01  0.10754582131E+00  0.51100000000E-03 0. -1.
         11    1    4    4    0    0  0.14395475669E-01  0.10069591195E-01  0.14600471641E-01  0.22848660348E-01  0.51100000000E-03 0.  1.
</event>
<event>
 7    1  0.1176534E+005  0.1043930E+01  0.7957747E-01            NaN
         13   -1    0    0    0    0  0.00000000000E+00  0.00000000000E+00  0.74505805969E-08  0.10566000000E+00  0.10566000000E+00 0. -1.
     999900   -1    0    0    0    0 -0.00000000000E+00 -0.00000000000E+00 -0.74505805969E-08  0.93827000000E+00  0.93827000000E+00 0.  1.
     999903    2    1    2    0    0  0.56812811116E-01  0.10591798140E-01  0.79257452384E-01  0.10020753702E+00  0.20492072169E-01 0.  0.
         14    1    1    2    0    0 -0.53864351439E-01  0.20378040356E-01  0.10748545895E-01  0.58584674819E-01  0.00000000000E+00 0. -1.
     999901    1    1    2    0    0 -0.29484596767E-02 -0.30969838496E-01 -0.90005998279E-01  0.88513778816E+00  0.88000000000E+00 0.  1.
        -11    1    3    3    0    0  0.34422596008E-02  0.70020709569E-02  0.97059664937E-02  0.12463749653E-01  0.51100000000E-03 0.  1.
         11    1    3    3    0    0  0.53370551515E-01  0.35897271833E-02  0.69551485890E-01  0.87743787363E-01  0.51100000000E-03 0. -1.
</event>
<event>
 8    1  0.1176534E+005  0.1043930E+01  0.7957747E-01            NaN
         13   -1    0    0    0    0  0.00000000000E+00  0.00000000000E+00  0.74505805969E-08  0.10566000000E+00  0.10566000000E+00 0. -1.
     999900   -1    0    0    0    0 -0.00000000000E+00 -0.00000000000E+00 -0.74505805969E-08  0.93827000000E+00  0.93827000000E+00 0. -1.
     999902    2    1    2    0    0  0.66219641465E-04  0.82615467276E-02 -0.22574559471E-01  0.10198911091E+01  0.10196077708E+01 0.  0.
     999903    2    3    3    0    0 -0.24262751880E-01 -0.83575419396E-01 -0.95929051976E-01  0.13174314354E+00  0.24090267737E-01 0.  0.
         14    1    1    2    0    0 -0.66219641465E-04 -0.82615467276E-02  0.22574559471E-01  0.24038890879E-01  0.00000000000E+00 0. -1.
     999901    1    3    3    0    0  0.24328971521E-01  0.91836966124E-01  0.73354492505E-01  0.88814796559E+00  0.88000000000E+00 0.  1.
        -11    1    4    4    0    0 -0.44851934751E-02 -0.45484151590E-02 -0.17595870214E-01  0.18726473521E-01  0.51100000000E-03 0. -1.
         11    1    4    4    0    0 -0.19777558405E-01 -0.79027004238E-01 -0.78333181762E-01  0.11301667001E+00  0.51100000000E-03 0.  1.
</event>
<event>
 8    1  0.1176534E+005  0.1043930E+01  0.7957747E-01            NaN
         13   -1    0    0    0    0  0.00000000000E+00  0.00000000000E+00  0.74505805969E-08  0.10566000000E+00  0.10566000000E+00 0. -1.
     999900   -1    0    0    0    0 -0.00000000000E+00 -0.00000000000E+00 -0.74505805969E-08  0.93827000000E+00  0.93827000000E+00 0. -1.
     999902    2    1    2    0    0 -0.13121378297E-01 -0.17611560828E-01  0.89146981332E-02  0.10202274793E+01  0.10199521068E+01 0.  0.
     999903    2    3    3    0    0  0.86556441020E-01 -0.60078244638E-01  0.75566962632E-01  0.13108091590E+00  0.19246498676E-01 0.  0.
         14    1    1    2    0    0  0.13121378297E-01  0.17611560828E-01 -0.89146981332E-02  0.23702520668E-01  0.00000000000E+00 0. -1.
     999901    1    3    3    0    0 -0.99677819317E-01  0.42466683809E-01 -0.66652264499E-01  0.88914656343E+00  0.88000000000E+00 0. -1.
        -11    1    4    4    0    0  0.44049771523E-01 -0.38817508418E-01  0.33445350163E-01  0.67572434465E-01  0.51100000000E-03 0. -1.
         11    1    4    4    0    0  0.42506669497E-01 -0.21260736219E-01  0.42121612469E-01  0.63508481436E-01  0.51100000000E-03 0.  1.
</event>
<event>
 8    1  0.1176534E+005  0.1043930E+01  0.7957747E-01            NaN
         13   -1    0    0    0    0  0.00000000000E+00  0.00000000000E+00  0.74505805969E-08  0.10566000000E+00  0.10566000000E+00 0. -1.
     999900   -1    0    0    0    0 -0.00000000000E+00 -0.00000000000E+00 -0.74505805969E-08  0.93827000000E+00  0.93827000000E+00 0.  1.
     999902    2    1    2    0    0  0.23210335391E-01  0.21087628385E-02  0.66126684736E-02  0.10197041061E+01  0.10194162889E+01 0.  0.
     999903    2    3    3    0    0  0.12835376062E+00 -0.27297359932E-01 -0.60537553487E-02  0.13286686163E+00  0.19927901124E-01 0.  0.
         14    1    1    2    0    0 -0.23210335391E-01 -0.21087628385E-02 -0.66126684736E-02  0.24225893875E-01  0.00000000000E+00 0.  1.
     999901    1    3    3    0    0 -0.10514342522E+00  0.29406122771E-01  0.12666423822E-01  0.88683724449E+00  0.88000000000E+00 0. -1.
        -11    1    4    4    0    0  0.73354042633E-01 -0.11059870308E-01 -0.12230714160E-01  0.75186353759E-01  0.51100000000E-03 0. -1.
         11    1    4    4    0    0  0.54999717983E-01 -0.16237489624E-01  0.61769588112E-02  0.57680507875E-01  0.51100000000E-03 0.  1.
</event>
<event>
 8    1  0.1176534E+005  0.1043930E+01  0.7957747E-01            NaN
         13   -1    0    0    0    0  0.00000000000E+00  0.00000000000E+00  0.74505805969E-08  0.10566000000E+00  0.10566000000E+00 0. -1.
     999900   -1    0    0    0    0 -0.00000000000E+00 -0.00000000000E+00 -0.74505805969E-08  0.93827000000E+00  0.93827000000E+00 0. -1.
     999902    2    1    2    0    0 -0.50703769407E-02 -0.78018817624E-02  0.22413779077E-01  0.10196615931E+01  0.10193727527E+01 0.  0.
     999903    2    3    3    0    0  0.87886524882E-01  0.92141497929E-01  0.73297193530E-02  0.12901172159E+00  0.19395943559E-01 0.  0.
         14    1    1    2    0    0  0.50703769407E-02  0.78018817624E-02 -0.22413779077E-01  0.24268406908E-01  0.00000000000E+00 0.  1.
     999901    1    3    3    0    0 -0.92956901823E-01 -0.99943379691E-01  0.15084059724E-01  0.89064987150E+00  0.88000000000E+00 0.  1.
        -11    1    4    4    0    0  0.68523299624E-01  0.79937954583E-01  0.11367549907E-02  0.10529516849E+00  0.51100000000E-03 0.  1.
         11    1    4    4    0    0  0.19363225258E-01  0.12203543345E-01  0.61929643623E-02  0.23716553105E-01  0.51100000000E-03 0. -1.
</event>
<event>
 8    1  0.1176534E+005  0.1043930E+01  0.7957747E-01            NaN
         13   -1    0    0    0    0  0.00000000000E+00  0.00000000000E+00  0.74505805969E-08  0.10566000000E+00  0.10566000000E+00 0.  1.
     999900   -1    0    0    0    0 -0.00000000000E+00 -0.00000000000E+00 -0.74505805969E-08  0.93827000000E+00  0.93827000000E+00 0.  1.
     999902    2    1    2    0    0  0.20156055098E-01 -0.76905985213E-02 -0.86156027623E-02  0.10206998370E+01  0.10204354545E+01 0.  0.
     999903    2    3    3    0    0 -0.93444319062E-01 -0.93660727256E-02 -0.87455451922E-01  0.12990043530E+00  0.20151995873E-01 0.  0.
         14    1    1    2    0    0 -0.20156055098E-01  0.76905985213E-02  0.86156027623E-02  0.23230163014E-01  0.00000000000E+00 0. -1.
     999901    1    3    3    0    0  0.11360037416E+00  0.16754742043E-02  0.78839849160E-01  0.89079940168E+00  0.88000000000E+00 0. -1.
        -11    1    4    4    0    0 -0.70528557258E-01  0.68923594300E-04 -0.71433942925E-01  0.10038601228E+00  0.51100000000E-03 0.  1.
         11    1    4    4    0    0 -0.22915761804E-01 -0.94349963199E-02 -0.16021508997E-01  0.29514423020E-01  0.51100000000E-03 0. -1.
</event>
<event>
 8    1  0.1176534E+005  0.1043930E+01  0.7957747E-01            NaN
         13   -1    0    0    0    0  0.00000000000E+00  0.00000000000E+00  0.74505805969E-08  0.10566000000E+00  0.10566000000E+00 0. -1.
     999900   -1    0    0    0    0 -0.00000000000E+00 -0.00000000000E+00 -0.74505805969E-08  0.93827000000E+00  0.93827000000E+00 0. -1.
     999902    2    1    2    0    0  0.11048938598E-01 -0.17884314552E-01  0.11693029196E-01  0.10198747577E+01  0.10195910291E+01 0.  0.
     999903    2    3    3    0    0  0.94404171841E-01  0.15353973851E-01 -0.85694408759E-01  0.12996622767E+00  0.19994911032E-01 0.  0.
         14    1    1    2    0    0 -0.11048938598E-01  0.17884314552E-01 -0.11693029196E-01  0.24055242317E-01  0.00000000000E+00 0.  1.
     999901    1    3    3    0    0 -0.83355233242E-01 -0.33238288403E-01  0.97387437956E-01  0.88990853002E+00  0.88000000000E+00 0.  1.
        -11    1    4    4    0    0  0.42961010702E-01  0.10957245400E-01 -0.27531770150E-01  0.52191657915E-01  0.51100000000E-03 0. -1.
         11    1    4    4    0    0  0.51443161139E-01  0.43967284504E-02 -0.58162638609E-01  0.77774569751E-01  0.51100000000E-03 0.  1.
</event>
<event>
 8    1  0.1176534E+005  0.1043930E+01  0.7957747E-01            NaN
         13   -1    0    0    0    0  0.00000000000E+00  0.00000000000E+00  0.74505805969E-08  0.10566000000E+00  0.10566000000E+00 0.  1.
     999900   -1    0    0    0    0 -0.00000000000E+00 -0.00000000000E+00 -0.74505805969E-08  0.93827000000E+00  0.93827000000E+00 0. -1.
     999902    2    1    2    0    0 -0.20921854240E-01  0.87536811388E-02  0.34273676136E-02  0.10209931788E+01  0.10207355061E+01 0.  0.
     999903    2    3    3    0    0  0.17856520101E-01 -0.60070031494E-01  0.11298780917E+00  0.13068763793E+00  0.19640511497E-01 0.  0.
         14    1    1    2    0    0  0.20921854240E-01 -0.87536811388E-02 -0.34273676136E-02  0.22936821207E-01  0.00000000000E+00 0. -1.
     999901    1    3    3    0    0 -0.38778374341E-01  0.68823712633E-01 -0.10956044156E+00  0.89030554086E+00  0.88000000000E+00 0. -1.
        -11    1    4    4    0    0  0.14125127097E-01 -0.46486499454E-01  0.68227128962E-01  0.83759871623E-01  0.51100000000E-03 0. -1.
         11    1    4    4    0    0  0.37313930037E-02 -0.13583532040E-01  0.44760680212E-01  0.46927766306E-01  0.51100000000E-03 0.  1.
</event>
<event>
 8    1  0.1176534E+005  0.1043930E+01  0.7957747E-01            NaN
         13   -1    0    0    0    0  0.00000000000E+00  0.00000000000E+00  0.74505805969E-08  0.10566000000E+00  0.10566000000E+00 0.  1.
     999900   -1    0    0    0    0 -0.00000000000E+00 -0.00000000000E+00 -0.74505805969E-08  0.93827000000E+00  0.93827000000E+00 0. -1.
     999902    2    1    2    0    0 -0.24584265856E-02 -0.17099570590E-01  0.16982616363E-01  0.10197050452E+01  0.10194172506E+01 0.  0.
     999903    2    3    3    0    0  0.39712153675E-01 -0.11122388845E+00 -0.53094723802E-01  0.13091453072E+00  0.19280978908E-01 0.  0.
         14    1    1    2    0    0  0.24584265856E-02  0.17099570590E-01 -0.16982616363E-01  0.24224954782E-01  0.00000000000E+00 0. -1.
     999901    1    3    3    0    0 -0.42170580261E-01  0.94124317859E-01  0.70077340165E-01  0.88879051450E+00  0.88000000000E+00 0.  1.
        -11    1    4    4    0    0  0.16071514607E-01 -0.50668285241E-01 -0.34222743621E-01  0.63222037400E-01  0.51100000000E-03 0. -1.
         11    1    4    4    0    0  0.23640639068E-01 -0.60555603208E-01 -0.18871980181E-01  0.67692493323E-01  0.51100000000E-03 0.  1.
</event>
<event>
 8    1  0.1176534E+005  0.1043930E+01  0.7957747E-01            NaN
         13   -1    0    0    0    0  0.00000000000E+00  0.00000000000E+00  0.74505805969E-08  0.10566000000E+00  0.10566000000E+00 0. -1.
     999900   -1    0    0    0    0 -0.00000000000E+00 -0.00000000000E+00 -0.74505805969E-08  0.93827000000E+00  0.93827000000E+00 0. -1.
     999902    2    1    2    0    0 -0.23124671365E-01 -0.14164623208E-02  0.58348858644E-02  0.10200385228E+01  0.10197586897E+01 0.  0.
     999903    2    3    3    0    0  0.18592272776E-01  0.88046080824E-01  0.92155642484E-01  0.13032220670E+00  0.19835074043E-01 0.  0.
         14    1    1    2    0    0  0.23124671365E-01  0.14164623208E-02 -0.58348858644E-02  0.23891477231E-01  0.00000000000E+00 0.  1.
     999901    1    3    3    0    0 -0.41716944141E-01 -0.89462543145E-01 -0.86320756619E-01  0.88971631607E+00  0.88000000000E+00 0. -1.
        -11    1    4    4    0    0  0.18901855342E-01  0.70926332422E-01  0.83339346197E-01  0.11105643841E+00  0.51100000000E-03 0.  1.
         11    1    4    4    0    0 -0.30958256597E-03  0.17119748402E-01  0.88162962871E-02  0.19265768294E-01  0.51100000000E-03 0. -1.
</event>
<event>
 8    1  0.1176534E+005  0.1043930E+01  0.7957747E-01            NaN
         13   -1    0    0    0    0  0.00000000000E+00  0.00000000000E+00  0.74505805969E-08  0.10566000000E+00  0.10566000000E+00 0.  1.
     999900   -1    0    0    0    0 -0.00000000000E+00 -0.00000000000E+00 -0.74505805969E-08  0.93827000000E+00  0.93827000000E+00 0. -1.
     999902    2    1    2    0    0 -0.82892701483E-02  0.27376408062E-02 -0.22175472593E-01  0.10200981251E+01  0.10198197030E+01 0.  0.
     999903    2    3    3    0    0 -0.56088369066E-01  0.81144515791E-01  0.81198614264E-01  0.12930151883E+00  0.19882912904E-01 0.  0.
         14    1    1    2    0    0  0.82892701483E-02 -0.27376408062E-02  0.22175472593E-01  0.23831874905E-01  0.00000000000E+00 0.  1.
     999901    1    3    3    0    0  0.47799098918E-01 -0.78406874985E-01 -0.10337408686E+00  0.89079660627E+00  0.88000000000E+00 0. -1.
        -11    1    4    4    0    0 -0.43850995600E-01  0.47580126134E-01  0.56069167720E-01  0.85620038004E-01  0.51100000000E-03 0.  1.
         11    1    4    4    0    0 -0.12237373466E-01  0.33564389657E-01  0.25129446544E-01  0.43681480824E-01  0.51100000000E-03 0. -1.
</event>
<event>
 8    1  0.1176534E+005  0.1043930E+01  0.7957747E-01            NaN
         13   -1    0    0    0    0  0.00000000000E+00  0.00000000000E+00  0.74505805969E-08  0.10566000000E+00  0.10566000000E+00 0. -1.
     999900   -1    0    0    0    0 -0.00000000000E+00 -0.00000000000E+00 -0.74505805969E-08  0.93827000000E+00  0.93827000000E+00 0.  1.
     999902    2    1    2    0    0 -0.57638129067E-03 -0.23953214973E-01  0.69044754004E-02  0.10189948741E+01  0.10186897432E+01 0.  0.
     999903    2    3    3    0    0 -0.11698180307E+00 -0.18123825385E-01  0.50634773735E-01  0.13023363339E+00  0.19588355180E-01 0.  0.
         14    1    1    2    0    0  0.57638129067E-03  0.23953214973E-01 -0.69044754004E-02  0.24935125896E-01  0.00000000000E+00 0.  1.
     999901    1    3    3    0    0  0.11640542178E+00 -0.58293895876E-02 -0.43730298334E-01  0.88876124071E+00  0.88000000000E+00 0. -1.
        -11    1    4    4    0    0 -0.50354542420E-01 -0.15332615064E-01  0.15596600086E-01  0.54901585426E-01  0.51100000000E-03 0.  1.
         11    1    4    4    0    0 -0.66627260650E-01 -0.27912103205E-02  0.35038173649E-01  0.75332047964E-01  0.51100000000E-03 0. -1.
</event>
<event>
 8    1  0.1176534E+005  0.1043930E+01  0.7957747E-01            NaN
         13   -1    0    0    0    0  0.00000000000E+00  0.00000000000E+00  0.74505805969E-08  0.10566000000E+00  0.10566000000E+00 0. -1.
     999900   -1    0    0    0    0 -0.00000000000E+00 -0.00000000000E+00 -0.74505805969E-08  0.93827000000E+00  0.93827000000E+00 0. -1.
     999902    2    1    2    0    0  0.67824101950E-02  0.22530574425E-01  0.50102793885E-02  0.10198731762E+01  0.10195894099E+01 0.  0.
     999903    2    3    3    0    0 -0.76463534430E-01  0.10268910353E+00  0.23943336074E-01  0.13211547405E+00  0.22124444867E-01 0.  0.
         14    1    1    2    0    0 -0.67824101950E-02 -0.22530574425E-01 -0.50102793885E-02  0.24056823804E-01  0.00000000000E+00 0. -1.
     999901    1    3    3    0    0  0.83245944625E-01 -0.80158529101E-01 -0.18933056685E-01  0.88775770215E+00  0.88000000000E+00 0. -1.
        -11    1    4    4    0    0 -0.47505811863E-01  0.54723198640E-01  0.23156542478E-01  0.76078362303E-01  0.51100000000E-03 0.  1.
         11    1    4    4    0    0 -0.28957722567E-01  0.47965904886E-01  0.78679359520E-03  0.56037111747E-01  0.51100000000E-03 0. -1.
</event>
<event>
 8    1  0.1176534E+005  0.1043930E+01  0.7957747E-01            NaN
         13   -1    0    0    0    0  0.00000000000E+00  0.00000000000E+00  0.74505805969E-08  0.10566000000E+00  0.10566000000E+00 0.  1.
     999900   -1    0    0    0    0 -0.00000000000E+00 -0.00000000000E+00 -0.74505805969E-08  0.93827000000E+00  0.93827000000E+00 0. -1.
     999902    2    1    2    0    0  0.68513748527E-03  0.87933884664E-02 -0.20788417249E-01  0.10213478968E+01  0.10210982200E+01 0.  0.
     999903    2    3    3    0    0  0.46594991959E-01  0.12181221451E+00  0.11191642004E-01  0.13235763026E+00  0.19595421890E-01 0.  0.
         14    1    1    2    0    0 -0.68513748527E-03 -0.87933884664E-02  0.20788417249E-01  0.22582103219E-01  0.00000000000E+00 0.  1.
     999901    1    3    3    0    0 -0.45909854474E-01 -0.11301882604E+00 -0.31980059253E-01  0.88899026652E+00  0.88000000000E+00 0. -1.
        -11    1    4    4    0    0  0.25969343695E-02  0.23757823096E-01  0.65368240250E-02  0.24782441682E-01  0.51100000000E-03 0.  1.
         11    1    4    4    0    0  0.43998057590E-01  0.98054391410E-01  0.46548179791E-02  0.10757518858E+00  0.51100000000E-03 0. -1.
</event>
<event>
 8    1  0.1176534E+005  0.1043930E+01  0.7957747E-01            NaN
         13   -1    0    0    0    0  0.00000000000E+00  0.00000000000E+00  0.74505805969E-08  0.10566000000E+00  0.10566000000E+00 0. -1.
     999900   -1    0    0    0    0 -0.00000000000E+00 -0.00000000000E+00 -0.74505805969E-08  0.93827000000E+00  0.93827000000E+00 0.  1.
     999902    2    1    2    0    0 -0.28159676618E-02 -0.17866319711E-01 -0.17366918883E-01  0.10188552134E+01  0.10185466120E+01 0.  0.
     999903    2    3    3    0    0  0.63838866587E-01  0.91542057114E-01  0.56252810199E-01  0.12653636655E+00  0.19792026097E-01 0.  0.
         14    1    1    2    0    0  0.28159676618E-02  0.17866319711E-01  0.17366918883E-01  0.25074786647E-01  0.00000000000E+00 0.  1.
     999901    1    3    3    0    0 -0.66654834249E-01 -0.10940837682E+00 -0.73619729082E-01  0.89231884680E+00  0.88000000000E+00 0. -1.
        -11    1    4    4    0    0  0.26254580345E-01  0.54835248088E-01  0.29405443844E-01  0.67536276701E-01  0.51100000000E-03 0.  1.
         11    1    4    4    0    0  0.37584286242E-01  0.36706809026E-01  0.26847366355E-01  0.59000089851E-01  0.51100000000E-03 0. -1.
</event>
<event>
 8    1  0.1176534E+005  0.1043930E+01  0.7957747E-01            NaN
         13   -1    0    0    0    0  0.00000000000E+00  0.00000000000E+00  0.74505805969E-08  0.10566000000E+00  0.10566000000E+00 0.  1.
     999900   -1    0    0    0    0 -0.00000000000E+00 -0.00000000000E+00 -0.74505805969E-08  0.93827000000E+00  0.93827000000E+00 0. -1.
     999902    2    1    2    0    0 -0.98462372927E-02  0.13165556277E-01 -0.16648557169E-01  0.10205322498E+01  0.10202639943E+01 0.  0.
     999903    2    3    3    0    0  0.52838899671E-01  0.10098241101E+00 -0.64128193868E-01  0.13267215814E+00  0.22362460628E-01 0.  0.
         14    1    1    2    0    0  0.98462372927E-02 -0.13165556277E-01  0.16648557169E-01  0.23397750249E-01  0.00000000000E+00 0.  1.
     999901    1    3    3    0    0 -0.62685136964E-01 -0.87816854733E-01  0.47479636698E-01  0.88786009161E+00  0.88000000000E+00 0.  1.
        -11    1    4    4    0    0  0.10947747476E-01  0.27467231130E-01 -0.64474961424E-02  0.30267693804E-01  0.51100000000E-03 0.  1.
         11    1    4    4    0    0  0.41891152196E-01  0.73515179880E-01 -0.57680697725E-01  0.10240446434E+00  0.51100000000E-03 0. -1.
</event>
<event>
 8    1  0.1176534E+005  0.1043930E+01  0.7957747E-01            NaN
         13   -1    0    0    0    0  0.00000000000E+00  0.00000000000E+00  0.74505805969E-08  0.10566000000E+00  0.10566000000E+00 0.  1.
     999900   -1    0    0    0    0 -0.00000000000E+00 -0.00000000000E+00 -0.74505805969E-08  0.93827000000E+00  0.93827000000E+00 0.  1.
     999902    2    1    2    0    0  0.12910269310E-01 -0.16193637074E-01  0.92199006967E-02  0.10212602955E+01  0.10210086560E+01 0.  0.
     999903    2    3    3    0    0 -0.11582624499E+00 -0.48370407087E-01  0.31319334572E-01  0.13103739100E+00  0.20844227299E-01 0.  0.
         14    1    1    2    0    0 -0.12910269310E-01  0.16193637074E-01 -0.92199006967E-02  0.22669704546E-01  0.00000000000E+00 0.  1.
     999901    1    3    3    0    0  0.12873651430E+00  0.32176770013E-01 -0.22099433875E-01  0.89022290446E+00  0.88000000000E+00 0.  1.
        -11    1    4    4    0    0 -0.10440876731E+00 -0.43534474913E-01  0.21351287439E-01  0.11511984969E+00  0.51100000000E-03 0.  1.
         11    1    4    4    0    0 -0.11417477676E-01 -0.48359321744E-02  0.99680471328E-02  0.15917541302E-01  0.51100000000E-03 0. -1.
</event>
<event>
 8    1  0.1176534E+005  0.1043930E+01  0.7957747E-01            NaN
         13   -1    0    0    0    0  0.00000000000E+00  0.00000000000E+00  0.74505805969E-08  0.10566000000E+00  0.10566000000E+00 0.  1.
     999900   -1    0    0    0    0 -0.00000000000E+00 -0.00000000000E+00 -0.74505805969E-08  0.93827000000E+00  0.93827000000E+00 0. -1.
     999902    2    1    2    0    0 -0.11552299786E-01  0.56601588065E-02 -0.18982196785E-01  0.10209993039E+01  0.10207417704E+01 0.  0.
     999903    2    3    3    0    0  0.98722850722E-01  0.65916386705E-01 -0.52667482219E-01  0.13143417405E+00  0.20246163441E-01 0.  0.
         14    1    1    2    0    0  0.11552299786E-01 -0.56601588065E-02  0.18982196785E-01  0.22930696083E-01  0.00000000000E+00 0.  1.
     999901    1    3    3    0    0 -0.11027515051E+00 -0.60256227898E-01  0.33685285434E-01  0.88956512987E+00  0.88000000000E+00 0.  1.
        -11    1    4    4    0    0  0.40006204191E-01  0.22443430367E-01 -0.30487545382E-01  0.55081353332E-01  0.51100000000E-03 0.  1.
         11    1    4    4    0    0  0.58716646531E-01  0.43472956338E-01 -0.22179936836E-01  0.76352820719E-01  0.51100000000E-03 0. -1.
</event>
<event>
 8    1  0.1176534E+005  0.1043930E+01  0.7957747E-01            NaN
         13   -1    0    0    0    0  0.00000000000E+00  0.00000000000E+00  0.74505805969E-08  0.10566000000E+00  0.10566000000E+00 0. -1.
     999900   -1    0    0    0    0 -0.00000000000E+00 -0.00000000000E+00 -0.74505805969E-08  0.93827000000E+00  0.93827000000E+00 0. -1.
     999902    2    1    2    0    0  0.42857282609E-02  0.15742264416E-01  0.17377840369E-01  0.10200935638E+01  0.10198150338E+01 0.  0.
     999903    2    3    3    0    0  0.76827436286E-01  0.30232809391E-01  0.10214383984E+00  0.13293092370E+00  0.20513135509E-01 0.  0.
         14    1    1    2    0    0 -0.42857282609E-02 -0.15742264416E-01 -0.17377840369E-01  0.23836436218E-01  0.00000000000E+00 0.  1.
     999901    1    3    3    0    0 -0.72541708025E-01 -0.14490544974E-01 -0.84765999467E-01  0.88716264008E+00  0.88000000000E+00 0. -1.
        -11    1    4    4    0    0  0.35714373009E-01  0.31977541050E-02  0.43621202406E-01  0.56469571373E-01  0.51100000000E-03 0.  1.
         11    1    4    4    0    0  0.41113063278E-01  0.27035055285E-01  0.58522637431E-01  0.76461352324E-01  0.51100000000E-03 0. -1.
</event>
<event>
 8    1  0.1176534E+005  0.1043930E+01  0.7957747E-01            NaN
         13   -1    0    0    0    0  0.00000000000E+00  0.00000000000E+00  0.74505805969E-08  0.10566000000E+00  0.10566000000E+00 0. -1.
     999900   -1    0    0    0    0 -0.00000000000E+00 -0.00000000000E+00 -0.74505805969E-08  0.93827000000E+00  0.93827000000E+00 0.  1.
     999902    2    1    2    0    0  0.82310039225E-02 -0.72668458845E-02  0.21128895612E-01  0.10201185174E+01  0.10198405771E+01 0.  0.
     999903    2    3    3    0    0  0.40179522829E-01  0.77026659474E-01  0.97592427884E-01  0.13221493327E+00  0.20223903566E-01 0.  0.
         14    1    1    2    0    0 -0.82310039225E-02  0.72668458845E-02 -0.21128895612E-01  0.23811482618E-01  0.00000000000E+00 0.  1.
     999901    1    3    3    0    0 -0.31948518907E-01 -0.84293505359E-01 -0.76463532272E-01  0.88790358411E+00  0.88000000000E+00 0.  1.
        -11    1    4    4    0    0  0.26394629583E-02 -0.32300131997E-03  0.60389977369E-02  0.66182859735E-02  0.51100000000E-03 0. -1.
         11    1    4    4    0    0  0.37540059871E-01  0.77349660794E-01  0.91553430147E-01  0.12559664730E+00  0.51100000000E-03 0.  1.
</event>
<event>
 8    1  0.1176534E+005  0.1043930E+01  0.7957747E-01            NaN
         13   -1    0    0    0    0  0.00000000000E+00  0.00000000000E+00  0.74505805969E-08  0.10566000000E+00  0.10566000000E+00 0.  1.
     999900   -1    0    0    0    0 -0.00000000000E+00 -0.00000000000E+00 -0.74505805969E-08  0.93827000000E+00  0.93827000000E+00 0. -1.
     999902    2    1    2    0    0  0.11576646388E-01 -0.97496861330E-02  0.16963069532E-01  0.10211963059E+01  0.10209432277E+01 0.  0.
     999903    2    3    3    0    0  0.70518112572E-01 -0.19218922796E-01 -0.10638044130E+00  0.13059123932E+00  0.19877180449E-01 0.  0.
         14    1    1    2    0    0 -0.11576646388E-01  0.97496861330E-02 -0.16963069532E-01  0.22733694140E-01  0.00000000000E+00 0. -1.
     999901    1    3    3    0    0 -0.58941466184E-01  0.94692366634E-02  0.12334351083E+00  0.89060506654E+00  0.88000000000E+00 0.  1.
        -11    1    4    4    0    0  0.55149526888E-01 -0.77256968002E-02 -0.69944870491E-01  0.89407509394E-01  0.51100000000E-03 0. -1.
         11    1    4    4    0    0  0.15368585685E-01 -0.11493225996E-01 -0.36435570807E-01  0.41183729928E-01  0.51100000000E-03 0.  1.
</event>
<event>
 8    1  0.1176534E+005  0.1043930E+01  0.7957747E-01            NaN
         13   -1    0    0    0    0  0.00000000000E+00  0.00000000000E+00  0.74505805969E-08  0.10566000000E+00  0.10566000000E+00 0.  1.
     999900   -1    0    0    0    0 -0.00000000000E+00 -0.00000000000E+00 -0.74505805969E-08  0.93827000000E+00  0.93827000000E+00 0. -1.
     999902    2    1    2    0    0 -0.15518642634E-02  0.45417919842E-02 -0.23995747509E-01  0.10194589547E+01  0.10191652115E+01 0.  0.
     999903    2    3    3    0    0 -0.40277893750E-01 -0.11404289216E+00  0.38181203104E-01  0.12848869382E+00  0.20577905421E-01 0.  0.
         14    1    1    2    0    0  0.15518642634E-02 -0.45417919842E-02  0.23995747509E-01  0.24471045251E-01  0.00000000000E+00 0.  1.
     999901    1    3    3    0    0  0.38726029487E-01  0.11858468415E+00 -0.62176950614E-01  0.89097026093E+00  0.88000000000E+00 0. -1.
        -11    1    4    4    0    0 -0.12162726349E-01 -0.33989234563E-01  0.21485431677E-01  0.42012913179E-01  0.51100000000E-03 0.  1.
         11    1    4    4    0    0 -0.28115167401E-01 -0.80053657599E-01  0.16695771427E-01  0.86475780641E-01  0.51100000000E-03 0. -1.
</event>
<event>
 8    1  0.1176534E+005  0.1043930E+01  0.7957747E-01            NaN
         13   -1    0    0    0    0  0.00000000000E+00  0.00000000000E+00  0.74505805969E-08  0.10566000000E+00  0.10566000000E+00 0. -1.
     999900   -1    0    0    0    0 -0.00000000000E+00 -0.00000000000E+00 -0.74505805969E-08  0.93827000000E+00  0.93827000000E+00 0.  1.
     999902    2    1    2    0    0  0.12574964251E-01 -0.18167164056E-01  0.76572427820E-02  0.10205460537E+01  0.10202781184E+01 0.  0.
     999903    2    3    3    0    0  0.45015055451E-02 -0.12805226792E+00 -0.24102310870E-01  0.13310671157E+00  0.26810975409E-01 0.  0.
         14    1    1    2    0    0 -0.12574964251E-01  0.18167164056E-01 -0.76572427820E-02  0.23383946262E-01  0.00000000000E+00 0.  1.
     999901    1    3    3    0    0  0.80734587062E-02  0.10988510387E+00  0.31759553652E-01  0.88743934217E+00  0.88000000000E+00 0. -1.
        -11    1    4    4    0    0  0.14649502981E-01 -0.75386054267E-01 -0.86241368690E-02  0.77280670114E-01  0.51100000000E-03 0. -1.
         11    1    4    4    0    0 -0.10147997436E-01 -0.52666213655E-01 -0.15478174001E-01  0.55826041451E-01  0.51100000000E-03 0.  1.
</event>
<event>
 8    1  0.1176534E+005  0.1043930E+01  0.7957747E-01            NaN
         13   -1    0    0    0    0  0.00000000000E+00  0.00000000000E+00  0.74505805969E-08  0.10566000000E+00  0.10566000000E+00 0. -1.
     999900   -1    0    0    0    0 -0.00000000000E+00 -0.00000000000E+00 -0.74505805969E-08  0.93827000000E+00  0.93827000000E+00 0.  1.
     999902    2    1    2    0    0 -0.63000550199E-02  0.20293493258E-01  0.10120872631E-01  0.10203938868E+01  0.10201224121E+01 0.  0.
     999903    2    3    3    0    0 -0.82155890348E-01 -0.86950787616E-02 -0.97749536535E-01  0.13009591969E+00  0.23340559413E-01 0.  0.
         14    1    1    2    0    0  0.63000550199E-02 -0.20293493258E-01 -0.10120872631E-01  0.23536113203E-01  0.00000000000E+00 0.  1.
     999901    1    3    3    0    0  0.75855835328E-01  0.28988572020E-01  0.10787040917E+00  0.89029796711E+00  0.88000000000E+00 0. -1.
        -11    1    4    4    0    0 -0.37458754697E-01 -0.39256841472E-02 -0.27278132395E-01  0.46507278220E-01  0.51100000000E-03 0. -1.
         11    1    4    4    0    0 -0.44697135651E-01 -0.47693946143E-02 -0.70471404140E-01  0.83588641470E-01  0.51100000000E-03 0.  1.
</event>
<event>
 8    1  0.1176534E+005  0.1043930E+01  0.7957747E-01            NaN
         13   -1    0    0    0    0  0.00000000000E+00  0.00000000000E+00  0.74505805969E-08  0.10566000000E+00  0.10566000000E+00 0. -1.
     999900   -1    0    0    0    0 -0.00000000000E+00 -0.00000000000E+00 -0.74505805969E-08  0.93827000000E+00  0.93827000000E+00 0. -1.
     999902    2    1    2    0    0 -0.21018823173E-01  0.85820585207E-03  0.11472295745E-01  0.10199687602E+01  0.10196872710E+01 0.  0.
     999903    2    3    3    0    0 -0.12359676448E+00  0.98930830101E-02  0.45072545236E-01  0.13332743482E+00  0.19251941731E-01 0.  0.
         14    1    1    2    0    0  0.21018823173E-01 -0.85820585207E-03 -0.11472295745E-01  0.23961239837E-01  0.00000000000E+00 0.  1.
     999901    1    3    3    0    0  0.10257794130E+00 -0.90348771580E-02 -0.33600249491E-01  0.88664132535E+00  0.88000000000E+00 0. -1.
        -11    1    4    4    0    0 -0.97480915063E-01  0.11237537698E-01  0.27822803150E-01  0.10199598302E+00  0.51100000000E-03 0. -1.
         11    1    4    4    0    0 -0.26115849412E-01 -0.13444546882E-02  0.17249742087E-01  0.31331451801E-01  0.51100000000E-03 0.  1.
</event>
<event>
 8    1  0.1176534E+005  0.1043930E+01  0.7957747E-01            NaN
         13   -1    0    0    0    0  0.00000000000E+00  0.00000000000E+00  0.74505805969E-08  0.10566000000E+00  0.10566000000E+00 0.  1.
     999900   -1    0    0    0    0 -0.00000000000E+00 -0.00000000000E+00 -0.74505805969E-08  0.93827000000E+00  0.93827000000E+00 0. -1.
     999902    2    1    2    0    0 -0.98268518054E-03 -0.20495289165E-01  0.12358812766E-01  0.10199766537E+01  0.10196953522E+01 0.  0.
     999903    2    3    3    0    0  0.75405002382E-01 -0.35502247714E-01 -0.97093675085E-01  0.12978558725E+00  0.21697763445E-01 0.  0.
         14    1    1    2    0    0  0.98268518054E-03  0.20495289165E-01 -0.12358812766E-01  0.23953346345E-01  0.00000000000E+00 0. -1.
     999901    1    3    3    0    0 -0.76387687563E-01  0.15006958549E-01  0.10945248785E+00  0.89019106641E+00  0.88000000000E+00 0.  1.
        -11    1    4    4    0    0  0.28664239884E-01 -0.78526987138E-02 -0.48639874877E-01  0.57003526858E-01  0.51100000000E-03 0.  1.
         11    1    4    4    0    0  0.46740762498E-01 -0.27649549000E-01 -0.48453800208E-01  0.72782060389E-01  0.51100000000E-03 0. -1.
</event>
<event>
 7    1  0.1191542E+005  0.1043930E+01  0.7957747E-01            NaN
         13   -1    0    0    0    0  0.00000000000E+00  0.00000000000E+00  0.74505805969E-08  0.10566000000E+00  0.10566000000E+00 0.  1.
     999900   -1    0    0    0    0 -0.00000000000E+00 -0.00000000000E+00 -0.74505805969E-08  0.93827000000E+00  0.93827000000E+00 0.  1.
     999903    2    1    2    0    0  0.86599285912E-01  0.22291853932E-01  0.64385686462E-01  0.11122841189E+00  0.15161791363E-01 0.  0.
         14    1    1    2    0    0  0.91479322271E-02 -0.38658862769E-01 -0.24048482413E-01  0.46438366046E-01  0.00000000000E+00 0. -1.
     999901    1    1    2    0    0 -0.95747218139E-01  0.16367008837E-01 -0.40337204050E-01  0.88626322207E+00  0.88000000000E+00 0.  1.
        -11    1    3    3    0    0  0.60017286945E-01  0.21833889973E-01  0.41700628940E-01  0.76275796020E-01  0.51100000000E-03 0. -1.
         11    1    3    3    0    0  0.26581998967E-01  0.45796395945E-03  0.22685057522E-01  0.34952615866E-01  0.51100000000E-03 0.  1.
</event>
<event>
 8    1  0.1176534E+005  0.1043930E+01  0.7957747E-01            NaN
         13   -1    0    0    0    0  0.00000000000E+00  0.00000000000E+00  0.74505805969E-08  0.10566000000E+00  0.10566000000E+00 0.  1.
     999900   -1    0    0    0    0 -0.00000000000E+00 -0.00000000000E+00 -0.74505805969E-08  0.93827000000E+00  0.93827000000E+00 0. -1.
     999902    2    1    2    0    0  0.16361704825E-01  0.17280061357E-01  0.80603541472E-02  0.10188048092E+01  0.10184949504E+01 0.  0.
     999903    2    3    3    0    0 -0.11866299474E+00 -0.32563586840E-01 -0.21410004538E-01  0.12662514072E+00  0.20838533037E-01 0.  0.
         14    1    1    2    0    0 -0.16361704825E-01 -0.17280061357E-01 -0.80603541472E-02  0.25125190830E-01  0.00000000000E+00 0. -1.
     999901    1    3    3    0    0  0.13502469956E+00  0.49843648196E-01  0.29470358685E-01  0.89217966845E+00  0.88000000000E+00 0.  1.
        -11    1    4    4    0    0 -0.66977409475E-01 -0.22338542473E-01 -0.25189712341E-02  0.70651186804E-01  0.51100000000E-03 0.  1.
         11    1    4    4    0    0 -0.51685585265E-01 -0.10225044366E-01 -0.18891033304E-01  0.55973953914E-01  0.51100000000E-03 0. -1.
</event>
<event>
 8    1  0.1176534E+005  0.1043930E+01  0.7957747E-01            NaN
         13   -1    0    0    0    0  0.00000000000E+00  0.00000000000E+00  0.74505805969E-08  0.10566000000E+00  0.10566000000E+00 0.  1.
     999900   -1    0    0    0    0 -0.00000000000E+00 -0.00000000000E+00 -0.74505805969E-08  0.93827000000E+00  0.93827000000E+00 0. -1.
     999902    2    1    2    0    0 -0.48168106096E-02 -0.13405645136E-01  0.19041210506E-01  0.10201501622E+01  0.10198729690E+01 0.  0.
     999903    2    3    3    0    0  0.12450974018E+00 -0.23610274987E-01 -0.19349222257E-01  0.12981128489E+00  0.20407273191E-01 0.  0.
         14    1    1    2    0    0  0.48168106096E-02  0.13405645136E-01 -0.19041210506E-01  0.23779837752E-01  0.00000000000E+00 0.  1.
     999901    1    3    3    0    0 -0.12932655079E+00  0.10204629851E-01  0.38390432764E-01  0.89033887736E+00  0.88000000000E+00 0. -1.
        -11    1    4    4    0    0  0.46938096550E-02  0.28806105215E-02  0.29268479294E-03  0.55386416603E-02  0.51100000000E-03 0. -1.
         11    1    4    4    0    0  0.11981593052E+00 -0.26490885508E-01 -0.19641907050E-01  0.12427264323E+00  0.51100000000E-03 0.  1.
</event>
<event>
 8    1  0.1176534E+005  0.1043930E+01  0.7957747E-01            NaN
         13   -1    0    0    0    0  0.00000000000E+00  0.00000000000E+00  0.74505805969E-08  0.10566000000E+00  0.10566000000E+00 0.  1.
     999900   -1    0    0    0    0 -0.00000000000E+00 -0.00000000000E+00 -0.74505805969E-08  0.93827000000E+00  0.93827000000E+00 0.  1.
     999902    2    1    2    0    0 -0.14537579877E-01  0.57104196185E-02 -0.17860657087E-01  0.10202033653E+01  0.10199274256E+01 0.  0.
     999903    2    3    3    0    0 -0.83319968326E-01 -0.87303953741E-01 -0.49605708191E-01  0.13206461554E+00  0.20399483644E-01 0.  0.
         14    1    1    2    0    0  0.14537579877E-01 -0.57104196185E-02  0.17860657087E-01  0.23726634664E-01  0.00000000000E+00 0.  1.
     999901    1    3    3    0    0  0.68782388449E-01  0.93014373359E-01  0.31745051103E-01  0.88813874979E+00  0.88000000000E+00 0. -1.
        -11    1    4    4    0    0 -0.54757692027E-01 -0.44124894298E-01 -0.24022820190E-01  0.74315329131E-01  0.51100000000E-03 0.  1.
         11    1    4    4    0    0 -0.28562276300E-01 -0.43179059443E-01 -0.25582888000E-01  0.57749286413E-01  0.51100000000E-03 0. -1.
</event>
<event>
 8    1  0.1176534E+005  0.1043930E+01  0.7957747E-01            NaN
         13   -1    0    0    0    0  0.00000000000E+00  0.00000000000E+00  0.74505805969E-08  0.10566000000E+00  0.10566000000E+00 0.  1.
     999900   -1    0    0    0    0 -0.00000000000E+00 -0.00000000000E+00 -0.74505805969E-08  0.93827000000E+00  0.93827000000E+00 0.  1.
     999902    2    1    2    0    0  0.85321935318E-02  0.21688557009E-01  0.22490833784E-02  0.10205152566E+01  0.10202466068E+01 0.  0.
     999903    2    3    3    0    0  0.24756962048E-01 -0.34525734426E-01  0.12173089659E+00  0.13051570978E+00  0.20273278191E-01 0.  0.
         14    1    1    2    0    0 -0.85321935318E-02 -0.21688557009E-01 -0.22490833784E-02  0.23414743382E-01  0.00000000000E+00 0. -1.
     999901    1    3    3    0    0 -0.16224768516E-01  0.56214291436E-01 -0.11948181321E+00  0.88999954683E+00  0.88000000000E+00 0. -1.
        -11    1    4    4    0    0  0.21009491491E-01 -0.35802374815E-01  0.97683179370E-01  0.10613893455E+00  0.51100000000E-03 0.  1.
         11    1    4    4    0    0  0.37474705569E-02  0.12766403886E-02  0.24047717219E-01  0.24376775232E-01  0.51100000000E-03 0. -1.
</event>
<event>
 8    1  0.1176534E+005  0.1043930E+01  0.7957747E-01            NaN
         13   -1    0    0    0    0  0.00000000000E+00  0.00000000000E+00  0.74505805969E-08  0.10566000000E+00  0.10566000000E+00 0.  1.
     999900   -1    0    0    0    0 -0.00000000000E+00 -0.00000000000E+00 -0.74505805969E-08  0.93827000000E+00  0.93827000000E+00 0. -1.
     999902    2    1    2    0    0  0.77235296370E-02 -0.15337616838E-01 -0.16209429254E-01  0.10203155765E+01  0.10200422710E+01 0.  0.
     999903    2    3    3    0    0 -0.88370996776E-01 -0.27939711099E-01 -0.91616705385E-01  0.13178914016E+00  0.19613674602E-01 0.  0.
         14    1    1    2    0    0 -0.77235296370E-02  0.15337616838E-01  0.16209429254E-01  0.23614423496E-01  0.00000000000E+00 0.  1.
     999901    1    3    3    0    0  0.96094526413E-01  0.12602094262E-01  0.75407276131E-01  0.88852643634E+00  0.88000000000E+00 0.  1.
        -11    1    4    4    0    0 -0.50289581426E-01 -0.25520143485E-01 -0.58559358971E-01  0.81300549615E-01  0.51100000000E-03 0. -1.
         11    1    4    4    0    0 -0.38081415349E-01 -0.24195676141E-02 -0.33057346414E-01  0.50488590546E-01  0.51100000000E-03 0.  1.
</event>
<event>
 8    1  0.1176534E+005  0.1043930E+01  0.7957747E-01            NaN
         13   -1    0    0    0    0  0.00000000000E+00  0.00000000000E+00  0.74505805969E-08  0.10566000000E+00  0.10566000000E+00 0. -1.
     999900   -1    0    0    0    0 -0.00000000000E+00 -0.00000000000E+00 -0.74505805969E-08  0.93827000000E+00  0.93827000000E+00 0. -1.
     999902    2    1    2    0    0 -0.61018554271E-02  0.15730324189E-01  0.16010901976E-01  0.10206700619E+01  0.10204049934E+01 0.  0.
     999903    2    3    3    0    0  0.89689606746E-01 -0.78780666497E-01  0.47398590565E-01  0.12988753030E+00  0.19326799241E-01 0.  0.
         14    1    1    2    0    0  0.61018554271E-02 -0.15730324189E-01 -0.16010901976E-01  0.23259938109E-01  0.00000000000E+00 0.  1.
     999901    1    3    3    0    0 -0.95791462173E-01  0.94510990687E-01 -0.31387688589E-01  0.89078253159E+00  0.88000000000E+00 0.  1.
        -11    1    4    4    0    0  0.20360785696E-01 -0.15089179555E-01  0.21669520168E-02  0.25440159902E-01  0.51100000000E-03 0.  1.
         11    1    4    4    0    0  0.69328821050E-01 -0.63691486943E-01  0.45231638548E-01  0.10444737040E+00  0.51100000000E-03 0. -1.
</event>
<event>
 8    1  0.1176534E+005  0.1043930E+01  0.7957747E-01            NaN
         13   -1    0    0    0    0  0.00000000000E+00  0.00000000000E+00  0.74505805969E-08  0.10566000000E+00  0.10566000000E+00 0. -1.
     999900   -1    0    0    0    0 -0.00000000000E+00 -0.00000000000E+00 -0.74505805969E-08  0.93827000000E+00  0.93827000000E+00 0. -1.
     999902    2    1    2    0    0  0.46974726817E-02 -0.22634135837E-01 -0.50807752238E-02  0.10202617801E+01  0.10199872133E+01 0.  0.
     999903    2    3    3    0    0 -0.17223268326E-01 -0.10394306805E+00  0.77219543555E-01  0.13241888648E+00  0.21704866346E-01 0.  0.
         14    1    1    2    0    0 -0.46974726817E-02  0.22634135837E-01  0.50807752238E-02  0.23668219865E-01  0.00000000000E+00 0.  1.
     999901    1    3    3    0    0  0.21920741007E-01  0.81308932209E-01 -0.82300318779E-01  0.88784289366E+00  0.88000000000E+00 0.  1.
        -11    1    4    4    0    0  0.30496066271E-02 -0.26182400965E-01  0.12210333923E-01  0.29054631238E-01  0.51100000000E-03 0.  1.
         11    1    4    4    0    0 -0.20272874953E-01 -0.77760667081E-01  0.65009209632E-01  0.10336425524E+00  0.51100000000E-03 0. -1.
</event>
<event>
 8    1  0.1176534E+005  0.1043930E+01  0.7957747E-01            NaN
         13   -1    0    0    0    0  0.00000000000E+00  0.00000000000E+00  0.74505805969E-08  0.10566000000E+00  0.10566000000E+00 0. -1.
     999900   -1    0    0    0    0 -0.00000000000E+00 -0.00000000000E+00 -0.74505805969E-08  0.93827000000E+00  0.93827000000E+00 0. -1.
     999902    2    1    2    0    0  0.16000676443E-01  0.14543795249E-01  0.88430526807E-02  0.10205688526E+01  0.10203014455E+01 0.  0.
     999903    2    3    3    0    0  0.10096035836E+00  0.78480689376E-01  0.34513128537E-01  0.13379660068E+00  0.18925161753E-01 0.  0.
         14    1    1    2    0    0 -0.16000676443E-01 -0.14543795249E-01 -0.88430526807E-02  0.23361147395E-01  0.00000000000E+00 0.  1.
     999901    1    3    3    0    0 -0.84959681921E-01 -0.63936894127E-01 -0.25670075856E-01  0.88677225192E+00  0.88000000000E+00 0. -1.
        -11    1    4    4    0    0  0.76849760446E-01  0.64631553006E-01  0.33887180831E-01  0.10597983521E+00  0.51100000000E-03 0. -1.
         11    1    4    4    0    0  0.24110597918E-01  0.13849136370E-01  0.62594770598E-03  0.27816765479E-01  0.51100000000E-03 0.  1.
</event>
<event>
 8    1  0.1176534E+005  0.1043930E+01  0.7957747E-01            NaN
         13   -1    0    0    0    0  0.00000000000E+00  0.00000000000E+00  0.74505805969E-08  0.10566000000E+00  0.10566000000E+00 0.  1.
     999900   -1    0    0    0    0 -0.00000000000E+00 -0.00000000000E+00 -0.74505805969E-08  0.93827000000E+00  0.93827000000E+00 0.  1.
     999902    2    1    2    0    0  0.12202482895E-02  0.10615196156E-01 -0.21829240038E-01  0.10196259445E+01  0.10193362446E+01 0.  0.
     999903    2    3    3    0    0 -0.17857087239E-01  0.28040243879E-01  0.12152157715E+00  0.12765227118E+00  0.20554264371E-01 0.  0.
         14    1    1    2    0    0 -0.12202482895E-02 -0.10615196156E-01  0.21829240038E-01  0.24304055545E-01  0.00000000000E+00 0.  1.
     999901    1    3    3    0    0  0.19077335528E-01 -0.17425047723E-01 -0.14335081719E+00  0.89197367327E+00  0.88000000000E+00 0.  1.
        -11    1    4    4    0    0 -0.15434615540E-01  0.73231097367E-02  0.39907805165E-01  0.43413699763E-01  0.51100000000E-03 0.  1.
         11    1    4    4    0    0 -0.24224716983E-02  0.20717134142E-01  0.81613771986E-01  0.84238571421E-01  0.51100000000E-03 0. -1.
</event>
<event>
 8    1  0.1176534E+005  0.1043930E+01  0.7957747E-01            NaN
         13   -1    0    0    0    0  0.00000000000E+00  0.00000000000E+00  0.74505805969E-08  0.10566000000E+00  0.10566000000E+00 0.  1.
     999900   -1    0    0    0    0 -0.00000000000E+00 -0.00000000000E+00 -0.74505805969E-08  0.93827000000E+00  0.93827000000E+00 0. -1.
     999902    2    1    2    0    0 -0.23639893348E-01  0.12128437734E-02  0.49406647114E-03  0.10202538591E+01  0.10199791063E+01 0.  0.
     999903    2    3    3    0    0 -0.86557926912E-01 -0.97042875706E-01 -0.15166235587E-01  0.13241484753E+00  0.19851516515E-01 0.  0.
         14    1    1    2    0    0  0.23639893348E-01 -0.12128437734E-02 -0.49406647114E-03  0.23676140927E-01  0.00000000000E+00 0.  1.
     999901    1    3    3    0    0  0.62918033564E-01  0.98255719479E-01  0.15660302058E-01  0.88783901154E+00  0.88000000000E+00 0. -1.
        -11    1    4    4    0    0 -0.37690490983E-01 -0.41080353990E-01  0.33206282826E-02  0.55852092957E-01  0.51100000000E-03 0.  1.
         11    1    4    4    0    0 -0.48867435928E-01 -0.55962521716E-01 -0.18486863870E-01  0.76562754573E-01  0.51100000000E-03 0. -1.
</event>
<event>
 8    1  0.1176534E+005  0.1043930E+01  0.7957747E-01            NaN
         13   -1    0    0    0    0  0.00000000000E+00  0.00000000000E+00  0.74505805969E-08  0.10566000000E+00  0.10566000000E+00 0.  1.
     999900   -1    0    0    0    0 -0.00000000000E+00 -0.00000000000E+00 -0.74505805969E-08  0.93827000000E+00  0.93827000000E+00 0. -1.
     999902    2    1    2    0    0  0.19766695791E-01 -0.10664414865E-01 -0.47567590488E-02  0.10209718040E+01  0.10207136453E+01 0.  0.
     999903    2    3    3    0    0  0.51732387076E-01 -0.11758671219E+00  0.28722408420E-01  0.13329222344E+00  0.20951499408E-01 0.  0.
         14    1    1    2    0    0 -0.19766695791E-01  0.10664414865E-01  0.47567590488E-02  0.22958196000E-01  0.00000000000E+00 0.  1.
     999901    1    3    3    0    0 -0.31965691285E-01  0.10692229733E+00 -0.33479167469E-01  0.88767958056E+00  0.88000000000E+00 0.  1.
        -11    1    4    4    0    0  0.16276373412E-01 -0.37349193404E-01 -0.74461740485E-03  0.40751664451E-01  0.51100000000E-03 0. -1.
         11    1    4    4    0    0  0.35456013664E-01 -0.80237518790E-01  0.29467025825E-01  0.92540558992E-01  0.51100000000E-03 0.  1.
</event>
<event>
 8    1  0.1176534E+005  0.1043930E+01  0.7957747E-01            NaN
         13   -1    0    0    0    0  0.00000000000E+00  0.00000000000E+00  0.74505805969E-08  0.10566000000E+00  0.10566000000E+00 0.  1.
     999900   -1    0    0    0    0 -0.00000000000E+00 -0.00000000000E+00 -0.74505805969E-08  0.93827000000E+00  0.93827000000E+00 0.  1.
     999902    2    1    2    0    0  0.20040035786E-01 -0.10550264424E-01  0.81160423153E-02  0.10198721269E+01  0.10195883356E+01 0.  0.
     999903    2    3    3    0    0  0.85897625610E-01  0.54450209057E-02 -0.96808683185E-01  0.13105140861E+00  0.19862029638E-01 0.  0.
         14    1    1    2    0    0 -0.20040035786E-01  0.10550264424E-01 -0.81160423153E-02  0.24057873069E-01  0.00000000000E+00 0.  1.
     999901    1    3    3    0    0 -0.65857589823E-01 -0.15995285330E-01  0.10492472550E+00  0.88882071832E+00  0.88000000000E+00 0. -1.
        -11    1    4    4    0    0  0.37711674981E-01  0.78842153934E-02 -0.31019392125E-01  0.49465089620E-01  0.51100000000E-03 0. -1.
         11    1    4    4    0    0  0.48185950628E-01 -0.24391944877E-02 -0.65789291060E-01  0.81586318994E-01  0.51100000000E-03 0.  1.
</event>
<event>
 8    1  0.1176534E+005  0.1043930E+01  0.7957747E-01            NaN
         13   -1    0    0    0    0  0.00000000000E+00  0.00000000000E+00  0.74505805969E-08  0.10566000000E+00  0.10566000000E+00 0.  1.
     999900   -1    0    0    0    0 -0.00000000000E+00 -0.00000000000E+00 -0.74505805969E-08  0.93827000000E+00  0.93827000000E+00 0.  1.
     999902    2    1    2    0    0  0.46997813879E-02 -0.11410081387E-01  0.31145084254E-01  0.10104293407E+01  0.10098738329E+01 0.  0.
     999903    2    3    3    0    0 -0.30407563766E-01 -0.56720652134E-01  0.10574645775E+00  0.12541468631E+00  0.20116607636E-01 0.  0.
         14    1    1    2    0    0 -0.46997813879E-02  0.11410081387E-01 -0.31145084254E-01  0.33500659330E-01  0.00000000000E+00 0. -1.
     999901    1    3    3    0    0  0.35107345154E-01  0.45310570747E-01 -0.74601373497E-01  0.88501465436E+00  0.88000000000E+00 0.  1.
        -11    1    4    4    0    0 -0.20368951397E-01 -0.20500087906E-01  0.56477100897E-01  0.63443453815E-01  0.51100000000E-03 0.  1.
         11    1    4    4    0    0 -0.10038612369E-01 -0.36220564227E-01  0.49269356854E-01  0.61971232495E-01  0.51100000000E-03 0. -1.
</event>
<event>
 8    1  0.1176534E+005  0.1043930E+01  0.7957747E-01            NaN
         13   -1    0    0    0    0  0.00000000000E+00  0.00000000000E+00  0.74505805969E-08  0.10566000000E+00  0.10566000000E+00 0. -1.
     999900   -1    0    0    0    0 -0.00000000000E+00 -0.00000000000E+00 -0.74505805969E-08  0.93827000000E+00  0.93827000000E+00 0.  1.
     999902    2    1    2    0    0  0.19304678829E-01  0.13317388191E-01  0.13868361602E-02  0.10204364526E+01  0.10201659704E+01 0.  0.
     999903    2    3    3    0    0  0.71874119422E-01 -0.88823099672E-01 -0.60579494132E-01  0.13080953565E+00  0.19642490420E-01 0.  0.
         14    1    1    2    0    0 -0.19304678829E-01 -0.13317388191E-01 -0.13868361602E-02  0.23493547358E-01  0.00000000000E+00 0.  1.
     999901    1    3    3    0    0 -0.52569440593E-01  0.10214048786E+00  0.61966330292E-01  0.88962691699E+00  0.88000000000E+00 0. -1.
        -11    1    4    4    0    0  0.34221930841E-01 -0.49768062755E-01 -0.22185294698E-01  0.64346321128E-01  0.51100000000E-03 0. -1.
         11    1    4    4    0    0  0.37652188582E-01 -0.39055036916E-01 -0.38394199434E-01  0.66463214523E-01  0.51100000000E-03 0.  1.
</event>
<event>
 8    1  0.1176534E+005  0.1043930E+01  0.7957747E-01            NaN
         13   -1    0    0    0    0  0.00000000000E+00  0.00000000000E+00  0.74505805969E-08  0.10566000000E+00  0.10566000000E+00 0.  1.
     999900   -1    0    0    0    0 -0.00000000000E+00 -0.00000000000E+00 -0.74505805969E-08  0.93827000000E+00  0.93827000000E+00 0. -1.
     999902    2    1    2    0    0  0.11484545133E-01 -0.22573666071E-01  0.80695957406E-02  0.10173483606E+01  0.10170010341E+01 0.  0.
     999903    2    3    3    0    0 -0.11110485228E+00  0.22953947861E-01 -0.50551684968E-01  0.12575575267E+00  0.19694277240E-01 0.  0.
         14    1    1    2    0    0 -0.11484545133E-01  0.22573666071E-01 -0.80695957406E-02  0.26581639382E-01  0.00000000000E+00 0. -1.
     999901    1    3    3    0    0  0.12258939741E+00 -0.45527613933E-01  0.58621280709E-01  0.89159260794E+00  0.88000000000E+00 0.  1.
        -11    1    4    4    0    0 -0.11593348290E-01  0.21764691392E-02 -0.12537762099E-01  0.17222059748E-01  0.51100000000E-03 0. -1.
         11    1    4    4    0    0 -0.99511503985E-01  0.20777478722E-01 -0.38013922869E-01  0.10853369293E+00  0.51100000000E-03 0.  1.
</event>
<event>
 8    1  0.1176534E+005  0.1043930E+01  0.7957747E-01            NaN
         13   -1    0    0    0    0  0.00000000000E+00  0.00000000000E+00  0.74505805969E-08  0.10566000000E+00  0.10566000000E+00 0. -1.
     999900   -1    0    0    0    0 -0.00000000000E+00 -0.00000000000E+00 -0.74505805969E-08  0.93827000000E+00  0.93827000000E+00 0. -1.
     999902    2    1    2    0    0 -0.17573475892E-01 -0.68603278694E-02  0.10483222184E-01  0.10223478523E+01  0.10221200233E+01 0.  0.
     999903    2    3    3    0    0 -0.58505299751E-01  0.11297865705E+00 -0.30463411445E-01  0.13234031111E+00  0.19972267248E-01 0.  0.
         14    1    1    2    0    0  0.17573475892E-01  0.68603278694E-02 -0.10483222184E-01  0.21582147733E-01  0.00000000000E+00 0.  1.
     999901    1    3    3    0    0  0.40931823860E-01 -0.11983898492E+00  0.40946633630E-01  0.89000754116E+00  0.88000000000E+00 0.  1.
        -11    1    4    4    0    0 -0.40668351899E-01  0.56930921093E-01 -0.16444565213E-01  0.71873009320E-01  0.51100000000E-03 0.  1.
         11    1    4    4    0    0 -0.17836947852E-01  0.56047735961E-01 -0.14018846232E-01  0.60467301790E-01  0.51100000000E-03 0. -1.
</event>
<event>
 8    1  0.1176534E+005  0.1043930E+01  0.7957747E-01            NaN
         13   -1    0    0    0    0  0.00000000000E+00  0.00000000000E+00  0.74505805969E-08  0.10566000000E+00  0.10566000000E+00 0.  1.
     999900   -1    0    0    0    0 -0.00000000000E+00 -0.00000000000E+00 -0.74505805969E-08  0.93827000000E+00  0.93827000000E+00 0. -1.
     999902    2    1    2    0    0  0.21579138641E-04  0.18681420876E-01 -0.19909055966E-01  0.10166285997E+01  0.10162619461E+01 0.  0.
     999903    2    3    3    0    0  0.96701823142E-01 -0.32705402663E-01  0.70182367527E-01  0.12527898261E+00  0.18664747771E-01 0.  0.
         14    1    1    2    0    0 -0.21579138641E-04 -0.18681420876E-01  0.19909055966E-01  0.27301400350E-01  0.00000000000E+00 0.  1.
     999901    1    3    3    0    0 -0.96680244003E-01  0.51386823538E-01 -0.90091423493E-01  0.89134961704E+00  0.88000000000E+00 0. -1.
        -11    1    4    4    0    0  0.39858767528E-01 -0.58106850619E-02  0.34085180893E-01  0.52768798426E-01  0.51100000000E-03 0. -1.
         11    1    4    4    0    0  0.56843055614E-01 -0.26894717601E-01  0.36097186634E-01  0.72510184183E-01  0.51100000000E-03 0.  1.
</event>
<event>
 8    1  0.1176534E+005  0.1043930E+01  0.7957747E-01            NaN
         13   -1    0    0    0    0  0.00000000000E+00  0.00000000000E+00  0.74505805969E-08  0.10566000000E+00  0.10566000000E+00 0. -1.
     999900   -1    0    0    0    0 -0.00000000000E+00 -0.00000000000E+00 -0.74505805969E-08  0.93827000000E+00  0.93827000000E+00 0. -1.
     999902    2    1    2    0    0 -0.14070113818E-01 -0.45308020788E-02  0.18380932516E-01  0.10203428223E+01  0.10200701545E+01 0.  0.
     999903    2    3    3    0    0  0.10643609336E+00  0.67334441683E-01 -0.76289128747E-02  0.12884808242E+00  0.26097107595E-01 0.  0.
         14    1    1    2    0    0  0.14070113818E-01  0.45308020788E-02 -0.18380932516E-01  0.23587177671E-01  0.00000000000E+00 0.  1.
     999901    1    3    3    0    0 -0.12050620718E+00 -0.71865243762E-01  0.26009845391E-01  0.89149473991E+00  0.88000000000E+00 0.  1.
        -11    1    4    4    0    0  0.56967904045E-01  0.20648776004E-01 -0.40877476509E-02  0.60734544071E-01  0.51100000000E-03 0.  1.
         11    1    4    4    0    0  0.49468189316E-01  0.46685665679E-01 -0.35411652238E-02  0.68113538348E-01  0.51100000000E-03 0. -1.
</event>
<event>
 8    1  0.1176534E+005  0.1043930E+01  0.7957747E-01            NaN
         13   -1    0    0    0    0  0.00000000000E+00  0.00000000000E+00  0.74505805969E-08  0.10566000000E+00  0.10566000000E+00 0.  1.
     999900   -1    0    0    0    0 -0.00000000000E+00 -0.00000000000E+00 -0.74505805969E-08  0.93827000000E+00  0.93827000000E+00 0.  1.
     999902    2    1    2    0    0  0.18585648020E-01 -0.41308574174E-02  0.13115741291E-01  0.10208104636E+01  0.10205486219E+01 0.  0.
     999903    2    3    3    0    0  0.11426329189E+00  0.53896459155E-01 -0.34395579698E-01  0.13245315559E+00  0.19996358163E-01 0.  0.
         14    1    1    2    0    0 -0.18585648020E-01  0.41308574174E-02 -0.13115741291E-01  0.23119536434E-01  0.00000000000E+00 0. -1.
     999901    1    3    3    0    0 -0.95677643875E-01 -0.58027316572E-01  0.47511320989E-01  0.88835730797E+00  0.88000000000E+00 0.  1.
        -11    1    4    4    0    0  0.58592512766E-01  0.19176056938E-01 -0.10034069298E-01  0.62463968651E-01  0.51100000000E-03 0. -1.
         11    1    4    4    0    0  0.55670779129E-01  0.34720402217E-01 -0.24361510400E-01  0.69989186942E-01  0.51100000000E-03 0.  1.
</event>
<event>
 8    1  0.1176534E+005  0.1043930E+01  0.7957747E-01            NaN
         13   -1    0    0    0    0  0.00000000000E+00  0.00000000000E+00  0.74505805969E-08  0.10566000000E+00  0.10566000000E+00 0. -1.
     999900   -1    0    0    0    0 -0.00000000000E+00 -0.00000000000E+00 -0.74505805969E-08  0.93827000000E+00  0.93827000000E+00 0.  1.
     999902    2    1    2    0    0  0.18290699551E-01  0.24038384298E-02 -0.14768325377E-01  0.10202988434E+01  0.10200251459E+01 0.  0.
     999903    2    3    3    0    0 -0.27822309217E-01 -0.12484644287E+00  0.70146010629E-02  0.12968470720E+00  0.20204045775E-01 0.  0.
         14    1    1    2    0    0 -0.18290699551E-01 -0.24038384298E-02  0.14768325377E-01  0.23631156631E-01  0.00000000000E+00 0. -1.
     999901    1    3    3    0    0  0.46113008768E-01  0.12725028130E+00 -0.21782926440E-01  0.89061413617E+00  0.88000000000E+00 0. -1.
        -11    1    4    4    0    0 -0.70236482722E-02 -0.77557340476E-02 -0.77985524429E-03  0.10504872244E-01  0.51100000000E-03 0.  1.
         11    1    4    4    0    0 -0.20798660945E-01 -0.11709070882E+00  0.77944563072E-02  0.11917983495E+00  0.51100000000E-03 0. -1.
</event>
<event>
 7    1  0.1176534E+005  0.1043930E+01  0.7957747E-01            NaN
         13   -1    0    0    0    0  0.00000000000E+00  0.00000000000E+00  0.74505805969E-08  0.10566000000E+00  0.10566000000E+00 0. -1.
     999900   -1    0    0    0    0 -0.00000000000E+00 -0.00000000000E+00 -0.74505805969E-08  0.93827000000E+00  0.93827000000E+00 0. -1.
     999902    2    1    2    0    0  0.42197845367E-02  0.10063796220E-01 -0.20678895735E-01  0.10205483126E+01  0.10202804296E+01 0.  0.
         14    1    1    2    0    0 -0.42197845367E-02 -0.10063796220E-01  0.20678895735E-01  0.23381687380E-01  0.00000000000E+00 0. -1.
     999901    1    3    3    0    0  0.13021567609E+00 -0.45605860972E-02 -0.47583698388E-01  0.89086538242E+00  0.88000000000E+00 0. -1.
        -11    1    3    3    0    0 -0.11868423329E+00  0.13681524707E-01  0.25380286386E-01  0.12213742837E+00  0.51100000000E-03 0.  1.
         11    1    3    3    0    0 -0.73116582652E-02  0.94285761084E-03  0.15245162667E-02  0.75455018328E-02  0.51100000000E-03 0. -1.
</event>
<event>
 8    1  0.1176534E+005  0.1043930E+01  0.7957747E-01            NaN
         13   -1    0    0    0    0  0.00000000000E+00  0.00000000000E+00  0.74505805969E-08  0.10566000000E+00  0.10566000000E+00 0. -1.
     999900   -1    0    0    0    0 -0.00000000000E+00 -0.00000000000E+00 -0.74505805969E-08  0.93827000000E+00  0.93827000000E+00 0.  1.
     999902    2    1    2    0    0 -0.10347206490E-01  0.79230909489E-02  0.20209261670E-01  0.10198830811E+01  0.10195995512E+01 0.  0.
     999903    2    3    3    0    0 -0.42013482014E-01  0.19710541541E-01  0.12337922746E+00  0.13321192510E+00  0.19218353267E-01 0.  0.
         14    1    1    2    0    0  0.10347206490E-01 -0.79230909489E-02 -0.20209261670E-01  0.24046918921E-01  0.00000000000E+00 0.  1.
     999901    1    3    3    0    0  0.31666275524E-01 -0.11787450592E-01 -0.10316996579E+00  0.88667115598E+00  0.88000000000E+00 0.  1.
        -11    1    4    4    0    0 -0.19952972618E-01  0.12113971752E-01  0.86276472934E-01  0.89379865355E-01  0.51100000000E-03 0. -1.
         11    1    4    4    0    0 -0.22060509396E-01  0.75965697890E-02  0.37102754527E-01  0.43832059750E-01  0.51100000000E-03 0.  1.
</event>
<event>
 8    1  0.1176534E+005  0.1043930E+01  0.7957747E-01            NaN
         13   -1    0    0    0    0  0.00000000000E+00  0.00000000000E+00  0.74505805969E-08  0.10566000000E+00  0.10566000000E+00 0. -1.
     999900   -1    0    0    0    0 -0.00000000000E+00 -0.00000000000E+00 -0.74505805969E-08  0.93827000000E+00  0.93827000000E+00 0.  1.
     999902    2    1    2    0    0  0.13940120639E-01  0.86129822969E-02 -0.17119791747E-01  0.10202319474E+01  0.10199566799E+01 0.  0.
     999903    2    3    3    0    0  0.10406028062E+00 -0.10165088058E-01 -0.80002490118E-01  0.13319841201E+00  0.20237280376E-01 0.  0.
         14    1    1    2    0    0 -0.13940120639E-01 -0.86129822969E-02  0.17119791747E-01  0.23698052598E-01  0.00000000000E+00 0. -1.
     999901    1    3    3    0    0 -0.90120159986E-01  0.18778070355E-01  0.62882698371E-01  0.88703353540E+00  0.88000000000E+00 0. -1.
        -11    1    4    4    0    0  0.28482231721E-01  0.60693259313E-02 -0.19822220417E-01  0.35231460150E-01  0.51100000000E-03 0.  1.
         11    1    4    4    0    0  0.75578048904E-01 -0.16234413989E-01 -0.60180269701E-01  0.97966951856E-01  0.51100000000E-03 0. -1.
</event>
<event>
 8    1  0.1176534E+005  0.1043930E+01  0.7957747E-01            NaN
         13   -1    0    0    0    0  0.00000000000E+00  0.00000000000E+00  0.74505805969E-08  0.10566000000E+00  0.10566000000E+00 0.  1.
     999900   -1    0    0    0    0 -0.00000000000E+00 -0.00000000000E+00 -0.74505805969E-08  0.93827000000E+00  0.93827000000E+00 0. -1.
     999902    2    1    2    0    0 -0.64965233245E-02  0.17734494180E-02  0.22604821404E-01  0.10203433960E+01  0.10200707416E+01 0.  0.
     999903    2    3    3    0    0 -0.48968803974E-01 -0.11954494983E+00  0.33413422802E-03  0.13072660651E+00  0.20009877851E-01 0.  0.
         14    1    1    2    0    0  0.64965233245E-02 -0.17734494180E-02 -0.22604821404E-01  0.23586604013E-01  0.00000000000E+00 0. -1.
     999901    1    3    3    0    0  0.42472280649E-01  0.12131839924E+00  0.22270687176E-01  0.88961678948E+00  0.88000000000E+00 0. -1.
        -11    1    4    4    0    0 -0.13495316187E-01 -0.19760970759E-01 -0.58622049899E-02  0.24642363780E-01  0.51100000000E-03 0. -1.
         11    1    4    4    0    0 -0.35473487787E-01 -0.99783979067E-01  0.61963392179E-02  0.10608424273E+00  0.51100000000E-03 0.  1.
</event>
<event>
 8    1  0.1176534E+005  0.1043930E+01  0.7957747E-01            NaN
         13   -1    0    0    0    0  0.00000000000E+00  0.00000000000E+00  0.74505805969E-08  0.10566000000E+00  0.10566000000E+00 0.  1.
     999900   -1    0    0    0    0 -0.00000000000E+00 -0.00000000000E+00 -0.74505805969E-08  0.93827000000E+00  0.93827000000E+00 0. -1.
     999902    2    1    2    0    0 -0.20480063758E-01 -0.10949721093E-01  0.12962401392E-01  0.10173338865E+01  0.10169861766E+01 0.  0.
     999903    2    3    3    0    0  0.55453694097E-01  0.57852174838E-01 -0.93813877314E-01  0.12497700153E+00  0.19905301078E-01 0.  0.
         14    1    1    2    0    0  0.20480063758E-01  0.10949721093E-01 -0.12962401392E-01  0.26596113501E-01  0.00000000000E+00 0. -1.
     999901    1    3    3    0    0 -0.75933757855E-01 -0.68801895931E-01  0.10677627871E+00  0.89235688497E+00  0.88000000000E+00 0.  1.
        -11    1    4    4    0    0  0.74326807330E-02  0.19171514066E-01 -0.28571107320E-01  0.35204559207E-01  0.51100000000E-03 0. -1.
         11    1    4    4    0    0  0.48021013364E-01  0.38680660772E-01 -0.65242769994E-01  0.89772442318E-01  0.51100000000E-03 0.  1.
</event>
<event>
 8    1  0.1176534E+005  0.1043930E+01  0.7957747E-01            NaN
         13   -1    0    0    0    0  0.00000000000E+00  0.00000000000E+00  0.74505805969E-08  0.10566000000E+00  0.10566000000E+00 0. -1.
     999900   -1    0    0    0    0 -0.00000000000E+00 -0.00000000000E+00 -0.74505805969E-08  0.93827000000E+00  0.93827000000E+00 0.  1.
     999902    2    1    2    0    0  0.17826308658E-01 -0.73701111423E-02 -0.13986388297E-01  0.10201032319E+01  0.10198249305E+01 0.  0.
     999903    2    3    3    0    0  0.12384369830E+00  0.34127412186E-01 -0.26749641906E-01  0.13267738603E+00  0.19641882549E-01 0.  0.
         14    1    1    2    0    0 -0.17826308658E-01  0.73701111423E-02  0.13986388297E-01  0.23826768060E-01  0.00000000000E+00 0. -1.
     999901    1    3    3    0    0 -0.10601738964E+00 -0.41497523328E-01  0.12763253609E-01  0.88742584591E+00  0.88000000000E+00 0. -1.
        -11    1    4    4    0    0  0.61518645493E-01  0.27111406559E-01 -0.13439128949E-01  0.68559779877E-01  0.51100000000E-03 0. -1.
         11    1    4    4    0    0  0.62325052807E-01  0.70160056267E-02 -0.13310512957E-01  0.64117606151E-01  0.51100000000E-03 0.  1.
</event>
<event>
 8    1  0.1176534E+005  0.1043930E+01  0.7957747E-01            NaN
         13   -1    0    0    0    0  0.00000000000E+00  0.00000000000E+00  0.74505805969E-08  0.10566000000E+00  0.10566000000E+00 0. -1.
     999900   -1    0    0    0    0 -0.00000000000E+00 -0.00000000000E+00 -0.74505805969E-08  0.93827000000E+00  0.93827000000E+00 0.  1.
     999902    2    1    2    0    0 -0.36240918362E-02  0.19075951988E-01 -0.13036717881E-01  0.10205423537E+01  0.10202743326E+01 0.  0.
     999903    2    3    3    0    0  0.68192108596E-01 -0.10700128962E+00  0.13094769207E-02  0.12854524004E+00  0.20560261480E-01 0.  0.
         14    1    1    2    0    0  0.36240918362E-02 -0.19075951988E-01  0.13036717881E-01  0.23387646290E-01  0.00000000000E+00 0. -1.
     999901    1    3    3    0    0 -0.71816200432E-01  0.12607724160E+00 -0.14346194801E-01  0.89199711367E+00  0.88000000000E+00 0. -1.
        -11    1    4    4    0    0  0.44318988659E-01 -0.84972920024E-01 -0.22456004882E-02  0.95863829131E-01  0.51100000000E-03 0.  1.
         11    1    4    4    0    0  0.23873119937E-01 -0.22028369592E-01  0.35550774089E-02  0.32681410906E-01  0.51100000000E-03 0. -1.
</event>
<event>
 8    1  0.1176534E+005  0.1043930E+01  0.7957747E-01            NaN
         13   -1    0    0    0    0  0.00000000000E+00  0.00000000000E+00  0.74505805969E-08  0.10566000000E+00  0.10566000000E+00 0. -1.
     999900   -1    0    0    0    0 -0.00000000000E+00 -0.00000000000E+00 -0.74505805969E-08  0.93827000000E+00  0.93827000000E+00 0.  1.
     999902    2    1    2    0    0  0.14636201268E-01  0.16875081625E-01  0.95712585788E-02  0.10196278240E+01  0.10193381695E+01 0.  0.
     999903    2    3    3    0    0  0.81625219063E-01  0.95649883638E-01  0.38870194857E-01  0.13308880873E+00  0.19752527270E-01 0.  0.
         14    1    1    2    0    0 -0.14636201268E-01 -0.16875081625E-01 -0.95712585788E-02  0.24302175996E-01  0.00000000000E+00 0. -1.
     999901    1    3    3    0    0 -0.66989017795E-01 -0.78774802014E-01 -0.29298936278E-01  0.88653901527E+00  0.88000000000E+00 0.  1.
        -11    1    4    4    0    0  0.21004614417E-01  0.28240431565E-01  0.20006721570E-01  0.40487600951E-01  0.51100000000E-03 0.  1.
         11    1    4    4    0    0  0.60620604646E-01  0.67409452074E-01  0.18863473287E-01  0.92601207778E-01  0.51100000000E-03 0. -1.
</event>
<event>
 8    1  0.1176534E+005  0.1043930E+01  0.7957747E-01            NaN
         13   -1    0    0    0    0  0.00000000000E+00  0.00000000000E+00  0.74505805969E-08  0.10566000000E+00  0.10566000000E+00 0.  1.
     999900   -1    0    0    0    0 -0.00000000000E+00 -0.00000000000E+00 -0.74505805969E-08  0.93827000000E+00  0.93827000000E+00 0. -1.
     999902    2    1    2    0    0 -0.28736229029E-02 -0.23085903010E-01  0.40796119012E-02  0.10203109429E+01  0.10200375289E+01 0.  0.
     999903    2    3    3    0    0  0.26957610557E-01 -0.11287841446E-01  0.12640999811E+00  0.13126998761E+00  0.19954796205E-01 0.  0.
         14    1    1    2    0    0  0.28736229029E-02  0.23085903010E-01 -0.40796119012E-02  0.23619057128E-01  0.00000000000E+00 0.  1.
     999901    1    3    3    0    0 -0.29831233460E-01 -0.11798061563E-01 -0.12233038621E+00  0.88904095526E+00  0.88000000000E+00 0. -1.
        -11    1    4    4    0    0  0.27654164890E-01 -0.54313322355E-02  0.87933579375E-01  0.92340823628E-01  0.51100000000E-03 0.  1.
         11    1    4    4    0    0 -0.69655433332E-03 -0.58565092108E-02  0.38476418740E-01  0.38929163979E-01  0.51100000000E-03 0. -1.
</event>
<event>
 8    1  0.1176534E+005  0.1043930E+01  0.7957747E-01            NaN
         13   -1    0    0    0    0  0.00000000000E+00  0.00000000000E+00  0.74505805969E-08  0.10566000000E+00  0.10566000000E+00 0.  1.
     999900   -1    0    0    0    0 -0.00000000000E+00 -0.00000000000E+00 -0.74505805969E-08  0.93827000000E+00  0.93827000000E+00 0. -1.
     999902    2    1    2    0    0 -0.19735498217E-01 -0.97002300414E-02  0.95924590256E-02  0.10199383426E+01  0.10196561299E+01 0.  0.
     999903    2    3    3    0    0  0.64329970136E-02 -0.11415771995E+00 -0.59859018579E-01  0.13065792282E+00  0.20372094029E-01 0.  0.
         14    1    1    2    0    0  0.19735498217E-01  0.97002300414E-02 -0.95924590256E-02  0.23991657360E-01  0.00000000000E+00 0. -1.
     999901    1    3    3    0    0 -0.26168495231E-01  0.10445748991E+00  0.69451477605E-01  0.88928041982E+00  0.88000000000E+00 0.  1.
        -11    1    4    4    0    0  0.10487983988E-01 -0.92908584492E-01 -0.55011933006E-01  0.10848307137E+00  0.51100000000E-03 0.  1.
         11    1    4    4    0    0 -0.40549869747E-02 -0.21249135455E-01 -0.48470855734E-02  0.22174851443E-01  0.51100000000E-03 0. -1.
</event>
<event>
 8    1  0.1176534E+005  0.1043930E+01  0.7957747E-01            NaN
         13   -1    0    0    0    0  0.00000000000E+00  0.00000000000E+00  0.74505805969E-08  0.10566000000E+00  0.10566000000E+00 0.  1.
     999900   -1    0    0    0    0 -0.00000000000E+00 -0.00000000000E+00 -0.74505805969E-08  0.93827000000E+00  0.93827000000E+00 0. -1.
     999902    2    1    2    0    0  0.18179123684E-01  0.13717514290E-01 -0.65346641116E-02  0.10202371198E+01  0.10199619738E+01 0.  0.
     999903    2    3    3    0    0  0.90071928611E-01  0.59247913134E-01  0.74325735696E-01  0.13244210019E+00  0.19832483002E-01 0.  0.
         14    1    1    2    0    0 -0.18179123684E-01 -0.13717514290E-01  0.65346641116E-02  0.23692880181E-01  0.00000000000E+00 0.  1.
     999901    1    3    3    0    0 -0.71892804927E-01 -0.45530398844E-01 -0.80860399807E-01  0.88779501963E+00  0.88000000000E+00 0. -1.
        -11    1    4    4    0    0  0.30853869536E-01  0.29895175808E-01  0.22825340942E-01  0.48651208742E-01  0.51100000000E-03 0.  1.
         11    1    4    4    0    0  0.59218059074E-01  0.29352737326E-01  0.51500394754E-01  0.83790891449E-01  0.51100000000E-03 0. -1.
</event>
<event>
 8    1  0.1176534E+005  0.1043930E+01  0.7957747E-01            NaN
         13   -1    0    0    0    0  0.00000000000E+00  0.00000000000E+00  0.74505805969E-08  0.10566000000E+00  0.10566000000E+00 0.  1.
     999900   -1    0    0    0    0 -0.00000000000E+00 -0.00000000000E+00 -0.74505805969E-08  0.93827000000E+00  0.93827000000E+00 0. -1.
     999902    2    1    2    0    0  0.30729436261E-02  0.12819054663E-01 -0.30690714384E-01  0.10105280376E+01  0.10099758530E+01 0.  0.
     999903    2    3    3    0    0 -0.93246286693E-01 -0.73831674223E-01 -0.49854835552E-02  0.12067046366E+00  0.19761570107E-01 0.  0.
         14    1    1    2    0    0 -0.30729436261E-02 -0.12819054663E-01  0.30690714384E-01  0.33401962434E-01  0.00000000000E+00 0.  1.
     999901    1    3    3    0    0  0.96319230319E-01  0.86650728887E-01 -0.25705230829E-01  0.88985757391E+00  0.88000000000E+00 0.  1.
        -11    1    4    4    0    0 -0.28580575596E-01 -0.14313607504E-01  0.44521865993E-02  0.32277108726E-01  0.51100000000E-03 0. -1.
         11    1    4    4    0    0 -0.64665711097E-01 -0.59518066719E-01 -0.94376701544E-02  0.88393354934E-01  0.51100000000E-03 0.  1.
</event>
<event>
 8    1  0.1176534E+005  0.1043930E+01  0.7957747E-01            NaN
         13   -1    0    0    0    0  0.00000000000E+00  0.00000000000E+00  0.74505805969E-08  0.10566000000E+00  0.10566000000E+00 0.  1.
     999900   -1    0    0    0    0 -0.00000000000E+00 -0.00000000000E+00 -0.74505805969E-08  0.93827000000E+00  0.93827000000E+00 0.  1.
     999902    2    1    2    0    0 -0.10928423684E-01  0.19305162900E-01 -0.94338112443E-02  0.10198236408E+01  0.10195386907E+01 0.  0.
     999903    2    3    3    0    0  0.24439955848E-01  0.78257454189E-01  0.99595615986E-01  0.13043412495E+00  0.19293357661E-01 0.  0.
         14    1    1    2    0    0  0.10928423684E-01 -0.19305162900E-01  0.94338112443E-02  0.24106359190E-01  0.00000000000E+00 0.  1.
     999901    1    3    3    0    0 -0.35368379532E-01 -0.58952291289E-01 -0.10902942723E+00  0.88938951586E+00  0.88000000000E+00 0.  1.
        -11    1    4    4    0    0  0.24245360333E-01  0.48557365828E-01  0.59547220984E-01  0.80571632239E-01  0.51100000000E-03 0. -1.
         11    1    4    4    0    0  0.19459551533E-03  0.29700088361E-01  0.40048395003E-01  0.49862492711E-01  0.51100000000E-03 0.  1.
</event>
<event>
 7    1  0.1176534E+005  0.1043930E+01  0.7957747E-01            NaN
         13   -1    0    0    0    0  0.00000000000E+00  0.00000000000E+00  0.74505805969E-08  0.10566000000E+00  0.10566000000E+00 0.  1.
     999900   -1    0    0    0    0 -0.00000000000E+00 -0.00000000000E+00 -0.74505805969E-08  0.93827000000E+00  0.93827000000E+00 0.  1.
     999902    2    1    2    0    0  0.15188989988E-01 -0.97434072499E-02 -0.11784935661E-01  0.10223771786E+01  0.10221499749E+01 0.  0.
         14    1    1    2    0    0 -0.15188989988E-01  0.97434072499E-02  0.11784935661E-01  0.21552821398E-01  0.00000000000E+00 0.  1.
     999901    1    3    3    0    0 -0.58940521753E-01  0.14424591364E-01  0.89991678932E-01  0.88666823345E+00  0.88000000000E+00 0. -1.
        -11    1    3    3    0    0  0.12530223622E-01  0.11319758567E-01 -0.31500409054E-01  0.35744654560E-01  0.51100000000E-03 0. -1.
         11    1    3    3    0    0  0.61599288120E-01 -0.35487757181E-01 -0.70276205539E-01  0.99964290587E-01  0.51100000000E-03 0.  1.
</event>
<event>
 8    1  0.1176534E+005  0.1043930E+01  0.7957747E-01            NaN
         13   -1    0    0    0    0  0.00000000000E+00  0.00000000000E+00  0.74505805969E-08  0.10566000000E+00  0.10566000000E+00 0.  1.
     999900   -1    0    0    0    0 -0.00000000000E+00 -0.00000000000E+00 -0.74505805969E-08  0.93827000000E+00  0.93827000000E+00 0. -1.
     999902    2    1    2    0    0 -0.14084480515E-01  0.17076132269E-01 -0.75180073393E-02  0.10205529318E+01  0.10202851558E+01 0.  0.
     999903    2    3    3    0    0 -0.25841824176E-02 -0.10261668455E+00 -0.76533815468E-01  0.12969839312E+00  0.20673323931E-01 0.  0.
         14    1    1    2    0    0  0.14084480515E-01 -0.17076132269E-01  0.75180073393E-02  0.23377068229E-01  0.00000000000E+00 0. -1.
     999901    1    3    3    0    0 -0.11500298098E-01  0.11969281682E+00  0.69015808129E-01  0.89085453865E+00  0.88000000000E+00 0.  1.
        -11    1    4    4    0    0  0.56358038132E-02 -0.15758223542E-01 -0.18285612556E-01  0.24793318483E-01  0.51100000000E-03 0. -1.
         11    1    4    4    0    0 -0.82199862308E-02 -0.86858461008E-01 -0.58248202912E-01  0.10490507464E+00  0.51100000000E-03 0.  1.
</event>
<event>
 8    1  0.1176534E+005  0.1043930E+01  0.7957747E-01            NaN
         13   -1    0    0    0    0  0.00000000000E+00  0.00000000000E+00  0.74505805969E-08  0.10566000000E+00  0.10566000000E+00 0. -1.
     999900   -1    0    0    0    0 -0.00000000000E+00 -0.00000000000E+00 -0.74505805969E-08  0.93827000000E+00  0.93827000000E+00 0.  1.
     999902    2    1    2    0    0  0.35747854433E-03  0.11719144352E-01 -0.20189547378E-01  0.10205829668E+01  0.10203158865E+01 0.  0.
     999903    2    3    3    0    0  0.41122941794E-01  0.11594161676E+00  0.41504552396E-01  0.13135278925E+00  0.19934205132E-01 0.  0.
         14    1    1    2    0    0 -0.35747854433E-03 -0.11719144352E-01  0.20189547378E-01  0.23347033186E-01  0.00000000000E+00 0. -1.
     999901    1    3    3    0    0 -0.40765463250E-01 -0.10422247241E+00 -0.61694099774E-01  0.88923017757E+00  0.88000000000E+00 0.  1.
        -11    1    4    4    0    0  0.31618034015E-01  0.62757223674E-01  0.18789179528E-01  0.72742446939E-01  0.51100000000E-03 0. -1.
         11    1    4    4    0    0  0.95049077788E-02  0.53184393087E-01  0.22715372868E-01  0.58610342308E-01  0.51100000000E-03 0.  1.
</event>
<event>
 8    1  0.1176534E+005  0.1043930E+01  0.7957747E-01            NaN
         13   -1    0    0    0    0  0.00000000000E+00  0.00000000000E+00  0.74505805969E-08  0.10566000000E+00  0.10566000000E+00 0.  1.
     999900   -1    0    0    0    0 -0.00000000000E+00 -0.00000000000E+00 -0.74505805969E-08  0.93827000000E+00  0.93827000000E+00 0.  1.
     999902    2    1    2    0    0  0.13962248156E-01 -0.12774838573E-01 -0.43145343450E-02  0.10245197944E+01  0.10243359083E+01 0.  0.
     999903    2    3    3    0    0 -0.45416570897E-01  0.28377709809E-01 -0.12137751533E+00  0.13383291458E+00  0.17629193751E-01 0.  0.
         14    1    1    2    0    0 -0.13962248156E-01  0.12774838573E-01  0.43145343450E-02  0.19410205583E-01  0.00000000000E+00 0.  1.
     999901    1    3    3    0    0  0.59378819054E-01 -0.41152548382E-01  0.11706298098E+00  0.89068687983E+00  0.88000000000E+00 0. -1.
        -11    1    4    4    0    0 -0.16422802586E-01  0.33279274160E-02 -0.51203361794E-01  0.53877907584E-01  0.51100000000E-03 0.  1.
         11    1    4    4    0    0 -0.28993768311E-01  0.25049782393E-01 -0.70174153536E-01  0.79955006999E-01  0.51100000000E-03 0. -1.
</event>
<event>
 8    1  0.1176534E+005  0.1043930E+01  0.7957747E-01            NaN
         13   -1    0    0    0    0  0.00000000000E+00  0.00000000000E+00  0.74505805969E-08  0.10566000000E+00  0.10566000000E+00 0.  1.
     999900   -1    0    0    0    0 -0.00000000000E+00 -0.00000000000E+00 -0.74505805969E-08  0.93827000000E+00  0.93827000000E+00 0. -1.
     999902    2    1    2    0    0 -0.16487201644E-01  0.94377476512E-02 -0.16882206003E-01  0.10185152842E+01  0.10181981518E+01 0.  0.
     999903    2    3    3    0    0 -0.65035419126E-01  0.43974176813E-01 -0.10363385326E+00  0.13224470326E+00  0.24194049514E-01 0.  0.
         14    1    1    2    0    0  0.16487201644E-01 -0.94377476512E-02  0.16882206003E-01  0.25414715783E-01  0.00000000000E+00 0.  1.
     999901    1    3    3    0    0  0.48548217482E-01 -0.34536429162E-01  0.86751647261E-01  0.88627058095E+00  0.88000000000E+00 0.  1.
        -11    1    4    4    0    0 -0.28425952687E-01  0.82763504895E-02 -0.50219561537E-01  0.58299213078E-01  0.51100000000E-03 0. -1.
         11    1    4    4    0    0 -0.36609466439E-01  0.35697826324E-01 -0.53414291727E-01  0.73945490186E-01  0.51100000000E-03 0.  1.
</event>
<event>
 8    1  0.1176534E+005  0.1043930E+01  0.7957747E-01            NaN
         13   -1    0    0    0    0  0.00000000000E+00  0.00000000000E+00  0.74505805969E-08  0.10566000000E+00  0.10566000000E+00 0. -1.
     999900   -1    0    0    0    0 -0.00000000000E+00 -0.00000000000E+00 -0.74505805969E-08  0.93827000000E+00  0.93827000000E+00 0. -1.
     999902    2    1    2    0    0  0.13089322817E-01 -0.12790829072E-01 -0.16070354883E-01  0.10195744670E+01  0.10192835238E+01 0.  0.
     999903    2    3    3    0    0  0.73384953006E-01  0.92842119838E-01  0.46997607072E-01  0.12897273183E+00  0.20498291189E-01 0.  0.
         14    1    1    2    0    0 -0.13089322817E-01  0.12790829072E-01  0.16070354883E-01  0.24355532969E-01  0.00000000000E+00 0. -1.
     999901    1    3    3    0    0 -0.60295630189E-01 -0.10563294891E+00 -0.63067961955E-01  0.89060173520E+00  0.88000000000E+00 0. -1.
        -11    1    4    4    0    0  0.29327755483E-01  0.32608995149E-01  0.73668479167E-02  0.44474659926E-01  0.51100000000E-03 0.  1.
         11    1    4    4    0    0  0.44057197523E-01  0.60233124689E-01  0.39630759156E-01  0.84498071905E-01  0.51100000000E-03 0. -1.
</event>
<event>
 8    1  0.1176534E+005  0.1043930E+01  0.7957747E-01            NaN
         13   -1    0    0    0    0  0.00000000000E+00  0.00000000000E+00  0.74505805969E-08  0.10566000000E+00  0.10566000000E+00 0. -1.
     999900   -1    0    0    0    0 -0.00000000000E+00 -0.00000000000E+00 -0.74505805969E-08  0.93827000000E+00  0.93827000000E+00 0. -1.
     999902    2    1    2    0    0  0.48896162346E-02 -0.13120099240E-02 -0.23815203934E-01  0.10195826458E+01  0.10192919003E+01 0.  0.
     999903    2    3    3    0    0 -0.24152062120E-01  0.10294146867E+00 -0.75620245334E-01  0.13144078261E+00  0.19441958518E-01 0.  0.
         14    1    1    2    0    0 -0.48896162346E-02  0.13120099240E-02  0.23815203934E-01  0.24347354176E-01  0.00000000000E+00 0. -1.
     999901    1    3    3    0    0  0.29041678355E-01 -0.10425347860E+00  0.51805041400E-01  0.88814186322E+00  0.88000000000E+00 0.  1.
        -11    1    4    4    0    0 -0.24410927715E-01  0.63905590083E-01 -0.46054946953E-01  0.82469006879E-01  0.51100000000E-03 0. -1.
         11    1    4    4    0    0  0.25886559490E-03  0.39035878591E-01 -0.29565298380E-01  0.48971775730E-01  0.51100000000E-03 0.  1.
</event>
<event>
 8    1  0.1176534E+005  0.1043930E+01  0.7957747E-01            NaN
         13   -1    0    0    0    0  0.00000000000E+00  0.00000000000E+00  0.74505805969E-08  0.10566000000E+00  0.10566000000E+00 0. -1.
     999900   -1    0    0    0    0 -0.00000000000E+00 -0.00000000000E+00 -0.74505805969E-08  0.93827000000E+00  0.93827000000E+00 0. -1.
     999902    2    1    2    0    0 -0.10638091344E-01 -0.25200921915E-01 -0.15566658589E-03  0.10165752987E+01  0.10162071925E+01 0.  0.
     999903    2    3    3    0    0  0.36122063181E-01 -0.11737128744E+00  0.36528665018E-01  0.12976774992E+00  0.20603470285E-01 0.  0.
         14    1    1    2    0    0  0.10638091344E-01  0.25200921915E-01  0.15566658589E-03  0.27354701331E-01  0.00000000000E+00 0. -1.
     999901    1    3    3    0    0 -0.46760154525E-01  0.92170365525E-01 -0.36684331604E-01  0.88680754875E+00  0.88000000000E+00 0.  1.
        -11    1    4    4    0    0  0.27966270855E-01 -0.82718293593E-01  0.35176502052E-01  0.94138598981E-01  0.51100000000E-03 0. -1.
         11    1    4    4    0    0  0.81557923260E-02 -0.34652993847E-01  0.13521629663E-02  0.35629150940E-01  0.51100000000E-03 0.  1.
</event>
<event>
 8    1  0.1176534E+005  0.1043930E+01  0.7957747E-01            NaN
         13   -1    0    0    0    0  0.00000000000E+00  0.00000000000E+00  0.74505805969E-08  0.10566000000E+00  0.10566000000E+00 0.  1.
     999900   -1    0    0    0    0 -0.00000000000E+00 -0.00000000000E+00 -0.74505805969E-08  0.93827000000E+00  0.93827000000E+00 0.  1.
     999902    2    1    2    0    0  0.18398589528E-01 -0.14550521352E-01  0.27534635024E-02  0.10203120549E+01  0.10200386670E+01 0.  0.
     999903    2    3    3    0    0 -0.65754672875E-01  0.10768365605E+00  0.19057608568E-02  0.12788632452E+00  0.20780598866E-01 0.  0.
         14    1    1    2    0    0 -0.18398589528E-01  0.14550521352E-01 -0.27534635024E-02  0.23617945074E-01  0.00000000000E+00 0.  1.
     999901    1    3    3    0    0  0.84153262404E-01 -0.12223417740E+00  0.84770264564E-03  0.89242573041E+00  0.88000000000E+00 0. -1.
        -11    1    4    4    0    0 -0.46753753448E-01  0.65047251609E-01  0.92137171138E-02  0.80636295224E-01  0.51100000000E-03 0. -1.
         11    1    4    4    0    0 -0.19000919428E-01  0.42636404438E-01 -0.73079562570E-02  0.47250029292E-01  0.51100000000E-03 0.  1.
</event>
<event>
 8    1  0.1176534E+005  0.1043930E+01  0.7957747E-01            NaN
         13   -1    0    0    0    0  0.00000000000E+00  0.00000000000E+00  0.74505805969E-08  0.10566000000E+00  0.10566000000E+00 0. -1.
     999900   -1    0    0    0    0 -0.00000000000E+00 -0.00000000000E+00 -0.74505805969E-08  0.93827000000E+00  0.93827000000E+00 0. -1.
     999902    2    1    2    0    0  0.77118887641E-03  0.39956008885E-02 -0.24215902948E-01  0.10193745624E+01  0.10190787649E+01 0.  0.
     999903    2    3    3    0    0 -0.85124327883E-01 -0.90809570133E-01  0.26179823335E-01  0.12869741021E+00  0.19624245730E-01 0.  0.
         14    1    1    2    0    0 -0.77118887641E-03 -0.39956008885E-02  0.24215902948E-01  0.24555437571E-01  0.00000000000E+00 0. -1.
     999901    1    3    3    0    0  0.85895516759E-01  0.94805171022E-01 -0.50395726282E-01  0.89067715222E+00  0.88000000000E+00 0.  1.
        -11    1    4    4    0    0 -0.37046162476E-01 -0.42823868227E-01  0.22324773021E-02  0.56670511909E-01  0.51100000000E-03 0.  1.
         11    1    4    4    0    0 -0.48078165406E-01 -0.47985701906E-01  0.23947346033E-01  0.72026898304E-01  0.51100000000E-03 0. -1.
</event>
<event>
 8    1  0.1176534E+005  0.1043930E+01  0.7957747E-01            NaN
         13   -1    0    0    0    0  0.00000000000E+00  0.00000000000E+00  0.74505805969E-08  0.10566000000E+00  0.10566000000E+00 0.  1.
     999900   -1    0    0    0    0 -0.00000000000E+00 -0.00000000000E+00 -0.74505805969E-08  0.93827000000E+00  0.93827000000E+00 0. -1.
     999902    2    1    2    0    0 -0.29898929631E-02 -0.99610841919E-02 -0.19943270710E-01  0.10214378524E+01  0.10211901829E+01 0.  0.
     999903    2    3    3    0    0  0.75947439168E-01  0.77956037447E-01  0.66839963386E-01  0.12931014156E+00  0.20208283310E-01 0.  0.
         14    1    1    2    0    0  0.29898929631E-02  0.99610841919E-02  0.19943270710E-01  0.22492147626E-01  0.00000000000E+00 0.  1.
     999901    1    3    3    0    0 -0.78937332131E-01 -0.87917121639E-01 -0.86783234096E-01  0.89212771081E+00  0.88000000000E+00 0. -1.
        -11    1    4    4    0    0  0.41875095901E-01  0.42317475835E-01  0.24731215498E-01  0.64468492760E-01  0.51100000000E-03 0. -1.
         11    1    4    4    0    0  0.34072343268E-01  0.35638561612E-01  0.42108747888E-01  0.64841648801E-01  0.51100000000E-03 0.  1.
</event>
<event>
 8    1  0.1176534E+005  0.1043930E+01  0.7957747E-01            NaN
         13   -1    0    0    0    0  0.00000000000E+00  0.00000000000E+00  0.74505805969E-08  0.10566000000E+00  0.10566000000E+00 0. -1.
     999900   -1    0    0    0    0 -0.00000000000E+00 -0.00000000000E+00 -0.74505805969E-08  0.93827000000E+00  0.93827000000E+00 0.  1.
     999902    2    1    2    0    0 -0.16333238440E-01 -0.15444712965E-01  0.50614886306E-02  0.10208880273E+01  0.10206279596E+01 0.  0.
     999903    2    3    3    0    0  0.85584913900E-01  0.55049128932E-01  0.77334745544E-01  0.12927145326E+00  0.19371672011E-01 0.  0.
         14    1    1    2    0    0  0.16333238440E-01  0.15444712965E-01 -0.50614886306E-02  0.23041972651E-01  0.00000000000E+00 0. -1.
     999901    1    3    3    0    0 -0.10191815234E+00 -0.70493841897E-01 -0.72273256914E-01  0.89161657409E+00  0.88000000000E+00 0.  1.
        -11    1    4    4    0    0  0.13517856827E-01  0.51780377582E-02  0.19404691583E-01  0.24214617582E-01  0.51100000000E-03 0. -1.
         11    1    4    4    0    0  0.72067057073E-01  0.49871091174E-01  0.57930053962E-01  0.10505683568E+00  0.51100000000E-03 0.  1.
</event>
<event>
 8    1  0.1176534E+005  0.1043930E+01  0.7957747E-01            NaN
         13   -1    0    0    0    0  0.00000000000E+00  0.00000000000E+00  0.74505805969E-08  0.10566000000E+00  0.10566000000E+00 0.  1.
     999900   -1    0    0    0    0 -0.00000000000E+00 -0.00000000000E+00 -0.74505805969E-08  0.93827000000E+00  0.93827000000E+00 0. -1.
     999902    2    1    2    0    0 -0.61262421545E-02 -0.78427896170E-02 -0.21535565878E-01  0.10202061557E+01  0.10199302816E+01 0.  0.
     999903    2    3    3    0    0  0.10290377851E+00  0.52330407395E-01  0.52648545051E-01  0.12834762353E+00  0.19328321199E-01 0.  0.
         14    1    1    2    0    0  0.61262421545E-02  0.78427896170E-02  0.21535565878E-01  0.23723844326E-01  0.00000000000E+00 0.  1.
     999901    1    3    3    0    0 -0.10903002066E+00 -0.60173197012E-01 -0.74184110929E-01  0.89185853214E+00  0.88000000000E+00 0. -1.
        -11    1    4    4    0    0  0.66484688449E-01  0.30073963465E-01  0.23510000703E-01  0.76665757224E-01  0.51100000000E-03 0.  1.
         11    1    4    4    0    0  0.36419090059E-01  0.22256443930E-01  0.29138544348E-01  0.51681866306E-01  0.51100000000E-03 0. -1.
</event>
<event>
 8    1  0.1176534E+005  0.1043930E+01  0.7957747E-01            NaN
         13   -1    0    0    0    0  0.00000000000E+00  0.00000000000E+00  0.74505805969E-08  0.10566000000E+00  0.10566000000E+00 0.  1.
     999900   -1    0    0    0    0 -0.00000000000E+00 -0.00000000000E+00 -0.74505805969E-08  0.93827000000E+00  0.93827000000E+00 0.  1.
     999902    2    1    2    0    0  0.26485117010E-02  0.17793048058E-01 -0.14799956563E-01  0.10206352391E+01  0.10203693671E+01 0.  0.
     999903    2    3    3    0    0  0.11852907421E+00  0.53345262163E-01 -0.74225051425E-02  0.13229595055E+00  0.23500351520E-01 0.  0.
         14    1    1    2    0    0 -0.26485117010E-02 -0.17793048058E-01  0.14799956563E-01  0.23294760950E-01  0.00000000000E+00 0.  1.
     999901    1    3    3    0    0 -0.11588056251E+00 -0.35552214105E-01 -0.73774514207E-02  0.88833928850E+00  0.88000000000E+00 0.  1.
        -11    1    4    4    0    0  0.51772544270E-01  0.14699821219E-01 -0.11555830786E-01  0.55047973898E-01  0.51100000000E-03 0. -1.
         11    1    4    4    0    0  0.66756529942E-01  0.38645440944E-01  0.41333256432E-02  0.77247976656E-01  0.51100000000E-03 0.  1.
</event>
<event>
 8    1  0.1176534E+005  0.1043930E+01  0.7957747E-01            NaN
         13   -1    0    0    0    0  0.00000000000E+00  0.00000000000E+00  0.74505805969E-08  0.10566000000E+00  0.10566000000E+00 0.  1.
     999900   -1    0    0    0    0 -0.00000000000E+00 -0.00000000000E+00 -0.74505805969E-08  0.93827000000E+00  0.93827000000E+00 0. -1.
     999902    2    1    2    0    0 -0.15458542688E-01  0.19865559684E-01  0.58945468307E-04  0.10187583795E+01  0.10184473601E+01 0.  0.
     999903    2    3    3    0    0 -0.24166150328E-01  0.41791939756E-01  0.11939992017E+00  0.13038973034E+00  0.20361036152E-01 0.  0.
         14    1    1    2    0    0  0.15458542688E-01 -0.19865559684E-01 -0.58945468307E-04  0.25171620492E-01  0.00000000000E+00 0.  1.
     999901    1    3    3    0    0  0.87076076395E-02 -0.21926380071E-01 -0.11934097470E+00  0.88836864916E+00  0.88000000000E+00 0. -1.
        -11    1    4    4    0    0  0.14516106275E-02  0.15841340798E-01  0.35143652834E-01  0.38579692938E-01  0.51100000000E-03 0. -1.
         11    1    4    4    0    0 -0.25617760955E-01  0.25950598957E-01  0.84256267334E-01  0.91810037407E-01  0.51100000000E-03 0.  1.
</event>
<event>
 8    1  0.1176534E+005  0.1043930E+01  0.7957747E-01            NaN
         13   -1    0    0    0    0  0.00000000000E+00  0.00000000000E+00  0.74505805969E-08  0.10566000000E+00  0.10566000000E+00 0. -1.
     999900   -1    0    0    0    0 -0.00000000000E+00 -0.00000000000E+00 -0.74505805969E-08  0.93827000000E+00  0.93827000000E+00 0. -1.
     999902    2    1    2    0    0 -0.26060307357E-02  0.82766290603E-02 -0.21963734209E-01  0.10203143356E+01  0.10200410010E+01 0.  0.
     999903    2    3    3    0    0  0.77096966806E-01 -0.10200494481E+00 -0.11065034043E-01  0.12979012199E+00  0.19341399404E-01 0.  0.
         14    1    1    2    0    0  0.26060307357E-02 -0.82766290603E-02  0.21963734209E-01  0.23615664403E-01  0.00000000000E+00 0. -1.
     999901    1    3    3    0    0 -0.79702997542E-01  0.11028157387E+00 -0.10898700166E-01  0.89052421361E+00  0.88000000000E+00 0. -1.
        -11    1    4    4    0    0  0.10492940945E-03 -0.32110741137E-02 -0.27532027086E-02  0.42618368457E-02  0.51100000000E-03 0. -1.
         11    1    4    4    0    0  0.76992037397E-01 -0.98793870700E-01 -0.83118313342E-02  0.12552828515E+00  0.51100000000E-03 0.  1.
</event>
<event>
 8    1  0.1176534E+005  0.1043930E+01  0.7957747E-01            NaN
         13   -1    0    0    0    0  0.00000000000E+00  0.00000000000E+00  0.74505805969E-08  0.10566000000E+00  0.10566000000E+00 0. -1.
     999900   -1    0    0    0    0 -0.00000000000E+00 -0.00000000000E+00 -0.74505805969E-08  0.93827000000E+00  0.93827000000E+00 0. -1.
     999902    2    1    2    0    0  0.26234691620E-02  0.22645441392E-01  0.69957842249E-02  0.10200838346E+01  0.10198050745E+01 0.  0.
     999903    2    3    3    0    0 -0.28646182443E-01  0.90792204932E-01  0.90527868198E-01  0.13295397854E+00  0.20436174922E-01 0.  0.
         14    1    1    2    0    0 -0.26234691620E-02 -0.22645441392E-01 -0.69957842249E-02  0.23846165377E-01  0.00000000000E+00 0.  1.
     999901    1    3    3    0    0  0.31269651604E-01 -0.68146763541E-01 -0.83532083973E-01  0.88712985608E+00  0.88000000000E+00 0. -1.
        -11    1    4    4    0    0 -0.10936190775E-01  0.49650455196E-01  0.60495078227E-01  0.79023310362E-01  0.51100000000E-03 0. -1.
         11    1    4    4    0    0 -0.17709991667E-01  0.41141749737E-01  0.30032789971E-01  0.53930668183E-01  0.51100000000E-03 0.  1.
</event>
<event>
 8    1  0.1176534E+005  0.1043930E+01  0.7957747E-01            NaN
         13   -1    0    0    0    0  0.00000000000E+00  0.00000000000E+00  0.74505805969E-08  0.10566000000E+00  0.10566000000E+00 0.  1.
     999900   -1    0    0    0    0 -0.00000000000E+00 -0.00000000000E+00 -0.74505805969E-08  0.93827000000E+00  0.93827000000E+00 0. -1.
     999902    2    1    2    0    0  0.18403418496E-01 -0.28271342604E-03 -0.13381166984E-01  0.10211743113E+01  0.10209207377E+01 0.  0.
     999903    2    3    3    0    0  0.68438319926E-01 -0.42767533798E-01 -0.10509977635E+00  0.13397605011E+00  0.19767484245E-01 0.  0.
         14    1    1    2    0    0 -0.18403418496E-01  0.28271342604E-03  0.13381166984E-01  0.22755688719E-01  0.00000000000E+00 0.  1.
     999901    1    3    3    0    0 -0.50034901430E-01  0.42484820372E-01  0.91718609362E-01  0.88719826117E+00  0.88000000000E+00 0.  1.
        -11    1    4    4    0    0  0.39814624667E-01 -0.34900791515E-01 -0.60494960905E-01  0.80393849277E-01  0.51100000000E-03 0.  1.
         11    1    4    4    0    0  0.28623695259E-01 -0.78667422828E-02 -0.44604815441E-01  0.53582200832E-01  0.51100000000E-03 0. -1.
</event>
<event>
 8    1  0.1176534E+005  0.1043930E+01  0.7957747E-01            NaN
         13   -1    0    0    0    0  0.00000000000E+00  0.00000000000E+00  0.74505805969E-08  0.10566000000E+00  0.10566000000E+00 0.  1.
     999900   -1    0    0    0    0 -0.00000000000E+00 -0.00000000000E+00 -0.74505805969E-08  0.93827000000E+00  0.93827000000E+00 0.  1.
     999902    2    1    2    0    0  0.13044570173E-02  0.12787044934E-01  0.18742580942E-01  0.10212034854E+01  0.10209505689E+01 0.  0.
     999903    2    3    3    0    0  0.40120790622E-01  0.76207286077E-01 -0.96075239658E-01  0.13063514625E+00  0.20441660128E-01 0.  0.
         14    1    1    2    0    0 -0.13044570173E-02 -0.12787044934E-01 -0.18742580942E-01  0.22726514617E-01  0.00000000000E+00 0.  1.
     999901    1    3    3    0    0 -0.38816333605E-01 -0.63420241143E-01  0.11481782060E+00  0.89056833913E+00  0.88000000000E+00 0. -1.
        -11    1    4    4    0    0  0.29741684289E-01  0.34826788625E-01 -0.47552128900E-01  0.66022261959E-01  0.51100000000E-03 0.  1.
         11    1    4    4    0    0  0.10379106334E-01  0.41380497452E-01 -0.48523110758E-01  0.64612884290E-01  0.51100000000E-03 0. -1.
</event>
<event>
 8    1  0.1176534E+005  0.1043930E+01  0.7957747E-01            NaN
         13   -1    0    0    0    0  0.00000000000E+00  0.00000000000E+00  0.74505805969E-08  0.10566000000E+00  0.10566000000E+00 0. -1.
     999900   -1    0    0    0    0 -0.00000000000E+00 -0.00000000000E+00 -0.74505805969E-08  0.93827000000E+00  0.93827000000E+00 0.  1.
     999902    2    1    2    0    0  0.92984832877E-02  0.11313302244E-01  0.18435067295E-01  0.10203863319E+01  0.10201146809E+01 0.  0.
     999903    2    3    3    0    0 -0.66451605119E-02  0.23655375374E-01 -0.12464828617E+00  0.12860195634E+00  0.19938229280E-01 0.  0.
         14    1    1    2    0    0 -0.92984832877E-02 -0.11313302244E-01 -0.18435067295E-01  0.23543668051E-01  0.00000000000E+00 0.  1.
     999901    1    3    3    0    0  0.15943643800E-01 -0.12342073129E-01  0.14308335346E+00  0.89178437561E+00  0.88000000000E+00 0. -1.
        -11    1    4    4    0    0 -0.98056554347E-02  0.35211966734E-02 -0.57067608778E-01  0.58013126076E-01  0.51100000000E-03 0. -1.
         11    1    4    4    0    0  0.31604949228E-02  0.20134178700E-01 -0.67580677390E-01  0.70588830261E-01  0.51100000000E-03 0.  1.
</event>
<event>
 8    1  0.1176534E+005  0.1043930E+01  0.7957747E-01            NaN
         13   -1    0    0    0    0  0.00000000000E+00  0.00000000000E+00  0.74505805969E-08  0.10566000000E+00  0.10566000000E+00 0. -1.
     999900   -1    0    0    0    0 -0.00000000000E+00 -0.00000000000E+00 -0.74505805969E-08  0.93827000000E+00  0.93827000000E+00 0. -1.
     999902    2    1    2    0    0 -0.22077694509E-01  0.55328441607E-02 -0.78427270715E-02  0.10198562523E+01  0.10195720818E+01 0.  0.
     999903    2    3    3    0    0  0.52012242072E-02 -0.68760092584E-01  0.10697397193E+00  0.12887563849E+00  0.20260712207E-01 0.  0.
         14    1    1    2    0    0  0.22077694509E-01 -0.55328441607E-02  0.78427270715E-02  0.24073747678E-01  0.00000000000E+00 0. -1.
     999901    1    3    3    0    0 -0.27278918717E-01  0.74292936744E-01 -0.11481669901E+00  0.89098061383E+00  0.88000000000E+00 0. -1.
        -11    1    4    4    0    0  0.95371715343E-02 -0.56759481279E-01  0.96491414145E-01  0.11235412979E+00  0.51100000000E-03 0.  1.
         11    1    4    4    0    0 -0.43359473272E-02 -0.12000611304E-01  0.10482557789E-01  0.16521508699E-01  0.51100000000E-03 0. -1.
</event>
<event>
 8    1  0.1176534E+005  0.1043930E+01  0.7957747E-01            NaN
         13   -1    0    0    0    0  0.00000000000E+00  0.00000000000E+00  0.74505805969E-08  0.10566000000E+00  0.10566000000E+00 0.  1.
     999900   -1    0    0    0    0 -0.00000000000E+00 -0.00000000000E+00 -0.74505805969E-08  0.93827000000E+00  0.93827000000E+00 0.  1.
     999902    2    1    2    0    0 -0.62370166859E-02  0.22634349191E-01 -0.47809297536E-02  0.10199702122E+01  0.10196887576E+01 0.  0.
     999903    2    3    3    0    0 -0.96081441594E-01 -0.46375099466E-01  0.70744278849E-01  0.12949933577E+00  0.19571195844E-01 0.  0.
         14    1    1    2    0    0  0.62370166859E-02 -0.22634349191E-01  0.47809297536E-02  0.23959787765E-01  0.00000000000E+00 0.  1.
     999901    1    3    3    0    0  0.89844424908E-01  0.69009448657E-01 -0.75525208603E-01  0.89047087646E+00  0.88000000000E+00 0.  1.
        -11    1    4    4    0    0 -0.67985453009E-01 -0.42185313055E-01  0.50551187541E-01  0.94643045920E-01  0.51100000000E-03 0. -1.
         11    1    4    4    0    0 -0.28095988585E-01 -0.41897864109E-02  0.20193091309E-01  0.34856289853E-01  0.51100000000E-03 0.  1.
</event>
<event>
 8    1  0.1176534E+005  0.1043930E+01  0.7957747E-01            NaN
         13   -1    0    0    0    0  0.00000000000E+00  0.00000000000E+00  0.74505805969E-08  0.10566000000E+00  0.10566000000E+00 0.  1.
     999900   -1    0    0    0    0 -0.00000000000E+00 -0.00000000000E+00 -0.74505805969E-08  0.93827000000E+00  0.93827000000E+00 0. -1.
     999902    2    1    2    0    0  0.78813683503E-02  0.68769428911E-02  0.21282998904E-01  0.10202155666E+01  0.10199399139E+01 0.  0.
     999903    2    3    3    0    0  0.40376036658E-01  0.12364686303E+00  0.69135519040E-02  0.13179134429E+00  0.20059664931E-01 0.  0.
         14    1    1    2    0    0 -0.78813683503E-02 -0.68769428911E-02 -0.21282998904E-01  0.23714433431E-01  0.00000000000E+00 0. -1.
     999901    1    3    3    0    0 -0.32494668308E-01 -0.11676992014E+00  0.14369447000E-01  0.88842422228E+00  0.88000000000E+00 0.  1.
        -11    1    4    4    0    0  0.33087931832E-01  0.86739244975E-01 -0.29916789294E-02  0.92885516178E-01  0.51100000000E-03 0. -1.
         11    1    4    4    0    0  0.72881048263E-02  0.36907618057E-01  0.99052308334E-02  0.38905828117E-01  0.51100000000E-03 0.  1.
</event>
<event>
 8    1  0.1176534E+005  0.1043930E+01  0.7957747E-01            NaN
         13   -1    0    0    0    0  0.00000000000E+00  0.00000000000E+00  0.74505805969E-08  0.10566000000E+00  0.10566000000E+00 0.  1.
     999900   -1    0    0    0    0 -0.00000000000E+00 -0.00000000000E+00 -0.74505805969E-08  0.93827000000E+00  0.93827000000E+00 0. -1.
     999902    2    1    2    0    0 -0.22266264810E-01 -0.36828163441E-02 -0.80818020195E-02  0.10199578243E+01  0.10196760751E+01 0.  0.
     999903    2    3    3    0    0  0.27771314598E-02 -0.12726056520E+00  0.20592895725E-01  0.13050806741E+00  0.20132669742E-01 0.  0.
         14    1    1    2    0    0  0.22266264810E-01  0.36828163441E-02  0.80818020195E-02  0.23972175719E-01  0.00000000000E+00 0. -1.
     999901    1    3    3    0    0 -0.25043396269E-01  0.12357774885E+00 -0.28674697744E-01  0.88944975687E+00  0.88000000000E+00 0. -1.
        -11    1    4    4    0    0 -0.84895529774E-02 -0.44414461271E-01  0.56505370852E-02  0.45573090417E-01  0.51100000000E-03 0. -1.
         11    1    4    4    0    0  0.11266684437E-01 -0.82846103927E-01  0.14942358640E-01  0.84934976993E-01  0.51100000000E-03 0.  1.
</event>
<event>
 8    1  0.1176534E+005  0.1043930E+01  0.7957747E-01            NaN
         13   -1    0    0    0    0  0.00000000000E+00  0.00000000000E+00  0.74505805969E-08  0.10566000000E+00  0.10566000000E+00 0.  1.
     999900   -1    0    0    0    0 -0.00000000000E+00 -0.00000000000E+00 -0.74505805969E-08  0.93827000000E+00  0.93827000000E+00 0.  1.
     999902    2    1    2    0    0 -0.17437256312E-01 -0.15512221281E-01 -0.54344889517E-02  0.10199670998E+01  0.10196855712E+01 0.  0.
     999903    2    3    3    0    0  0.37486273665E-01  0.55437217230E-01 -0.10909583918E+00  0.12935153036E+00  0.18745946536E-01 0.  0.
         14    1    1    2    0    0  0.17437256312E-01  0.15512221281E-01  0.54344889517E-02  0.23962900219E-01  0.00000000000E+00 0.  1.
     999901    1    3    3    0    0 -0.54923529976E-01 -0.70949438511E-01  0.10366135023E+00  0.89061556942E+00  0.88000000000E+00 0. -1.
        -11    1    4    4    0    0  0.54784873356E-02  0.34741395082E-04 -0.80783697836E-02  0.97742626224E-02  0.51100000000E-03 0. -1.
         11    1    4    4    0    0  0.32007786329E-01  0.55402475835E-01 -0.10101746940E+00  0.11957726773E+00  0.51100000000E-03 0.  1.
</event>
<event>
 8    1  0.1176534E+005  0.1043930E+01  0.7957747E-01            NaN
         13   -1    0    0    0    0  0.00000000000E+00  0.00000000000E+00  0.74505805969E-08  0.10566000000E+00  0.10566000000E+00 0. -1.
     999900   -1    0    0    0    0 -0.00000000000E+00 -0.00000000000E+00 -0.74505805969E-08  0.93827000000E+00  0.93827000000E+00 0. -1.
     999902    2    1    2    0    0  0.17767490920E-02  0.22774178933E-01  0.53516313899E-02  0.10204681156E+01  0.10201983703E+01 0.  0.
     999903    2    3    3    0    0 -0.84592882090E-01 -0.70511445641E-01  0.65031678084E-01  0.12933197056E+00  0.19230699069E-01 0.  0.
         14    1    1    2    0    0 -0.17767490920E-02 -0.22774178933E-01 -0.53516313899E-02  0.23461884450E-01  0.00000000000E+00 0.  1.
     999901    1    3    3    0    0  0.86369631182E-01  0.93285624574E-01 -0.59680046694E-01  0.89113614499E+00  0.88000000000E+00 0.  1.
        -11    1    4    4    0    0 -0.47236138452E-01 -0.28756408924E-01  0.38168460144E-01  0.67195805679E-01  0.51100000000E-03 0.  1.
         11    1    4    4    0    0 -0.37356743638E-01 -0.41755036717E-01  0.26863217940E-01  0.62136164877E-01  0.51100000000E-03 0. -1.
</event>
<event>
 8    1  0.1176534E+005  0.1043930E+01  0.7957747E-01            NaN
         13   -1    0    0    0    0  0.00000000000E+00  0.00000000000E+00  0.74505805969E-08  0.10566000000E+00  0.10566000000E+00 0. -1.
     999900   -1    0    0    0    0 -0.00000000000E+00 -0.00000000000E+00 -0.74505805969E-08  0.93827000000E+00  0.93827000000E+00 0.  1.
     999902    2    1    2    0    0  0.18184799226E-01 -0.10032547982E-01 -0.11819134938E-01  0.10200337473E+01  0.10197538011E+01 0.  0.
     999903    2    3    3    0    0  0.11568245169E+00  0.59740100245E-01 -0.69802261254E-02  0.13189106186E+00  0.19880126638E-01 0.  0.
         14    1    1    2    0    0 -0.18184799226E-01  0.10032547982E-01  0.11819134938E-01  0.23896252689E-01  0.00000000000E+00 0. -1.
     999901    1    3    3    0    0 -0.97497652469E-01 -0.69772648227E-01 -0.48389088122E-02  0.88814268545E+00  0.88000000000E+00 0. -1.
        -11    1    4    4    0    0  0.65575525834E-01  0.28236138569E-01 -0.12348316725E-01  0.72458064814E-01  0.51100000000E-03 0. -1.
         11    1    4    4    0    0  0.50106925861E-01  0.31503961676E-01  0.53680905991E-02  0.59432997048E-01  0.51100000000E-03 0.  1.
</event>
<event>
 8    1  0.1176534E+005  0.1043930E+01  0.7957747E-01            NaN
         13   -1    0    0    0    0  0.00000000000E+00  0.00000000000E+00  0.74505805969E-08  0.10566000000E+00  0.10566000000E+00 0.  1.
     999900   -1    0    0    0    0 -0.00000000000E+00 -0.00000000000E+00 -0.74505805969E-08  0.93827000000E+00  0.93827000000E+00 0.  1.
     999902    2    1    2    0    0  0.43670176304E-02 -0.24129082341E-01  0.87077494183E-02  0.10179086942E+01  0.10175760420E+01 0.  0.
     999903    2    3    3    0    0 -0.53448765644E-01  0.10271011114E+00 -0.43686143865E-01  0.12539764893E+00  0.20247313722E-01 0.  0.
         14    1    1    2    0    0 -0.43670176304E-02  0.24129082341E-01 -0.87077494183E-02  0.26021305838E-01  0.00000000000E+00 0. -1.
     999901    1    3    3    0    0  0.57815783274E-01 -0.12683919348E+00  0.52393893283E-01  0.89251104523E+00  0.88000000000E+00 0. -1.
        -11    1    4    4    0    0 -0.31970616922E-01  0.50411406525E-01 -0.13107477687E-01  0.61118715191E-01  0.51100000000E-03 0.  1.
         11    1    4    4    0    0 -0.21478148722E-01  0.52298704617E-01 -0.30578666177E-01  0.64278933744E-01  0.51100000000E-03 0. -1.
</event>
<event>
 8    1  0.1176534E+005  0.1043930E+01  0.7957747E-01            NaN
         13   -1    0    0    0    0  0.00000000000E+00  0.00000000000E+00  0.74505805969E-08  0.10566000000E+00  0.10566000000E+00 0.  1.
     999900   -1    0    0    0    0 -0.00000000000E+00 -0.00000000000E+00 -0.74505805969E-08  0.93827000000E+00  0.93827000000E+00 0. -1.
     999902    2    1    2    0    0  0.23150840763E-02  0.30325349468E-02  0.10739862045E-01  0.10325326091E+01  0.10324697034E+01 0.  0.
     999903    2    3    3    0    0  0.29303740369E-01  0.52293814651E-01 -0.12542412164E+00  0.14029066226E+00  0.18891992431E-01 0.  0.
         14    1    1    2    0    0 -0.23150840763E-02 -0.30325349468E-02 -0.10739862045E-01  0.11397390896E-01  0.00000000000E+00 0. -1.
     999901    1    3    3    0    0 -0.26988656292E-01 -0.49261279704E-01  0.13616398369E+00  0.89224194684E+00  0.88000000000E+00 0.  1.
        -11    1    4    4    0    0  0.44425494579E-03  0.17888262954E-01 -0.38051455474E-01  0.42051892926E-01  0.51100000000E-03 0. -1.
         11    1    4    4    0    0  0.28859485423E-01  0.34405551697E-01 -0.87372666169E-01  0.98238769338E-01  0.51100000000E-03 0.  1.
</event>
<event>
 8    1  0.1176534E+005  0.1043930E+01  0.7957747E-01            NaN
         13   -1    0    0    0    0  0.00000000000E+00  0.00000000000E+00  0.74505805969E-08  0.10566000000E+00  0.10566000000E+00 0. -1.
     999900   -1    0    0    0    0 -0.00000000000E+00 -0.00000000000E+00 -0.74505805969E-08  0.93827000000E+00  0.93827000000E+00 0. -1.
     999902    2    1    2    0    0 -0.14975111867E-01  0.15594437262E-01 -0.10317625535E-01  0.10199739184E+01  0.10196925519E+01 0.  0.
     999903    2    3    3    0    0  0.81120851960E-01  0.69937818154E-01 -0.72612832981E-01  0.13089105939E+00  0.19696570372E-01 0.  0.
         14    1    1    2    0    0  0.14975111867E-01 -0.15594437262E-01  0.10317625535E-01  0.23956081600E-01  0.00000000000E+00 0.  1.
     999901    1    3    3    0    0 -0.96095963827E-01 -0.54343380892E-01  0.62295207446E-01  0.88908285901E+00  0.88000000000E+00 0.  1.
        -11    1    4    4    0    0  0.13935532871E-01  0.17925782295E-01 -0.77537727471E-02  0.23998226187E-01  0.51100000000E-03 0. -1.
         11    1    4    4    0    0  0.67185319089E-01  0.52012035858E-01 -0.64859060234E-01  0.10689283321E+00  0.51100000000E-03 0.  1.
</event>
<event>
 8    1  0.1176534E+005  0.1043930E+01  0.7957747E-01            NaN
         13   -1    0    0    0    0  0.00000000000E+00  0.00000000000E+00  0.74505805969E-08  0.10566000000E+00  0.10566000000E+00 0. -1.
     999900   -1    0    0    0    0 -0.00000000000E+00 -0.00000000000E+00 -0.74505805969E-08  0.93827000000E+00  0.93827000000E+00 0. -1.
     999902    2    1    2    0    0 -0.52777154797E-02 -0.13117656508E-01 -0.20641857938E-01  0.10189097384E+01  0.10186024943E+01 0.  0.
     999903    2    3    3    0    0 -0.93066025072E-01  0.85071950728E-01 -0.19204286947E-01  0.12910635959E+00  0.20028120901E-01 0.  0.
         14    1    1    2    0    0  0.52777154797E-02  0.13117656508E-01  0.20641857938E-01  0.25020261631E-01  0.00000000000E+00 0. -1.
     999901    1    3    3    0    0  0.87788309593E-01 -0.98189607236E-01 -0.14375709913E-02  0.88980337878E+00  0.88000000000E+00 0. -1.
        -11    1    4    4    0    0 -0.30214606467E-01  0.21088541302E-01  0.21362097234E-02  0.36911699111E-01  0.51100000000E-03 0. -1.
         11    1    4    4    0    0 -0.62851418605E-01  0.63983409425E-01 -0.21340496670E-01  0.92194660482E-01  0.51100000000E-03 0.  1.
</event>
<event>
 8    1  0.1176534E+005  0.1043930E+01  0.7957747E-01            NaN
         13   -1    0    0    0    0  0.00000000000E+00  0.00000000000E+00  0.74505805969E-08  0.10566000000E+00  0.10566000000E+00 0.  1.
     999900   -1    0    0    0    0 -0.00000000000E+00 -0.00000000000E+00 -0.74505805969E-08  0.93827000000E+00  0.93827000000E+00 0.  1.
     999902    2    1    2    0    0  0.18832000726E-01 -0.15195395160E-01  0.35125903081E-02  0.10194783625E+01  0.10191850907E+01 0.  0.
     999903    2    3    3    0    0  0.20066259535E-01 -0.98698671232E-01 -0.81935461141E-01  0.13140421582E+00  0.20237728855E-01 0.  0.
         14    1    1    2    0    0 -0.18832000726E-01  0.15195395160E-01 -0.35125903081E-02  0.24451637493E-01  0.00000000000E+00 0. -1.
     999901    1    3    3    0    0 -0.12342588089E-02  0.83503276072E-01  0.85448051450E-01  0.88807414668E+00  0.88000000000E+00 0. -1.
        -11    1    4    4    0    0  0.22828000020E-01 -0.91952418501E-01 -0.71649350646E-01  0.11878659614E+00  0.51100000000E-03 0.  1.
         11    1    4    4    0    0 -0.27617404846E-02 -0.67462527310E-02 -0.10286110496E-01  0.12617619686E-01  0.51100000000E-03 0. -1.
</event>
<event>
 8    1  0.1176534E+005  0.1043930E+01  0.7957747E-01            NaN
         13   -1    0    0    0    0  0.00000000000E+00  0.00000000000E+00  0.74505805969E-08  0.10566000000E+00  0.10566000000E+00 0.  1.
     999900   -1    0    0    0    0 -0.00000000000E+00 -0.00000000000E+00 -0.74505805969E-08  0.93827000000E+00  0.93827000000E+00 0.  1.
     999902    2    1    2    0    0 -0.20215707402E-01 -0.17703164996E-02  0.13662467470E-01  0.10194663154E+01  0.10191727510E+01 0.  0.
     999903    2    3    3    0    0  0.32558609188E-01 -0.88878178602E-01  0.87409515827E-01  0.13052788376E+00  0.20921551498E-01 0.  0.
         14    1    1    2    0    0  0.20215707402E-01  0.17703164996E-02 -0.13662467470E-01  0.24463684588E-01  0.00000000000E+00 0. -1.
     999901    1    3    3    0    0 -0.52774316590E-01  0.87107862102E-01 -0.73747048357E-01  0.88893843165E+00  0.88000000000E+00 0.  1.
        -11    1    4    4    0    0  0.30964919207E-01 -0.59055924016E-01  0.54854041328E-01  0.86346136879E-01  0.51100000000E-03 0.  1.
         11    1    4    4    0    0  0.15936899812E-02 -0.29822254585E-01  0.32555474499E-01  0.44181746878E-01  0.51100000000E-03 0. -1.
</event>
<event>
 7    1  0.1176534E+005  0.1043930E+01  0.7957747E-01            NaN
         13   -1    0    0    0    0  0.00000000000E+00  0.00000000000E+00  0.74505805969E-08  0.10566000000E+00  0.10566000000E+00 0. -1.
     999900   -1    0    0    0    0 -0.00000000000E+00 -0.00000000000E+00 -0.74505805969E-08  0.93827000000E+00  0.93827000000E+00 0. -1.
     999903    2    1    2    0    0  0.11552261895E-02 -0.17234677241E-01  0.10220447744E+00  0.10546028678E+00  0.19435746237E-01 0.  0.
         14    1    1    2    0    0  0.42560077151E-02 -0.37772430621E-01  0.27949871246E-01  0.47181197731E-01  0.00000000000E+00 0. -1.
     999901    1    1    2    0    0 -0.54112339046E-02  0.55007107862E-01 -0.13015434868E+00  0.89128851549E+00  0.88000000000E+00 0. -1.
        -11    1    3    3    0    0  0.10128295843E-01 -0.67696962091E-02  0.46201945454E-01  0.47783805292E-01  0.51100000000E-03 0. -1.
         11    1    3    3    0    0 -0.89730696532E-02 -0.10464981032E-01  0.56002531982E-01  0.57676481484E-01  0.51100000000E-03 0.  1.
</event>
<event>
 8    1  0.1176534E+005  0.1043930E+01  0.7957747E-01            NaN
         13   -1    0    0    0    0  0.00000000000E+00  0.00000000000E+00  0.74505805969E-08  0.10566000000E+00  0.10566000000E+00 0.  1.
     999900   -1    0    0    0    0 -0.00000000000E+00 -0.00000000000E+00 -0.74505805969E-08  0.93827000000E+00  0.93827000000E+00 0. -1.
     999902    2    1    2    0    0 -0.51729110315E-02 -0.21688573179E-01 -0.53922435715E-02  0.10209903072E+01  0.10207325692E+01 0.  0.
     999903    2    3    3    0    0 -0.11844870070E+00  0.50959833271E-01  0.70911418448E-02  0.13067293098E+00  0.19953227672E-01 0.  0.
         14    1    1    2    0    0  0.51729110315E-02  0.21688573179E-01  0.53922435715E-02  0.22939692801E-01  0.00000000000E+00 0.  1.
     999901    1    3    3    0    0  0.11327578967E+00 -0.72648406450E-01 -0.12483385416E-01  0.89031737622E+00  0.88000000000E+00 0. -1.
        -11    1    4    4    0    0 -0.38089617507E-01  0.82866067071E-02 -0.31459769569E-02  0.39110677629E-01  0.51100000000E-03 0.  1.
         11    1    4    4    0    0 -0.80359083190E-01  0.42673226564E-01  0.10237118802E-01  0.91562253352E-01  0.51100000000E-03 0. -1.
</event>
<event>
 8    1  0.1213239E+005  0.1043930E+01  0.7957747E-01            NaN
         13   -1    0    0    0    0  0.00000000000E+00  0.00000000000E+00  0.74505805969E-08  0.10566000000E+00  0.10566000000E+00 0. -1.
     999900   -1    0    0    0    0 -0.00000000000E+00 -0.00000000000E+00 -0.74505805969E-08  0.93827000000E+00  0.93827000000E+00 0. -1.
     999902    2    1    2    0    0  0.51296519263E-02  0.65363487338E-02 -0.22402767508E-01  0.10200360431E+01  0.10197561513E+01 0.  0.
     999903    2    3    3    0    0 -0.11811683220E-01  0.12880312131E+00  0.56770287448E-02  0.13097775061E+00  0.19828832046E-01 0.  0.
         14    1    1    2    0    0 -0.51296519263E-02 -0.65363487338E-02  0.22402767508E-01  0.23893956886E-01  0.00000000000E+00 0. -1.
     999901    1    3    3    0    0  0.16941335146E-01 -0.12226677257E+00 -0.28079796253E-01  0.88905829250E+00  0.88000000000E+00 0.  1.
        -11    1    4    4    0    0 -0.47214327540E-02  0.61316507681E-01  0.12560068506E-01  0.62769598400E-01  0.51100000000E-03 0. -1.
         11    1    4    4    0    0 -0.70902504661E-02  0.67486613627E-01 -0.68830397614E-02  0.68208152209E-01  0.51100000000E-03 0.  1.
</event>
<event>
 8    1  0.1176534E+005  0.1043930E+01  0.7957747E-01            NaN
         13   -1    0    0    0    0  0.00000000000E+00  0.00000000000E+00  0.74505805969E-08  0.10566000000E+00  0.10566000000E+00 0. -1.
     999900   -1    0    0    0    0 -0.00000000000E+00 -0.00000000000E+00 -0.74505805969E-08  0.93827000000E+00  0.93827000000E+00 0.  1.
     999902    2    1    2    0    0  0.34441884481E-02  0.21286986529E-01 -0.94499556000E-02  0.10203864257E+01  0.10201147768E+01 0.  0.
     999903    2    3    3    0    0 -0.10465213936E+00  0.35205237580E-01  0.66433500275E-01  0.13042191368E+00  0.20124278475E-01 0.  0.
         14    1    1    2    0    0 -0.34441884481E-02 -0.21286986529E-01  0.94499556000E-02  0.23543574291E-01  0.00000000000E+00 0.  1.
     999901    1    3    3    0    0  0.10809632780E+00 -0.13918251051E-01 -0.75883455875E-01  0.88996451203E+00  0.88000000000E+00 0.  1.
        -11    1    4    4    0    0 -0.86292198457E-01  0.34650152621E-01  0.61175750718E-01  0.11130907505E+00  0.51100000000E-03 0.  1.
         11    1    4    4    0    0 -0.18359940899E-01  0.55508495849E-03  0.52577495570E-02  0.19112838631E-01  0.51100000000E-03 0. -1.
</event>
<event>
 8    1  0.1176534E+005  0.1043930E+01  0.7957747E-01            NaN
         13   -1    0    0    0    0  0.00000000000E+00  0.00000000000E+00  0.74505805969E-08  0.10566000000E+00  0.10566000000E+00 0. -1.
     999900   -1    0    0    0    0 -0.00000000000E+00 -0.00000000000E+00 -0.74505805969E-08  0.93827000000E+00  0.93827000000E+00 0.  1.
     999902    2    1    2    0    0  0.10845795326E-01  0.16161191220E-01 -0.12001227578E-01  0.10210641993E+01  0.10208081378E+01 0.  0.
     999903    2    3    3    0    0 -0.10388104025E+00  0.77863975736E-01  0.22785600764E-02  0.13136009526E+00  0.19905113690E-01 0.  0.
         14    1    1    2    0    0 -0.10845795326E-01 -0.16161191220E-01  0.12001227578E-01  0.22865800692E-01  0.00000000000E+00 0.  1.
     999901    1    3    3    0    0  0.11472683558E+00 -0.61702784516E-01 -0.14279787655E-01  0.88970410404E+00  0.88000000000E+00 0.  1.
        -11    1    4    4    0    0 -0.59210283586E-01  0.33860188945E-01 -0.40812077031E-02  0.68332184620E-01  0.51100000000E-03 0.  1.
         11    1    4    4    0    0 -0.44670756663E-01  0.44003786791E-01  0.63597677795E-02  0.63027910643E-01  0.51100000000E-03 0. -1.
</event>
<event>
 8    1  0.1176534E+005  0.1043930E+01  0.7957747E-01            NaN
         13   -1    0    0    0    0  0.00000000000E+00  0.00000000000E+00  0.74505805969E-08  0.10566000000E+00  0.10566000000E+00 0.  1.
     999900   -1    0    0    0    0 -0.00000000000E+00 -0.00000000000E+00 -0.74505805969E-08  0.93827000000E+00  0.93827000000E+00 0. -1.
     999902    2    1    2    0    0 -0.30084873831E-02 -0.18745279727E-01  0.14401377831E-01  0.10201006863E+01  0.10198223247E+01 0.  0.
     999903    2    3    3    0    0 -0.54267087962E-01 -0.83806472627E-01  0.86336766741E-01  0.13328892321E+00  0.18532621782E-01 0.  0.
         14    1    1    2    0    0  0.30084873831E-02  0.18745279727E-01 -0.14401377831E-01  0.23829313709E-01  0.00000000000E+00 0. -1.
     999901    1    3    3    0    0  0.51258600579E-01  0.65061192899E-01 -0.71935388910E-01  0.88681176308E+00  0.88000000000E+00 0.  1.
        -11    1    4    4    0    0 -0.21503675146E-01 -0.46005174672E-01  0.51496874663E-01  0.72326159600E-01  0.51100000000E-03 0. -1.
         11    1    4    4    0    0 -0.32763412816E-01 -0.37801297955E-01  0.34839892078E-01  0.60962763614E-01  0.51100000000E-03 0.  1.
</event>
<event>
 8    1  0.1176534E+005  0.1043930E+01  0.7957747E-01            NaN
         13   -1    0    0    0    0  0.00000000000E+00  0.00000000000E+00  0.74505805969E-08  0.10566000000E+00  0.10566000000E+00 0. -1.
     999900   -1    0    0    0    0 -0.00000000000E+00 -0.00000000000E+00 -0.74505805969E-08  0.93827000000E+00  0.93827000000E+00 0. -1.
     999902    2    1    2    0    0 -0.13036550340E-01 -0.17706644836E-01 -0.91190972081E-02  0.10201259069E+01  0.10198481411E+01 0.  0.
     999903    2    3    3    0    0 -0.11250835338E-01 -0.13084106767E+00 -0.44150489219E-02  0.13286905878E+00  0.19716182165E-01 0.  0.
         14    1    1    2    0    0  0.13036550340E-01  0.17706644836E-01  0.91190972081E-02  0.23804093136E-01  0.00000000000E+00 0.  1.
     999901    1    3    3    0    0 -0.17857150026E-02  0.11313442283E+00 -0.47040482862E-02  0.88725684809E+00  0.88000000000E+00 0.  1.
        -11    1    4    4    0    0  0.92483049818E-03 -0.93217742745E-01 -0.19388941279E-02  0.93243891518E-01  0.51100000000E-03 0.  1.
         11    1    4    4    0    0 -0.12175665836E-01 -0.37623324922E-01 -0.24761547940E-02  0.39625167259E-01  0.51100000000E-03 0. -1.
</event>
<event>
 8    1  0.1176534E+005  0.1043930E+01  0.7957747E-01            NaN
         13   -1    0    0    0    0  0.00000000000E+00  0.00000000000E+00  0.74505805969E-08  0.10566000000E+00  0.10566000000E+00 0. -1.
     999900   -1    0    0    0    0 -0.00000000000E+00 -0.00000000000E+00 -0.74505805969E-08  0.93827000000E+00  0.93827000000E+00 0.  1.
     999902    2    1    2    0    0 -0.27281949511E-02  0.87986146236E-02 -0.21793534863E-01  0.10202695514E+01  0.10199951670E+01 0.  0.
     999903    2    3    3    0    0 -0.10765092825E+00  0.51261084355E-01  0.50361320109E-01  0.13009082529E+00  0.13074369479E-01 0.  0.
         14    1    1    2    0    0  0.27281949511E-02 -0.87986146236E-02  0.21793534863E-01  0.23660448618E-01  0.00000000000E+00 0. -1.
     999901    1    3    3    0    0  0.10492273330E+00 -0.42462469731E-01 -0.72154854971E-01  0.89017872610E+00  0.88000000000E+00 0.  1.
        -11    1    4    4    0    0 -0.10284876157E+00  0.45902511880E-01  0.45991289331E-01  0.12165676376E+00  0.51100000000E-03 0.  1.
         11    1    4    4    0    0 -0.48021666876E-02  0.53585724753E-02  0.43700307772E-02  0.84340615283E-02  0.51100000000E-03 0. -1.
</event>
<event>
 8    1  0.1176534E+005  0.1043930E+01  0.7957747E-01            NaN
         13   -1    0    0    0    0  0.00000000000E+00  0.00000000000E+00  0.74505805969E-08  0.10566000000E+00  0.10566000000E+00 0. -1.
     999900   -1    0    0    0    0 -0.00000000000E+00 -0.00000000000E+00 -0.74505805969E-08  0.93827000000E+00  0.93827000000E+00 0.  1.
     999902    2    1    2    0    0 -0.11748924552E-01 -0.59669709051E-02  0.19304676206E-01  0.10205566713E+01  0.10202889821E+01 0.  0.
     999903    2    3    3    0    0 -0.11740077982E+00  0.51036604096E-01 -0.22039185970E-01  0.13144417168E+00  0.20103892424E-01 0.  0.
         14    1    1    2    0    0  0.11748924552E-01  0.59669709051E-02 -0.19304676206E-01  0.23373328675E-01  0.00000000000E+00 0.  1.
     999901    1    3    3    0    0  0.10565185527E+00 -0.57003575001E-01  0.41343862177E-01  0.88911249964E+00  0.88000000000E+00 0.  1.
        -11    1    4    4    0    0 -0.64279367664E-01  0.36617925166E-01 -0.18649874107E-01  0.76294092012E-01  0.51100000000E-03 0. -1.
         11    1    4    4    0    0 -0.53121412156E-01  0.14418678930E-01 -0.33893118630E-02  0.55150079669E-01  0.51100000000E-03 0.  1.
</event>
<event>
 8    1  0.1176534E+005  0.1043930E+01  0.7957747E-01            NaN
         13   -1    0    0    0    0  0.00000000000E+00  0.00000000000E+00  0.74505805969E-08  0.10566000000E+00  0.10566000000E+00 0.  1.
     999900   -1    0    0    0    0 -0.00000000000E+00 -0.00000000000E+00 -0.74505805969E-08  0.93827000000E+00  0.93827000000E+00 0.  1.
     999902    2    1    2    0    0 -0.89406713480E-03 -0.59830321445E-02  0.22792691279E-01  0.10203481679E+01  0.10200756251E+01 0.  0.
     999903    2    3    3    0    0 -0.63731856745E-01 -0.27971642373E-01 -0.10615159134E+00  0.12846324549E+00  0.19760636558E-01 0.  0.
         14    1    1    2    0    0  0.89406713480E-03  0.59830321445E-02 -0.22792691279E-01  0.23581832105E-01  0.00000000000E+00 0. -1.
     999901    1    3    3    0    0  0.62837789611E-01  0.21988610228E-01  0.12894428262E+00  0.89188492240E+00  0.88000000000E+00 0. -1.
        -11    1    4    4    0    0 -0.29645008430E-01 -0.12124093276E-01 -0.31741494900E-01  0.45095496250E-01  0.51100000000E-03 0. -1.
         11    1    4    4    0    0 -0.34086848316E-01 -0.15847549096E-01 -0.74410096443E-01  0.83367749245E-01  0.51100000000E-03 0.  1.
</event>
<event>
 8    1  0.1176534E+005  0.1043930E+01  0.7957747E-01            NaN
         13   -1    0    0    0    0  0.00000000000E+00  0.00000000000E+00  0.74505805969E-08  0.10566000000E+00  0.10566000000E+00 0.  1.
     999900   -1    0    0    0    0 -0.00000000000E+00 -0.00000000000E+00 -0.74505805969E-08  0.93827000000E+00  0.93827000000E+00 0.  1.
     999902    2    1    2    0    0  0.18670891415E-02 -0.12152847691E-01 -0.19848789232E-01  0.10205815062E+01  0.10203143921E+01 0.  0.
     999903    2    3    3    0    0 -0.60567751059E-01  0.11105701200E+00  0.16885675389E-01  0.12905012723E+00  0.19149332140E-01 0.  0.
         14    1    1    2    0    0 -0.18670891415E-02  0.12152847691E-01  0.19848789232E-01  0.23348493802E-01  0.00000000000E+00 0.  1.
     999901    1    3    3    0    0  0.62434840200E-01 -0.12320985969E+00 -0.36734464621E-01  0.89153137897E+00  0.88000000000E+00 0.  1.
        -11    1    4    4    0    0 -0.21795399950E-01  0.55439003746E-01  0.18393104214E-02  0.59600056873E-01  0.51100000000E-03 0. -1.
         11    1    4    4    0    0 -0.38772351109E-01  0.55618008254E-01  0.15046364967E-01  0.69450070356E-01  0.51100000000E-03 0.  1.
</event>
<event>
 8    1  0.1176534E+005  0.1043930E+01  0.7957747E-01            NaN
         13   -1    0    0    0    0  0.00000000000E+00  0.00000000000E+00  0.74505805969E-08  0.10566000000E+00  0.10566000000E+00 0. -1.
     999900   -1    0    0    0    0 -0.00000000000E+00 -0.00000000000E+00 -0.74505805969E-08  0.93827000000E+00  0.93827000000E+00 0.  1.
     999902    2    1    2    0    0  0.22087871605E-01 -0.23834264484E-02 -0.62467880535E-02  0.10208523668E+01  0.10205914842E+01 0.  0.
     999903    2    3    3    0    0  0.52245917761E-01  0.11919676000E+00 -0.37642932986E-02  0.13197812806E+00  0.21599834851E-01 0.  0.
         14    1    1    2    0    0 -0.22087871605E-01  0.23834264484E-02  0.62467880535E-02  0.23077633212E-01  0.00000000000E+00 0. -1.
     999901    1    3    3    0    0 -0.30158046156E-01 -0.12158018645E+00 -0.24824947549E-02  0.88887423872E+00  0.88000000000E+00 0. -1.
        -11    1    4    4    0    0  0.33640416879E-01  0.50306060245E-01 -0.34252606571E-02  0.60616589121E-01  0.51100000000E-03 0. -1.
         11    1    4    4    0    0  0.18605500882E-01  0.68890699758E-01 -0.33903264151E-03  0.71361538943E-01  0.51100000000E-03 0.  1.
</event>
<event>
 8    1  0.1176534E+005  0.1043930E+01  0.7957747E-01            NaN
         13   -1    0    0    0    0  0.00000000000E+00  0.00000000000E+00  0.74505805969E-08  0.10566000000E+00  0.10566000000E+00 0.  1.
     999900   -1    0    0    0    0 -0.00000000000E+00 -0.00000000000E+00 -0.74505805969E-08  0.93827000000E+00  0.93827000000E+00 0.  1.
     999902    2    1    2    0    0  0.21815884053E-01  0.10445281923E-01  0.40964528481E-02  0.10193980283E+01  0.10191028027E+01 0.  0.
     999903    2    3    3    0    0 -0.41961250898E-01  0.20934021180E-01 -0.11795255921E+00  0.12862673442E+00  0.20809871734E-01 0.  0.
         14    1    1    2    0    0 -0.21815884053E-01 -0.10445281923E-01 -0.40964528481E-02  0.24531971739E-01  0.00000000000E+00 0.  1.
     999901    1    3    3    0    0  0.63777134951E-01 -0.10488739258E-01  0.12204901206E+00  0.89077129385E+00  0.88000000000E+00 0. -1.
        -11    1    4    4    0    0 -0.20688118210E-01  0.71902932868E-03 -0.63167189108E-01  0.66474582654E-01  0.51100000000E-03 0. -1.
         11    1    4    4    0    0 -0.21273132688E-01  0.20214991852E-01 -0.54785370106E-01  0.62152151761E-01  0.51100000000E-03 0.  1.
</event>
<event>
 8    1  0.1176534E+005  0.1043930E+01  0.7957747E-01            NaN
         13   -1    0    0    0    0  0.00000000000E+00  0.00000000000E+00  0.74505805969E-08  0.10566000000E+00  0.10566000000E+00 0.  1.
     999900   -1    0    0    0    0 -0.00000000000E+00 -0.00000000000E+00 -0.74505805969E-08  0.93827000000E+00  0.93827000000E+00 0. -1.
     999902    2    1    2    0    0 -0.62407807075E-02 -0.10597303744E-01 -0.18699294386E-01  0.10215488963E+01  0.10213036932E+01 0.  0.
     999903    2    3    3    0    0  0.81970205985E-01  0.97465241849E-01 -0.10442124852E-01  0.13052315441E+00  0.26620815687E-01 0.  0.
         14    1    1    2    0    0  0.62407807075E-02  0.10597303744E-01  0.18699294386E-01  0.22381103660E-01  0.00000000000E+00 0.  1.
     999901    1    3    3    0    0 -0.88210986693E-01 -0.10806254559E+00 -0.82571695346E-02  0.89102574193E+00  0.88000000000E+00 0.  1.
        -11    1    4    4    0    0  0.75249212857E-01  0.93214001411E-01 -0.15922557658E-01  0.12085149175E+00  0.51100000000E-03 0. -1.
         11    1    4    4    0    0  0.67209931283E-02  0.42512404384E-02  0.54804328060E-02  0.96716626615E-02  0.51100000000E-03 0.  1.
</event>
<event>
 8    1  0.1176534E+005  0.1043930E+01  0.7957747E-01            NaN
         13   -1    0    0    0    0  0.00000000000E+00  0.00000000000E+00  0.74505805969E-08  0.10566000000E+00  0.10566000000E+00 0.  1.
     999900   -1    0    0    0    0 -0.00000000000E+00 -0.00000000000E+00 -0.74505805969E-08  0.93827000000E+00  0.93827000000E+00 0. -1.
     999902    2    1    2    0    0 -0.10077261990E-01 -0.10586286978E-01  0.19047294265E-01  0.10199212495E+01  0.10196386297E+01 0.  0.
     999903    2    3    3    0    0  0.83902127588E-01  0.34881045339E-01 -0.86871434877E-01  0.12744257685E+00  0.20945401854E-01 0.  0.
         14    1    1    2    0    0  0.10077261990E-01  0.10586286978E-01 -0.19047294265E-01  0.24008750488E-01  0.00000000000E+00 0. -1.
     999901    1    3    3    0    0 -0.93979389577E-01 -0.45467332317E-01  0.10591872914E+00  0.89247867266E+00  0.88000000000E+00 0.  1.
        -11    1    4    4    0    0  0.47688524913E-01  0.29626107816E-01 -0.46008522912E-01  0.72587512523E-01  0.51100000000E-03 0.  1.
         11    1    4    4    0    0  0.36213602675E-01  0.52549375230E-02 -0.40862911965E-01  0.54855064327E-01  0.51100000000E-03 0. -1.
</event>
<event>
 8    1  0.1176534E+005  0.1043930E+01  0.7957747E-01            NaN
         13   -1    0    0    0    0  0.00000000000E+00  0.00000000000E+00  0.74505805969E-08  0.10566000000E+00  0.10566000000E+00 0. -1.
     999900   -1    0    0    0    0 -0.00000000000E+00 -0.00000000000E+00 -0.74505805969E-08  0.93827000000E+00  0.93827000000E+00 0.  1.
     999902    2    1    2    0    0 -0.10523454618E-01  0.18989542980E-01  0.76482158585E-02  0.10209117237E+01  0.10206521966E+01 0.  0.
     999903    2    3    3    0    0 -0.12561605459E+00  0.36921380104E-01 -0.88373679578E-02  0.13308311868E+00  0.22145787993E-01 0.  0.
         14    1    1    2    0    0  0.10523454618E-01 -0.18989542980E-01 -0.76482158585E-02  0.23018276337E-01  0.00000000000E+00 0.  1.
     999901    1    3    3    0    0  0.11509259997E+00 -0.17931837124E-01  0.16485583816E-01  0.88782860498E+00  0.88000000000E+00 0.  1.
        -11    1    4    4    0    0 -0.28443037311E-01  0.18090719816E-01 -0.60557356256E-04  0.33712687568E-01  0.51100000000E-03 0. -1.
         11    1    4    4    0    0 -0.97173017280E-01  0.18830660288E-01 -0.87768106016E-02  0.99370431112E-01  0.51100000000E-03 0.  1.
</event>
<event>
 8    1  0.1176534E+005  0.1043930E+01  0.7957747E-01            NaN
         13   -1    0    0    0    0  0.00000000000E+00  0.00000000000E+00  0.74505805969E-08  0.10566000000E+00  0.10566000000E+00 0. -1.
     999900   -1    0    0    0    0 -0.00000000000E+00 -0.00000000000E+00 -0.74505805969E-08  0.93827000000E+00  0.93827000000E+00 0. -1.
     999902    2    1    2    0    0 -0.19808302498E-01 -0.10499125433E-01  0.76121489199E-02  0.10202541622E+01  0.10199794166E+01 0.  0.
     999903    2    3    3    0    0 -0.37486236513E-01  0.11905645002E+00  0.31336290076E-01  0.13027663928E+00  0.20257923087E-01 0.  0.
         14    1    1    2    0    0  0.19808302498E-01  0.10499125433E-01 -0.76121489199E-02  0.23675837765E-01  0.00000000000E+00 0. -1.
     999901    1    3    3    0    0  0.17677934015E-01 -0.12955557545E+00 -0.23724141156E-01  0.88997752295E+00  0.88000000000E+00 0. -1.
        -11    1    4    4    0    0 -0.19028412652E-01  0.57932514800E-01  0.49262302796E-02  0.61178310085E-01  0.51100000000E-03 0.  1.
         11    1    4    4    0    0 -0.18457823861E-01  0.61123935222E-01  0.26410059796E-01  0.69098329199E-01  0.51100000000E-03 0. -1.
</event>
<event>
 8    1  0.1176534E+005  0.1043930E+01  0.7957747E-01            NaN
         13   -1    0    0    0    0  0.00000000000E+00  0.00000000000E+00  0.74505805969E-08  0.10566000000E+00  0.10566000000E+00 0. -1.
     999900   -1    0    0    0    0 -0.00000000000E+00 -0.00000000000E+00 -0.74505805969E-08  0.93827000000E+00  0.93827000000E+00 0. -1.
     999902    2    1    2    0    0  0.14521926697E-01  0.18102223439E-01 -0.10174528241E-01  0.10185903498E+01  0.10182751115E+01 0.  0.
     999903    2    3    3    0    0  0.73041500254E-01 -0.66641504827E-01  0.79048930115E-01  0.12810347986E+00  0.19637140223E-01 0.  0.
         14    1    1    2    0    0 -0.14521926697E-01 -0.18102223439E-01  0.10174528241E-01  0.25339650221E-01  0.00000000000E+00 0. -1.
     999901    1    3    3    0    0 -0.58519573557E-01  0.84743728266E-01 -0.89223458356E-01  0.89048686991E+00  0.88000000000E+00 0. -1.
        -11    1    4    4    0    0  0.56441696649E-01 -0.42308875975E-01  0.48125364488E-01  0.85393313175E-01  0.51100000000E-03 0. -1.
         11    1    4    4    0    0  0.16599803605E-01 -0.24332628851E-01  0.30923565627E-01  0.42710166689E-01  0.51100000000E-03 0.  1.
</event>
<event>
 8    1  0.1176534E+005  0.1043930E+01  0.7957747E-01            NaN
         13   -1    0    0    0    0  0.00000000000E+00  0.00000000000E+00  0.74505805969E-08  0.10566000000E+00  0.10566000000E+00 0. -1.
     999900   -1    0    0    0    0 -0.00000000000E+00 -0.00000000000E+00 -0.74505805969E-08  0.93827000000E+00  0.93827000000E+00 0.  1.
     999902    2    1    2    0    0  0.69300887434E-02  0.15829287815E-01  0.14156389245E-01  0.10215917852E+01  0.10213475314E+01 0.  0.
     999903    2    3    3    0    0 -0.14963148858E-01 -0.16020525828E-01 -0.12616035425E+00  0.12963746297E+00  0.20220874119E-01 0.  0.
         14    1    1    2    0    0 -0.69300887434E-02 -0.15829287815E-01 -0.14156389245E-01  0.22338214771E-01  0.00000000000E+00 0. -1.
     999901    1    3    3    0    0  0.21893237601E-01  0.31849813643E-01  0.14031674350E+00  0.89195432225E+00  0.88000000000E+00 0. -1.
        -11    1    4    4    0    0 -0.26354571631E-02 -0.16714241335E-01 -0.84676289373E-01  0.86351876649E-01  0.51100000000E-03 0. -1.
         11    1    4    4    0    0 -0.12327691695E-01  0.69371550604E-03 -0.41484064879E-01  0.43285586326E-01  0.51100000000E-03 0.  1.
</event>
<event>
 8    1  0.1176534E+005  0.1043930E+01  0.7957747E-01            NaN
         13   -1    0    0    0    0  0.00000000000E+00  0.00000000000E+00  0.74505805969E-08  0.10566000000E+00  0.10566000000E+00 0.  1.
     999900   -1    0    0    0    0 -0.00000000000E+00 -0.00000000000E+00 -0.74505805969E-08  0.93827000000E+00  0.93827000000E+00 0. -1.
     999902    2    1    2    0    0 -0.23039775331E-01 -0.17954068524E-02  0.19155846091E-02  0.10207411191E+01  0.10204776862E+01 0.  0.
     999903    2    3    3    0    0 -0.10722321975E+00  0.70312566127E-01 -0.28572789226E-01  0.13326382191E+00  0.22409063737E-01 0.  0.
         14    1    1    2    0    0  0.23039775331E-01  0.17954068524E-02 -0.19155846091E-02  0.23188880902E-01  0.00000000000E+00 0. -1.
     999901    1    3    3    0    0  0.84183444418E-01 -0.72107972980E-01  0.30488373835E-01  0.88747729719E+00  0.88000000000E+00 0.  1.
        -11    1    4    4    0    0 -0.76213641227E-01  0.56549554210E-01 -0.29307125645E-01  0.99325424364E-01  0.51100000000E-03 0. -1.
         11    1    4    4    0    0 -0.31009578522E-01  0.13763011917E-01  0.73433641849E-03  0.33938397548E-01  0.51100000000E-03 0.  1.
</event>
<event>
 8    1  0.1176534E+005  0.1043930E+01  0.7957747E-01            NaN
         13   -1    0    0    0    0  0.00000000000E+00  0.00000000000E+00  0.74505805969E-08  0.10566000000E+00  0.10566000000E+00 0. -1.
     999900   -1    0    0    0    0 -0.00000000000E+00 -0.00000000000E+00 -0.74505805969E-08  0.93827000000E+00  0.93827000000E+00 0. -1.
     999902    2    1    2    0    0 -0.94144623944E-02  0.16878260763E-01 -0.15023740575E-01  0.10194510178E+01  0.10191570817E+01 0.  0.
     999903    2    3    3    0    0 -0.27393938161E-01 -0.10631083959E+00  0.61550994651E-01  0.12739580311E+00  0.19716572849E-01 0.  0.
         14    1    1    2    0    0  0.94144623944E-02 -0.16878260763E-01  0.15023740575E-01  0.24478982197E-01  0.00000000000E+00 0. -1.
     999901    1    3    3    0    0  0.17979475766E-01  0.12318910035E+00 -0.76574735226E-01  0.89205521470E+00  0.88000000000E+00 0. -1.
        -11    1    4    4    0    0 -0.20020803463E-02 -0.95623704677E-02  0.12831277914E-01  0.16135367011E-01  0.51100000000E-03 0.  1.
         11    1    4    4    0    0 -0.25391857814E-01 -0.96748469118E-01  0.48719716737E-01  0.11126043609E+00  0.51100000000E-03 0. -1.
</event>
<event>
 8    1  0.1176534E+005  0.1043930E+01  0.7957747E-01            NaN
         13   -1    0    0    0    0  0.00000000000E+00  0.00000000000E+00  0.74505805969E-08  0.10566000000E+00  0.10566000000E+00 0. -1.
     999900   -1    0    0    0    0 -0.00000000000E+00 -0.00000000000E+00 -0.74505805969E-08  0.93827000000E+00  0.93827000000E+00 0. -1.
     999902    2    1    2    0    0  0.11445141206E-01  0.75255708203E-02  0.17620933876E-01  0.10216113355E+01  0.10213675137E+01 0.  0.
     999903    2    3    3    0    0  0.67073240588E-01 -0.10787452344E+00 -0.26435403214E-01  0.13124476605E+00  0.19764252140E-01 0.  0.
         14    1    1    2    0    0 -0.11445141206E-01 -0.75255708203E-02 -0.17620933876E-01  0.22318664478E-01  0.00000000000E+00 0.  1.
     999901    1    3    3    0    0 -0.55628099381E-01  0.11540009426E+00  0.44056337090E-01  0.89036656947E+00  0.88000000000E+00 0. -1.
        -11    1    4    4    0    0  0.23314559876E-01 -0.55983793325E-01 -0.11107397897E-01  0.61655407114E-01  0.51100000000E-03 0. -1.
         11    1    4    4    0    0  0.43758680711E-01 -0.51890730112E-01 -0.15328005317E-01  0.69589358937E-01  0.51100000000E-03 0.  1.
</event>
<event>
 8    1  0.1176534E+005  0.1043930E+01  0.7957747E-01            NaN
         13   -1    0    0    0    0  0.00000000000E+00  0.00000000000E+00  0.74505805969E-08  0.10566000000E+00  0.10566000000E+00 0.  1.
     999900   -1    0    0    0    0 -0.00000000000E+00 -0.00000000000E+00 -0.74505805969E-08  0.93827000000E+00  0.93827000000E+00 0.  1.
     999902    2    1    2    0    0  0.12315001926E-01  0.19935237471E-01  0.27867994948E-02  0.10203325591E+01  0.10200596512E+01 0.  0.
     999903    2    3    3    0    0  0.12971644738E+00  0.18510605255E-01 -0.23370868168E-02  0.13251986310E+00  0.19673660419E-01 0.  0.
         14    1    1    2    0    0 -0.12315001926E-01 -0.19935237471E-01 -0.27867994948E-02  0.23597440897E-01  0.00000000000E+00 0. -1.
     999901    1    3    3    0    0 -0.11740144545E+00  0.14246322153E-02  0.51238863116E-02  0.88781269600E+00  0.88000000000E+00 0. -1.
        -11    1    4    4    0    0  0.46404203138E-01  0.12973999537E-01 -0.79324229045E-02  0.48835020088E-01  0.51100000000E-03 0.  1.
         11    1    4    4    0    0  0.83312244241E-01  0.55366057179E-02  0.55953360877E-02  0.83684843014E-01  0.51100000000E-03 0. -1.
</event>
<event>
 8    1  0.1176534E+005  0.1043930E+01  0.7957747E-01            NaN
         13   -1    0    0    0    0  0.00000000000E+00  0.00000000000E+00  0.74505805969E-08  0.10566000000E+00  0.10566000000E+00 0.  1.
     999900   -1    0    0    0    0 -0.00000000000E+00 -0.00000000000E+00 -0.74505805969E-08  0.93827000000E+00  0.93827000000E+00 0. -1.
     999902    2    1    2    0    0 -0.19415148576E-01  0.93635835866E-02 -0.95865953781E-02  0.10203391649E+01  0.10200664115E+01 0.  0.
     999903    2    3    3    0    0  0.17228290122E-02  0.24751990935E-01 -0.12822204141E+00  0.13199351916E+00  0.19125062145E-01 0.  0.
         14    1    1    2    0    0  0.19415148576E-01 -0.93635835866E-02  0.95865953781E-02  0.23590835143E-01  0.00000000000E+00 0.  1.
     999901    1    3    3    0    0 -0.21137977588E-01 -0.15388407348E-01  0.11863544603E+00  0.88834564570E+00  0.88000000000E+00 0.  1.
        -11    1    4    4    0    0  0.17737805879E-04  0.24200374492E-01 -0.76506261690E-01  0.80244175109E-01  0.51100000000E-03 0. -1.
         11    1    4    4    0    0  0.17050912063E-02  0.55161644293E-03 -0.51715779717E-01  0.51749344049E-01  0.51100000000E-03 0.  1.
</event>
<event>
 8    1  0.1176534E+005  0.1043930E+01  0.7957747E-01            NaN
         13   -1    0    0    0    0  0.00000000000E+00  0.00000000000E+00  0.74505805969E-08  0.10566000000E+00  0.10566000000E+00 0.  1.
     999900   -1    0    0    0    0 -0.00000000000E+00 -0.00000000000E+00 -0.74505805969E-08  0.93827000000E+00  0.93827000000E+00 0.  1.
     999902    2    1    2    0    0  0.78006309509E-02  0.23286958827E-04  0.22243506365E-01  0.10203583229E+01  0.10200860175E+01 0.  0.
     999903    2    3    3    0    0 -0.35010304235E-01  0.12141881847E+00 -0.22087191778E-01  0.12988942281E+00  0.20375653009E-01 0.  0.
         14    1    1    2    0    0 -0.78006309509E-02 -0.23286958827E-04 -0.22243506365E-01  0.23571677092E-01  0.00000000000E+00 0. -1.
     999901    1    3    3    0    0  0.42810935186E-01 -0.12139553151E+00  0.44330698143E-01  0.89046890010E+00  0.88000000000E+00 0. -1.
        -11    1    4    4    0    0 -0.11652589884E-01  0.42481128947E-01 -0.17618167790E-01  0.47445654436E-01  0.51100000000E-03 0.  1.
         11    1    4    4    0    0 -0.23357714351E-01  0.78937689526E-01 -0.44690239877E-02  0.82443768375E-01  0.51100000000E-03 0. -1.
</event>
<event>
 8    1  0.1176534E+005  0.1043930E+01  0.7957747E-01            NaN
         13   -1    0    0    0    0  0.00000000000E+00  0.00000000000E+00  0.74505805969E-08  0.10566000000E+00  0.10566000000E+00 0. -1.
     999900   -1    0    0    0    0 -0.00000000000E+00 -0.00000000000E+00 -0.74505805969E-08  0.93827000000E+00  0.93827000000E+00 0. -1.
     999902    2    1    2    0    0 -0.11423590880E-01 -0.11601705008E-01  0.17912744748E-01  0.10197232982E+01  0.10194359423E+01 0.  0.
     999903    2    3    3    0    0 -0.53814600508E-01  0.11028434377E+00  0.39246930854E-01  0.13005574564E+00  0.17763098906E-01 0.  0.
         14    1    1    2    0    0  0.11423590880E-01  0.11601705008E-01 -0.17912744748E-01  0.24206701801E-01  0.00000000000E+00 0.  1.
     999901    1    3    3    0    0  0.42391009627E-01 -0.12188604878E+00 -0.21334186106E-01  0.88966755256E+00  0.88000000000E+00 0.  1.
        -11    1    4    4    0    0 -0.48388459723E-01  0.10468435067E+00  0.32734792499E-01  0.11988362720E+00  0.51100000000E-03 0.  1.
         11    1    4    4    0    0 -0.54261407851E-02  0.55999931023E-02  0.65121383544E-02  0.10172118438E-01  0.51100000000E-03 0. -1.
</event>
<event>
 8    1  0.1176534E+005  0.1043930E+01  0.7957747E-01            NaN
         13   -1    0    0    0    0  0.00000000000E+00  0.00000000000E+00  0.74505805969E-08  0.10566000000E+00  0.10566000000E+00 0.  1.
     999900   -1    0    0    0    0 -0.00000000000E+00 -0.00000000000E+00 -0.74505805969E-08  0.93827000000E+00  0.93827000000E+00 0. -1.
     999902    2    1    2    0    0 -0.90979765590E-02 -0.12114353287E-02  0.23564761925E-01  0.10186408965E+01  0.10183269304E+01 0.  0.
     999903    2    3    3    0    0  0.10535010020E+00  0.45892012574E-01 -0.50299826649E-01  0.12691612137E+00  0.19310848579E-01 0.  0.
         14    1    1    2    0    0  0.90979765590E-02  0.12114353287E-02 -0.23564761925E-01  0.25289103535E-01  0.00000000000E+00 0.  1.
     999901    1    3    3    0    0 -0.11444807675E+00 -0.47103447902E-01  0.73864588574E-01  0.89172477510E+00  0.88000000000E+00 0.  1.
        -11    1    4    4    0    0  0.67512194781E-01  0.29491769729E-01 -0.42138766332E-01  0.84874010598E-01  0.51100000000E-03 0. -1.
         11    1    4    4    0    0  0.37837905414E-01  0.16400242844E-01 -0.81610603168E-02  0.42042110770E-01  0.51100000000E-03 0.  1.
</event>
<event>
 8    1  0.1176534E+005  0.1043930E+01  0.7957747E-01            NaN
         13   -1    0    0    0    0  0.00000000000E+00  0.00000000000E+00  0.74505805969E-08  0.10566000000E+00  0.10566000000E+00 0. -1.
     999900   -1    0    0    0    0 -0.00000000000E+00 -0.00000000000E+00 -0.74505805969E-08  0.93827000000E+00  0.93827000000E+00 0. -1.
     999902    2    1    2    0    0  0.10602815551E-01 -0.20573446410E-01 -0.54492645861E-02  0.10201522608E+01  0.10198751171E+01 0.  0.
     999903    2    3    3    0    0  0.73006323488E-01  0.97871501554E-01 -0.37562099898E-01  0.12944768710E+00  0.20905460069E-01 0.  0.
         14    1    1    2    0    0 -0.10602815551E-01  0.20573446410E-01  0.54492645861E-02  0.23777739155E-01  0.00000000000E+00 0.  1.
     999901    1    3    3    0    0 -0.62403507937E-01 -0.11844494796E+00  0.32112835312E-01  0.89070457375E+00  0.88000000000E+00 0. -1.
        -11    1    4    4    0    0  0.13578460911E-01  0.31007263502E-01 -0.15912491616E-01  0.37407131687E-01  0.51100000000E-03 0. -1.
         11    1    4    4    0    0  0.59427862577E-01  0.66864238052E-01 -0.21649608282E-01  0.92040555411E-01  0.51100000000E-03 0.  1.
</event>
<event>
 8    1  0.1176534E+005  0.1043930E+01  0.7957747E-01            NaN
         13   -1    0    0    0    0  0.00000000000E+00  0.00000000000E+00  0.74505805969E-08  0.10566000000E+00  0.10566000000E+00 0.  1.
     999900   -1    0    0    0    0 -0.00000000000E+00 -0.00000000000E+00 -0.74505805969E-08  0.93827000000E+00  0.93827000000E+00 0.  1.
     999902    2    1    2    0    0  0.17713463481E-01 -0.14437193319E-01  0.28063971436E-02  0.10209066379E+01  0.10206469948E+01 0.  0.
     999903    2    3    3    0    0 -0.42368073912E-01  0.11915100289E+00 -0.12541571722E-01  0.12866723195E+00  0.20148210318E-01 0.  0.
         14    1    1    2    0    0 -0.17713463481E-01  0.14437193319E-01 -0.28063971436E-02  0.23023362143E-01  0.00000000000E+00 0. -1.
     999901    1    3    3    0    0  0.60081537393E-01 -0.13358819621E+00  0.15347968866E-01  0.89223940591E+00  0.88000000000E+00 0.  1.
        -11    1    4    4    0    0 -0.29811850548E-01  0.71099427146E-01 -0.16493230899E-01  0.78842645568E-01  0.51100000000E-03 0.  1.
         11    1    4    4    0    0 -0.12556223364E-01  0.48051575748E-01  0.39516591775E-02  0.49824586383E-01  0.51100000000E-03 0. -1.
</event>
<event>
 8    1  0.1176534E+005  0.1043930E+01  0.7957747E-01            NaN
         13   -1    0    0    0    0  0.00000000000E+00  0.00000000000E+00  0.74505805969E-08  0.10566000000E+00  0.10566000000E+00 0. -1.
     999900   -1    0    0    0    0 -0.00000000000E+00 -0.00000000000E+00 -0.74505805969E-08  0.93827000000E+00  0.93827000000E+00 0. -1.
     999902    2    1    2    0    0  0.13466947971E-02 -0.23112688275E-01  0.45924912873E-02  0.10203270145E+01  0.10200539768E+01 0.  0.
     999903    2    3    3    0    0  0.41599176145E-01 -0.11920102102E+00  0.31684167726E-01  0.13376782934E+00  0.30831328445E-01 0.  0.
         14    1    1    2    0    0 -0.13466947971E-02  0.23112688275E-01 -0.45924912873E-02  0.23602985456E-01  0.00000000000E+00 0. -1.
     999901    1    3    3    0    0 -0.40252481348E-01  0.96088332741E-01 -0.27091676439E-01  0.88655918521E+00  0.88000000000E+00 0.  1.
        -11    1    4    4    0    0  0.37843109773E-01 -0.75194004504E-01  0.30644458831E-01  0.89585619654E-01  0.51100000000E-03 0. -1.
         11    1    4    4    0    0  0.37560663716E-02 -0.44007016512E-01  0.10397088953E-02  0.44182209683E-01  0.51100000000E-03 0.  1.
</event>
<event>
 8    1  0.1176534E+005  0.1043930E+01  0.7957747E-01            NaN
         13   -1    0    0    0    0  0.00000000000E+00  0.00000000000E+00  0.74505805969E-08  0.10566000000E+00  0.10566000000E+00 0. -1.
     999900   -1    0    0    0    0 -0.00000000000E+00 -0.00000000000E+00 -0.74505805969E-08  0.93827000000E+00  0.93827000000E+00 0. -1.
     999902    2    1    2    0    0 -0.98417412758E-05  0.55854682690E-03 -0.22378739991E-01  0.10215442886E+01  0.10212989834E+01 0.  0.
     999903    2    3    3    0    0  0.11015601033E+00 -0.17371076353E-01 -0.70154074652E-01  0.13320850245E+00  0.19667486594E-01 0.  0.
         14    1    1    2    0    0  0.98417412758E-05 -0.55854682690E-03  0.22378739991E-01  0.22385711403E-01  0.00000000000E+00 0. -1.
     999901    1    3    3    0    0 -0.11016585207E+00  0.17929623179E-01  0.47775334661E-01  0.88833578615E+00  0.88000000000E+00 0.  1.
        -11    1    4    4    0    0  0.10692011799E+00 -0.17585114605E-01 -0.63009982550E-01  0.12534618825E+00  0.51100000000E-03 0.  1.
         11    1    4    4    0    0  0.32358923394E-02  0.21403825236E-03 -0.71440921018E-02  0.78623141991E-02  0.51100000000E-03 0. -1.
</event>
<event>
 8    1  0.1176534E+005  0.1043930E+01  0.7957747E-01            NaN
         13   -1    0    0    0    0  0.00000000000E+00  0.00000000000E+00  0.74505805969E-08  0.10566000000E+00  0.10566000000E+00 0. -1.
     999900   -1    0    0    0    0 -0.00000000000E+00 -0.00000000000E+00 -0.74505805969E-08  0.93827000000E+00  0.93827000000E+00 0. -1.
     999902    2    1    2    0    0 -0.17522052940E-02 -0.20029812914E-01 -0.12335603820E-01  0.10203412156E+01  0.10200685102E+01 0.  0.
     999903    2    3    3    0    0  0.26096538093E-01 -0.54966859635E-01  0.11362730637E+00  0.13024975709E+00  0.18746986679E-01 0.  0.
         14    1    1    2    0    0  0.17522052940E-02  0.20029812914E-01  0.12335603820E-01  0.23588784418E-01  0.00000000000E+00 0. -1.
     999901    1    3    3    0    0 -0.27848743387E-01  0.34937046722E-01 -0.12596291019E+00  0.89009145849E+00  0.88000000000E+00 0. -1.
        -11    1    4    4    0    0  0.13470228916E-01 -0.15719899711E-01  0.24722799793E-01  0.32249655263E-01  0.51100000000E-03 0.  1.
         11    1    4    4    0    0  0.12626309177E-01 -0.39246959924E-01  0.88904506577E-01  0.98000101824E-01  0.51100000000E-03 0. -1.
</event>
<event>
 8    1  0.1450791E+005  0.1043930E+01  0.7957747E-01            NaN
         13   -1    0    0    0    0  0.00000000000E+00  0.00000000000E+00  0.74505805969E-08  0.10566000000E+00  0.10566000000E+00 0. -1.
     999900   -1    0    0    0    0 -0.00000000000E+00 -0.00000000000E+00 -0.74505805969E-08  0.93827000000E+00  0.93827000000E+00 0.  1.
     999902    2    1    2    0    0 -0.85715719728E-02 -0.23716095494E-01 -0.46394647809E-02  0.10182892187E+01  0.10179663468E+01 0.  0.
     999903    2    3    3    0    0  0.39236629667E-01 -0.84467771086E-01 -0.89695715863E-01  0.13081473678E+00  0.19820606834E-01 0.  0.
         14    1    1    2    0    0  0.85715719728E-02  0.23716095494E-01  0.46394647809E-02  0.25640781287E-01  0.00000000000E+00 0.  1.
     999901    1    3    3    0    0 -0.47808201640E-01  0.60751675592E-01  0.85056251082E-01  0.88747448193E+00  0.88000000000E+00 0. -1.
        -11    1    4    4    0    0  0.14005442582E-01 -0.50733949565E-01 -0.43398509622E-01  0.68218603172E-01  0.51100000000E-03 0. -1.
         11    1    4    4    0    0  0.25231187085E-01 -0.33733821521E-01 -0.46297206241E-01  0.62596133609E-01  0.51100000000E-03 0.  1.
</event>
<event>
 8    1  0.1176534E+005  0.1043930E+01  0.7957747E-01            NaN
         13   -1    0    0    0    0  0.00000000000E+00  0.00000000000E+00  0.74505805969E-08  0.10566000000E+00  0.10566000000E+00 0.  1.
     999900   -1    0    0    0    0 -0.00000000000E+00 -0.00000000000E+00 -0.74505805969E-08  0.93827000000E+00  0.93827000000E+00 0.  1.
     999902    2    1    2    0    0 -0.75699631193E-02  0.22051700424E-01  0.48634357491E-02  0.10201133075E+01  0.10198352442E+01 0.  0.
     999903    2    3    3    0    0  0.10177608212E+00  0.32300403079E-02 -0.77495271056E-01  0.12933063533E+00  0.18764118589E-01 0.  0.
         14    1    1    2    0    0  0.75699631193E-02 -0.22051700424E-01 -0.48634357491E-02  0.23816692476E-01  0.00000000000E+00 0. -1.
     999901    1    3    3    0    0 -0.10934604524E+00  0.18821660116E-01  0.82358706805E-01  0.89078267220E+00  0.88000000000E+00 0. -1.
        -11    1    4    4    0    0  0.36482511614E-01  0.72434200104E-02 -0.19984103367E-01  0.42226369670E-01  0.51100000000E-03 0.  1.
         11    1    4    4    0    0  0.65293570505E-01 -0.40133797024E-02 -0.57511167688E-01  0.87104265658E-01  0.51100000000E-03 0. -1.
</event>
<event>
 8    1  0.1176534E+005  0.1043930E+01  0.7957747E-01            NaN
         13   -1    0    0    0    0  0.00000000000E+00  0.00000000000E+00  0.74505805969E-08  0.10566000000E+00  0.10566000000E+00 0.  1.
     999900   -1    0    0    0    0 -0.00000000000E+00 -0.00000000000E+00 -0.74505805969E-08  0.93827000000E+00  0.93827000000E+00 0. -1.
     999902    2    1    2    0    0 -0.14804129047E-01 -0.13371519773E-02  0.18271527895E-01  0.10203758296E+01  0.10201039333E+01 0.  0.
     999903    2    3    3    0    0 -0.25116281184E-01  0.34244107333E-01 -0.11995048801E+00  0.12881669404E+00  0.20053294560E-01 0.  0.
         14    1    1    2    0    0  0.14804129047E-01  0.13371519773E-02 -0.18271527895E-01  0.23554170413E-01  0.00000000000E+00 0. -1.
     999901    1    3    3    0    0  0.10312152137E-01 -0.35581259311E-01  0.13822201590E+00  0.89155913555E+00  0.88000000000E+00 0.  1.
        -11    1    4    4    0    0 -0.28264235250E-01  0.27719030970E-01 -0.97968203968E-01  0.10566570769E+00  0.51100000000E-03 0.  1.
         11    1    4    4    0    0  0.31479540658E-02  0.65250763632E-02 -0.21982284040E-01  0.23150986349E-01  0.51100000000E-03 0. -1.
</event>
<event>
 8    1  0.1176534E+005  0.1043930E+01  0.7957747E-01            NaN
         13   -1    0    0    0    0  0.00000000000E+00  0.00000000000E+00  0.74505805969E-08  0.10566000000E+00  0.10566000000E+00 0. -1.
     999900   -1    0    0    0    0 -0.00000000000E+00 -0.00000000000E+00 -0.74505805969E-08  0.93827000000E+00  0.93827000000E+00 0.  1.
     999902    2    1    2    0    0 -0.10775722420E-01  0.92899917821E-02  0.17854974972E-01  0.10210997509E+01  0.10208444941E+01 0.  0.
     999903    2    3    3    0    0  0.21285587458E-01 -0.44258798294E-01 -0.11696143911E+00  0.12864758638E+00  0.21408077524E-01 0.  0.
         14    1    1    2    0    0  0.10775722420E-01 -0.92899917821E-02 -0.17854974972E-01  0.22830249062E-01  0.00000000000E+00 0.  1.
     999901    1    3    3    0    0 -0.32061309878E-01  0.53548790076E-01  0.13481641409E+00  0.89245216455E+00  0.88000000000E+00 0. -1.
        -11    1    4    4    0    0  0.75923698887E-02 -0.28042569336E-01 -0.88446719038E-01  0.93097330816E-01  0.51100000000E-03 0.  1.
         11    1    4    4    0    0  0.13693217570E-01 -0.16216228958E-01 -0.28514720075E-01  0.35550255568E-01  0.51100000000E-03 0. -1.
</event>
<event>
 8    1  0.1176534E+005  0.1043930E+01  0.7957747E-01            NaN
         13   -1    0    0    0    0  0.00000000000E+00  0.00000000000E+00  0.74505805969E-08  0.10566000000E+00  0.10566000000E+00 0.  1.
     999900   -1    0    0    0    0 -0.00000000000E+00 -0.00000000000E+00 -0.74505805969E-08  0.93827000000E+00  0.93827000000E+00 0. -1.
     999902    2    1    2    0    0  0.16427779188E-02  0.21397328987E-01  0.83370390025E-02  0.10209071716E+01  0.10206475408E+01 0.  0.
     999903    2    3    3    0    0 -0.40490608083E-01  0.11172104582E+00  0.59854308575E-01  0.13378394168E+00  0.13947163661E-01 0.  0.
         14    1    1    2    0    0 -0.16427779188E-02 -0.21397328987E-01 -0.83370390025E-02  0.23022828375E-01  0.00000000000E+00 0.  1.
     999901    1    3    3    0    0  0.42133386001E-01 -0.90323716837E-01 -0.51517269573E-01  0.88712322994E+00  0.88000000000E+00 0. -1.
        -11    1    4    4    0    0  0.95244701651E-03  0.57582369055E-02  0.32886316992E-02  0.67186804532E-02  0.51100000000E-03 0.  1.
         11    1    4    4    0    0 -0.41443055099E-01  0.10596280892E+00  0.56565676876E-01  0.12706526123E+00  0.51100000000E-03 0. -1.
</event>
<event>
 8    1  0.1176534E+005  0.1043930E+01  0.7957747E-01            NaN
         13   -1    0    0    0    0  0.00000000000E+00  0.00000000000E+00  0.74505805969E-08  0.10566000000E+00  0.10566000000E+00 0. -1.
     999900   -1    0    0    0    0 -0.00000000000E+00 -0.00000000000E+00 -0.74505805969E-08  0.93827000000E+00  0.93827000000E+00 0. -1.
     999902    2    1    2    0    0  0.25775319491E-03 -0.77875478591E-02  0.24509773701E-01  0.10182114980E+01  0.10178866407E+01 0.  0.
     999903    2    3    3    0    0 -0.93083192722E-01  0.84620582507E-01 -0.99588596086E-02  0.12779593130E+00  0.20186565336E-01 0.  0.
         14    1    1    2    0    0 -0.25775319491E-03  0.77875478591E-02 -0.24509773701E-01  0.25718502002E-01  0.00000000000E+00 0.  1.
     999901    1    3    3    0    0  0.93340945917E-01 -0.92408130366E-01  0.34468633310E-01  0.89041556670E+00  0.88000000000E+00 0. -1.
        -11    1    4    4    0    0 -0.45068909550E-01  0.37382467013E-01 -0.14368239966E-01  0.60293970584E-01  0.51100000000E-03 0.  1.
         11    1    4    4    0    0 -0.48014283172E-01  0.47238115494E-01  0.44093803572E-02  0.67501960712E-01  0.51100000000E-03 0. -1.
</event>
<event>
 8    1  0.1176534E+005  0.1043930E+01  0.7957747E-01            NaN
         13   -1    0    0    0    0  0.00000000000E+00  0.00000000000E+00  0.74505805969E-08  0.10566000000E+00  0.10566000000E+00 0. -1.
     999900   -1    0    0    0    0 -0.00000000000E+00 -0.00000000000E+00 -0.74505805969E-08  0.93827000000E+00  0.93827000000E+00 0. -1.
     999902    2    1    2    0    0 -0.15693536179E-01  0.19671695397E-01  0.15469354373E-01  0.10143908124E+01  0.10139606288E+01 0.  0.
     999903    2    3    3    0    0  0.94808977298E-02 -0.10423295138E+00  0.63691770934E-01  0.12404733092E+00  0.19408839412E-01 0.  0.
         14    1    1    2    0    0  0.15693536179E-01 -0.19671695397E-01 -0.15469354373E-01  0.29539187570E-01  0.00000000000E+00 0.  1.
     999901    1    3    3    0    0 -0.25174433909E-01  0.12390464678E+00 -0.48222416561E-01  0.89034348151E+00  0.88000000000E+00 0. -1.
        -11    1    4    4    0    0 -0.53668955270E-02 -0.18658189768E-01  0.89822651834E-02  0.21397986397E-01  0.51100000000E-03 0.  1.
         11    1    4    4    0    0  0.14847793257E-01 -0.85574761613E-01  0.54709505751E-01  0.10264934452E+00  0.51100000000E-03 0. -1.
</event>
<event>
 8    1  0.1176534E+005  0.1043930E+01  0.7957747E-01            NaN
         13   -1    0    0    0    0  0.00000000000E+00  0.00000000000E+00  0.74505805969E-08  0.10566000000E+00  0.10566000000E+00 0.  1.
     999900   -1    0    0    0    0 -0.00000000000E+00 -0.00000000000E+00 -0.74505805969E-08  0.93827000000E+00  0.93827000000E+00 0. -1.
     999902    2    1    2    0    0 -0.84342279153E-02  0.21915521672E-01  0.66711322496E-02  0.10195183164E+01  0.10192260138E+01 0.  0.
     999903    2    3    3    0    0 -0.11252426118E+00 -0.54676370571E-01  0.30287490482E-01  0.12976622432E+00  0.16453754614E-01 0.  0.
         14    1    1    2    0    0  0.84342279153E-02 -0.21915521672E-01 -0.66711322496E-02  0.24411683600E-01  0.00000000000E+00 0. -1.
     999901    1    3    3    0    0  0.10409003327E+00  0.76591892243E-01 -0.23616358233E-01  0.88975209208E+00  0.88000000000E+00 0.  1.
        -11    1    4    4    0    0 -0.74359229423E-01 -0.33616898623E-01  0.11964133264E-01  0.82479042667E-01  0.51100000000E-03 0.  1.
         11    1    4    4    0    0 -0.38165031761E-01 -0.21059471948E-01  0.18323357218E-01  0.47287181654E-01  0.51100000000E-03 0. -1.
</event>
<event>
 8    1  0.1176534E+005  0.1043930E+01  0.7957747E-01            NaN
         13   -1    0    0    0    0  0.00000000000E+00  0.00000000000E+00  0.74505805969E-08  0.10566000000E+00  0.10566000000E+00 0. -1.
     999900   -1    0    0    0    0 -0.00000000000E+00 -0.00000000000E+00 -0.74505805969E-08  0.93827000000E+00  0.93827000000E+00 0.  1.
     999902    2    1    2    0    0 -0.15812964747E-01  0.17675549142E-01 -0.35217320943E-03  0.10202108323E+01  0.10199350682E+01 0.  0.
     999903    2    3    3    0    0 -0.15404064065E-01  0.13029456433E+00 -0.90968443884E-02  0.13299063466E+00  0.19743293689E-01 0.  0.
         14    1    1    2    0    0  0.15812964747E-01 -0.17675549142E-01  0.35217320943E-03  0.23719167724E-01  0.00000000000E+00 0. -1.
     999901    1    3    3    0    0 -0.40890068217E-03 -0.11261901519E+00  0.87446711789E-02  0.88722019761E+00  0.88000000000E+00 0.  1.
        -11    1    4    4    0    0 -0.10517898288E-02  0.48406292201E-01 -0.11692128776E-01  0.49812070654E-01  0.51100000000E-03 0. -1.
         11    1    4    4    0    0 -0.14352274236E-01  0.81888272130E-01  0.25952843881E-02  0.83178564007E-01  0.51100000000E-03 0.  1.
</event>
<event>
 8    1  0.1467079E+005  0.1043930E+01  0.7957747E-01            NaN
         13   -1    0    0    0    0  0.00000000000E+00  0.00000000000E+00  0.74505805969E-08  0.10566000000E+00  0.10566000000E+00 0.  1.
     999900   -1    0    0    0    0 -0.00000000000E+00 -0.00000000000E+00 -0.74505805969E-08  0.93827000000E+00  0.93827000000E+00 0. -1.
     999902    2    1    2    0    0 -0.13097552186E-01  0.15602771086E-01  0.11538546843E-01  0.10205178151E+01  0.10202492247E+01 0.  0.
     999903    2    3    3    0    0  0.17192899227E-02 -0.39015323947E-02 -0.12805235254E+00  0.12917861151E+00  0.16478190653E-01 0.  0.
         14    1    1    2    0    0  0.13097552186E-01 -0.15602771086E-01 -0.11538546843E-01  0.23412184906E-01  0.00000000000E+00 0.  1.
     999901    1    3    3    0    0 -0.14816842109E-01  0.19504303481E-01  0.13959089938E+00  0.89133920359E+00  0.88000000000E+00 0.  1.
        -11    1    4    4    0    0  0.88961883175E-02 -0.40446298214E-02 -0.69451966820E-01  0.70137992652E-01  0.51100000000E-03 0. -1.
         11    1    4    4    0    0 -0.71768983948E-02  0.14309742666E-03 -0.58600385717E-01  0.59040618854E-01  0.51100000000E-03 0.  1.
</event>
<event>
 8    1  0.1176534E+005  0.1043930E+01  0.7957747E-01            NaN
         13   -1    0    0    0    0  0.00000000000E+00  0.00000000000E+00  0.74505805969E-08  0.10566000000E+00  0.10566000000E+00 0.  1.
     999900   -1    0    0    0    0 -0.00000000000E+00 -0.00000000000E+00 -0.74505805969E-08  0.93827000000E+00  0.93827000000E+00 0.  1.
     999902    2    1    2    0    0 -0.55092738518E-02 -0.20096092792E-01  0.58819905211E-02  0.10222781443E+01  0.10220488254E+01 0.  0.
     999903    2    3    3    0    0 -0.44607798305E-01  0.12020503767E+00  0.11701819442E-01  0.13028768904E+00  0.19971043674E-01 0.  0.
         14    1    1    2    0    0  0.55092738518E-02  0.20096092792E-01 -0.58819905211E-02  0.21651855726E-01  0.00000000000E+00 0.  1.
     999901    1    3    3    0    0  0.39098524453E-01 -0.14030113046E+00 -0.58198289211E-02  0.89199045524E+00  0.88000000000E+00 0.  1.
        -11    1    4    4    0    0 -0.54302622160E-03  0.23228678017E-01  0.18906539358E-02  0.23317419522E-01  0.51100000000E-03 0.  1.
         11    1    4    4    0    0 -0.44064772084E-01  0.96976359654E-01  0.98111655065E-02  0.10697026952E+00  0.51100000000E-03 0. -1.
</event>
<event>
 8    1  0.1176534E+005  0.1043930E+01  0.7957747E-01            NaN
         13   -1    0    0    0    0  0.00000000000E+00  0.00000000000E+00  0.74505805969E-08  0.10566000000E+00  0.10566000000E+00 0.  1.
     999900   -1    0    0    0    0 -0.00000000000E+00 -0.00000000000E+00 -0.74505805969E-08  0.93827000000E+00  0.93827000000E+00 0.  1.
     999902    2    1    2    0    0  0.14836126872E-01  0.14319663094E-01 -0.68423684519E-02  0.10222048667E+01  0.10219739762E+01 0.  0.
     999903    2    3    3    0    0 -0.76693749894E-01  0.33578894514E-02 -0.10519337951E+00  0.13194041148E+00  0.21199490390E-01 0.  0.
         14    1    1    2    0    0 -0.14836126872E-01 -0.14319663094E-01  0.68423684519E-02  0.21725133318E-01  0.00000000000E+00 0. -1.
     999901    1    3    3    0    0  0.91529876766E-01  0.10961773642E-01  0.98351011063E-01  0.89026445520E+00  0.88000000000E+00 0.  1.
        -11    1    4    4    0    0 -0.36981118459E-01 -0.88698064381E-02 -0.47900211465E-01  0.61163452880E-01  0.51100000000E-03 0.  1.
         11    1    4    4    0    0 -0.39712631435E-01  0.12227695889E-01 -0.57293168050E-01  0.70776958598E-01  0.51100000000E-03 0. -1.
</event>
<event>
 8    1  0.1176534E+005  0.1043930E+01  0.7957747E-01            NaN
         13   -1    0    0    0    0  0.00000000000E+00  0.00000000000E+00  0.74505805969E-08  0.10566000000E+00  0.10566000000E+00 0. -1.
     999900   -1    0    0    0    0 -0.00000000000E+00 -0.00000000000E+00 -0.74505805969E-08  0.93827000000E+00  0.93827000000E+00 0. -1.
     999902    2    1    2    0    0  0.18180799071E-01  0.13076162788E-02  0.18823806012E-01  0.10177271950E+01  0.10173898253E+01 0.  0.
     999903    2    3    3    0    0  0.15686366098E-01 -0.10307338972E+00 -0.69853750524E-01  0.12712889858E+00  0.20298390177E-01 0.  0.
         14    1    1    2    0    0 -0.18180799071E-01 -0.13076162788E-02 -0.18823806012E-01  0.26202804964E-01  0.00000000000E+00 0.  1.
     999901    1    3    3    0    0  0.24944329729E-02  0.10438100600E+00  0.88677556537E-01  0.89059829645E+00  0.88000000000E+00 0.  1.
        -11    1    4    4    0    0 -0.31386545916E-02 -0.46164749815E-01 -0.30438751698E-01  0.55387850690E-01  0.51100000000E-03 0.  1.
         11    1    4    4    0    0  0.18825020690E-01 -0.56908639903E-01 -0.39414998826E-01  0.71741047895E-01  0.51100000000E-03 0. -1.
</event>
<event>
 8    1  0.1176534E+005  0.1043930E+01  0.7957747E-01            NaN
         13   -1    0    0    0    0  0.00000000000E+00  0.00000000000E+00  0.74505805969E-08  0.10566000000E+00  0.10566000000E+00 0. -1.
     999900   -1    0    0    0    0 -0.00000000000E+00 -0.00000000000E+00 -0.74505805969E-08  0.93827000000E+00  0.93827000000E+00 0. -1.
     999902    2    1    2    0    0 -0.35706741347E-02  0.13937746452E-01 -0.18506822745E-01  0.10204883068E+01  0.10202190311E+01 0.  0.
     999903    2    3    3    0    0 -0.12468369799E+00 -0.33946439943E-01  0.60138925241E-02  0.13056554315E+00  0.17686402298E-01 0.  0.
         14    1    1    2    0    0  0.35706741347E-02 -0.13937746452E-01  0.18506822745E-01  0.23441693157E-01  0.00000000000E+00 0. -1.
     999901    1    3    3    0    0  0.12111302386E+00  0.47884186396E-01 -0.24520715269E-01  0.88992276369E+00  0.88000000000E+00 0.  1.
        -11    1    4    4    0    0 -0.73592156611E-01 -0.24787809670E-01  0.10943217837E-01  0.78423568910E-01  0.51100000000E-03 0.  1.
         11    1    4    4    0    0 -0.51091541380E-01 -0.91586302735E-02 -0.49293253126E-02  0.52141974244E-01  0.51100000000E-03 0. -1.
</event>
<event>
 8    1  0.1176534E+005  0.1043930E+01  0.7957747E-01            NaN
         13   -1    0    0    0    0  0.00000000000E+00  0.00000000000E+00  0.74505805969E-08  0.10566000000E+00  0.10566000000E+00 0. -1.
     999900   -1    0    0    0    0 -0.00000000000E+00 -0.00000000000E+00 -0.74505805969E-08  0.93827000000E+00  0.93827000000E+00 0. -1.
     999902    2    1    2    0    0  0.20456981977E-01  0.14706154500E-02 -0.12573070001E-01  0.10198731317E+01  0.10195893644E+01 0.  0.
     999903    2    3    3    0    0  0.57692973928E-01  0.11088094093E+00  0.35302459488E-01  0.13102601061E+00  0.17276848854E-01 0.  0.
         14    1    1    2    0    0 -0.20456981977E-01 -0.14706154500E-02  0.12573070001E-01  0.24056868264E-01  0.00000000000E+00 0. -1.
     999901    1    3    3    0    0 -0.37235991951E-01 -0.10941032548E+00 -0.47875529489E-01  0.88884712113E+00  0.88000000000E+00 0. -1.
        -11    1    4    4    0    0  0.50444923577E-01  0.88044008423E-01  0.34031671191E-01  0.10702734930E+00  0.51100000000E-03 0. -1.
         11    1    4    4    0    0  0.72480503512E-02  0.22836932511E-01  0.12707882963E-02  0.23998661302E-01  0.51100000000E-03 0.  1.
</event>
<event>
 8    1  0.1176534E+005  0.1043930E+01  0.7957747E-01            NaN
         13   -1    0    0    0    0  0.00000000000E+00  0.00000000000E+00  0.74505805969E-08  0.10566000000E+00  0.10566000000E+00 0. -1.
     999900   -1    0    0    0    0 -0.00000000000E+00 -0.00000000000E+00 -0.74505805969E-08  0.93827000000E+00  0.93827000000E+00 0. -1.
     999902    2    1    2    0    0 -0.18637188633E-01 -0.79197212306E-02  0.12013658618E-01  0.10203844106E+01  0.10201127147E+01 0.  0.
     999903    2    3    3    0    0 -0.13371120884E-01  0.11963660953E+00  0.46198553704E-01  0.13051534385E+00  0.20205034089E-01 0.  0.
         14    1    1    2    0    0  0.18637188633E-01  0.79197212306E-02 -0.12013658618E-01  0.23545589351E-01  0.00000000000E+00 0.  1.
     999901    1    3    3    0    0 -0.52660677494E-02 -0.12755633076E+00 -0.34184895087E-01  0.88986906680E+00  0.88000000000E+00 0. -1.
        -11    1    4    4    0    0 -0.15924144660E-01  0.10092402397E+00  0.32639844631E-01  0.10726069912E+00  0.51100000000E-03 0. -1.
         11    1    4    4    0    0  0.25530237763E-02  0.18712585560E-01  0.13558709074E-01  0.23254644729E-01  0.51100000000E-03 0.  1.
</event>
<event>
 8    1  0.1176534E+005  0.1043930E+01  0.7957747E-01            NaN
         13   -1    0    0    0    0  0.00000000000E+00  0.00000000000E+00  0.74505805969E-08  0.10566000000E+00  0.10566000000E+00 0. -1.
     999900   -1    0    0    0    0 -0.00000000000E+00 -0.00000000000E+00 -0.74505805969E-08  0.93827000000E+00  0.93827000000E+00 0.  1.
     999902    2    1    2    0    0  0.21515309278E-01  0.11345076248E-01  0.60816863283E-03  0.10195991727E+01  0.10193088265E+01 0.  0.
     999903    2    3    3    0    0  0.48194354649E-01 -0.89137378125E-01  0.78885462527E-01  0.13002858537E+00  0.20404627295E-01 0.  0.
         14    1    1    2    0    0 -0.21515309278E-01 -0.11345076248E-01 -0.60816863283E-03  0.24330827307E-01  0.00000000000E+00 0.  1.
     999901    1    3    3    0    0 -0.26679045372E-01  0.10048245437E+00 -0.78277293894E-01  0.88957058733E+00  0.88000000000E+00 0.  1.
        -11    1    4    4    0    0  0.80592498711E-02 -0.31452088798E-01  0.18497119981E-01  0.37370977601E-01  0.51100000000E-03 0.  1.
         11    1    4    4    0    0  0.40135104778E-01 -0.57685289327E-01  0.60388342545E-01  0.92657607765E-01  0.51100000000E-03 0. -1.
</event>
<event>
 8    1  0.1176534E+005  0.1043930E+01  0.7957747E-01            NaN
         13   -1    0    0    0    0  0.00000000000E+00  0.00000000000E+00  0.74505805969E-08  0.10566000000E+00  0.10566000000E+00 0.  1.
     999900   -1    0    0    0    0 -0.00000000000E+00 -0.00000000000E+00 -0.74505805969E-08  0.93827000000E+00  0.93827000000E+00 0.  1.
     999902    2    1    2    0    0 -0.11673489598E-01 -0.63800183236E-02  0.20277866092E-01  0.10196778486E+01  0.10193893997E+01 0.  0.
     999903    2    3    3    0    0  0.54058997148E-01 -0.79243213751E-01 -0.82905595719E-01  0.12823147791E+00  0.19186245797E-01 0.  0.
         14    1    1    2    0    0  0.11673489598E-01  0.63800183236E-02 -0.20277866092E-01  0.24252151378E-01  0.00000000000E+00 0. -1.
     999901    1    3    3    0    0 -0.65732486746E-01  0.72863195427E-01  0.10318346181E+00  0.89144637071E+00  0.88000000000E+00 0. -1.
        -11    1    4    4    0    0  0.22795933910E-01 -0.45640448591E-01 -0.52301766541E-01  0.73064636143E-01  0.51100000000E-03 0. -1.
         11    1    4    4    0    0  0.31263063238E-01 -0.33602765159E-01 -0.30603829178E-01  0.55166841769E-01  0.51100000000E-03 0.  1.
</event>
<event>
 8    1  0.1176534E+005  0.1043930E+01  0.7957747E-01            NaN
         13   -1    0    0    0    0  0.00000000000E+00  0.00000000000E+00  0.74505805969E-08  0.10566000000E+00  0.10566000000E+00 0.  1.
     999900   -1    0    0    0    0 -0.00000000000E+00 -0.00000000000E+00 -0.74505805969E-08  0.93827000000E+00  0.93827000000E+00 0.  1.
     999902    2    1    2    0    0 -0.11863994955E-01  0.20769705693E-01 -0.42966267481E-02  0.10196278180E+01  0.10193381633E+01 0.  0.
     999903    2    3    3    0    0  0.34955332452E-01 -0.11692858459E+00 -0.30436641994E-01  0.12730715308E+00  0.19660948316E-01 0.  0.
         14    1    1    2    0    0  0.11863994955E-01 -0.20769705693E-01  0.42966267481E-02  0.24302182047E-01  0.00000000000E+00 0.  1.
     999901    1    3    3    0    0 -0.46819327407E-01  0.13769829028E+00  0.26140015246E-01  0.89232066487E+00  0.88000000000E+00 0.  1.
        -11    1    4    4    0    0  0.67654054674E-02 -0.56776738718E-01 -0.13653120114E-01  0.58788073454E-01  0.51100000000E-03 0.  1.
         11    1    4    4    0    0  0.28189926985E-01 -0.60151845869E-01 -0.16783521879E-01  0.68519079624E-01  0.51100000000E-03 0. -1.
</event>
<event>
 8    1  0.1176534E+005  0.1043930E+01  0.7957747E-01            NaN
         13   -1    0    0    0    0  0.00000000000E+00  0.00000000000E+00  0.74505805969E-08  0.10566000000E+00  0.10566000000E+00 0. -1.
     999900   -1    0    0    0    0 -0.00000000000E+00 -0.00000000000E+00 -0.74505805969E-08  0.93827000000E+00  0.93827000000E+00 0.  1.
     999902    2    1    2    0    0  0.54063088633E-02 -0.51186622830E-02  0.22224885688E-01  0.10204912623E+01  0.10202220553E+01 0.  0.
     999903    2    3    3    0    0 -0.89407288760E-01 -0.91217006285E-01  0.23086666333E-01  0.13122005186E+00  0.19274395654E-01 0.  0.
         14    1    1    2    0    0 -0.54063088633E-02  0.51186622830E-02 -0.22224885688E-01  0.23438737657E-01  0.00000000000E+00 0.  1.
     999901    1    3    3    0    0  0.94813597624E-01  0.86098344002E-01 -0.86178064480E-03  0.88927121049E+00  0.88000000000E+00 0.  1.
        -11    1    4    4    0    0 -0.32240088516E-01 -0.20395676577E-01  0.72544896570E-02  0.38836782459E-01  0.51100000000E-03 0.  1.
         11    1    4    4    0    0 -0.57167200244E-01 -0.70821329708E-01  0.15832176676E-01  0.92383269398E-01  0.51100000000E-03 0. -1.
</event>
<event>
 8    1  0.1176534E+005  0.1043930E+01  0.7957747E-01            NaN
         13   -1    0    0    0    0  0.00000000000E+00  0.00000000000E+00  0.74505805969E-08  0.10566000000E+00  0.10566000000E+00 0.  1.
     999900   -1    0    0    0    0 -0.00000000000E+00 -0.00000000000E+00 -0.74505805969E-08  0.93827000000E+00  0.93827000000E+00 0. -1.
     999902    2    1    2    0    0  0.57816604688E-02  0.64530508493E-02 -0.22201160830E-01  0.10200980675E+01  0.10198196440E+01 0.  0.
     999903    2    3    3    0    0 -0.76247826165E-01  0.52765289226E-01  0.86498359304E-01  0.12842029738E+00  0.20295316576E-01 0.  0.
         14    1    1    2    0    0 -0.57816604688E-02 -0.64530508493E-02  0.22201160830E-01  0.23831932470E-01  0.00000000000E+00 0.  1.
     999901    1    3    3    0    0  0.82029486634E-01 -0.46312238377E-01 -0.10869952013E+00  0.89167777015E+00  0.88000000000E+00 0. -1.
        -11    1    4    4    0    0 -0.35487624904E-01  0.31342785086E-01  0.55277714650E-01  0.72784809927E-01  0.51100000000E-03 0. -1.
         11    1    4    4    0    0 -0.40760201262E-01  0.21422504141E-01  0.31220644655E-01  0.55635487454E-01  0.51100000000E-03 0.  1.
</event>
<event>
 8    1  0.1176534E+005  0.1043930E+01  0.7957747E-01            NaN
         13   -1    0    0    0    0  0.00000000000E+00  0.00000000000E+00  0.74505805969E-08  0.10566000000E+00  0.10566000000E+00 0.  1.
     999900   -1    0    0    0    0 -0.00000000000E+00 -0.00000000000E+00 -0.74505805969E-08  0.93827000000E+00  0.93827000000E+00 0. -1.
     999902    2    1    2    0    0  0.14094250654E-01  0.16702346219E-01  0.62180000087E-02  0.10212082088E+01  0.10209553986E+01 0.  0.
     999903    2    3    3    0    0  0.81876964504E-01 -0.53769848686E-01  0.86325138708E-01  0.13217616202E+00  0.20578490936E-01 0.  0.
         14    1    1    2    0    0 -0.14094250654E-01 -0.16702346219E-01 -0.62180000087E-02  0.22721791189E-01  0.00000000000E+00 0. -1.
     999901    1    3    3    0    0 -0.67782713850E-01  0.70472194906E-01 -0.80107138699E-01  0.88903204679E+00  0.88000000000E+00 0. -1.
        -11    1    4    4    0    0  0.57351242871E-01 -0.27651942250E-01  0.48219169620E-01  0.79869546192E-01  0.51100000000E-03 0.  1.
         11    1    4    4    0    0  0.24525721632E-01 -0.26117906437E-01  0.38105969088E-01  0.52306615828E-01  0.51100000000E-03 0. -1.
</event>
<event>
 8    1  0.1176534E+005  0.1043930E+01  0.7957747E-01            NaN
         13   -1    0    0    0    0  0.00000000000E+00  0.00000000000E+00  0.74505805969E-08  0.10566000000E+00  0.10566000000E+00 0.  1.
     999900   -1    0    0    0    0 -0.00000000000E+00 -0.00000000000E+00 -0.74505805969E-08  0.93827000000E+00  0.93827000000E+00 0. -1.
     999902    2    1    2    0    0 -0.47334905397E-02  0.10604937251E-02 -0.19874048676E-01  0.10234725224E+01  0.10232680468E+01 0.  0.
     999903    2    3    3    0    0 -0.12998876776E+00  0.17108025031E-01 -0.22106276398E-01  0.13445542999E+00  0.19995272767E-01 0.  0.
         14    1    1    2    0    0  0.47334905397E-02 -0.10604937251E-02  0.19874048676E-01  0.20457477616E-01  0.00000000000E+00 0.  1.
     999901    1    3    3    0    0  0.12525527722E+00 -0.16047531306E-01  0.22322277221E-02  0.88901709240E+00  0.88000000000E+00 0. -1.
        -11    1    4    4    0    0 -0.27652538174E-01  0.35257870833E-02  0.34790255083E-02  0.28097309150E-01  0.51100000000E-03 0. -1.
         11    1    4    4    0    0 -0.10233622959E+00  0.13582237948E-01 -0.25585301906E-01  0.10635812084E+00  0.51100000000E-03 0.  1.
</event>
<event>
 8    1  0.1176534E+005  0.1043930E+01  0.7957747E-01            NaN
         13   -1    0    0    0    0  0.00000000000E+00  0.00000000000E+00  0.74505805969E-08  0.10566000000E+00  0.10566000000E+00 0. -1.
     999900   -1    0    0    0    0 -0.00000000000E+00 -0.00000000000E+00 -0.74505805969E-08  0.93827000000E+00  0.93827000000E+00 0. -1.
     999902    2    1    2    0    0  0.75945660789E-02  0.14972486300E-01 -0.16840182551E-01  0.10201509225E+01  0.10198737471E+01 0.  0.
     999903    2    3    3    0    0  0.10959886204E+00  0.36173947701E-01  0.58434311460E-01  0.13081373793E+00  0.19421643118E-01 0.  0.
         14    1    1    2    0    0 -0.75945660789E-02 -0.14972486300E-01  0.16840182551E-01  0.23779077532E-01  0.00000000000E+00 0. -1.
     999901    1    3    3    0    0 -0.10200429596E+00 -0.21201461401E-01 -0.75274494011E-01  0.88933718454E+00  0.88000000000E+00 0. -1.
        -11    1    4    4    0    0  0.78845257093E-01  0.31391893838E-01  0.50254190467E-01  0.98629459824E-01  0.51100000000E-03 0. -1.
         11    1    4    4    0    0  0.30753604948E-01  0.47820538630E-02  0.81801209931E-02  0.32184278102E-01  0.51100000000E-03 0.  1.
</event>
<event>
 8    1  0.1176534E+005  0.1043930E+01  0.7957747E-01            NaN
         13   -1    0    0    0    0  0.00000000000E+00  0.00000000000E+00  0.74505805969E-08  0.10566000000E+00  0.10566000000E+00 0.  1.
     999900   -1    0    0    0    0 -0.00000000000E+00 -0.00000000000E+00 -0.74505805969E-08  0.93827000000E+00  0.93827000000E+00 0.  1.
     999902    2    1    2    0    0  0.16459743559E-01 -0.15066294872E-01 -0.70882867151E-02  0.10205171786E+01  0.10202485734E+01 0.  0.
     999903    2    3    3    0    0 -0.10812656491E+00 -0.34410723481E-01  0.58319507656E-01  0.12912829892E+00  0.19937419092E-01 0.  0.
         14    1    1    2    0    0 -0.16459743559E-01  0.15066294872E-01  0.70882867151E-02  0.23412821439E-01  0.00000000000E+00 0. -1.
     999901    1    3    3    0    0  0.12458630847E+00  0.19344428609E-01 -0.65407794371E-01  0.89138887964E+00  0.88000000000E+00 0.  1.
        -11    1    4    4    0    0 -0.28040994678E-01 -0.78209252437E-02  0.25092586969E-01  0.38436483918E-01  0.51100000000E-03 0. -1.
         11    1    4    4    0    0 -0.80085570232E-01 -0.26589798237E-01  0.33226920686E-01  0.90691815005E-01  0.51100000000E-03 0.  1.
</event>
<event>
 8    1  0.1176534E+005  0.1043930E+01  0.7957747E-01            NaN
         13   -1    0    0    0    0  0.00000000000E+00  0.00000000000E+00  0.74505805969E-08  0.10566000000E+00  0.10566000000E+00 0. -1.
     999900   -1    0    0    0    0 -0.00000000000E+00 -0.00000000000E+00 -0.74505805969E-08  0.93827000000E+00  0.93827000000E+00 0.  1.
     999902    2    1    2    0    0 -0.90982051566E-02  0.18020797047E-01  0.11151974450E-01  0.10208671945E+01  0.10206066509E+01 0.  0.
     999903    2    3    3    0    0 -0.44110569727E-01  0.39090210438E-01  0.11816443164E+00  0.13344314037E+00  0.19247126876E-01 0.  0.
         14    1    1    2    0    0  0.90982051566E-02 -0.18020797047E-01 -0.11151974450E-01  0.23062805498E-01  0.00000000000E+00 0.  1.
     999901    1    3    3    0    0  0.35012364571E-01 -0.21069413391E-01 -0.10701245719E+00  0.88742405413E+00  0.88000000000E+00 0.  1.
        -11    1    4    4    0    0 -0.37454449753E-01  0.22035042777E-01  0.77724180355E-01  0.89048797013E-01  0.51100000000E-03 0.  1.
         11    1    4    4    0    0 -0.66561199741E-02  0.17055167662E-01  0.40440251289E-01  0.44394343360E-01  0.51100000000E-03 0. -1.
</event>
<event>
 8    1  0.1176534E+005  0.1043930E+01  0.7957747E-01            NaN
         13   -1    0    0    0    0  0.00000000000E+00  0.00000000000E+00  0.74505805969E-08  0.10566000000E+00  0.10566000000E+00 0.  1.
     999900   -1    0    0    0    0 -0.00000000000E+00 -0.00000000000E+00 -0.74505805969E-08  0.93827000000E+00  0.93827000000E+00 0. -1.
     999902    2    1    2    0    0  0.23473554723E-01  0.17343377085E-02  0.10979180525E-01  0.10179577436E+01  0.10176263605E+01 0.  0.
     999903    2    3    3    0    0  0.18030469825E-01  0.12631041439E+00 -0.13335809430E-03  0.12909762265E+00  0.19666208694E-01 0.  0.
         14    1    1    2    0    0 -0.23473554723E-01 -0.17343377085E-02 -0.10979180525E-01  0.25972256421E-01  0.00000000000E+00 0. -1.
     999901    1    3    3    0    0  0.54430848973E-02 -0.12457607668E+00  0.11112538619E-01  0.88886012092E+00  0.88000000000E+00 0. -1.
        -11    1    4    4    0    0  0.61942216784E-02  0.33156018661E-01  0.85264981802E-02  0.34794428402E-01  0.51100000000E-03 0.  1.
         11    1    4    4    0    0  0.11836248147E-01  0.93154395732E-01 -0.86598562745E-02  0.94303194252E-01  0.51100000000E-03 0. -1.
</event>
<event>
 8    1  0.1176534E+005  0.1043930E+01  0.7957747E-01            NaN
         13   -1    0    0    0    0  0.00000000000E+00  0.00000000000E+00  0.74505805969E-08  0.10566000000E+00  0.10566000000E+00 0.  1.
     999900   -1    0    0    0    0 -0.00000000000E+00 -0.00000000000E+00 -0.74505805969E-08  0.93827000000E+00  0.93827000000E+00 0.  1.
     999902    2    1    2    0    0  0.12484272981E-01 -0.13181613126E-01  0.14049185246E-01  0.10209737023E+01  0.10207155869E+01 0.  0.
     999903    2    3    3    0    0 -0.40558207770E-01 -0.12351556054E-01  0.12392672253E+00  0.13255529474E+00  0.20384907459E-01 0.  0.
         14    1    1    2    0    0 -0.12484272981E-01  0.13181613126E-01 -0.14049185246E-01  0.22956297666E-01  0.00000000000E+00 0.  1.
     999901    1    3    3    0    0  0.53042480751E-01 -0.83005707193E-03 -0.10987753728E+00  0.88841840760E+00  0.88000000000E+00 0.  1.
        -11    1    4    4    0    0 -0.44331110851E-02 -0.70182062724E-02  0.42611731808E-01  0.43415763288E-01  0.51100000000E-03 0. -1.
         11    1    4    4    0    0 -0.36125096685E-01 -0.53333497820E-02  0.81314990718E-01  0.89139531449E-01  0.51100000000E-03 0.  1.
</event>
<event>
 8    1  0.1176534E+005  0.1043930E+01  0.7957747E-01            NaN
         13   -1    0    0    0    0  0.00000000000E+00  0.00000000000E+00  0.74505805969E-08  0.10566000000E+00  0.10566000000E+00 0.  1.
     999900   -1    0    0    0    0 -0.00000000000E+00 -0.00000000000E+00 -0.74505805969E-08  0.93827000000E+00  0.93827000000E+00 0.  1.
     999902    2    1    2    0    0 -0.64649799683E-02  0.77252040441E-02 -0.21231874222E-01  0.10204296335E+01  0.10201589923E+01 0.  0.
     999903    2    3    3    0    0  0.11830462064E+00 -0.47805899406E-01  0.10814780031E-02  0.12961593670E+00  0.22753772619E-01 0.  0.
         14    1    1    2    0    0  0.64649799683E-02 -0.77252040441E-02  0.21231874222E-01  0.23500366518E-01  0.00000000000E+00 0.  1.
     999901    1    3    3    0    0 -0.12476960061E+00  0.55531103451E-01 -0.22313352225E-01  0.89081369678E+00  0.88000000000E+00 0.  1.
        -11    1    4    4    0    0  0.56982567421E-01 -0.24617178118E-01  0.11791913919E-01  0.63184877963E-01  0.51100000000E-03 0. -1.
         11    1    4    4    0    0  0.61322053222E-01 -0.23188721289E-01 -0.10710435916E-01  0.66431058736E-01  0.51100000000E-03 0.  1.
</event>
<event>
 8    1  0.1176534E+005  0.1043930E+01  0.7957747E-01            NaN
         13   -1    0    0    0    0  0.00000000000E+00  0.00000000000E+00  0.74505805969E-08  0.10566000000E+00  0.10566000000E+00 0. -1.
     999900   -1    0    0    0    0 -0.00000000000E+00 -0.00000000000E+00 -0.74505805969E-08  0.93827000000E+00  0.93827000000E+00 0. -1.
     999902    2    1    2    0    0 -0.11757979350E-02  0.24348506153E-01 -0.65508574980E-03  0.10195443200E+01  0.10192526473E+01 0.  0.
     999903    2    3    3    0    0  0.46219218103E-01  0.11599164917E+00 -0.40279999839E-01  0.13263119739E+00  0.19449353091E-01 0.  0.
         14    1    1    2    0    0  0.11757979350E-02 -0.24348506153E-01  0.65508574980E-03  0.24385680019E-01  0.00000000000E+00 0. -1.
     999901    1    3    3    0    0 -0.47395016038E-01 -0.91643143014E-01  0.39624914090E-01  0.88691312259E+00  0.88000000000E+00 0.  1.
        -11    1    4    4    0    0  0.16504116050E-01  0.20319055071E-01 -0.86624569034E-02  0.27578055156E-01  0.51100000000E-03 0. -1.
         11    1    4    4    0    0  0.29715102052E-01  0.95672594096E-01 -0.31617542936E-01  0.10505314223E+00  0.51100000000E-03 0.  1.
</event>
<event>
 8    1  0.1176534E+005  0.1043930E+01  0.7957747E-01            NaN
         13   -1    0    0    0    0  0.00000000000E+00  0.00000000000E+00  0.74505805969E-08  0.10566000000E+00  0.10566000000E+00 0. -1.
     999900   -1    0    0    0    0 -0.00000000000E+00 -0.00000000000E+00 -0.74505805969E-08  0.93827000000E+00  0.93827000000E+00 0.  1.
     999902    2    1    2    0    0 -0.10669152304E-01 -0.14117704884E-01 -0.17671695985E-01  0.10189214167E+01  0.10186144629E+01 0.  0.
     999903    2    3    3    0    0 -0.94453943683E-01 -0.64402184218E-01 -0.63652218119E-01  0.13231968614E+00  0.19690242760E-01 0.  0.
         14    1    1    2    0    0  0.10669152304E-01  0.14117704884E-01  0.17671695985E-01  0.25008583347E-01  0.00000000000E+00 0. -1.
     999901    1    3    3    0    0  0.83784791379E-01  0.50284479334E-01  0.45980522135E-01  0.88660173051E+00  0.88000000000E+00 0. -1.
        -11    1    4    4    0    0 -0.48739046689E-01 -0.44005834817E-01 -0.31588059316E-01  0.72870259932E-01  0.51100000000E-03 0. -1.
         11    1    4    4    0    0 -0.45714896994E-01 -0.20396349401E-01 -0.32064158803E-01  0.59449426211E-01  0.51100000000E-03 0.  1.
</event>
<event>
 8    1  0.1176534E+005  0.1043930E+01  0.7957747E-01            NaN
         13   -1    0    0    0    0  0.00000000000E+00  0.00000000000E+00  0.74505805969E-08  0.10566000000E+00  0.10566000000E+00 0.  1.
     999900   -1    0    0    0    0 -0.00000000000E+00 -0.00000000000E+00 -0.74505805969E-08  0.93827000000E+00  0.93827000000E+00 0.  1.
     999902    2    1    2    0    0 -0.20283419905E-01  0.15188559861E-02 -0.11367787833E-01  0.10206286986E+01  0.10203626756E+01 0.  0.
     999903    2    3    3    0    0 -0.61766971633E-01  0.50315574443E-02  0.11346884728E+00  0.13084366299E+00  0.20109935013E-01 0.  0.
         14    1    1    2    0    0  0.20283419905E-01 -0.15188559861E-02  0.11367787833E-01  0.23301301396E-01  0.00000000000E+00 0.  1.
     999901    1    3    3    0    0  0.41483551728E-01 -0.35127014582E-02 -0.12483663511E+00  0.88978503561E+00  0.88000000000E+00 0.  1.
        -11    1    4    4    0    0 -0.17155081606E-01  0.98304335900E-02  0.42531558144E-01  0.46905530683E-01  0.51100000000E-03 0.  1.
         11    1    4    4    0    0 -0.44611890027E-01 -0.47988761457E-02  0.70937289137E-01  0.83938132307E-01  0.51100000000E-03 0. -1.
</event>
<event>
 8    1  0.1176534E+005  0.1043930E+01  0.7957747E-01            NaN
         13   -1    0    0    0    0  0.00000000000E+00  0.00000000000E+00  0.74505805969E-08  0.10566000000E+00  0.10566000000E+00 0.  1.
     999900   -1    0    0    0    0 -0.00000000000E+00 -0.00000000000E+00 -0.74505805969E-08  0.93827000000E+00  0.93827000000E+00 0. -1.
     999902    2    1    2    0    0  0.19871420347E-01 -0.95408386156E-02 -0.13217310885E-01  0.10182278940E+01  0.10179034560E+01 0.  0.
     999903    2    3    3    0    0  0.60878785120E-01  0.34800001471E-02 -0.11462008476E+00  0.13136055959E+00  0.19987393707E-01 0.  0.
         14    1    1    2    0    0 -0.19871420347E-01  0.95408386156E-02  0.13217310885E-01  0.25702106045E-01  0.00000000000E+00 0.  1.
     999901    1    3    3    0    0 -0.41007364772E-01 -0.13020838763E-01  0.10140277388E+00  0.88686733436E+00  0.88000000000E+00 0.  1.
        -11    1    4    4    0    0  0.10860873867E-01  0.21257184293E-02 -0.40075902146E-01  0.41579036951E-01  0.51100000000E-03 0.  1.
         11    1    4    4    0    0  0.50017911253E-01  0.13542817178E-02 -0.74544182616E-01  0.89781522642E-01  0.51100000000E-03 0. -1.
</event>
<event>
 8    1  0.1176534E+005  0.1043930E+01  0.7957747E-01            NaN
         13   -1    0    0    0    0  0.00000000000E+00  0.00000000000E+00  0.74505805969E-08  0.10566000000E+00  0.10566000000E+00 0.  1.
     999900   -1    0    0    0    0 -0.00000000000E+00 -0.00000000000E+00 -0.74505805969E-08  0.93827000000E+00  0.93827000000E+00 0.  1.
     999902    2    1    2    0    0 -0.15873182375E-01 -0.15660068726E-01  0.85831180990E-02  0.10200372064E+01  0.10197573421E+01 0.  0.
     999903    2    3    3    0    0 -0.12895926023E+00 -0.23327206883E-01 -0.53611158573E-02  0.13265809479E+00  0.19869050507E-01 0.  0.
         14    1    1    2    0    0  0.15873182375E-01  0.15660068726E-01 -0.85831180990E-02  0.23892793631E-01  0.00000000000E+00 0.  1.
     999901    1    3    3    0    0  0.11308607786E+00  0.76671381572E-02  0.13944233956E-01  0.88737911158E+00  0.88000000000E+00 0. -1.
        -11    1    4    4    0    0 -0.65197108053E-01 -0.14653321030E-01 -0.12249901833E-01  0.67938972112E-01  0.51100000000E-03 0. -1.
         11    1    4    4    0    0 -0.63762152181E-01 -0.86738858531E-02  0.68887859762E-02  0.64719122674E-01  0.51100000000E-03 0.  1.
</event>
<event>
 8    1  0.1176534E+005  0.1043930E+01  0.7957747E-01            NaN
         13   -1    0    0    0    0  0.00000000000E+00  0.00000000000E+00  0.74505805969E-08  0.10566000000E+00  0.10566000000E+00 0.  1.
     999900   -1    0    0    0    0 -0.00000000000E+00 -0.00000000000E+00 -0.74505805969E-08  0.93827000000E+00  0.93827000000E+00 0.  1.
     999902    2    1    2    0    0 -0.11273143278E-01  0.18744360465E-01  0.99055804241E-02  0.10199184334E+01  0.10196357464E+01 0.  0.
     999903    2    3    3    0    0  0.41193881484E-02  0.53937208815E-01  0.11901613414E+00  0.13234839133E+00  0.20617096005E-01 0.  0.
         14    1    1    2    0    0  0.11273143278E-01 -0.18744360465E-01 -0.99055804241E-02  0.24011566633E-01  0.00000000000E+00 0. -1.
     999901    1    3    3    0    0 -0.15392531426E-01 -0.35192848350E-01 -0.10911055371E+00  0.88757004204E+00  0.88000000000E+00 0.  1.
        -11    1    4    4    0    0 -0.49024519020E-02  0.26148956730E-02  0.85813928704E-02  0.10235875079E-01  0.51100000000E-03 0. -1.
         11    1    4    4    0    0  0.90218400504E-02  0.51322313142E-01  0.11043474127E+00  0.12211251625E+00  0.51100000000E-03 0.  1.
</event>
<event>
 8    1  0.1176534E+005  0.1043930E+01  0.7957747E-01            NaN
         13   -1    0    0    0    0  0.00000000000E+00  0.00000000000E+00  0.74505805969E-08  0.10566000000E+00  0.10566000000E+00 0. -1.
     999900   -1    0    0    0    0 -0.00000000000E+00 -0.00000000000E+00 -0.74505805969E-08  0.93827000000E+00  0.93827000000E+00 0.  1.
     999902    2    1    2    0    0  0.11357468303E-01  0.20876934589E-01  0.56967931309E-03  0.10201568425E+01  0.10198798068E+01 0.  0.
     999903    2    3    3    0    0  0.34303079531E-01  0.12430613928E+00 -0.27153215718E-01  0.13336900970E+00  0.20525060154E-01 0.  0.
         14    1    1    2    0    0 -0.11357468303E-01 -0.20876934589E-01 -0.56967931309E-03  0.23773157523E-01  0.00000000000E+00 0.  1.
     999901    1    3    3    0    0 -0.22945611228E-01 -0.10342920470E+00  0.27722895031E-01  0.88678783278E+00  0.88000000000E+00 0. -1.
        -11    1    4    4    0    0  0.99985678021E-02  0.65392308996E-01 -0.69866858055E-02  0.66522179260E-01  0.51100000000E-03 0.  1.
         11    1    4    4    0    0  0.24304511729E-01  0.58913830289E-01 -0.20166529913E-01  0.66846830436E-01  0.51100000000E-03 0. -1.
</event>
<event>
 8    1  0.1178766E+005  0.1043930E+01  0.7957747E-01            NaN
         13   -1    0    0    0    0  0.00000000000E+00  0.00000000000E+00  0.74505805969E-08  0.10566000000E+00  0.10566000000E+00 0. -1.
     999900   -1    0    0    0    0 -0.00000000000E+00 -0.00000000000E+00 -0.74505805969E-08  0.93827000000E+00  0.93827000000E+00 0.  1.
     999902    2    1    2    0    0  0.51798397558E-02 -0.24861321665E-01  0.20519990206E-01  0.10112805582E+01  0.10107533731E+01 0.  0.
     999903    2    3    3    0    0 -0.87744898396E-01  0.80349898968E-02 -0.80930718268E-01  0.11998407520E+00  0.90922431211E-02 0.  0.
         14    1    1    2    0    0 -0.51798397558E-02  0.24861321665E-01 -0.20519990206E-01  0.32649441847E-01  0.00000000000E+00 0.  1.
     999901    1    3    3    0    0  0.92924738152E-01 -0.32896311562E-01  0.10145070847E+00  0.89129648295E+00  0.88000000000E+00 0. -1.
        -11    1    4    4    0    0 -0.53991665228E-01  0.24119648414E-02 -0.44605110970E-01  0.70077061398E-01  0.51100000000E-03 0. -1.
         11    1    4    4    0    0 -0.33753233168E-01  0.56230250555E-02 -0.36325607298E-01  0.49907013802E-01  0.51100000000E-03 0.  1.
</event>
<event>
 8    1  0.1176534E+005  0.1043930E+01  0.7957747E-01            NaN
         13   -1    0    0    0    0  0.00000000000E+00  0.00000000000E+00  0.74505805969E-08  0.10566000000E+00  0.10566000000E+00 0. -1.
     999900   -1    0    0    0    0 -0.00000000000E+00 -0.00000000000E+00 -0.74505805969E-08  0.93827000000E+00  0.93827000000E+00 0. -1.
     999902    2    1    2    0    0 -0.14264132204E-01  0.82600435248E-02 -0.18758625582E-01  0.10189584197E+01  0.10186523849E+01 0.  0.
     999903    2    3    3    0    0 -0.76053549969E-01 -0.32200608359E-01 -0.10122071808E+00  0.13202268747E+00  0.19061337709E-01 0.  0.
         14    1    1    2    0    0  0.14264132204E-01 -0.82600435248E-02  0.18758625582E-01  0.24971580252E-01  0.00000000000E+00 0. -1.
     999901    1    3    3    0    0  0.61789417765E-01  0.40460651884E-01  0.82462092500E-01  0.88693573228E+00  0.88000000000E+00 0.  1.
        -11    1    4    4    0    0 -0.40807531169E-01 -0.18017295747E-01 -0.39719607860E-01  0.59730946047E-01  0.51100000000E-03 0.  1.
         11    1    4    4    0    0 -0.35246018800E-01 -0.14183312612E-01 -0.61501110222E-01  0.72291741419E-01  0.51100000000E-03 0. -1.
</event>
<event>
 8    1  0.1176534E+005  0.1043930E+01  0.7957747E-01            NaN
         13   -1    0    0    0    0  0.00000000000E+00  0.00000000000E+00  0.74505805969E-08  0.10566000000E+00  0.10566000000E+00 0. -1.
     999900   -1    0    0    0    0 -0.00000000000E+00 -0.00000000000E+00 -0.74505805969E-08  0.93827000000E+00  0.93827000000E+00 0.  1.
     999902    2    1    2    0    0  0.17790582124E-01 -0.68804967685E-02  0.13308284469E-01  0.10206715288E+01  0.10204064941E+01 0.  0.
     999903    2    3    3    0    0 -0.16363532661E-01  0.10174357070E+00 -0.73481758464E-01  0.12910089044E+00  0.25454895519E-01 0.  0.
         14    1    1    2    0    0 -0.17790582124E-01  0.68804967685E-02 -0.13308284469E-01  0.23258471222E-01  0.00000000000E+00 0.  1.
     999901    1    3    3    0    0  0.34154114785E-01 -0.10862406747E+00  0.86790042933E-01  0.89157063834E+00  0.88000000000E+00 0.  1.
        -11    1    4    4    0    0 -0.86605916214E-02  0.44109519704E-01 -0.17073953897E-01  0.48087800932E-01  0.51100000000E-03 0.  1.
         11    1    4    4    0    0 -0.77029410392E-02  0.57634050996E-01 -0.56407804567E-01  0.81013089510E-01  0.51100000000E-03 0. -1.
</event>
<event>
 8    1  0.1176534E+005  0.1043930E+01  0.7957747E-01            NaN
         13   -1    0    0    0    0  0.00000000000E+00  0.00000000000E+00  0.74505805969E-08  0.10566000000E+00  0.10566000000E+00 0. -1.
     999900   -1    0    0    0    0 -0.00000000000E+00 -0.00000000000E+00 -0.74505805969E-08  0.93827000000E+00  0.93827000000E+00 0. -1.
     999902    2    1    2    0    0  0.10256530912E-01  0.17375333605E-01  0.14736750322E-01  0.10189445952E+01  0.10186382172E+01 0.  0.
     999903    2    3    3    0    0 -0.12129961208E+00 -0.28615535798E-01 -0.16800136033E-01  0.12741963533E+00  0.20520090578E-01 0.  0.
         14    1    1    2    0    0 -0.10256530912E-01 -0.17375333605E-01 -0.14736750322E-01  0.24985404826E-01  0.00000000000E+00 0. -1.
     999901    1    3    3    0    0  0.13155614299E+00  0.45990869403E-01  0.31536886355E-01  0.89152495985E+00  0.88000000000E+00 0.  1.
        -11    1    4    4    0    0 -0.85997181479E-01 -0.12493088080E-01 -0.58824861341E-02  0.87100271160E-01  0.51100000000E-03 0. -1.
         11    1    4    4    0    0 -0.35302430599E-01 -0.16122447718E-01 -0.10917649899E-01  0.40319364168E-01  0.51100000000E-03 0.  1.
</event>
<event>
 7    1  0.1176534E+005  0.1043930E+01  0.7957747E-01            NaN
         13   -1    0    0    0    0  0.00000000000E+00  0.00000000000E+00  0.74505805969E-08  0.10566000000E+00  0.10566000000E+00 0.  1.
     999900   -1    0    0    0    0 -0.00000000000E+00 -0.00000000000E+00 -0.74505805969E-08  0.93827000000E+00  0.93827000000E+00 0. -1.
     999902    2    1    2    0    0  0.13598007560E-01 -0.96630631975E-02  0.18789235186E-01  0.10188039984E+01  0.10184941193E+01 0.  0.
         14    1    1    2    0    0 -0.13598007560E-01  0.96630631975E-02 -0.18789235186E-01  0.25126001648E-01  0.00000000000E+00 0. -1.
     999901    1    3    3    0    0 -0.10269036453E+00 -0.52122291333E-01 -0.47355794434E-02  0.88751589841E+00  0.88000000000E+00 0. -1.
        -11    1    3    3    0    0  0.59415057667E-01  0.40837562605E-01  0.16454345346E-01  0.73951755887E-01  0.51100000000E-03 0.  1.
         11    1    3    3    0    0  0.56873314422E-01  0.16216655308E-02  0.70704692828E-02  0.57336344053E-01  0.51100000000E-03 0. -1.
</event>
<event>
 8    1  0.1176534E+005  0.1043930E+01  0.7957747E-01            NaN
         13   -1    0    0    0    0  0.00000000000E+00  0.00000000000E+00  0.74505805969E-08  0.10566000000E+00  0.10566000000E+00 0.  1.
     999900   -1    0    0    0    0 -0.00000000000E+00 -0.00000000000E+00 -0.74505805969E-08  0.93827000000E+00  0.93827000000E+00 0. -1.
     999902    2    1    2    0    0 -0.82463055904E-02 -0.24583416275E-01 -0.52128214939E-02  0.10174815706E+01  0.10171377621E+01 0.  0.
     999903    2    3    3    0    0 -0.41122662654E-01  0.10913912037E+00 -0.43843690590E-01  0.12593520850E+00  0.18302638018E-01 0.  0.
         14    1    1    2    0    0  0.82463055904E-02  0.24583416275E-01  0.52128214939E-02  0.26448429434E-01  0.00000000000E+00 0.  1.
     999901    1    3    3    0    0  0.32876357063E-01 -0.13372253664E+00  0.38630869096E-01  0.89154636206E+00  0.88000000000E+00 0.  1.
        -11    1    4    4    0    0 -0.16092522078E-01  0.25835498239E-01 -0.17184809686E-01  0.34957417539E-01  0.51100000000E-03 0. -1.
         11    1    4    4    0    0 -0.25030140576E-01  0.83303622127E-01 -0.26658880904E-01  0.90977790964E-01  0.51100000000E-03 0.  1.
</event>
<event>
 8    1  0.1176534E+005  0.1043930E+01  0.7957747E-01            NaN
         13   -1    0    0    0    0  0.00000000000E+00  0.00000000000E+00  0.74505805969E-08  0.10566000000E+00  0.10566000000E+00 0.  1.
     999900   -1    0    0    0    0 -0.00000000000E+00 -0.00000000000E+00 -0.74505805969E-08  0.93827000000E+00  0.93827000000E+00 0.  1.
     999902    2    1    2    0    0 -0.44149881659E-02  0.19604342370E-01 -0.13188247545E-01  0.10198935229E+01  0.10196102421E+01 0.  0.
     999903    2    3    3    0    0 -0.11001603501E+00  0.59373533666E-01 -0.35421434785E-01  0.13240972904E+00  0.25473787361E-01 0.  0.
         14    1    1    2    0    0  0.44149881659E-02 -0.19604342370E-01  0.13188247545E-01  0.24036477146E-01  0.00000000000E+00 0.  1.
     999901    1    3    3    0    0  0.10560104684E+00 -0.39769191295E-01  0.22233187239E-01  0.88748379382E+00  0.88000000000E+00 0. -1.
        -11    1    4    4    0    0 -0.17550937219E-01  0.19626249903E-01 -0.22202429200E-02  0.26427555357E-01  0.51100000000E-03 0. -1.
         11    1    4    4    0    0 -0.92465097791E-01  0.39747283763E-01 -0.33201191864E-01  0.10598217368E+00  0.51100000000E-03 0.  1.
</event>
<event>
 8    1  0.1176534E+005  0.1043930E+01  0.7957747E-01            NaN
         13   -1    0    0    0    0  0.00000000000E+00  0.00000000000E+00  0.74505805969E-08  0.10566000000E+00  0.10566000000E+00 0.  1.
     999900   -1    0    0    0    0 -0.00000000000E+00 -0.00000000000E+00 -0.74505805969E-08  0.93827000000E+00  0.93827000000E+00 0.  1.
     999902    2    1    2    0    0  0.16889110134E-01 -0.11297817851E-02  0.98784788432E-02  0.10243314594E+01  0.10241439528E+01 0.  0.
     999903    2    3    3    0    0 -0.10828636204E+00  0.66208774297E-01  0.33265576592E-01  0.13261943400E+00  0.19281537538E-01 0.  0.
         14    1    1    2    0    0 -0.16889110134E-01  0.11297817851E-02 -0.98784788432E-02  0.19598540564E-01  0.00000000000E+00 0. -1.
     999901    1    3    3    0    0  0.12517547218E+00 -0.67338556082E-01 -0.23387097749E-01  0.89171202544E+00  0.88000000000E+00 0. -1.
        -11    1    4    4    0    0 -0.51461300806E-01  0.38571198833E-01  0.24501794364E-01  0.68822975148E-01  0.51100000000E-03 0. -1.
         11    1    4    4    0    0 -0.56825061235E-01  0.27637575464E-01  0.87637822282E-02  0.63796458850E-01  0.51100000000E-03 0.  1.
</event>
<event>
 8    1  0.1176534E+005  0.1043930E+01  0.7957747E-01            NaN
         13   -1    0    0    0    0  0.00000000000E+00  0.00000000000E+00  0.74505805969E-08  0.10566000000E+00  0.10566000000E+00 0.  1.
     999900   -1    0    0    0    0 -0.00000000000E+00 -0.00000000000E+00 -0.74505805969E-08  0.93827000000E+00  0.93827000000E+00 0.  1.
     999902    2    1    2    0    0  0.11000221318E-01  0.12927655046E-01  0.13623851091E-01  0.10221644664E+01  0.10219327071E+01 0.  0.
     999903    2    3    3    0    0  0.10637469546E+00  0.76061560377E-01  0.25630966114E-01  0.13468131100E+00  0.19523634579E-01 0.  0.
         14    1    1    2    0    0 -0.11000221318E-01 -0.12927655046E-01 -0.13623851091E-01  0.21765533593E-01  0.00000000000E+00 0. -1.
     999901    1    3    3    0    0 -0.95374474143E-01 -0.63133905331E-01 -0.12007115023E-01  0.88748315541E+00  0.88000000000E+00 0.  1.
        -11    1    4    4    0    0  0.58627861725E-02  0.10968114431E-01  0.16874305222E-02  0.12561064392E-01  0.51100000000E-03 0.  1.
         11    1    4    4    0    0  0.10051190929E+00  0.65093445946E-01  0.23943535592E-01  0.12212024661E+00  0.51100000000E-03 0. -1.
</event>
<event>
 8    1  0.1176534E+005  0.1043930E+01  0.7957747E-01            NaN
         13   -1    0    0    0    0  0.00000000000E+00  0.00000000000E+00  0.74505805969E-08  0.10566000000E+00  0.10566000000E+00 0.  1.
     999900   -1    0    0    0    0 -0.00000000000E+00 -0.00000000000E+00 -0.74505805969E-08  0.93827000000E+00  0.93827000000E+00 0. -1.
     999902    2    1    2    0    0 -0.15587744612E-01  0.16565603628E-01 -0.60300899841E-02  0.10203979157E+01  0.10201265350E+01 0.  0.
     999903    2    3    3    0    0 -0.19903329499E-01  0.27596476882E-01 -0.12612294440E+00  0.13216224985E+00  0.20053805578E-01 0.  0.
         14    1    1    2    0    0  0.15587744612E-01 -0.16565603628E-01  0.60300899841E-02  0.23532084287E-01  0.00000000000E+00 0.  1.
     999901    1    3    3    0    0  0.43155848864E-02 -0.11030873254E-01  0.12009285442E+00  0.88823566587E+00  0.88000000000E+00 0.  1.
        -11    1    4    4    0    0 -0.18550497853E-01  0.92119649563E-02 -0.75248420972E-01  0.78048492931E-01  0.51100000000E-03 0.  1.
         11    1    4    4    0    0 -0.13528316454E-02  0.18384511926E-01 -0.50874523429E-01  0.54113756914E-01  0.51100000000E-03 0. -1.
</event>
<event>
 8    1  0.1176534E+005  0.1043930E+01  0.7957747E-01            NaN
         13   -1    0    0    0    0  0.00000000000E+00  0.00000000000E+00  0.74505805969E-08  0.10566000000E+00  0.10566000000E+00 0.  1.
     999900   -1    0    0    0    0 -0.00000000000E+00 -0.00000000000E+00 -0.74505805969E-08  0.93827000000E+00  0.93827000000E+00 0.  1.
     999902    2    1    2    0    0  0.16667663693E-01  0.42252973104E-02  0.11530011677E-01  0.10232272147E+01  0.10230177553E+01 0.  0.
     999903    2    3    3    0    0  0.10488242474E+00  0.24284808833E-01  0.80237613490E-01  0.13592514515E+00  0.21154089584E-01 0.  0.
         14    1    1    2    0    0 -0.16667663693E-01 -0.42252973104E-02 -0.11530011677E-01  0.20702785311E-01  0.00000000000E+00 0. -1.
     999901    1    3    3    0    0 -0.88214761042E-01 -0.20059511523E-01 -0.68707601813E-01  0.88730206954E+00  0.88000000000E+00 0.  1.
        -11    1    4    4    0    0  0.21780237267E-01  0.11132485843E-01  0.26619513233E-01  0.36154814094E-01  0.51100000000E-03 0. -1.
         11    1    4    4    0    0  0.83102187469E-01  0.13152322990E-01  0.53618100257E-01  0.99770331052E-01  0.51100000000E-03 0.  1.
</event>
<event>
 8    1  0.1176534E+005  0.1043930E+01  0.7957747E-01            NaN
         13   -1    0    0    0    0  0.00000000000E+00  0.00000000000E+00  0.74505805969E-08  0.10566000000E+00  0.10566000000E+00 0.  1.
     999900   -1    0    0    0    0 -0.00000000000E+00 -0.00000000000E+00 -0.74505805969E-08  0.93827000000E+00  0.93827000000E+00 0. -1.
     999902    2    1    2    0    0 -0.22175575864E-01  0.37947079600E-02 -0.49970290331E-02  0.10208838230E+01  0.10206236593E+01 0.  0.
     999903    2    3    3    0    0  0.87216304430E-01  0.92567311909E-01 -0.14502017920E-02  0.12967131265E+00  0.25241934293E-01 0.  0.
         14    1    1    2    0    0  0.22175575864E-01 -0.37947079600E-02  0.49970290331E-02  0.23046176962E-01  0.00000000000E+00 0.  1.
     999901    1    3    3    0    0 -0.10939188029E+00 -0.88772603949E-01 -0.35468272411E-02  0.89121251039E+00  0.88000000000E+00 0.  1.
        -11    1    4    4    0    0  0.45265892737E-01  0.36485853823E-01  0.90805158445E-02  0.58846711577E-01  0.51100000000E-03 0.  1.
         11    1    4    4    0    0  0.41950411693E-01  0.56081458086E-01 -0.10530717636E-01  0.70824601074E-01  0.51100000000E-03 0. -1.
</event>
<event>
 8    1  0.1176534E+005  0.1043930E+01  0.7957747E-01            NaN
         13   -1    0    0    0    0  0.00000000000E+00  0.00000000000E+00  0.74505805969E-08  0.10566000000E+00  0.10566000000E+00 0. -1.
     999900   -1    0    0    0    0 -0.00000000000E+00 -0.00000000000E+00 -0.74505805969E-08  0.93827000000E+00  0.93827000000E+00 0. -1.
     999902    2    1    2    0    0  0.17009245496E-01  0.20070470395E-01 -0.78957646721E-03  0.10176096344E+01  0.10172691907E+01 0.  0.
     999903    2    3    3    0    0  0.63467871755E-01 -0.84351248722E-01 -0.68980576223E-01  0.12760271767E+00  0.19514859862E-01 0.  0.
         14    1    1    2    0    0 -0.17009245496E-01 -0.20070470395E-01  0.78957646721E-03  0.26320365598E-01  0.00000000000E+00 0.  1.
     999901    1    3    3    0    0 -0.46458626259E-01  0.10442171912E+00  0.68190999756E-01  0.89000691673E+00  0.88000000000E+00 0.  1.
        -11    1    4    4    0    0  0.20935334339E-01 -0.36543103705E-01 -0.37013793307E-01  0.56071103684E-01  0.51100000000E-03 0. -1.
         11    1    4    4    0    0  0.42532537416E-01 -0.47808145016E-01 -0.31966782916E-01  0.71531613989E-01  0.51100000000E-03 0.  1.
</event>
<event>
 8    1  0.1176534E+005  0.1043930E+01  0.7957747E-01            NaN
         13   -1    0    0    0    0  0.00000000000E+00  0.00000000000E+00  0.74505805969E-08  0.10566000000E+00  0.10566000000E+00 0.  1.
     999900   -1    0    0    0    0 -0.00000000000E+00 -0.00000000000E+00 -0.74505805969E-08  0.93827000000E+00  0.93827000000E+00 0.  1.
     999902    2    1    2    0    0  0.12766520408E-02  0.23180824889E-01  0.62427761496E-02  0.10198893524E+01  0.10196059721E+01 0.  0.
     999903    2    3    3    0    0  0.56786282206E-01  0.52654159804E-01 -0.10358612288E+00  0.13083795705E+00  0.19782410366E-01 0.  0.
         14    1    1    2    0    0 -0.12766520408E-02 -0.23180824889E-01 -0.62427761496E-02  0.24040647600E-01  0.00000000000E+00 0. -1.
     999901    1    3    3    0    0 -0.55509630165E-01 -0.29473334915E-01  0.10982889903E+00  0.88905139535E+00  0.88000000000E+00 0. -1.
        -11    1    4    4    0    0  0.40228039198E-01  0.37132215070E-01 -0.57107495238E-01  0.79111463563E-01  0.51100000000E-03 0. -1.
         11    1    4    4    0    0  0.16558243008E-01  0.15521944735E-01 -0.46478627643E-01  0.51726493487E-01  0.51100000000E-03 0.  1.
</event>
<event>
 8    1  0.1176534E+005  0.1043930E+01  0.7957747E-01            NaN
         13   -1    0    0    0    0  0.00000000000E+00  0.00000000000E+00  0.74505805969E-08  0.10566000000E+00  0.10566000000E+00 0.  1.
     999900   -1    0    0    0    0 -0.00000000000E+00 -0.00000000000E+00 -0.74505805969E-08  0.93827000000E+00  0.93827000000E+00 0.  1.
     999902    2    1    2    0    0  0.16301015696E-02 -0.15804063699E-01 -0.20588316397E-01  0.10179241462E+01  0.10175918941E+01 0.  0.
     999903    2    3    3    0    0  0.87433781917E-01 -0.91155468155E-01 -0.25826614138E-01  0.13053046496E+00  0.20425540147E-01 0.  0.
         14    1    1    2    0    0 -0.16301015696E-02  0.15804063699E-01  0.20588316397E-01  0.26005853814E-01  0.00000000000E+00 0.  1.
     999901    1    3    3    0    0 -0.85803680347E-01  0.75351404456E-01  0.52382977410E-02  0.88739368122E+00  0.88000000000E+00 0.  1.
        -11    1    4    4    0    0  0.52521144760E-01 -0.40780542416E-01 -0.16706314900E-01  0.68563002889E-01  0.51100000000E-03 0. -1.
         11    1    4    4    0    0  0.34912637157E-01 -0.50374925739E-01 -0.91202992387E-02  0.61967462072E-01  0.51100000000E-03 0.  1.
</event>
<event>
 7    1  0.1176534E+005  0.1043930E+01  0.7957747E-01            NaN
         13   -1    0    0    0    0  0.00000000000E+00  0.00000000000E+00  0.74505805969E-08  0.10566000000E+00  0.10566000000E+00 0. -1.
     999900   -1    0    0    0    0 -0.00000000000E+00 -0.00000000000E+00 -0.74505805969E-08  0.93827000000E+00  0.93827000000E+00 0.  1.
     999903    2    1    2    0    0  0.22259803243E-01 -0.43422812402E-01 -0.49185716869E-01  0.72720951147E-01  0.22092136936E-01 0.  0.
         14    1    1    2    0    0  0.41066467029E-01  0.53736695333E-01 -0.48870792854E-01  0.83441245998E-01  0.00000000000E+00 0.  1.
     999901    1    1    2    0    0 -0.63326270272E-01 -0.10313882931E-01  0.98056509723E-01  0.88776780286E+00  0.88000000000E+00 0. -1.
        -11    1    3    3    0    0  0.60612531035E-02 -0.53301039895E-02  0.43528080073E-03  0.80993449179E-02  0.51100000000E-03 0. -1.
         11    1    3    3    0    0  0.16198550140E-01 -0.38092708413E-01 -0.49620997670E-01  0.64621606229E-01  0.51100000000E-03 0.  1.
</event>
<event>
 8    1  0.1176534E+005  0.1043930E+01  0.7957747E-01            NaN
         13   -1    0    0    0    0  0.00000000000E+00  0.00000000000E+00  0.74505805969E-08  0.10566000000E+00  0.10566000000E+00 0.  1.
     999900   -1    0    0    0    0 -0.00000000000E+00 -0.00000000000E+00 -0.74505805969E-08  0.93827000000E+00  0.93827000000E+00 0.  1.
     999902    2    1    2    0    0 -0.14512766194E-01  0.17230595604E-01 -0.47803756879E-03  0.10213968616E+01  0.10211482784E+01 0.  0.
     999903    2    3    3    0    0 -0.85619258882E-01  0.20187915986E-01  0.97394163662E-01  0.13311546088E+00  0.22268663319E-01 0.  0.
         14    1    1    2    0    0  0.14512766194E-01 -0.17230595604E-01  0.47803756879E-03  0.22533138428E-01  0.00000000000E+00 0.  1.
     999901    1    3    3    0    0  0.71106492688E-01 -0.29573203815E-02 -0.97872201230E-01  0.88828140069E+00  0.88000000000E+00 0.  1.
        -11    1    4    4    0    0 -0.27090319536E-01  0.15356535170E-01  0.42780687251E-01  0.52916508838E-01  0.51100000000E-03 0.  1.
         11    1    4    4    0    0 -0.58528939346E-01  0.48313808164E-02  0.54613476411E-01  0.80198952040E-01  0.51100000000E-03 0. -1.
</event>
<event>
 8    1  0.1176534E+005  0.1043930E+01  0.7957747E-01            NaN
         13   -1    0    0    0    0  0.00000000000E+00  0.00000000000E+00  0.74505805969E-08  0.10566000000E+00  0.10566000000E+00 0. -1.
     999900   -1    0    0    0    0 -0.00000000000E+00 -0.00000000000E+00 -0.74505805969E-08  0.93827000000E+00  0.93827000000E+00 0. -1.
     999902    2    1    2    0    0 -0.20043306228E-01 -0.80826257159E-02  0.10484443875E-01  0.10199094562E+01  0.10196265553E+01 0.  0.
     999903    2    3    3    0    0 -0.84926120218E-02 -0.12294690780E+00  0.42408221182E-01  0.13179552800E+00  0.19584110363E-01 0.  0.
         14    1    1    2    0    0  0.20043306228E-01  0.80826257159E-02 -0.10484443875E-01  0.24020543841E-01  0.00000000000E+00 0.  1.
     999901    1    3    3    0    0 -0.11550694207E-01  0.11486428209E+00 -0.31923777307E-01  0.88811392816E+00  0.88000000000E+00 0. -1.
        -11    1    4    4    0    0 -0.57687714614E-02 -0.27261939988E-01  0.17406135155E-01  0.32859195944E-01  0.51100000000E-03 0.  1.
         11    1    4    4    0    0 -0.27238405603E-02 -0.95684967817E-01  0.25002086027E-01  0.98936332054E-01  0.51100000000E-03 0. -1.
</event>
<event>
 8    1  0.1176534E+005  0.1043930E+01  0.7957747E-01            NaN
         13   -1    0    0    0    0  0.00000000000E+00  0.00000000000E+00  0.74505805969E-08  0.10566000000E+00  0.10566000000E+00 0.  1.
     999900   -1    0    0    0    0 -0.00000000000E+00 -0.00000000000E+00 -0.74505805969E-08  0.93827000000E+00  0.93827000000E+00 0.  1.
     999902    2    1    2    0    0 -0.13337363305E-02  0.17745134447E-01  0.14693901574E-01  0.10208523183E+01  0.10205914346E+01 0.  0.
     999903    2    3    3    0    0 -0.31405073099E-01 -0.57641977841E-01 -0.10863172132E+00  0.12855376330E+00  0.20404483741E-01 0.  0.
         14    1    1    2    0    0  0.13337363305E-02 -0.17745134447E-01 -0.14693901574E-01  0.23077681699E-01  0.00000000000E+00 0. -1.
     999901    1    3    3    0    0  0.30071336769E-01  0.75387112289E-01  0.12332562289E+00  0.89229855500E+00  0.88000000000E+00 0. -1.
        -11    1    4    4    0    0 -0.33080513974E-01 -0.51953802709E-01 -0.90511374686E-01  0.10948099419E+00  0.51100000000E-03 0. -1.
         11    1    4    4    0    0  0.16754408750E-02 -0.56881751322E-02 -0.18120346631E-01  0.19072769109E-01  0.51100000000E-03 0.  1.
</event>
<event>
 8    1  0.1176534E+005  0.1043930E+01  0.7957747E-01            NaN
         13   -1    0    0    0    0  0.00000000000E+00  0.00000000000E+00  0.74505805969E-08  0.10566000000E+00  0.10566000000E+00 0. -1.
     999900   -1    0    0    0    0 -0.00000000000E+00 -0.00000000000E+00 -0.74505805969E-08  0.93827000000E+00  0.93827000000E+00 0.  1.
     999902    2    1    2    0    0  0.79983937195E-02  0.40134158469E-02  0.19689468504E-01  0.10223023099E+01  0.10220735081E+01 0.  0.
     999903    2    3    3    0    0 -0.21077336087E-01  0.25120486008E-02 -0.12642851986E+00  0.12977885436E+00  0.20194452742E-01 0.  0.
         14    1    1    2    0    0 -0.79983937195E-02 -0.40134158469E-02 -0.19689468504E-01  0.21627690095E-01  0.00000000000E+00 0. -1.
     999901    1    3    3    0    0  0.29075729806E-01  0.15013672461E-02  0.14611798836E+00  0.89252345554E+00  0.88000000000E+00 0. -1.
        -11    1    4    4    0    0 -0.17057039233E-01  0.10685433254E-01 -0.90122054521E-01  0.92343743174E-01  0.51100000000E-03 0.  1.
         11    1    4    4    0    0 -0.40202968536E-02 -0.81733846533E-02 -0.36306465338E-01  0.37435111191E-01  0.51100000000E-03 0. -1.
</event>
<event>
 8    1  0.1176534E+005  0.1043930E+01  0.7957747E-01            NaN
         13   -1    0    0    0    0  0.00000000000E+00  0.00000000000E+00  0.74505805969E-08  0.10566000000E+00  0.10566000000E+00 0. -1.
     999900   -1    0    0    0    0 -0.00000000000E+00 -0.00000000000E+00 -0.74505805969E-08  0.93827000000E+00  0.93827000000E+00 0. -1.
     999902    2    1    2    0    0  0.34900491827E-03  0.16625921052E-01 -0.16887819669E-01  0.10202289133E+01  0.10199535745E+01 0.  0.
     999903    2    3    3    0    0 -0.62294579886E-01  0.39540804018E-01  0.10436047018E+00  0.12941442179E+00  0.20319817064E-01 0.  0.
         14    1    1    2    0    0 -0.34900491827E-03 -0.16625921052E-01  0.16887819669E-01  0.23701086651E-01  0.00000000000E+00 0.  1.
     999901    1    3    3    0    0  0.62643584804E-01 -0.22914882966E-01 -0.12124828985E+00  0.89081449156E+00  0.88000000000E+00 0. -1.
        -11    1    4    4    0    0 -0.22180775767E-01  0.25609449959E-01  0.50752075926E-01  0.61023479683E-01  0.51100000000E-03 0.  1.
         11    1    4    4    0    0 -0.40113804119E-01  0.13931354060E-01  0.53608394255E-01  0.68390942108E-01  0.51100000000E-03 0. -1.
</event>
<event>
 8    1  0.1176534E+005  0.1043930E+01  0.7957747E-01            NaN
         13   -1    0    0    0    0  0.00000000000E+00  0.00000000000E+00  0.74505805969E-08  0.10566000000E+00  0.10566000000E+00 0. -1.
     999900   -1    0    0    0    0 -0.00000000000E+00 -0.00000000000E+00 -0.74505805969E-08  0.93827000000E+00  0.93827000000E+00 0. -1.
     999902    2    1    2    0    0 -0.53548023063E-02  0.18621905475E-01 -0.12906954836E-01  0.10206482742E+01  0.10203827032E+01 0.  0.
     999903    2    3    3    0    0  0.16239035949E-01 -0.12403617980E+00  0.20528351825E-01  0.12827192825E+00  0.19585560041E-01 0.  0.
         14    1    1    2    0    0  0.53548023063E-02 -0.18621905475E-01  0.12906954836E-01  0.23281725761E-01  0.00000000000E+00 0. -1.
     999901    1    3    3    0    0 -0.21593838256E-01  0.14265808527E+00 -0.33435306661E-01  0.89237634599E+00  0.88000000000E+00 0.  1.
        -11    1    4    4    0    0  0.18325147195E-01 -0.94623212329E-01  0.21551895344E-01  0.98762891033E-01  0.51100000000E-03 0. -1.
         11    1    4    4    0    0 -0.20861112456E-02 -0.29412967467E-01 -0.10235435187E-02  0.29509037220E-01  0.51100000000E-03 0.  1.
</event>
<event>
 8    1  0.1176534E+005  0.1043930E+01  0.7957747E-01            NaN
         13   -1    0    0    0    0  0.00000000000E+00  0.00000000000E+00  0.74505805969E-08  0.10566000000E+00  0.10566000000E+00 0. -1.
     999900   -1    0    0    0    0 -0.00000000000E+00 -0.00000000000E+00 -0.74505805969E-08  0.93827000000E+00  0.93827000000E+00 0.  1.
     999902    2    1    2    0    0 -0.18993889660E-01 -0.12961736537E-01  0.42467433646E-02  0.10205460464E+01  0.10202781108E+01 0.  0.
     999903    2    3    3    0    0 -0.22157343627E-01 -0.12923689206E+00  0.66103753347E-02  0.13288873299E+00  0.20557143485E-01 0.  0.
         14    1    1    2    0    0  0.18993889660E-01  0.12961736537E-01 -0.42467433646E-02  0.23383953636E-01  0.00000000000E+00 0.  1.
     999901    1    3    3    0    0  0.31634539671E-02  0.11627515552E+00 -0.23636319701E-02  0.88765731338E+00  0.88000000000E+00 0. -1.
        -11    1    4    4    0    0 -0.48907597936E-02 -0.50963934442E-01  0.11874790405E-01  0.52559622462E-01  0.51100000000E-03 0.  1.
         11    1    4    4    0    0 -0.17266583833E-01 -0.78272957614E-01 -0.52644150707E-02  0.80329110527E-01  0.51100000000E-03 0. -1.
</event>
<event>
 8    1  0.1176534E+005  0.1043930E+01  0.7957747E-01            NaN
         13   -1    0    0    0    0  0.00000000000E+00  0.00000000000E+00  0.74505805969E-08  0.10566000000E+00  0.10566000000E+00 0.  1.
     999900   -1    0    0    0    0 -0.00000000000E+00 -0.00000000000E+00 -0.74505805969E-08  0.93827000000E+00  0.93827000000E+00 0.  1.
     999902    2    1    2    0    0 -0.23281453528E-01  0.65730363965E-03  0.64848517328E-02  0.10197533288E+01  0.10194666940E+01 0.  0.
     999903    2    3    3    0    0  0.10367564436E+00  0.72337645366E-01 -0.31180391947E-02  0.12770602538E+00  0.17825054791E-01 0.  0.
         14    1    1    2    0    0  0.23281453528E-01 -0.65730363965E-03 -0.64848517328E-02  0.24176671161E-01  0.00000000000E+00 0. -1.
     999901    1    3    3    0    0 -0.12695709789E+00 -0.71680341726E-01  0.96028909274E-02  0.89204730346E+00  0.88000000000E+00 0. -1.
        -11    1    4    4    0    0  0.31298105150E-01  0.17923776391E-01 -0.82740851657E-02  0.37007495895E-01  0.51100000000E-03 0.  1.
         11    1    4    4    0    0  0.72377539214E-01  0.54413868975E-01  0.51560459710E-02  0.90698529484E-01  0.51100000000E-03 0. -1.
</event>
<event>
 8    1  0.1176534E+005  0.1043930E+01  0.7957747E-01            NaN
         13   -1    0    0    0    0  0.00000000000E+00  0.00000000000E+00  0.74505805969E-08  0.10566000000E+00  0.10566000000E+00 0. -1.
     999900   -1    0    0    0    0 -0.00000000000E+00 -0.00000000000E+00 -0.74505805969E-08  0.93827000000E+00  0.93827000000E+00 0. -1.
     999902    2    1    2    0    0  0.60283743614E-02 -0.15949611574E-01  0.23331728120E-02  0.10267202614E+01  0.10265760177E+01 0.  0.
     999903    2    3    3    0    0  0.49499493873E-01 -0.12765659739E+00 -0.87212906008E-02  0.13852524337E+00  0.19151380925E-01 0.  0.
         14    1    1    2    0    0 -0.60283743614E-02  0.15949611574E-01 -0.23331728120E-02  0.17209738585E-01  0.00000000000E+00 0.  1.
     999901    1    3    3    0    0 -0.43471119512E-01  0.11170698582E+00  0.11054463413E-01  0.88819501804E+00  0.88000000000E+00 0. -1.
        -11    1    4    4    0    0  0.41109793846E-01 -0.81542959099E-01 -0.38954642378E-02  0.91404075901E-01  0.51100000000E-03 0.  1.
         11    1    4    4    0    0  0.83897000267E-02 -0.46113638290E-01 -0.48258263630E-02  0.47121167472E-01  0.51100000000E-03 0. -1.
</event>
<event>
 8    1  0.1176534E+005  0.1043930E+01  0.7957747E-01            NaN
         13   -1    0    0    0    0  0.00000000000E+00  0.00000000000E+00  0.74505805969E-08  0.10566000000E+00  0.10566000000E+00 0.  1.
     999900   -1    0    0    0    0 -0.00000000000E+00 -0.00000000000E+00 -0.74505805969E-08  0.93827000000E+00  0.93827000000E+00 0. -1.
     999902    2    1    2    0    0  0.80052014475E-03 -0.24987269334E-01  0.95182706280E-02  0.10171792629E+01  0.10168274440E+01 0.  0.
     999903    2    3    3    0    0 -0.81911427545E-02 -0.10051191747E+00 -0.78533020717E-01  0.12952062782E+00  0.20938417175E-01 0.  0.
         14    1    1    2    0    0 -0.80052014475E-03  0.24987269334E-01 -0.95182706280E-02  0.26750737131E-01  0.00000000000E+00 0. -1.
     999901    1    3    3    0    0  0.89916628992E-02  0.75524648135E-01  0.88051291345E-01  0.88765863505E+00  0.88000000000E+00 0.  1.
        -11    1    4    4    0    0  0.63050740267E-02 -0.36818384987E-01 -0.33498087655E-01  0.50176991033E-01  0.51100000000E-03 0. -1.
         11    1    4    4    0    0 -0.14496216781E-01 -0.63693532482E-01 -0.45034933062E-01  0.79343636783E-01  0.51100000000E-03 0.  1.
</event>
<event>
 8    1  0.1176534E+005  0.1043930E+01  0.7957747E-01            NaN
         13   -1    0    0    0    0  0.00000000000E+00  0.00000000000E+00  0.74505805969E-08  0.10566000000E+00  0.10566000000E+00 0.  1.
     999900   -1    0    0    0    0 -0.00000000000E+00 -0.00000000000E+00 -0.74505805969E-08  0.93827000000E+00  0.93827000000E+00 0. -1.
     999902    2    1    2    0    0 -0.21860364243E-01  0.43978677389E-02 -0.87304697629E-02  0.10199834372E+01  0.10197022969E+01 0.  0.
     999903    2    3    3    0    0  0.82229753951E-01  0.85917963342E-01  0.44295751022E-01  0.12852841382E+00  0.20342338645E-01 0.  0.
         14    1    1    2    0    0  0.21860364243E-01 -0.43978677389E-02  0.87304697629E-02  0.23946562755E-01  0.00000000000E+00 0.  1.
     999901    1    3    3    0    0 -0.10409011819E+00 -0.81520095603E-01 -0.53026220785E-01  0.89145502342E+00  0.88000000000E+00 0. -1.
        -11    1    4    4    0    0  0.14710460685E-01  0.88429703953E-02  0.12505077144E-01  0.21242265754E-01  0.51100000000E-03 0.  1.
         11    1    4    4    0    0  0.67519293266E-01  0.77074992947E-01  0.31790673878E-01  0.10728614807E+00  0.51100000000E-03 0. -1.
</event>
<event>
 8    1  0.1176534E+005  0.1043930E+01  0.7957747E-01            NaN
         13   -1    0    0    0    0  0.00000000000E+00  0.00000000000E+00  0.74505805969E-08  0.10566000000E+00  0.10566000000E+00 0.  1.
     999900   -1    0    0    0    0 -0.00000000000E+00 -0.00000000000E+00 -0.74505805969E-08  0.93827000000E+00  0.93827000000E+00 0.  1.
     999902    2    1    2    0    0  0.84419742220E-02 -0.27096528285E-01  0.25439928719E-02  0.10154350764E+01  0.10150351884E+01 0.  0.
     999903    2    3    3    0    0  0.12396027605E+00  0.16763338100E-01 -0.21523006715E-02  0.12678991595E+00  0.20588609592E-01 0.  0.
         14    1    1    2    0    0 -0.84419742220E-02  0.27096528285E-01 -0.25439928719E-02  0.28494923646E-01  0.00000000000E+00 0.  1.
     999901    1    3    3    0    0 -0.11551830183E+00 -0.43859866385E-01  0.46962935434E-02  0.88864516040E+00  0.88000000000E+00 0.  1.
        -11    1    4    4    0    0  0.27424328442E-01 -0.71426315059E-03  0.68217042452E-02  0.28273675603E-01  0.51100000000E-03 0. -1.
         11    1    4    4    0    0  0.96535947611E-01  0.17477601251E-01 -0.89740049167E-02  0.98516240346E-01  0.51100000000E-03 0.  1.
</event>
<event>
 8    1  0.1176534E+005  0.1043930E+01  0.7957747E-01            NaN
         13   -1    0    0    0    0  0.00000000000E+00  0.00000000000E+00  0.74505805969E-08  0.10566000000E+00  0.10566000000E+00 0. -1.
     999900   -1    0    0    0    0 -0.00000000000E+00 -0.00000000000E+00 -0.74505805969E-08  0.93827000000E+00  0.93827000000E+00 0.  1.
     999902    2    1    2    0    0 -0.19836456152E-01  0.10039892401E-01  0.98222519115E-02  0.10196244232E+01  0.10193346866E+01 0.  0.
     999903    2    3    3    0    0  0.63875164555E-02 -0.11805857656E+00  0.50023800920E-01  0.12905545952E+00  0.13202390203E-01 0.  0.
         14    1    1    2    0    0  0.19836456152E-01 -0.10039892401E-01 -0.98222519115E-02  0.24305576823E-01  0.00000000000E+00 0. -1.
     999901    1    3    3    0    0 -0.26223972608E-01  0.12809846896E+00 -0.40201549009E-01  0.89056896366E+00  0.88000000000E+00 0. -1.
        -11    1    4    4    0    0  0.21728054889E-02 -0.29259342359E-01  0.64255659048E-02  0.30039627447E-01  0.51100000000E-03 0. -1.
         11    1    4    4    0    0  0.42147109666E-02 -0.88799234201E-01  0.43598235015E-01  0.99015832071E-01  0.51100000000E-03 0.  1.
</event>
<event>
 8    1  0.1176534E+005  0.1043930E+01  0.7957747E-01            NaN
         13   -1    0    0    0    0  0.00000000000E+00  0.00000000000E+00  0.74505805969E-08  0.10566000000E+00  0.10566000000E+00 0. -1.
     999900   -1    0    0    0    0 -0.00000000000E+00 -0.00000000000E+00 -0.74505805969E-08  0.93827000000E+00  0.93827000000E+00 0.  1.
     999902    2    1    2    0    0  0.10877984806E-01  0.24029667427E-01 -0.67025506688E-03  0.10175443086E+01  0.10172021506E+01 0.  0.
     999903    2    3    3    0    0 -0.99131921289E-01 -0.64040021748E-01 -0.40247785733E-01  0.12545416149E+00  0.13805802227E-01 0.  0.
         14    1    1    2    0    0 -0.10877984806E-01 -0.24029667427E-01  0.67025506688E-03  0.26385691425E-01  0.00000000000E+00 0.  1.
     999901    1    3    3    0    0  0.11000990609E+00  0.88069689175E-01  0.39577530666E-01  0.89209014708E+00  0.88000000000E+00 0.  1.
        -11    1    4    4    0    0 -0.32729687392E-01 -0.14152125851E-01 -0.96898194201E-02  0.36954956694E-01  0.51100000000E-03 0.  1.
         11    1    4    4    0    0 -0.66402233898E-01 -0.49887895897E-01 -0.30557966313E-01  0.88499204798E-01  0.51100000000E-03 0. -1.
</event>
<event>
 8    1  0.1176534E+005  0.1043930E+01  0.7957747E-01            NaN
         13   -1    0    0    0    0  0.00000000000E+00  0.00000000000E+00  0.74505805969E-08  0.10566000000E+00  0.10566000000E+00 0.  1.
     999900   -1    0    0    0    0 -0.00000000000E+00 -0.00000000000E+00 -0.74505805969E-08  0.93827000000E+00  0.93827000000E+00 0. -1.
     999902    2    1    2    0    0  0.23171452395E-01  0.35692694183E-02 -0.43584260756E-02  0.10200835796E+01  0.10198048134E+01 0.  0.
     999903    2    3    3    0    0 -0.86736641875E-01 -0.44946989815E-02 -0.93004921609E-01  0.12879068833E+00  0.19841335507E-01 0.  0.
         14    1    1    2    0    0 -0.23171452395E-01 -0.35692694183E-02  0.43584260756E-02  0.23846420447E-01  0.00000000000E+00 0.  1.
     999901    1    3    3    0    0  0.10990809427E+00  0.80639683997E-02  0.88646495533E-01  0.89129289122E+00  0.88000000000E+00 0.  1.
        -11    1    4    4    0    0 -0.50558498519E-01 -0.12074023064E-01 -0.57894049996E-01  0.77806978809E-01  0.51100000000E-03 0. -1.
         11    1    4    4    0    0 -0.36178143356E-01  0.75793240830E-02 -0.35110871613E-01  0.50983709522E-01  0.51100000000E-03 0.  1.
</event>
<event>
 8    1  0.1176534E+005  0.1043930E+01  0.7957747E-01            NaN
         13   -1    0    0    0    0  0.00000000000E+00  0.00000000000E+00  0.74505805969E-08  0.10566000000E+00  0.10566000000E+00 0.  1.
     999900   -1    0    0    0    0 -0.00000000000E+00 -0.00000000000E+00 -0.74505805969E-08  0.93827000000E+00  0.93827000000E+00 0.  1.
     999902    2    1    2    0    0 -0.11026525704E-01 -0.95280800319E-02 -0.18168057635E-01  0.10206395106E+01  0.10203737373E+01 0.  0.
     999903    2    3    3    0    0 -0.60508208639E-01 -0.61825258558E-01 -0.10029970401E+00  0.13388755026E+00  0.19550948387E-01 0.  0.
         14    1    1    2    0    0  0.11026525704E-01  0.95280800319E-02  0.18168057635E-01  0.23290489398E-01  0.00000000000E+00 0.  1.
     999901    1    3    3    0    0  0.49481682936E-01  0.52297178526E-01  0.82131646374E-01  0.88675196034E+00  0.88000000000E+00 0. -1.
        -11    1    4    4    0    0 -0.47250489590E-01 -0.39546946510E-01 -0.79871043765E-01  0.10087722487E+00  0.51100000000E-03 0. -1.
         11    1    4    4    0    0 -0.13257719049E-01 -0.22278312048E-01 -0.20428660243E-01  0.33010325391E-01  0.51100000000E-03 0.  1.
</event>
<event>
 8    1  0.1176534E+005  0.1043930E+01  0.7957747E-01            NaN
         13   -1    0    0    0    0  0.00000000000E+00  0.00000000000E+00  0.74505805969E-08  0.10566000000E+00  0.10566000000E+00 0. -1.
     999900   -1    0    0    0    0 -0.00000000000E+00 -0.00000000000E+00 -0.74505805969E-08  0.93827000000E+00  0.93827000000E+00 0.  1.
     999902    2    1    2    0    0  0.30511748863E-02 -0.23812117517E-01 -0.47771510472E-02  0.10194525046E+01  0.10191586046E+01 0.  0.
     999903    2    3    3    0    0 -0.31668430012E-01  0.28124917575E-01  0.12000344325E+00  0.12845693599E+00  0.17505929353E-01 0.  0.
         14    1    1    2    0    0 -0.30511748863E-02  0.23812117517E-01  0.47771510472E-02  0.24477495398E-01  0.00000000000E+00 0.  1.
     999901    1    3    3    0    0  0.34719604898E-01 -0.51937035091E-01 -0.12478059430E+00  0.89099556862E+00  0.88000000000E+00 0.  1.
        -11    1    4    4    0    0 -0.90437230626E-02  0.67396122841E-02  0.14055838635E-01  0.18028838601E-01  0.51100000000E-03 0.  1.
         11    1    4    4    0    0 -0.22624706950E-01  0.21385305291E-01  0.10594760462E+00  0.11042809739E+00  0.51100000000E-03 0. -1.
</event>
<event>
 8    1  0.1176534E+005  0.1043930E+01  0.7957747E-01            NaN
         13   -1    0    0    0    0  0.00000000000E+00  0.00000000000E+00  0.74505805969E-08  0.10566000000E+00  0.10566000000E+00 0. -1.
     999900   -1    0    0    0    0 -0.00000000000E+00 -0.00000000000E+00 -0.74505805969E-08  0.93827000000E+00  0.93827000000E+00 0.  1.
     999902    2    1    2    0    0  0.88053933479E-02 -0.10457359263E-01 -0.23476752004E-01  0.10167629391E+01  0.10163999336E+01 0.  0.
     999903    2    3    3    0    0 -0.93803945268E-01  0.51348101861E-01  0.60731827262E-01  0.12466447129E+00  0.20422239040E-01 0.  0.
         14    1    1    2    0    0 -0.88053933479E-02  0.10457359263E-01  0.23476752004E-01  0.27167060927E-01  0.00000000000E+00 0. -1.
     999901    1    3    3    0    0  0.10260933862E+00 -0.61805461124E-01 -0.84208579266E-01  0.89209846778E+00  0.88000000000E+00 0.  1.
        -11    1    4    4    0    0 -0.34002563023E-01  0.14323407444E-01  0.31418795270E-01  0.48463760792E-01  0.51100000000E-03 0.  1.
         11    1    4    4    0    0 -0.59801382245E-01  0.37024694417E-01  0.29313031992E-01  0.76200710500E-01  0.51100000000E-03 0. -1.
</event>
<event>
 8    1  0.1176534E+005  0.1043930E+01  0.7957747E-01            NaN
         13   -1    0    0    0    0  0.00000000000E+00  0.00000000000E+00  0.74505805969E-08  0.10566000000E+00  0.10566000000E+00 0.  1.
     999900   -1    0    0    0    0 -0.00000000000E+00 -0.00000000000E+00 -0.74505805969E-08  0.93827000000E+00  0.93827000000E+00 0. -1.
     999902    2    1    2    0    0 -0.15908762094E-01 -0.15472084875E-01  0.97711678341E-02  0.10196823229E+01  0.10193939817E+01 0.  0.
     999903    2    3    3    0    0  0.32211889981E-01 -0.65413505724E-01  0.10768385346E+00  0.13154008395E+00  0.19759777387E-01 0.  0.
         14    1    1    2    0    0  0.15908762094E-01  0.15472084875E-01 -0.97711678341E-02  0.24247677056E-01  0.00000000000E+00 0. -1.
     999901    1    3    3    0    0 -0.48120652075E-01  0.49941420849E-01 -0.97912685629E-01  0.88814223899E+00  0.88000000000E+00 0. -1.
        -11    1    4    4    0    0  0.14386575417E-01 -0.28698838818E-01  0.30789459240E-01  0.44484253653E-01  0.51100000000E-03 0.  1.
         11    1    4    4    0    0  0.17825314563E-01 -0.36714666906E-01  0.76894394223E-01  0.87055830300E-01  0.51100000000E-03 0. -1.
</event>
<event>
 8    1  0.1176534E+005  0.1043930E+01  0.7957747E-01            NaN
         13   -1    0    0    0    0  0.00000000000E+00  0.00000000000E+00  0.74505805969E-08  0.10566000000E+00  0.10566000000E+00 0. -1.
     999900   -1    0    0    0    0 -0.00000000000E+00 -0.00000000000E+00 -0.74505805969E-08  0.93827000000E+00  0.93827000000E+00 0.  1.
     999902    2    1    2    0    0  0.13816033066E-01  0.14939606205E-01 -0.14194197685E-01  0.10191197229E+01  0.10188176774E+01 0.  0.
     999903    2    3    3    0    0  0.40844249378E-01 -0.11853075672E+00 -0.20286084415E-01  0.12862437008E+00  0.20369348569E-01 0.  0.
         14    1    1    2    0    0 -0.13816033066E-01 -0.14939606205E-01  0.14194197685E-01  0.24810277128E-01  0.00000000000E+00 0.  1.
     999901    1    3    3    0    0 -0.27028216312E-01  0.13347036293E+00  0.60918867300E-02  0.89049535279E+00  0.88000000000E+00 0.  1.
        -11    1    4    4    0    0  0.16021907849E-01 -0.62150169372E-01 -0.14370056283E-02  0.64200242914E-01  0.51100000000E-03 0.  1.
         11    1    4    4    0    0  0.24822341529E-01 -0.56380587352E-01 -0.18849078787E-01  0.64424127167E-01  0.51100000000E-03 0. -1.
</event>
<event>
 8    1  0.1176534E+005  0.1043930E+01  0.7957747E-01            NaN
         13   -1    0    0    0    0  0.00000000000E+00  0.00000000000E+00  0.74505805969E-08  0.10566000000E+00  0.10566000000E+00 0. -1.
     999900   -1    0    0    0    0 -0.00000000000E+00 -0.00000000000E+00 -0.74505805969E-08  0.93827000000E+00  0.93827000000E+00 0. -1.
     999902    2    1    2    0    0  0.18322420753E-01 -0.14342629471E-01 -0.11970457569E-02  0.10206307502E+01  0.10203647746E+01 0.  0.
     999903    2    3    3    0    0 -0.12157434555E+00 -0.37948119532E-01 -0.45276669078E-02  0.12926134450E+00  0.21624387701E-01 0.  0.
         14    1    1    2    0    0 -0.18322420753E-01  0.14342629471E-01  0.11970457569E-02  0.23299249794E-01  0.00000000000E+00 0. -1.
     999901    1    3    3    0    0  0.13989676630E+00  0.23605490061E-01  0.33306211509E-02  0.89136940570E+00  0.88000000000E+00 0. -1.
        -11    1    4    4    0    0 -0.54899983654E-01 -0.79846919718E-02  0.42203851291E-02  0.55640239780E-01  0.51100000000E-03 0.  1.
         11    1    4    4    0    0 -0.66674361897E-01 -0.29963427561E-01 -0.87480520369E-02  0.73621104725E-01  0.51100000000E-03 0. -1.
</event>
<event>
 8    1  0.1176534E+005  0.1043930E+01  0.7957747E-01            NaN
         13   -1    0    0    0    0  0.00000000000E+00  0.00000000000E+00  0.74505805969E-08  0.10566000000E+00  0.10566000000E+00 0. -1.
     999900   -1    0    0    0    0 -0.00000000000E+00 -0.00000000000E+00 -0.74505805969E-08  0.93827000000E+00  0.93827000000E+00 0. -1.
     999902    2    1    2    0    0  0.11038602108E-01  0.95265759672E-02  0.18997747319E-01  0.10199817059E+01  0.10197005245E+01 0.  0.
     999903    2    3    3    0    0  0.11195562545E+00  0.59556892250E-01  0.33394598519E-01  0.13268550539E+00  0.20227670339E-01 0.  0.
         14    1    1    2    0    0 -0.11038602108E-01 -0.95265759672E-02 -0.18997747319E-01  0.23948294081E-01  0.00000000000E+00 0.  1.
     999901    1    3    3    0    0 -0.10091702334E+00 -0.50030316283E-01 -0.14396851200E-01  0.88729620053E+00  0.88000000000E+00 0.  1.
        -11    1    4    4    0    0  0.49704666377E-01  0.15429060609E-01  0.11538909115E-01  0.53310574143E-01  0.51100000000E-03 0.  1.
         11    1    4    4    0    0  0.62250959068E-01  0.44127831642E-01  0.21855689404E-01  0.79374931248E-01  0.51100000000E-03 0. -1.
</event>
<event>
 8    1  0.1176534E+005  0.1043930E+01  0.7957747E-01            NaN
         13   -1    0    0    0    0  0.00000000000E+00  0.00000000000E+00  0.74505805969E-08  0.10566000000E+00  0.10566000000E+00 0.  1.
     999900   -1    0    0    0    0 -0.00000000000E+00 -0.00000000000E+00 -0.74505805969E-08  0.93827000000E+00  0.93827000000E+00 0.  1.
     999902    2    1    2    0    0  0.17252121982E-02  0.24021231136E-01 -0.51973724312E-02  0.10192924558E+01  0.10189946526E+01 0.  0.
     999903    2    3    3    0    0 -0.57968679996E-01 -0.11009039297E+00 -0.15190773242E-01  0.12707658703E+00  0.20914992089E-01 0.  0.
         14    1    1    2    0    0 -0.17252121982E-02 -0.24021231136E-01  0.51973724312E-02  0.24637544167E-01  0.00000000000E+00 0.  1.
     999901    1    3    3    0    0  0.59693892194E-01  0.13411162411E+00  0.99934008104E-02  0.89221586880E+00  0.88000000000E+00 0.  1.
        -11    1    4    4    0    0 -0.43505439605E-01 -0.96384936014E-01 -0.86686265191E-02  0.10610459638E+00  0.51100000000E-03 0.  1.
         11    1    4    4    0    0 -0.14463240390E-01 -0.13705456957E-01 -0.65221467225E-02  0.20971990651E-01  0.51100000000E-03 0. -1.
</event>
<event>
 8    1  0.1176534E+005  0.1043930E+01  0.7957747E-01            NaN
         13   -1    0    0    0    0  0.00000000000E+00  0.00000000000E+00  0.74505805969E-08  0.10566000000E+00  0.10566000000E+00 0. -1.
     999900   -1    0    0    0    0 -0.00000000000E+00 -0.00000000000E+00 -0.74505805969E-08  0.93827000000E+00  0.93827000000E+00 0.  1.
     999902    2    1    2    0    0 -0.28550031752E-01 -0.12175547691E-01  0.13598109047E-01  0.10100440613E+01  0.10094754820E+01 0.  0.
     999903    2    3    3    0    0  0.59301028784E-01  0.99494025329E-01  0.15886188594E-01  0.11864452251E+00  0.20210854575E-01 0.  0.
         14    1    1    2    0    0  0.28550031752E-01  0.12175547691E-01 -0.13598109047E-01  0.33885938740E-01  0.00000000000E+00 0.  1.
     999901    1    3    3    0    0 -0.87851060536E-01 -0.11166957302E+00 -0.22880795472E-02  0.89139953875E+00  0.88000000000E+00 0.  1.
        -11    1    4    4    0    0  0.20447906986E-01  0.17854541408E-01  0.29969252225E-02  0.27315640772E-01  0.51100000000E-03 0. -1.
         11    1    4    4    0    0  0.38853121799E-01  0.81639483921E-01  0.12889263371E-01  0.91328881738E-01  0.51100000000E-03 0.  1.
</event>
<event>
 8    1  0.1176534E+005  0.1043930E+01  0.7957747E-01            NaN
         13   -1    0    0    0    0  0.00000000000E+00  0.00000000000E+00  0.74505805969E-08  0.10566000000E+00  0.10566000000E+00 0.  1.
     999900   -1    0    0    0    0 -0.00000000000E+00 -0.00000000000E+00 -0.74505805969E-08  0.93827000000E+00  0.93827000000E+00 0.  1.
     999902    2    1    2    0    0  0.20274373674E-01  0.74639990283E-02  0.10927288810E-01  0.10197191109E+01  0.10194316544E+01 0.  0.
     999903    2    3    3    0    0  0.13961762712E-01  0.11305395964E+00  0.63056489127E-01  0.13185282461E+00  0.20806679881E-01 0.  0.
         14    1    1    2    0    0 -0.20274373674E-01 -0.74639990283E-02 -0.10927288810E-01  0.24210889082E-01  0.00000000000E+00 0. -1.
     999901    1    3    3    0    0  0.63126109624E-02 -0.10558996061E+00 -0.52129200317E-01  0.88786628631E+00  0.88000000000E+00 0. -1.
        -11    1    4    4    0    0  0.12195554452E-01  0.73320892461E-01  0.51515730317E-01  0.90436808937E-01  0.51100000000E-03 0.  1.
         11    1    4    4    0    0  0.17662082598E-02  0.39733067181E-01  0.11540758810E-01  0.41416015672E-01  0.51100000000E-03 0. -1.
</event>
<event>
 8    1  0.1176534E+005  0.1043930E+01  0.7957747E-01            NaN
         13   -1    0    0    0    0  0.00000000000E+00  0.00000000000E+00  0.74505805969E-08  0.10566000000E+00  0.10566000000E+00 0. -1.
     999900   -1    0    0    0    0 -0.00000000000E+00 -0.00000000000E+00 -0.74505805969E-08  0.93827000000E+00  0.93827000000E+00 0.  1.
     999902    2    1    2    0    0 -0.78275941280E-04  0.19050431669E-01  0.13807080177E-01  0.10204021328E+01  0.10201308504E+01 0.  0.
     999903    2    3    3    0    0 -0.50458433048E-01 -0.25470339012E-01 -0.11374482370E+00  0.12866800902E+00  0.20561614568E-01 0.  0.
         14    1    1    2    0    0  0.78275941280E-04 -0.19050431669E-01 -0.13807080177E-01  0.23527867241E-01  0.00000000000E+00 0.  1.
     999901    1    3    3    0    0  0.50380157107E-01  0.44520770681E-01  0.12755190387E+00  0.89173412374E+00  0.88000000000E+00 0. -1.
        -11    1    4    4    0    0 -0.18440809745E-01 -0.10199989752E-01 -0.65329203074E-01  0.68645969658E-01  0.51100000000E-03 0.  1.
         11    1    4    4    0    0 -0.32017623303E-01 -0.15270349260E-01 -0.48415620621E-01  0.60022039366E-01  0.51100000000E-03 0. -1.
</event>
<event>
 8    1  0.1176534E+005  0.1043930E+01  0.7957747E-01            NaN
         13   -1    0    0    0    0  0.00000000000E+00  0.00000000000E+00  0.74505805969E-08  0.10566000000E+00  0.10566000000E+00 0. -1.
     999900   -1    0    0    0    0 -0.00000000000E+00 -0.00000000000E+00 -0.74505805969E-08  0.93827000000E+00  0.93827000000E+00 0. -1.
     999902    2    1    2    0    0  0.13511039106E-01  0.17894889783E-01 -0.81414144991E-02  0.10200750657E+01  0.10197960982E+01 0.  0.
     999903    2    3    3    0    0 -0.55472994564E-01  0.65104496595E-01 -0.97979472141E-01  0.13156033853E+00  0.19806491649E-01 0.  0.
         14    1    1    2    0    0 -0.13511039106E-01 -0.17894889783E-01  0.81414144991E-02  0.23854934251E-01  0.00000000000E+00 0. -1.
     999901    1    3    3    0    0  0.68984033670E-01 -0.47209606812E-01  0.89838057642E-01  0.88851472721E+00  0.88000000000E+00 0.  1.
        -11    1    4    4    0    0 -0.34996323141E-01  0.53390113967E-01 -0.76642969295E-01  0.99747946175E-01  0.51100000000E-03 0. -1.
         11    1    4    4    0    0 -0.20476671423E-01  0.11714382628E-01 -0.21336502846E-01  0.31812392360E-01  0.51100000000E-03 0.  1.
</event>
<event>
 8    1  0.1176534E+005  0.1043930E+01  0.7957747E-01            NaN
         13   -1    0    0    0    0  0.00000000000E+00  0.00000000000E+00  0.74505805969E-08  0.10566000000E+00  0.10566000000E+00 0.  1.
     999900   -1    0    0    0    0 -0.00000000000E+00 -0.00000000000E+00 -0.74505805969E-08  0.93827000000E+00  0.93827000000E+00 0.  1.
     999902    2    1    2    0    0 -0.18280813825E-01 -0.95461007782E-02  0.11387080654E-01  0.10203719483E+01  0.10200999613E+01 0.  0.
     999903    2    3    3    0    0 -0.12535869614E+00  0.60586247514E-02 -0.37510323044E-01  0.13239664660E+00  0.19244169617E-01 0.  0.
         14    1    1    2    0    0  0.18280813825E-01  0.95461007782E-02 -0.11387080654E-01  0.23558051702E-01  0.00000000000E+00 0. -1.
     999901    1    3    3    0    0  0.10707788231E+00 -0.15604725530E-01  0.48897403698E-01  0.88797530170E+00  0.88000000000E+00 0. -1.
        -11    1    4    4    0    0 -0.72771674895E-01 -0.11225392816E-02 -0.30276956231E-01  0.78828497139E-01  0.51100000000E-03 0. -1.
         11    1    4    4    0    0 -0.52587021244E-01  0.71811640330E-02 -0.72333668127E-02  0.53568149460E-01  0.51100000000E-03 0.  1.
</event>
<event>
 8    1  0.1176534E+005  0.1043930E+01  0.7957747E-01            NaN
         13   -1    0    0    0    0  0.00000000000E+00  0.00000000000E+00  0.74505805969E-08  0.10566000000E+00  0.10566000000E+00 0.  1.
     999900   -1    0    0    0    0 -0.00000000000E+00 -0.00000000000E+00 -0.74505805969E-08  0.93827000000E+00  0.93827000000E+00 0. -1.
     999902    2    1    2    0    0  0.13352535479E-01  0.99264017988E-02  0.17711350912E-01  0.10196294731E+01  0.10193398583E+01 0.  0.
     999903    2    3    3    0    0  0.25255968190E-01  0.35368867020E-01 -0.11933954813E+00  0.12857843098E+00  0.20041568848E-01 0.  0.
         14    1    1    2    0    0 -0.13352535479E-01 -0.99264017988E-02 -0.17711350912E-01  0.24300526898E-01  0.00000000000E+00 0.  1.
     999901    1    3    3    0    0 -0.11903432711E-01 -0.25442465221E-01  0.13705089904E+00  0.89105104213E+00  0.88000000000E+00 0.  1.
        -11    1    4    4    0    0  0.10082605134E-01  0.16375947017E-01 -0.27407985433E-01  0.33485658922E-01  0.51100000000E-03 0.  1.
         11    1    4    4    0    0  0.15173363055E-01  0.18992920003E-01 -0.91931562693E-01  0.95092772053E-01  0.51100000000E-03 0. -1.
</event>
<event>
 8    1  0.1176534E+005  0.1043930E+01  0.7957747E-01            NaN
         13   -1    0    0    0    0  0.00000000000E+00  0.00000000000E+00  0.74505805969E-08  0.10566000000E+00  0.10566000000E+00 0. -1.
     999900   -1    0    0    0    0 -0.00000000000E+00 -0.00000000000E+00 -0.74505805969E-08  0.93827000000E+00  0.93827000000E+00 0.  1.
     999902    2    1    2    0    0 -0.17144717166E-01 -0.58892937183E-02  0.15019734924E-01  0.10203881746E+01  0.10201165665E+01 0.  0.
     999903    2    3    3    0    0  0.53061300568E-01  0.11252356890E+00 -0.25989996241E-01  0.12874234297E+00  0.20543996532E-01 0.  0.
         14    1    1    2    0    0  0.17144717166E-01  0.58892937183E-02 -0.15019734924E-01  0.23541825426E-01  0.00000000000E+00 0.  1.
     999901    1    3    3    0    0 -0.70206017734E-01 -0.11841286262E+00  0.41009731164E-01  0.89164583160E+00  0.88000000000E+00 0.  1.
        -11    1    4    4    0    0  0.12930570838E-01  0.46538819211E-01 -0.41517992846E-02  0.48482573303E-01  0.51100000000E-03 0.  1.
         11    1    4    4    0    0  0.40130729729E-01  0.65984749691E-01 -0.21838196956E-01  0.80259769671E-01  0.51100000000E-03 0. -1.
</event>
<event>
 8    1  0.1176534E+005  0.1043930E+01  0.7957747E-01            NaN
         13   -1    0    0    0    0  0.00000000000E+00  0.00000000000E+00  0.74505805969E-08  0.10566000000E+00  0.10566000000E+00 0.  1.
     999900   -1    0    0    0    0 -0.00000000000E+00 -0.00000000000E+00 -0.74505805969E-08  0.93827000000E+00  0.93827000000E+00 0. -1.
     999902    2    1    2    0    0  0.22266158335E-01  0.96429966204E-02 -0.39631678164E-02  0.10193439086E+01  0.10190473630E+01 0.  0.
     999903    2    3    3    0    0  0.90446960623E-01  0.15367921680E-01  0.92215249165E-01  0.13146346369E+00  0.19030617567E-01 0.  0.
         14    1    1    2    0    0 -0.22266158335E-01 -0.96429966204E-02  0.39631678164E-02  0.24586091393E-01  0.00000000000E+00 0.  1.
     999901    1    3    3    0    0 -0.68180802288E-01 -0.57249250592E-02 -0.96178416981E-01  0.88788044491E+00  0.88000000000E+00 0. -1.
        -11    1    4    4    0    0  0.33391255095E-01  0.41961176226E-02  0.47006248056E-01  0.57813768232E-01  0.51100000000E-03 0. -1.
         11    1    4    4    0    0  0.57055705529E-01  0.11171804057E-01  0.45209001109E-01  0.73649695461E-01  0.51100000000E-03 0.  1.
</event>
<event>
 8    1  0.1176534E+005  0.1043930E+01  0.7957747E-01            NaN
         13   -1    0    0    0    0  0.00000000000E+00  0.00000000000E+00  0.74505805969E-08  0.10566000000E+00  0.10566000000E+00 0.  1.
     999900   -1    0    0    0    0 -0.00000000000E+00 -0.00000000000E+00 -0.74505805969E-08  0.93827000000E+00  0.93827000000E+00 0. -1.
     999902    2    1    2    0    0  0.10609506082E-01  0.15815672999E-02 -0.19880738098E-01  0.10213400305E+01  0.10210901778E+01 0.  0.
     999903    2    3    3    0    0  0.28918749767E-01  0.94588269958E-01 -0.87611745592E-01  0.13366161772E+00  0.20158749585E-01 0.  0.
         14    1    1    2    0    0 -0.10609506082E-01 -0.15815672999E-02  0.19880738098E-01  0.22589969495E-01  0.00000000000E+00 0.  1.
     999901    1    3    3    0    0 -0.18309243684E-01 -0.93006702658E-01  0.67731007494E-01  0.88767841278E+00  0.88000000000E+00 0.  1.
        -11    1    4    4    0    0  0.94783412781E-02  0.12194494454E-01 -0.20257253629E-01  0.25478659580E-01  0.51100000000E-03 0. -1.
         11    1    4    4    0    0  0.19440408489E-01  0.82393775504E-01 -0.67354491963E-01  0.10818295814E+00  0.51100000000E-03 0.  1.
</event>
<event>
 8    1  0.1176534E+005  0.1043930E+01  0.7957747E-01            NaN
         13   -1    0    0    0    0  0.00000000000E+00  0.00000000000E+00  0.74505805969E-08  0.10566000000E+00  0.10566000000E+00 0. -1.
     999900   -1    0    0    0    0 -0.00000000000E+00 -0.00000000000E+00 -0.74505805969E-08  0.93827000000E+00  0.93827000000E+00 0. -1.
     999902    2    1    2    0    0  0.23316205771E-01  0.37153188160E-02 -0.25221679214E-02  0.10201853085E+01  0.10199089436E+01 0.  0.
     999903    2    3    3    0    0 -0.16275412142E-02  0.12641080163E+00  0.26909678504E-01  0.13083576772E+00  0.20286144531E-01 0.  0.
         14    1    1    2    0    0 -0.23316205771E-01 -0.37153188160E-02  0.25221679214E-02  0.23744691544E-01  0.00000000000E+00 0.  1.
     999901    1    3    3    0    0  0.24943746986E-01 -0.12269548281E+00 -0.29431846426E-01  0.88934954073E+00  0.88000000000E+00 0.  1.
        -11    1    4    4    0    0  0.28039716182E-02  0.95821561515E-01  0.28108092876E-01  0.99899749319E-01  0.51100000000E-03 0.  1.
         11    1    4    4    0    0 -0.44315128324E-02  0.30589240114E-01 -0.11984143713E-02  0.30936018405E-01  0.51100000000E-03 0. -1.
</event>
<event>
 8    1  0.1176534E+005  0.1043930E+01  0.7957747E-01            NaN
         13   -1    0    0    0    0  0.00000000000E+00  0.00000000000E+00  0.74505805969E-08  0.10566000000E+00  0.10566000000E+00 0. -1.
     999900   -1    0    0    0    0 -0.00000000000E+00 -0.00000000000E+00 -0.74505805969E-08  0.93827000000E+00  0.93827000000E+00 0. -1.
     999902    2    1    2    0    0  0.17836760553E-01  0.12724536119E-01  0.80211230728E-02  0.10205975706E+01  0.10203308281E+01 0.  0.
     999903    2    3    3    0    0  0.25099474502E-01  0.30450871187E-01  0.12497144704E+00  0.13265368259E+00  0.20540149813E-01 0.  0.
         14    1    1    2    0    0 -0.17836760553E-01 -0.12724536119E-01 -0.80211230728E-02  0.23332429403E-01  0.00000000000E+00 0.  1.
     999901    1    3    3    0    0 -0.72627139485E-02 -0.17726335068E-01 -0.11695032397E+00  0.88794388800E+00  0.88000000000E+00 0. -1.
        -11    1    4    4    0    0  0.11031495728E-01  0.21220157567E-03  0.27619316712E-01  0.29746036781E-01  0.51100000000E-03 0. -1.
         11    1    4    4    0    0  0.14067978774E-01  0.30238669612E-01  0.97352130325E-01  0.10290764581E+00  0.51100000000E-03 0.  1.
</event>
<event>
 8    1  0.1176534E+005  0.1043930E+01  0.7957747E-01            NaN
         13   -1    0    0    0    0  0.00000000000E+00  0.00000000000E+00  0.74505805969E-08  0.10566000000E+00  0.10566000000E+00 0. -1.
     999900   -1    0    0    0    0 -0.00000000000E+00 -0.00000000000E+00 -0.74505805969E-08  0.93827000000E+00  0.93827000000E+00 0.  1.
     999902    2    1    2    0    0 -0.11848124309E-01 -0.14106792659E-01  0.11411397351E-01  0.10222597522E+01  0.10220300394E+01 0.  0.
     999903    2    3    3    0    0 -0.62602580764E-01 -0.11235665475E+00 -0.32474195791E-01  0.13425356107E+00  0.20648106043E-01 0.  0.
         14    1    1    2    0    0  0.11848124309E-01  0.14106792659E-01 -0.11411397351E-01  0.21670247767E-01  0.00000000000E+00 0. -1.
     999901    1    3    3    0    0  0.50754456456E-01  0.98249862093E-01  0.43885593143E-01  0.88800619116E+00  0.88000000000E+00 0. -1.
        -11    1    4    4    0    0 -0.51206034926E-01 -0.76256679085E-01 -0.28556102159E-01  0.96191741898E-01  0.51100000000E-03 0. -1.
         11    1    4    4    0    0 -0.11396545838E-01 -0.36099975668E-01 -0.39180936326E-02  0.38061819176E-01  0.51100000000E-03 0.  1.
</event>
<event>
 8    1  0.1176534E+005  0.1043930E+01  0.7957747E-01            NaN
         13   -1    0    0    0    0  0.00000000000E+00  0.00000000000E+00  0.74505805969E-08  0.10566000000E+00  0.10566000000E+00 0. -1.
     999900   -1    0    0    0    0 -0.00000000000E+00 -0.00000000000E+00 -0.74505805969E-08  0.93827000000E+00  0.93827000000E+00 0.  1.
     999902    2    1    2    0    0 -0.18456245126E-01  0.11426990354E-01 -0.10814005563E-01  0.10196781586E+01  0.10193897171E+01 0.  0.
     999903    2    3    3    0    0 -0.54540919605E-01 -0.11228286810E+00 -0.30799595888E-01  0.13006832471E+00  0.19672305565E-01 0.  0.
         14    1    1    2    0    0  0.18456245126E-01 -0.11426990354E-01  0.10814005563E-01  0.24251841354E-01  0.00000000000E+00 0.  1.
     999901    1    3    3    0    0  0.36084674479E-01  0.12370985846E+00  0.19985590325E-01  0.88960983393E+00  0.88000000000E+00 0. -1.
        -11    1    4    4    0    0 -0.26586029532E-01 -0.42350604917E-01 -0.41515793411E-02  0.50178555530E-01  0.51100000000E-03 0.  1.
         11    1    4    4    0    0 -0.27954890074E-01 -0.69932263184E-01 -0.26648016547E-01  0.79889769182E-01  0.51100000000E-03 0. -1.
</event>
<event>
 8    1  0.1176534E+005  0.1043930E+01  0.7957747E-01            NaN
         13   -1    0    0    0    0  0.00000000000E+00  0.00000000000E+00  0.74505805969E-08  0.10566000000E+00  0.10566000000E+00 0.  1.
     999900   -1    0    0    0    0 -0.00000000000E+00 -0.00000000000E+00 -0.74505805969E-08  0.93827000000E+00  0.93827000000E+00 0.  1.
     999902    2    1    2    0    0 -0.79660909287E-02  0.18094557355E-01 -0.11548854955E-01  0.10210335448E+01  0.10207767885E+01 0.  0.
     999903    2    3    3    0    0  0.24941722375E-01 -0.94617764509E-01  0.80801614568E-01  0.12844427704E+00  0.19860022956E-01 0.  0.
         14    1    1    2    0    0  0.79660909287E-02 -0.18094557355E-01  0.11548854955E-01  0.22896455213E-01  0.00000000000E+00 0.  1.
     999901    1    3    3    0    0 -0.32907813304E-01  0.11271232186E+00 -0.92350469523E-01  0.89258926775E+00  0.88000000000E+00 0.  1.
        -11    1    4    4    0    0  0.24698646836E-01 -0.71312403271E-01  0.69249581665E-01  0.10242679189E+00  0.51100000000E-03 0.  1.
         11    1    4    4    0    0  0.24307553863E-03 -0.23305361238E-01  0.11552032903E-01  0.26017485146E-01  0.51100000000E-03 0. -1.
</event>
<event>
 8    1  0.1176534E+005  0.1043930E+01  0.7957747E-01            NaN
         13   -1    0    0    0    0  0.00000000000E+00  0.00000000000E+00  0.74505805969E-08  0.10566000000E+00  0.10566000000E+00 0. -1.
     999900   -1    0    0    0    0 -0.00000000000E+00 -0.00000000000E+00 -0.74505805969E-08  0.93827000000E+00  0.93827000000E+00 0. -1.
     999902    2    1    2    0    0  0.13812283291E-01  0.42811492537E-03  0.19299616617E-01  0.10201931583E+01  0.10199169783E+01 0.  0.
     999903    2    3    3    0    0 -0.56653530948E-01 -0.11430004165E+00 -0.10295103913E-01  0.12946097163E+00  0.19494407449E-01 0.  0.
         14    1    1    2    0    0 -0.13812283291E-01 -0.42811492537E-03 -0.19299616617E-01  0.23736841695E-01  0.00000000000E+00 0. -1.
     999901    1    3    3    0    0  0.70465814239E-01  0.11472815658E+00  0.29594720530E-01  0.89073218667E+00  0.88000000000E+00 0. -1.
        -11    1    4    4    0    0 -0.43484733805E-01 -0.79639852898E-01 -0.15376671404E-01  0.92033316729E-01  0.51100000000E-03 0.  1.
         11    1    4    4    0    0 -0.13168797143E-01 -0.34660188752E-01  0.50815674912E-02  0.37427654905E-01  0.51100000000E-03 0. -1.
</event>
<event>
 8    1  0.1176534E+005  0.1043930E+01  0.7957747E-01            NaN
         13   -1    0    0    0    0  0.00000000000E+00  0.00000000000E+00  0.74505805969E-08  0.10566000000E+00  0.10566000000E+00 0. -1.
     999900   -1    0    0    0    0 -0.00000000000E+00 -0.00000000000E+00 -0.74505805969E-08  0.93827000000E+00  0.93827000000E+00 0. -1.
     999902    2    1    2    0    0  0.20169841189E-01  0.12087205719E-01 -0.33541258038E-02  0.10201776697E+01  0.10199011249E+01 0.  0.
     999903    2    3    3    0    0 -0.23666265266E-01 -0.46308315448E-01 -0.11641230766E+00  0.12994523172E+00  0.25087560270E-01 0.  0.
         14    1    1    2    0    0 -0.20169841189E-01 -0.12087205719E-01  0.33541258038E-02  0.23752330320E-01  0.00000000000E+00 0. -1.
     999901    1    3    3    0    0  0.43836106456E-01  0.58395521168E-01  0.11305818185E+00  0.89023243797E+00  0.88000000000E+00 0.  1.
        -11    1    4    4    0    0 -0.25164523760E-01 -0.38264917301E-01 -0.76195888476E-01  0.88901809283E-01  0.51100000000E-03 0.  1.
         11    1    4    4    0    0  0.14982584935E-02 -0.80433981474E-02 -0.40216419181E-01  0.41043422433E-01  0.51100000000E-03 0. -1.
</event>
<event>
 8    1  0.1176534E+005  0.1043930E+01  0.7957747E-01            NaN
         13   -1    0    0    0    0  0.00000000000E+00  0.00000000000E+00  0.74505805969E-08  0.10566000000E+00  0.10566000000E+00 0.  1.
     999900   -1    0    0    0    0 -0.00000000000E+00 -0.00000000000E+00 -0.74505805969E-08  0.93827000000E+00  0.93827000000E+00 0. -1.
     999902    2    1    2    0    0  0.20013599686E-01  0.13559424769E-01  0.27490446525E-02  0.10195997838E+01  0.10193094524E+01 0.  0.
     999903    2    3    3    0    0  0.47911576018E-01 -0.64629256126E-01  0.99425850803E-01  0.13042141491E+00  0.25530095880E-01 0.  0.
         14    1    1    2    0    0 -0.20013599686E-01 -0.13559424769E-01 -0.27490446525E-02  0.24330216171E-01  0.00000000000E+00 0.  1.
     999901    1    3    3    0    0 -0.27897976332E-01  0.78188680895E-01 -0.96676806150E-01  0.88917836892E+00  0.88000000000E+00 0. -1.
        -11    1    4    4    0    0  0.13182476144E-01 -0.21512824431E-01  0.50846256737E-01  0.56764269021E-01  0.51100000000E-03 0.  1.
         11    1    4    4    0    0  0.34729099873E-01 -0.43116431695E-01  0.48579594066E-01  0.73657145890E-01  0.51100000000E-03 0. -1.
</event>
<event>
 8    1  0.1176534E+005  0.1043930E+01  0.7957747E-01            NaN
         13   -1    0    0    0    0  0.00000000000E+00  0.00000000000E+00  0.74505805969E-08  0.10566000000E+00  0.10566000000E+00 0. -1.
     999900   -1    0    0    0    0 -0.00000000000E+00 -0.00000000000E+00 -0.74505805969E-08  0.93827000000E+00  0.93827000000E+00 0. -1.
     999902    2    1    2    0    0  0.20944789689E-01  0.10258037979E-01 -0.43931102347E-03  0.10206039512E+01  0.10203373563E+01 0.  0.
     999903    2    3    3    0    0 -0.90727408466E-01 -0.68587690634E-01  0.56098760536E-01  0.12825655120E+00  0.19155626798E-01 0.  0.
         14    1    1    2    0    0 -0.20944789689E-01 -0.10258037979E-01  0.43931102347E-03  0.23326048797E-01  0.00000000000E+00 0. -1.
     999901    1    3    3    0    0  0.11167219815E+00  0.78845728613E-01 -0.56538071559E-01  0.89234740001E+00  0.88000000000E+00 0. -1.
        -11    1    4    4    0    0 -0.55993116585E-01 -0.53537725514E-01  0.38391448011E-01  0.86462023800E-01  0.51100000000E-03 0. -1.
         11    1    4    4    0    0 -0.34734291881E-01 -0.15049965119E-01  0.17707312525E-01  0.41794527398E-01  0.51100000000E-03 0.  1.
</event>
<event>
 8    1  0.1176534E+005  0.1043930E+01  0.7957747E-01            NaN
         13   -1    0    0    0    0  0.00000000000E+00  0.00000000000E+00  0.74505805969E-08  0.10566000000E+00  0.10566000000E+00 0. -1.
     999900   -1    0    0    0    0 -0.00000000000E+00 -0.00000000000E+00 -0.74505805969E-08  0.93827000000E+00  0.93827000000E+00 0. -1.
     999902    2    1    2    0    0  0.15063054315E-01 -0.18338621483E-01  0.39166934944E-02  0.10198771180E+01  0.10195934458E+01 0.  0.
     999903    2    3    3    0    0 -0.82618456831E-01  0.86027164682E-01 -0.39621626710E-01  0.12728007554E+00  0.20096314405E-01 0.  0.
         14    1    1    2    0    0 -0.15063054315E-01  0.18338621483E-01 -0.39166934944E-02  0.24052881971E-01  0.00000000000E+00 0.  1.
     999901    1    3    3    0    0  0.97681511147E-01 -0.10436578617E+00  0.43538320204E-01  0.89259704249E+00  0.88000000000E+00 0.  1.
        -11    1    4    4    0    0 -0.64037553465E-01  0.77339250309E-01 -0.31891301923E-01  0.10535408939E+00  0.51100000000E-03 0. -1.
         11    1    4    4    0    0 -0.18580903366E-01  0.86879143730E-02 -0.77303247873E-02  0.21925986144E-01  0.51100000000E-03 0.  1.
</event>
<event>
 8    1  0.1176534E+005  0.1043930E+01  0.7957747E-01            NaN
         13   -1    0    0    0    0  0.00000000000E+00  0.00000000000E+00  0.74505805969E-08  0.10566000000E+00  0.10566000000E+00 0.  1.
     999900   -1    0    0    0    0 -0.00000000000E+00 -0.00000000000E+00 -0.74505805969E-08  0.93827000000E+00  0.93827000000E+00 0. -1.
     999902    2    1    2    0    0 -0.24035134899E-01  0.18125588377E-01  0.73369400045E-03  0.10138174948E+01  0.10133701938E+01 0.  0.
     999903    2    3    3    0    0  0.52457272098E-01  0.75016745509E-01  0.83053633781E-01  0.12484940504E+00  0.17612221683E-01 0.  0.
         14    1    1    2    0    0  0.24035134899E-01 -0.18125588377E-01 -0.73369400045E-03  0.30112505218E-01  0.00000000000E+00 0. -1.
     999901    1    3    3    0    0 -0.76492406998E-01 -0.56891157132E-01 -0.82319939781E-01  0.88896808974E+00  0.88000000000E+00 0.  1.
        -11    1    4    4    0    0  0.24835328413E-01  0.26126421506E-01  0.41619206392E-01  0.55061809812E-01  0.51100000000E-03 0.  1.
         11    1    4    4    0    0  0.27621943685E-01  0.48890324003E-01  0.41434427390E-01  0.69787595231E-01  0.51100000000E-03 0. -1.
</event>
<event>
 8    1  0.1176534E+005  0.1043930E+01  0.7957747E-01            NaN
         13   -1    0    0    0    0  0.00000000000E+00  0.00000000000E+00  0.74505805969E-08  0.10566000000E+00  0.10566000000E+00 0. -1.
     999900   -1    0    0    0    0 -0.00000000000E+00 -0.00000000000E+00 -0.74505805969E-08  0.93827000000E+00  0.93827000000E+00 0.  1.
     999902    2    1    2    0    0 -0.45633093359E-02  0.15984358916E-01  0.15048270880E-01  0.10215073780E+01  0.10212612542E+01 0.  0.
     999903    2    3    3    0    0 -0.25624940377E-02 -0.12153605497E+00  0.41845182914E-01  0.13042155607E+00  0.21935904878E-01 0.  0.
         14    1    1    2    0    0  0.45633093359E-02 -0.15984358916E-01 -0.15048270880E-01  0.22422622026E-01  0.00000000000E+00 0.  1.
     999901    1    3    3    0    0 -0.20008152982E-02  0.13752041388E+00 -0.26796912034E-01  0.89108582190E+00  0.88000000000E+00 0. -1.
        -11    1    4    4    0    0 -0.12316212574E-02 -0.72044594799E-01  0.13311867651E-01  0.73276240843E-01  0.51100000000E-03 0.  1.
         11    1    4    4    0    0 -0.13308727803E-02 -0.49491460169E-01  0.28533315263E-01  0.57145315231E-01  0.51100000000E-03 0. -1.
</event>
<event>
 8    1  0.1176534E+005  0.1043930E+01  0.7957747E-01            NaN
         13   -1    0    0    0    0  0.00000000000E+00  0.00000000000E+00  0.74505805969E-08  0.10566000000E+00  0.10566000000E+00 0.  1.
     999900   -1    0    0    0    0 -0.00000000000E+00 -0.00000000000E+00 -0.74505805969E-08  0.93827000000E+00  0.93827000000E+00 0. -1.
     999902    2    1    2    0    0 -0.23844684762E-01  0.61442766719E-02 -0.16567536806E-02  0.10192507383E+01  0.10189519132E+01 0.  0.
     999903    2    3    3    0    0 -0.86363088203E-01  0.66653047375E-01 -0.71874858715E-01  0.13217664644E+00  0.20086284408E-01 0.  0.
         14    1    1    2    0    0  0.23844684762E-01 -0.61442766719E-02  0.16567536806E-02  0.24679261739E-01  0.00000000000E+00 0. -1.
     999901    1    3    3    0    0  0.62518403441E-01 -0.60508770703E-01  0.70218105034E-01  0.88707409182E+00  0.88000000000E+00 0. -1.
        -11    1    4    4    0    0 -0.37513864889E-01  0.17348780201E-01 -0.23172324208E-01  0.47386579994E-01  0.51100000000E-03 0. -1.
         11    1    4    4    0    0 -0.48849223314E-01  0.49304267174E-01 -0.48702534507E-01  0.84790066448E-01  0.51100000000E-03 0.  1.
</event>
<event>
 8    1  0.1176534E+005  0.1043930E+01  0.7957747E-01            NaN
         13   -1    0    0    0    0  0.00000000000E+00  0.00000000000E+00  0.74505805969E-08  0.10566000000E+00  0.10566000000E+00 0. -1.
     999900   -1    0    0    0    0 -0.00000000000E+00 -0.00000000000E+00 -0.74505805969E-08  0.93827000000E+00  0.93827000000E+00 0.  1.
     999902    2    1    2    0    0  0.34124103660E-02  0.91341684072E-02  0.22372104498E-01  0.10195253153E+01  0.10192331823E+01 0.  0.
     999903    2    3    3    0    0  0.51893618084E-01 -0.11417418087E+00 -0.20136769393E-01  0.12859188293E+00  0.20042247868E-01 0.  0.
         14    1    1    2    0    0 -0.34124103660E-02 -0.91341684072E-02 -0.22372104498E-01  0.24404684728E-01  0.00000000000E+00 0.  1.
     999901    1    3    3    0    0 -0.48481207718E-01  0.12330834927E+00  0.42508873891E-01  0.89093343234E+00  0.88000000000E+00 0.  1.
        -11    1    4    4    0    0  0.36677824691E-01 -0.98161128919E-01 -0.14503152059E-01  0.10578975657E+00  0.51100000000E-03 0. -1.
         11    1    4    4    0    0  0.15215793393E-01 -0.16013051948E-01 -0.56336173336E-02  0.22802126360E-01  0.51100000000E-03 0.  1.
</event>
<event>
 8    1  0.1176534E+005  0.1043930E+01  0.7957747E-01            NaN
         13   -1    0    0    0    0  0.00000000000E+00  0.00000000000E+00  0.74505805969E-08  0.10566000000E+00  0.10566000000E+00 0.  1.
     999900   -1    0    0    0    0 -0.00000000000E+00 -0.00000000000E+00 -0.74505805969E-08  0.93827000000E+00  0.93827000000E+00 0. -1.
     999902    2    1    2    0    0 -0.37215006320E-02  0.21396136238E-01  0.82129184125E-02  0.10207115538E+01  0.10204474410E+01 0.  0.
     999903    2    3    3    0    0  0.66059615645E-01  0.82370021912E-01  0.78566222962E-01  0.13305350799E+00  0.19542038478E-01 0.  0.
         14    1    1    2    0    0  0.37215006320E-02 -0.21396136238E-01 -0.82129184125E-02  0.23218446152E-01  0.00000000000E+00 0.  1.
     999901    1    3    3    0    0 -0.69781116277E-01 -0.60973885674E-01 -0.70353304550E-01  0.88765804586E+00  0.88000000000E+00 0. -1.
        -11    1    4    4    0    0  0.34780667015E-01  0.45323243805E-01  0.54349245101E-01  0.78854250304E-01  0.51100000000E-03 0. -1.
         11    1    4    4    0    0  0.31278948629E-01  0.37046778108E-01  0.24216977861E-01  0.54199257681E-01  0.51100000000E-03 0.  1.
</event>
<event>
 8    1  0.1228090E+005  0.1043930E+01  0.7957747E-01            NaN
         13   -1    0    0    0    0  0.00000000000E+00  0.00000000000E+00  0.74505805969E-08  0.10566000000E+00  0.10566000000E+00 0. -1.
     999900   -1    0    0    0    0 -0.00000000000E+00 -0.00000000000E+00 -0.74505805969E-08  0.93827000000E+00  0.93827000000E+00 0.  1.
     999902    2    1    2    0    0  0.10898085329E-01 -0.12003119055E-01 -0.17608650186E-01  0.10199945098E+01  0.10197136325E+01 0.  0.
     999903    2    3    3    0    0  0.44369398201E-01  0.65392165842E-01 -0.10371788820E+00  0.13177991871E+00  0.19072697576E-01 0.  0.
         14    1    1    2    0    0 -0.10898085329E-01  0.12003119055E-01  0.17608650186E-01  0.23935490224E-01  0.00000000000E+00 0.  1.
     999901    1    3    3    0    0 -0.33471312872E-01 -0.77395284897E-01  0.86109238013E-01  0.88821459107E+00  0.88000000000E+00 0.  1.
        -11    1    4    4    0    0  0.20378042097E-01  0.46432304095E-01 -0.64590789716E-01  0.82118540540E-01  0.51100000000E-03 0.  1.
         11    1    4    4    0    0  0.23991356103E-01  0.18959861747E-01 -0.39127098484E-01  0.49661378171E-01  0.51100000000E-03 0. -1.
</event>
<event>
 8    1  0.1176534E+005  0.1043930E+01  0.7957747E-01            NaN
         13   -1    0    0    0    0  0.00000000000E+00  0.00000000000E+00  0.74505805969E-08  0.10566000000E+00  0.10566000000E+00 0. -1.
     999900   -1    0    0    0    0 -0.00000000000E+00 -0.00000000000E+00 -0.74505805969E-08  0.93827000000E+00  0.93827000000E+00 0. -1.
     999902    2    1    2    0    0  0.14439475069E-01 -0.12745479478E-01  0.12684017779E-01  0.10208685604E+01  0.10206080480E+01 0.  0.
     999903    2    3    3    0    0 -0.45024227797E-01  0.11668167856E+00  0.25918141988E-01  0.12931796556E+00  0.20238352989E-01 0.  0.
         14    1    1    2    0    0 -0.14439475069E-01  0.12745479478E-01 -0.12684017779E-01  0.23061439557E-01  0.00000000000E+00 0.  1.
     999901    1    3    3    0    0  0.59463702866E-01 -0.12942715804E+00 -0.13234124208E-01  0.89155059489E+00  0.88000000000E+00 0. -1.
        -11    1    4    4    0    0 -0.39771971358E-01  0.77078694096E-01  0.18261101017E-01  0.88637823307E-01  0.51100000000E-03 0. -1.
         11    1    4    4    0    0 -0.52522564393E-02  0.39602984464E-01  0.76570409708E-02  0.40680142252E-01  0.51100000000E-03 0.  1.
</event>
<event>
 8    1  0.1176534E+005  0.1043930E+01  0.7957747E-01            NaN
         13   -1    0    0    0    0  0.00000000000E+00  0.00000000000E+00  0.74505805969E-08  0.10566000000E+00  0.10566000000E+00 0. -1.
     999900   -1    0    0    0    0 -0.00000000000E+00 -0.00000000000E+00 -0.74505805969E-08  0.93827000000E+00  0.93827000000E+00 0. -1.
     999902    2    1    2    0    0 -0.23519668232E-01  0.40963818026E-03 -0.17005527348E-02  0.10203453763E+01  0.10200727682E+01 0.  0.
     999903    2    3    3    0    0 -0.52795113206E-01 -0.11563518138E+00 -0.28614359272E-01  0.13183662290E+00  0.20082191826E-01 0.  0.
         14    1    1    2    0    0  0.23519668232E-01 -0.40963818026E-03  0.17005527348E-02  0.23584623737E-01  0.00000000000E+00 0. -1.
     999901    1    3    3    0    0  0.29275444974E-01  0.11604481956E+00  0.26913806538E-01  0.88850875337E+00  0.88000000000E+00 0.  1.
        -11    1    4    4    0    0 -0.26121541673E-01 -0.43583979810E-01 -0.32195914070E-02  0.50916845201E-01  0.51100000000E-03 0. -1.
         11    1    4    4    0    0 -0.26673571533E-01 -0.72051201573E-01 -0.25394767865E-01  0.80919777696E-01  0.51100000000E-03 0.  1.
</event>
<event>
 8    1  0.1176534E+005  0.1043930E+01  0.7957747E-01            NaN
         13   -1    0    0    0    0  0.00000000000E+00  0.00000000000E+00  0.74505805969E-08  0.10566000000E+00  0.10566000000E+00 0. -1.
     999900   -1    0    0    0    0 -0.00000000000E+00 -0.00000000000E+00 -0.74505805969E-08  0.93827000000E+00  0.93827000000E+00 0.  1.
     999902    2    1    2    0    0  0.12125618659E-01 -0.57629335057E-02  0.19302195282E-01  0.10204179441E+01  0.10201470305E+01 0.  0.
     999903    2    3    3    0    0  0.11246443201E+00  0.64871629739E-01 -0.76051599061E-02  0.13149661756E+00  0.19415075622E-01 0.  0.
         14    1    1    2    0    0 -0.12125618659E-01  0.57629335057E-02 -0.19302195282E-01  0.23512055911E-01  0.00000000000E+00 0.  1.
     999901    1    3    3    0    0 -0.10033881335E+00 -0.70634563245E-01  0.26907355188E-01  0.88892132653E+00  0.88000000000E+00 0. -1.
        -11    1    4    4    0    0  0.19185553239E-01  0.13165864262E-01 -0.86769722845E-02  0.24839009721E-01  0.51100000000E-03 0.  1.
         11    1    4    4    0    0  0.93278878769E-01  0.51705765477E-01  0.10718123784E-02  0.10665760784E+00  0.51100000000E-03 0. -1.
</event>
<event>
 8    1  0.1176534E+005  0.1043930E+01  0.7957747E-01            NaN
         13   -1    0    0    0    0  0.00000000000E+00  0.00000000000E+00  0.74505805969E-08  0.10566000000E+00  0.10566000000E+00 0.  1.
     999900   -1    0    0    0    0 -0.00000000000E+00 -0.00000000000E+00 -0.74505805969E-08  0.93827000000E+00  0.93827000000E+00 0.  1.
     999902    2    1    2    0    0  0.24323063136E-01 -0.32219787576E-02  0.87371520231E-02  0.10178852237E+01  0.10175519634E+01 0.  0.
     999903    2    3    3    0    0  0.32577796108E-01 -0.71678351933E-01  0.10231318954E+00  0.13024177588E+00  0.17199781841E-01 0.  0.
         14    1    1    2    0    0 -0.24323063136E-01  0.32219787576E-02 -0.87371520231E-02  0.26044776308E-01  0.00000000000E+00 0.  1.
     999901    1    3    3    0    0 -0.82547329712E-02  0.68456373175E-01 -0.93576037518E-01  0.88764344781E+00  0.88000000000E+00 0.  1.
        -11    1    4    4    0    0  0.24638643750E-01 -0.48713256098E-01  0.57666823176E-01  0.79408864126E-01  0.51100000000E-03 0. -1.
         11    1    4    4    0    0  0.79391523575E-02 -0.22965095835E-01  0.44646366365E-01  0.50832911755E-01  0.51100000000E-03 0.  1.
</event>
<event>
 8    1  0.1176534E+005  0.1043930E+01  0.7957747E-01            NaN
         13   -1    0    0    0    0  0.00000000000E+00  0.00000000000E+00  0.74505805969E-08  0.10566000000E+00  0.10566000000E+00 0. -1.
     999900   -1    0    0    0    0 -0.00000000000E+00 -0.00000000000E+00 -0.74505805969E-08  0.93827000000E+00  0.93827000000E+00 0. -1.
     999902    2    1    2    0    0  0.17571107753E-02  0.21201945924E-01  0.12199488856E-01  0.10194057777E+01  0.10191107409E+01 0.  0.
     999903    2    3    3    0    0 -0.42991689171E-01 -0.50789086593E-01  0.10999725118E+00  0.12993988959E+00  0.18898756184E-01 0.  0.
         14    1    1    2    0    0 -0.17571107753E-02 -0.21201945924E-01 -0.12199488856E-01  0.24524222262E-01  0.00000000000E+00 0.  1.
     999901    1    3    3    0    0  0.44748799947E-01  0.71991032517E-01 -0.97797762323E-01  0.88946588815E+00  0.88000000000E+00 0. -1.
        -11    1    4    4    0    0  0.43364022577E-03 -0.79725893210E-02  0.16054059618E-01  0.17937228759E-01  0.51100000000E-03 0. -1.
         11    1    4    4    0    0 -0.43425329397E-01 -0.42816497272E-01  0.93943191562E-01  0.11200266083E+00  0.51100000000E-03 0.  1.
</event>
<event>
 8    1  0.1176534E+005  0.1043930E+01  0.7957747E-01            NaN
         13   -1    0    0    0    0  0.00000000000E+00  0.00000000000E+00  0.74505805969E-08  0.10566000000E+00  0.10566000000E+00 0. -1.
     999900   -1    0    0    0    0 -0.00000000000E+00 -0.00000000000E+00 -0.74505805969E-08  0.93827000000E+00  0.93827000000E+00 0.  1.
     999902    2    1    2    0    0 -0.18983721146E-03  0.12433371222E-01 -0.19994276770E-01  0.10203843876E+01  0.10201126912E+01 0.  0.
     999903    2    3    3    0    0  0.27233376170E-01 -0.75378863846E-01 -0.10292103956E+00  0.13171129293E+00  0.18206987920E-01 0.  0.
         14    1    1    2    0    0  0.18983721146E-03 -0.12433371222E-01  0.19994276770E-01  0.23545612365E-01  0.00000000000E+00 0. -1.
     999901    1    3    3    0    0 -0.27423213381E-01  0.87812235068E-01  0.82926762793E-01  0.88867309470E+00  0.88000000000E+00 0.  1.
        -11    1    4    4    0    0  0.19742877181E-01 -0.70365238144E-01 -0.93318670186E-01  0.11853135984E+00  0.51100000000E-03 0. -1.
         11    1    4    4    0    0  0.74904989886E-02 -0.50136257016E-02 -0.96023693766E-02  0.13179933096E-01  0.51100000000E-03 0.  1.
</event>
<event>
 8    1  0.1176534E+005  0.1043930E+01  0.7957747E-01            NaN
         13   -1    0    0    0    0  0.00000000000E+00  0.00000000000E+00  0.74505805969E-08  0.10566000000E+00  0.10566000000E+00 0. -1.
     999900   -1    0    0    0    0 -0.00000000000E+00 -0.00000000000E+00 -0.74505805969E-08  0.93827000000E+00  0.93827000000E+00 0.  1.
     999902    2    1    2    0    0  0.22386795913E-01  0.32799305436E-02 -0.79941169554E-02  0.10199334902E+01  0.10196511619E+01 0.  0.
     999903    2    3    3    0    0 -0.11954617624E+00  0.18095905596E-02  0.38904824440E-01  0.12732683486E+00  0.20099120360E-01 0.  0.
         14    1    1    2    0    0 -0.22386795913E-01 -0.32799305436E-02  0.79941169554E-02  0.23996509777E-01  0.00000000000E+00 0.  1.
     999901    1    3    3    0    0  0.14193297216E+00  0.14703399840E-02 -0.46898941395E-01  0.89260665536E+00  0.88000000000E+00 0.  1.
        -11    1    4    4    0    0 -0.10354656104E+00  0.35196734502E-02  0.26335419366E-01  0.10690226302E+00  0.51100000000E-03 0. -1.
         11    1    4    4    0    0 -0.15999615208E-01 -0.17100828907E-02  0.12569405074E-01  0.20424571849E-01  0.51100000000E-03 0.  1.
</event>
<event>
 8    1  0.1176534E+005  0.1043930E+01  0.7957747E-01            NaN
         13   -1    0    0    0    0  0.00000000000E+00  0.00000000000E+00  0.74505805969E-08  0.10566000000E+00  0.10566000000E+00 0. -1.
     999900   -1    0    0    0    0 -0.00000000000E+00 -0.00000000000E+00 -0.74505805969E-08  0.93827000000E+00  0.93827000000E+00 0.  1.
     999902    2    1    2    0    0 -0.23765317635E-01 -0.52373326343E-02 -0.60043545641E-04  0.10195943558E+01  0.10193038932E+01 0.  0.
     999903    2    3    3    0    0 -0.10216827999E+00 -0.28130202067E-01  0.76934618979E-01  0.13246455351E+00  0.19956368285E-01 0.  0.
         14    1    1    2    0    0  0.23765317635E-01  0.52373326343E-02  0.60043545641E-04  0.24335644241E-01  0.00000000000E+00 0.  1.
     999901    1    3    3    0    0  0.78402962355E-01  0.22892869433E-01 -0.76994662525E-01  0.88712980225E+00  0.88000000000E+00 0.  1.
        -11    1    4    4    0    0 -0.59516804963E-01 -0.17622138195E-01  0.56806946517E-01  0.84143211973E-01  0.51100000000E-03 0.  1.
         11    1    4    4    0    0 -0.42651475027E-01 -0.10508063873E-01  0.20127672462E-01  0.48321341539E-01  0.51100000000E-03 0. -1.
</event>
<event>
 8    1  0.1176534E+005  0.1043930E+01  0.7957747E-01            NaN
         13   -1    0    0    0    0  0.00000000000E+00  0.00000000000E+00  0.74505805969E-08  0.10566000000E+00  0.10566000000E+00 0.  1.
     999900   -1    0    0    0    0 -0.00000000000E+00 -0.00000000000E+00 -0.74505805969E-08  0.93827000000E+00  0.93827000000E+00 0. -1.
     999902    2    1    2    0    0  0.21277113704E-01 -0.74945734085E-02  0.59877743134E-02  0.10205903848E+01  0.10203234761E+01 0.  0.
     999903    2    3    3    0    0 -0.96949781659E-01  0.77615338515E-01  0.22620989508E-01  0.12845925105E+00  0.23804812060E-01 0.  0.
         14    1    1    2    0    0 -0.21277113704E-01  0.74945734085E-02 -0.59877743134E-02  0.23339615237E-01  0.00000000000E+00 0. -1.
     999901    1    3    3    0    0  0.11822689536E+00 -0.85109911924E-01 -0.16633215195E-01  0.89213113371E+00  0.88000000000E+00 0.  1.
        -11    1    4    4    0    0 -0.19736195034E-01  0.17027288023E-01  0.14849652962E-01  0.30003653876E-01  0.51100000000E-03 0. -1.
         11    1    4    4    0    0 -0.77213586625E-01  0.60588050492E-01  0.77713365465E-02  0.98455597173E-01  0.51100000000E-03 0.  1.
</event>
<event>
 8    1  0.1176534E+005  0.1043930E+01  0.7957747E-01            NaN
         13   -1    0    0    0    0  0.00000000000E+00  0.00000000000E+00  0.74505805969E-08  0.10566000000E+00  0.10566000000E+00 0.  1.
     999900   -1    0    0    0    0 -0.00000000000E+00 -0.00000000000E+00 -0.74505805969E-08  0.93827000000E+00  0.93827000000E+00 0.  1.
     999902    2    1    2    0    0  0.81580482343E-02  0.21211162935E-01 -0.86815276362E-02  0.10196023181E+01  0.10193120479E+01 0.  0.
     999903    2    3    3    0    0  0.94771433073E-02 -0.11767674070E+00 -0.45081337751E-01  0.12796532024E+00  0.20128701506E-01 0.  0.
         14    1    1    2    0    0 -0.81580482343E-02 -0.21211162935E-01  0.86815276362E-02  0.24327681890E-01  0.00000000000E+00 0.  1.
     999901    1    3    3    0    0 -0.13190950730E-02  0.13888790364E+00  0.36399810115E-01  0.89163699787E+00  0.88000000000E+00 0.  1.
        -11    1    4    4    0    0 -0.46544967217E-02 -0.66429833081E-01 -0.24508610853E-01  0.70961399295E-01  0.51100000000E-03 0.  1.
         11    1    4    4    0    0  0.14131640029E-01 -0.51246907619E-01 -0.20572726898E-01  0.57003920948E-01  0.51100000000E-03 0. -1.
</event>
<event>
 8    1  0.1176534E+005  0.1043930E+01  0.7957747E-01            NaN
         13   -1    0    0    0    0  0.00000000000E+00  0.00000000000E+00  0.74505805969E-08  0.10566000000E+00  0.10566000000E+00 0.  1.
     999900   -1    0    0    0    0 -0.00000000000E+00 -0.00000000000E+00 -0.74505805969E-08  0.93827000000E+00  0.93827000000E+00 0. -1.
     999902    2    1    2    0    0  0.17232534882E-01 -0.16196392287E-01  0.94656938097E-03  0.10202618912E+01  0.10199873270E+01 0.  0.
     999903    2    3    3    0    0  0.74491166298E-02  0.39105159809E-01 -0.12207513602E+00  0.12993143739E+00  0.19878046357E-01 0.  0.
         14    1    1    2    0    0 -0.17232534882E-01  0.16196392287E-01 -0.94656938097E-03  0.23668108821E-01  0.00000000000E+00 0.  1.
     999901    1    3    3    0    0  0.97834182519E-02 -0.55301552095E-01  0.12302170540E+00  0.89033045378E+00  0.88000000000E+00 0.  1.
        -11    1    4    4    0    0  0.54483401289E-02  0.21665593761E-01 -0.38359222918E-01  0.44393394408E-01  0.51100000000E-03 0.  1.
         11    1    4    4    0    0  0.20007765009E-02  0.17439566047E-01 -0.83715913101E-01  0.85538042986E-01  0.51100000000E-03 0. -1.
</event>
<event>
 8    1  0.1176534E+005  0.1043930E+01  0.7957747E-01            NaN
         13   -1    0    0    0    0  0.00000000000E+00  0.00000000000E+00  0.74505805969E-08  0.10566000000E+00  0.10566000000E+00 0. -1.
     999900   -1    0    0    0    0 -0.00000000000E+00 -0.00000000000E+00 -0.74505805969E-08  0.93827000000E+00  0.93827000000E+00 0. -1.
     999902    2    1    2    0    0 -0.81894490324E-02  0.11799015744E-01 -0.17649108461E-01  0.10211753328E+01  0.10209217823E+01 0.  0.
     999903    2    3    3    0    0  0.71205561040E-01 -0.77434577449E-01  0.71618782223E-01  0.12863123977E+00  0.18718978843E-01 0.  0.
         14    1    1    2    0    0  0.81894490324E-02 -0.11799015744E-01  0.17649108461E-01  0.22754667158E-01  0.00000000000E+00 0. -1.
     999901    1    3    3    0    0 -0.79395010072E-01  0.89233593193E-01 -0.89267890684E-01  0.89254409308E+00  0.88000000000E+00 0.  1.
        -11    1    4    4    0    0  0.68159378418E-01 -0.77469715424E-01  0.66848306957E-01  0.12294801722E+00  0.51100000000E-03 0.  1.
         11    1    4    4    0    0  0.30461826217E-02  0.35137975648E-04  0.47704752662E-02  0.56832225460E-02  0.51100000000E-03 0. -1.
</event>
<event>
 8    1  0.1176534E+005  0.1043930E+01  0.7957747E-01            NaN
         13   -1    0    0    0    0  0.00000000000E+00  0.00000000000E+00  0.74505805969E-08  0.10566000000E+00  0.10566000000E+00 0.  1.
     999900   -1    0    0    0    0 -0.00000000000E+00 -0.00000000000E+00 -0.74505805969E-08  0.93827000000E+00  0.93827000000E+00 0.  1.
     999902    2    1    2    0    0  0.47595015608E-02  0.19246905449E-01  0.12723110447E-01  0.10203721189E+01  0.10201001359E+01 0.  0.
     999903    2    3    3    0    0 -0.12921033710E-01 -0.94138440984E-01  0.86278727585E-01  0.12987828568E+00  0.19883437193E-01 0.  0.
         14    1    1    2    0    0 -0.47595015608E-02 -0.19246905449E-01 -0.12723110447E-01  0.23557881142E-01  0.00000000000E+00 0. -1.
     999901    1    3    3    0    0  0.17680535271E-01  0.11338534643E+00 -0.73555617138E-01  0.89049383318E+00  0.88000000000E+00 0.  1.
        -11    1    4    4    0    0 -0.16600114624E-01 -0.71146650282E-01  0.71913285483E-01  0.10251434730E+00  0.51100000000E-03 0.  1.
         11    1    4    4    0    0  0.36790809134E-02 -0.22991790702E-01  0.14365442102E-01  0.27363938384E-01  0.51100000000E-03 0. -1.
</event>
<event>
 8    1  0.1176534E+005  0.1043930E+01  0.7957747E-01            NaN
         13   -1    0    0    0    0  0.00000000000E+00  0.00000000000E+00  0.74505805969E-08  0.10566000000E+00  0.10566000000E+00 0. -1.
     999900   -1    0    0    0    0 -0.00000000000E+00 -0.00000000000E+00 -0.74505805969E-08  0.93827000000E+00  0.93827000000E+00 0.  1.
     999902    2    1    2    0    0 -0.13535414057E-01  0.85556542755E-04  0.19650721088E-01  0.10200686171E+01  0.10197894969E+01 0.  0.
     999903    2    3    3    0    0  0.32164841807E-01  0.61223048229E-01  0.11072780104E+00  0.13208137579E+00  0.20050067939E-01 0.  0.
         14    1    1    2    0    0  0.13535414057E-01 -0.85556542755E-04 -0.19650721088E-01  0.23861382879E-01  0.00000000000E+00 0.  1.
     999901    1    3    3    0    0 -0.45700255864E-01 -0.61137491686E-01 -0.91077079951E-01  0.88798724133E+00  0.88000000000E+00 0.  1.
        -11    1    4    4    0    0  0.27818910347E-01  0.32052504042E-01  0.68062447982E-01  0.80212297902E-01  0.51100000000E-03 0. -1.
         11    1    4    4    0    0  0.43459314594E-02  0.29170544187E-01  0.42665353057E-01  0.51869077887E-01  0.51100000000E-03 0.  1.
</event>
<event>
 8    1  0.1176534E+005  0.1043930E+01  0.7957747E-01            NaN
         13   -1    0    0    0    0  0.00000000000E+00  0.00000000000E+00  0.74505805969E-08  0.10566000000E+00  0.10566000000E+00 0.  1.
     999900   -1    0    0    0    0 -0.00000000000E+00 -0.00000000000E+00 -0.74505805969E-08  0.93827000000E+00  0.93827000000E+00 0.  1.
     999902    2    1    2    0    0  0.18820384777E-01  0.98133704617E-02  0.95549420109E-02  0.10206532726E+01  0.10203878168E+01 0.  0.
     999903    2    3    3    0    0  0.73776174477E-01 -0.10312472797E+00 -0.18802575849E-01  0.13128310120E+00  0.28356346080E-01 0.  0.
         14    1    1    2    0    0 -0.18820384777E-01 -0.98133704617E-02 -0.95549420109E-02  0.23276727429E-01  0.00000000000E+00 0. -1.
     999901    1    3    3    0    0 -0.54955789701E-01  0.11293809843E+00  0.28357517860E-01  0.88937017137E+00  0.88000000000E+00 0. -1.
        -11    1    4    4    0    0  0.23105254555E-01 -0.52379550108E-01 -0.16295628902E-01  0.59525445818E-01  0.51100000000E-03 0. -1.
         11    1    4    4    0    0  0.50670919923E-01 -0.50745177865E-01 -0.25069469470E-02  0.71757655385E-01  0.51100000000E-03 0.  1.
</event>
<event>
 8    1  0.1176534E+005  0.1043930E+01  0.7957747E-01            NaN
         13   -1    0    0    0    0  0.00000000000E+00  0.00000000000E+00  0.74505805969E-08  0.10566000000E+00  0.10566000000E+00 0.  1.
     999900   -1    0    0    0    0 -0.00000000000E+00 -0.00000000000E+00 -0.74505805969E-08  0.93827000000E+00  0.93827000000E+00 0. -1.
     999902    2    1    2    0    0  0.22100127064E-01  0.79125204233E-02  0.43728412890E-02  0.10200522837E+01  0.10197727767E+01 0.  0.
     999903    2    3    3    0    0 -0.18837475438E-01 -0.81635131659E-01 -0.95855565207E-01  0.12890672724E+00  0.20236347129E-01 0.  0.
         14    1    1    2    0    0 -0.22100127064E-01 -0.79125204233E-02 -0.43728412890E-02  0.23877716319E-01  0.00000000000E+00 0.  1.
     999901    1    3    3    0    0  0.40937602502E-01  0.89547652083E-01  0.10022840650E+00  0.89114555644E+00  0.88000000000E+00 0.  1.
        -11    1    4    4    0    0 -0.17594878978E-01 -0.32473426599E-01 -0.43737956814E-01  0.57248346602E-01  0.51100000000E-03 0. -1.
         11    1    4    4    0    0 -0.12425964602E-02 -0.49161705060E-01 -0.52117608393E-01  0.71658380640E-01  0.51100000000E-03 0.  1.
</event>
<event>
 8    1  0.1176534E+005  0.1043930E+01  0.7957747E-01            NaN
         13   -1    0    0    0    0  0.00000000000E+00  0.00000000000E+00  0.74505805969E-08  0.10566000000E+00  0.10566000000E+00 0. -1.
     999900   -1    0    0    0    0 -0.00000000000E+00 -0.00000000000E+00 -0.74505805969E-08  0.93827000000E+00  0.93827000000E+00 0. -1.
     999902    2    1    2    0    0  0.10129203146E-01 -0.17821737169E-01  0.12281224275E-01  0.10200334826E+01  0.10197535301E+01 0.  0.
     999903    2    3    3    0    0 -0.12488654670E+00  0.21710344314E-01  0.46847254326E-02  0.12882657908E+00  0.22502271612E-01 0.  0.
         14    1    1    2    0    0 -0.10129203146E-01  0.17821737169E-01 -0.12281224275E-01  0.23896517356E-01  0.00000000000E+00 0.  1.
     999901    1    3    3    0    0  0.13501574984E+00 -0.39532081483E-01  0.75964988422E-02  0.89120690357E+00  0.88000000000E+00 0. -1.
        -11    1    4    4    0    0 -0.56234183155E-01  0.13536462413E-01 -0.84324366558E-02  0.58454138252E-01  0.51100000000E-03 0. -1.
         11    1    4    4    0    0 -0.68652363542E-01  0.81738819014E-02  0.13117162088E-01  0.70372440824E-01  0.51100000000E-03 0.  1.
</event>
<event>
 8    1  0.1176534E+005  0.1043930E+01  0.7957747E-01            NaN
         13   -1    0    0    0    0  0.00000000000E+00  0.00000000000E+00  0.74505805969E-08  0.10566000000E+00  0.10566000000E+00 0. -1.
     999900   -1    0    0    0    0 -0.00000000000E+00 -0.00000000000E+00 -0.74505805969E-08  0.93827000000E+00  0.93827000000E+00 0.  1.
     999902    2    1    2    0    0 -0.66484628879E-02  0.13996706827E-01  0.18992945758E-01  0.10194179244E+01  0.10191231833E+01 0.  0.
     999903    2    3    3    0    0 -0.12081949550E+00  0.51728683105E-02  0.48014809377E-01  0.13152426334E+00  0.19211998025E-01 0.  0.
         14    1    1    2    0    0  0.66484628879E-02 -0.13996706827E-01 -0.18992945758E-01  0.24512075582E-01  0.00000000000E+00 0. -1.
     999901    1    3    3    0    0  0.11417103261E+00  0.88238385161E-02 -0.29021863619E-01  0.88789366108E+00  0.88000000000E+00 0.  1.
        -11    1    4    4    0    0 -0.78772704335E-01  0.98801453947E-02  0.38125548574E-01  0.88071418726E-01  0.51100000000E-03 0. -1.
         11    1    4    4    0    0 -0.42046791166E-01 -0.47072770842E-02  0.98892608027E-02  0.43452844615E-01  0.51100000000E-03 0.  1.
</event>
<event>
 8    1  0.1176534E+005  0.1043930E+01  0.7957747E-01            NaN
         13   -1    0    0    0    0  0.00000000000E+00  0.00000000000E+00  0.74505805969E-08  0.10566000000E+00  0.10566000000E+00 0. -1.
     999900   -1    0    0    0    0 -0.00000000000E+00 -0.00000000000E+00 -0.74505805969E-08  0.93827000000E+00  0.93827000000E+00 0. -1.
     999902    2    1    2    0    0 -0.93545464833E-02  0.16178563352E-01  0.21778790435E-01  0.10152321052E+01  0.10148264178E+01 0.  0.
     999903    2    3    3    0    0  0.11935606085E+00 -0.15372543138E-01 -0.23196862677E-01  0.12417391288E+00  0.19972026868E-01 0.  0.
         14    1    1    2    0    0  0.93545464833E-02 -0.16178563352E-01 -0.21778790435E-01  0.28697894781E-01  0.00000000000E+00 0. -1.
     999901    1    3    3    0    0 -0.12871060734E+00  0.31551106490E-01  0.44975653112E-01  0.89105819234E+00  0.88000000000E+00 0.  1.
        -11    1    4    4    0    0  0.42926468675E-02 -0.12477536006E-02  0.28889253935E-02  0.53470288110E-02  0.51100000000E-03 0. -1.
         11    1    4    4    0    0  0.11506341398E+00 -0.14124789538E-01 -0.26085788070E-01  0.11882688407E+00  0.51100000000E-03 0.  1.
</event>
<event>
 8    1  0.1176534E+005  0.1043930E+01  0.7957747E-01            NaN
         13   -1    0    0    0    0  0.00000000000E+00  0.00000000000E+00  0.74505805969E-08  0.10566000000E+00  0.10566000000E+00 0.  1.
     999900   -1    0    0    0    0 -0.00000000000E+00 -0.00000000000E+00 -0.74505805969E-08  0.93827000000E+00  0.93827000000E+00 0. -1.
     999902    2    1    2    0    0  0.18184580421E-01 -0.13375690648E-01  0.19339898663E-02  0.10212732486E+01  0.10210218999E+01 0.  0.
     999903    2    3    3    0    0 -0.78421574526E-01 -0.10348413129E+00  0.23561636113E-02  0.13141232778E+00  0.20118141209E-01 0.  0.
         14    1    1    2    0    0 -0.18184580421E-01  0.13375690648E-01 -0.19339898663E-02  0.22656751360E-01  0.00000000000E+00 0.  1.
     999901    1    3    3    0    0  0.96606154947E-01  0.90108440638E-01 -0.42217374501E-03  0.88986092086E+00  0.88000000000E+00 0. -1.
        -11    1    4    4    0    0 -0.35859619208E-01 -0.49442757891E-01  0.11057753077E-01  0.62072809037E-01  0.51100000000E-03 0. -1.
         11    1    4    4    0    0 -0.42561955318E-01 -0.54041373395E-01 -0.87015894659E-02  0.69339518740E-01  0.51100000000E-03 0.  1.
</event>
<event>
 8    1  0.1176534E+005  0.1043930E+01  0.7957747E-01            NaN
         13   -1    0    0    0    0  0.00000000000E+00  0.00000000000E+00  0.74505805969E-08  0.10566000000E+00  0.10566000000E+00 0. -1.
     999900   -1    0    0    0    0 -0.00000000000E+00 -0.00000000000E+00 -0.74505805969E-08  0.93827000000E+00  0.93827000000E+00 0.  1.
     999902    2    1    2    0    0 -0.30938408754E-02  0.11476550757E-01  0.20328359712E-01  0.10203816396E+01  0.10201098790E+01 0.  0.
     999903    2    3    3    0    0  0.26156021395E-01  0.12492452371E+00  0.29056646176E-01  0.13257412669E+00  0.21008005660E-01 0.  0.
         14    1    1    2    0    0  0.30938408754E-02 -0.11476550757E-01 -0.20328359712E-01  0.23548360394E-01  0.00000000000E+00 0.  1.
     999901    1    3    3    0    0 -0.29249862270E-01 -0.11344797295E+00 -0.87282864635E-02  0.88780751292E+00  0.88000000000E+00 0.  1.
        -11    1    4    4    0    0  0.20570446681E-01  0.10545700434E+00  0.31982078070E-01  0.11210458278E+00  0.51100000000E-03 0. -1.
         11    1    4    4    0    0  0.55855747143E-02  0.19467519362E-01 -0.29254318944E-02  0.20469543907E-01  0.51100000000E-03 0.  1.
</event>
<event>
 8    1  0.1176534E+005  0.1043930E+01  0.7957747E-01            NaN
         13   -1    0    0    0    0  0.00000000000E+00  0.00000000000E+00  0.74505805969E-08  0.10566000000E+00  0.10566000000E+00 0.  1.
     999900   -1    0    0    0    0 -0.00000000000E+00 -0.00000000000E+00 -0.74505805969E-08  0.93827000000E+00  0.93827000000E+00 0.  1.
     999902    2    1    2    0    0  0.15928363956E-01  0.20004549894E-01 -0.12499484697E-02  0.10183281023E+01  0.10180062214E+01 0.  0.
     999903    2    3    3    0    0 -0.99654603773E-01 -0.86526968692E-03 -0.76596982317E-01  0.12733307015E+00  0.20367236179E-01 0.  0.
         14    1    1    2    0    0 -0.15928363956E-01 -0.20004549894E-01  0.12499484697E-02  0.25601897702E-01  0.00000000000E+00 0.  1.
     999901    1    3    3    0    0  0.11558296773E+00  0.20869819581E-01  0.75347033847E-01  0.89099503215E+00  0.88000000000E+00 0. -1.
        -11    1    4    4    0    0 -0.30682065144E-01 -0.12864341640E-02 -0.12454991502E-01  0.33142600512E-01  0.51100000000E-03 0.  1.
         11    1    4    4    0    0 -0.68972538628E-01  0.42116447704E-03 -0.64141990814E-01  0.94190469640E-01  0.51100000000E-03 0. -1.
</event>
<event>
 8    1  0.1176534E+005  0.1043930E+01  0.7957747E-01            NaN
         13   -1    0    0    0    0  0.00000000000E+00  0.00000000000E+00  0.74505805969E-08  0.10566000000E+00  0.10566000000E+00 0.  1.
     999900   -1    0    0    0    0 -0.00000000000E+00 -0.00000000000E+00 -0.74505805969E-08  0.93827000000E+00  0.93827000000E+00 0. -1.
     999902    2    1    2    0    0 -0.10510817055E-01  0.13094837392E-01 -0.17718388000E-01  0.10195190739E+01  0.10192267896E+01 0.  0.
     999903    2    3    3    0    0  0.17361339457E-01  0.10982936554E+00  0.64144070998E-01  0.13000466238E+00  0.20563189259E-01 0.  0.
         14    1    1    2    0    0  0.10510817055E-01 -0.13094837392E-01  0.17718388000E-01  0.24410926136E-01  0.00000000000E+00 0.  1.
     999901    1    3    3    0    0 -0.27872156512E-01 -0.96734528152E-01 -0.81862458999E-01  0.88951441148E+00  0.88000000000E+00 0. -1.
        -11    1    4    4    0    0 -0.17949417455E-02  0.52361347630E-01  0.32547039933E-01  0.61680657187E-01  0.51100000000E-03 0.  1.
         11    1    4    4    0    0  0.19156281202E-01  0.57468017914E-01  0.31597031065E-01  0.68324005193E-01  0.51100000000E-03 0. -1.
</event>
<event>
 8    1  0.1176534E+005  0.1043930E+01  0.7957747E-01            NaN
         13   -1    0    0    0    0  0.00000000000E+00  0.00000000000E+00  0.74505805969E-08  0.10566000000E+00  0.10566000000E+00 0. -1.
     999900   -1    0    0    0    0 -0.00000000000E+00 -0.00000000000E+00 -0.74505805969E-08  0.93827000000E+00  0.93827000000E+00 0. -1.
     999902    2    1    2    0    0  0.89227838515E-02 -0.17009632203E-01  0.13560950059E-01  0.10204173858E+01  0.10201464592E+01 0.  0.
     999903    2    3    3    0    0 -0.12390161232E+00  0.10755062964E-01  0.29254338026E-01  0.12987851471E+00  0.23352331244E-01 0.  0.
         14    1    1    2    0    0 -0.89227838515E-02  0.17009632203E-01 -0.13560950059E-01  0.23512614186E-01  0.00000000000E+00 0.  1.
     999901    1    3    3    0    0  0.13282439618E+00 -0.27764695167E-01 -0.15693387966E-01  0.89053887110E+00  0.88000000000E+00 0.  1.
        -11    1    4    4    0    0 -0.32025553587E-01  0.13125484112E-01  0.70227476132E-02  0.35319888459E-01  0.51100000000E-03 0. -1.
         11    1    4    4    0    0 -0.91876058738E-01 -0.23704211486E-02  0.22231590413E-01  0.94558626253E-01  0.51100000000E-03 0.  1.
</event>
<event>
 8    1  0.1176534E+005  0.1043930E+01  0.7957747E-01            NaN
         13   -1    0    0    0    0  0.00000000000E+00  0.00000000000E+00  0.74505805969E-08  0.10566000000E+00  0.10566000000E+00 0. -1.
     999900   -1    0    0    0    0 -0.00000000000E+00 -0.00000000000E+00 -0.74505805969E-08  0.93827000000E+00  0.93827000000E+00 0. -1.
     999902    2    1    2    0    0 -0.65151333443E-02  0.16366179480E-01  0.16321489535E-01  0.10199156332E+01  0.10196328795E+01 0.  0.
     999903    2    3    3    0    0  0.38004887302E-01  0.53131117369E-01 -0.10948687513E+00  0.12909497922E+00  0.20269453434E-01 0.  0.
         14    1    1    2    0    0  0.65151333443E-02 -0.16366179480E-01 -0.16321489535E-01  0.24014366823E-01  0.00000000000E+00 0.  1.
     999901    1    3    3    0    0 -0.44520020646E-01 -0.36764937890E-01  0.12580836466E+00  0.89082065396E+00  0.88000000000E+00 0.  1.
        -11    1    4    4    0    0  0.35984329346E-01  0.35671823073E-01 -0.84810637972E-01  0.98795021910E-01  0.51100000000E-03 0. -1.
         11    1    4    4    0    0  0.20205579554E-02  0.17459294297E-01 -0.24676237158E-01  0.30299957311E-01  0.51100000000E-03 0.  1.
</event>
<event>
 8    1  0.1176534E+005  0.1043930E+01  0.7957747E-01            NaN
         13   -1    0    0    0    0  0.00000000000E+00  0.00000000000E+00  0.74505805969E-08  0.10566000000E+00  0.10566000000E+00 0.  1.
     999900   -1    0    0    0    0 -0.00000000000E+00 -0.00000000000E+00 -0.74505805969E-08  0.93827000000E+00  0.93827000000E+00 0.  1.
     999902    2    1    2    0    0 -0.46868593560E-02 -0.69713119493E-02 -0.22808062279E-01  0.10196241664E+01  0.10193344236E+01 0.  0.
     999903    2    3    3    0    0  0.96030701710E-01  0.36096563049E-01 -0.79478784109E-01  0.13102389652E+00  0.18042361279E-01 0.  0.
         14    1    1    2    0    0  0.46868593560E-02  0.69713119493E-02  0.22808062279E-01  0.24305833576E-01  0.00000000000E+00 0.  1.
     999901    1    3    3    0    0 -0.10071756107E+00 -0.43067874998E-01  0.56670721830E-01  0.88860026991E+00  0.88000000000E+00 0. -1.
        -11    1    4    4    0    0  0.81070403291E-01  0.37109718687E-01 -0.67931926877E-01  0.11209170050E+00  0.51100000000E-03 0. -1.
         11    1    4    4    0    0  0.14960298419E-01 -0.10131556378E-02 -0.11546857232E-01  0.18932196018E-01  0.51100000000E-03 0.  1.
</event>
<event>
 8    1  0.1176534E+005  0.1043930E+01  0.7957747E-01            NaN
         13   -1    0    0    0    0  0.00000000000E+00  0.00000000000E+00  0.74505805969E-08  0.10566000000E+00  0.10566000000E+00 0. -1.
     999900   -1    0    0    0    0 -0.00000000000E+00 -0.00000000000E+00 -0.74505805969E-08  0.93827000000E+00  0.93827000000E+00 0.  1.
     999902    2    1    2    0    0  0.15698304477E-01  0.15394538600E-01  0.60889497109E-02  0.10211154456E+01  0.10208605436E+01 0.  0.
     999903    2    3    3    0    0 -0.83085225274E-02  0.14859169140E-01  0.12966764731E+00  0.13215633023E+00  0.19020263094E-01 0.  0.
         14    1    1    2    0    0 -0.15698304477E-01 -0.15394538600E-01 -0.60889497109E-02  0.22814554362E-01  0.00000000000E+00 0.  1.
     999901    1    3    3    0    0  0.24006827005E-01  0.53536946018E-03 -0.12357869760E+00  0.88895911541E+00  0.88000000000E+00 0.  1.
        -11    1    4    4    0    0  0.56339213699E-02  0.76663314240E-02  0.59184102209E-01  0.59946082297E-01  0.51100000000E-03 0. -1.
         11    1    4    4    0    0 -0.13942443897E-01  0.71928377160E-02  0.70483545098E-01  0.72210247935E-01  0.51100000000E-03 0.  1.
</event>
<event>
 8    1  0.1176534E+005  0.1043930E+01  0.7957747E-01            NaN
         13   -1    0    0    0    0  0.00000000000E+00  0.00000000000E+00  0.74505805969E-08  0.10566000000E+00  0.10566000000E+00 0.  1.
     999900   -1    0    0    0    0 -0.00000000000E+00 -0.00000000000E+00 -0.74505805969E-08  0.93827000000E+00  0.93827000000E+00 0. -1.
     999902    2    1    2    0    0 -0.21352429163E-01  0.97034645736E-02 -0.34217700754E-02  0.10202278489E+01  0.10199524850E+01 0.  0.
     999903    2    3    3    0    0 -0.11431495829E+00 -0.38129251274E-01  0.50975715726E-01  0.13237139261E+00  0.20047755417E-01 0.  0.
         14    1    1    2    0    0  0.21352429163E-01 -0.97034645736E-02  0.34217700754E-02  0.23702151091E-01  0.00000000000E+00 0. -1.
     999901    1    3    3    0    0  0.92962529125E-01  0.47832715847E-01 -0.54397485802E-01  0.88785645630E+00  0.88000000000E+00 0. -1.
        -11    1    4    4    0    0 -0.15477871694E-01 -0.12891827031E-01  0.87407921988E-02  0.21964204643E-01  0.51100000000E-03 0.  1.
         11    1    4    4    0    0 -0.98837086594E-01 -0.25237424243E-01  0.42234923527E-01  0.11040718797E+00  0.51100000000E-03 0. -1.
</event>
<event>
 8    1  0.1176534E+005  0.1043930E+01  0.7957747E-01            NaN
         13   -1    0    0    0    0  0.00000000000E+00  0.00000000000E+00  0.74505805969E-08  0.10566000000E+00  0.10566000000E+00 0. -1.
     999900   -1    0    0    0    0 -0.00000000000E+00 -0.00000000000E+00 -0.74505805969E-08  0.93827000000E+00  0.93827000000E+00 0. -1.
     999902    2    1    2    0    0 -0.76691660914E-02 -0.94763100293E-02 -0.20509111973E-01  0.10200712441E+01  0.10197921861E+01 0.  0.
     999903    2    3    3    0    0 -0.12707122395E+00 -0.59837968199E-02 -0.28085300033E-01  0.13196852046E+00  0.21071415100E-01 0.  0.
         14    1    1    2    0    0  0.76691660914E-02  0.94763100293E-02  0.20509111973E-01  0.23858755924E-01  0.00000000000E+00 0. -1.
     999901    1    3    3    0    0  0.11940205786E+00 -0.34925132095E-02  0.75761880599E-02  0.88810272362E+00  0.88000000000E+00 0. -1.
        -11    1    4    4    0    0 -0.92891976595E-01  0.31461291887E-02 -0.26052707277E-01  0.96528866781E-01  0.51100000000E-03 0.  1.
         11    1    4    4    0    0 -0.34179247353E-01 -0.91299260086E-02 -0.20325927567E-02  0.35439653679E-01  0.51100000000E-03 0. -1.
</event>
<event>
 8    1  0.1176534E+005  0.1043930E+01  0.7957747E-01            NaN
         13   -1    0    0    0    0  0.00000000000E+00  0.00000000000E+00  0.74505805969E-08  0.10566000000E+00  0.10566000000E+00 0. -1.
     999900   -1    0    0    0    0 -0.00000000000E+00 -0.00000000000E+00 -0.74505805969E-08  0.93827000000E+00  0.93827000000E+00 0. -1.
     999902    2    1    2    0    0 -0.10625550101E-01 -0.21104092513E-01 -0.29297475057E-02  0.10201210005E+01  0.10198431189E+01 0.  0.
     999903    2    3    3    0    0 -0.99611354319E-01 -0.32418882135E-01  0.77741696931E-01  0.13188996089E+00  0.19436679591E-01 0.  0.
         14    1    1    2    0    0  0.10625550101E-01  0.21104092513E-01  0.29297475057E-02  0.23808999479E-01  0.00000000000E+00 0.  1.
     999901    1    3    3    0    0  0.88985804218E-01  0.11314789621E-01 -0.80671444437E-01  0.88823103963E+00  0.88000000000E+00 0. -1.
        -11    1    4    4    0    0 -0.82232194362E-01 -0.34110913210E-01  0.63541942153E-01  0.10937791241E+00  0.51100000000E-03 0.  1.
         11    1    4    4    0    0 -0.17379159957E-01  0.16920310753E-02  0.14199754778E-01  0.22512048479E-01  0.51100000000E-03 0. -1.
</event>
<event>
 8    1  0.1176534E+005  0.1043930E+01  0.7957747E-01            NaN
         13   -1    0    0    0    0  0.00000000000E+00  0.00000000000E+00  0.74505805969E-08  0.10566000000E+00  0.10566000000E+00 0. -1.
     999900   -1    0    0    0    0 -0.00000000000E+00 -0.00000000000E+00 -0.74505805969E-08  0.93827000000E+00  0.93827000000E+00 0.  1.
     999902    2    1    2    0    0  0.10871985983E-01 -0.85808870615E-02 -0.19319824626E-01  0.10201584345E+01  0.10198814363E+01 0.  0.
     999903    2    3    3    0    0 -0.81719971992E-01 -0.21157365721E-01 -0.99004945807E-01  0.13163091269E+00  0.19973230482E-01 0.  0.
         14    1    1    2    0    0 -0.10871985983E-01  0.85808870615E-02  0.19319824626E-01  0.23771565484E-01  0.00000000000E+00 0. -1.
     999901    1    3    3    0    0  0.92591957975E-01  0.12576478659E-01  0.79685121181E-01  0.88852752182E+00  0.88000000000E+00 0. -1.
        -11    1    4    4    0    0 -0.48899516480E-01 -0.16601180027E-01 -0.73424210541E-01  0.89767130425E-01  0.51100000000E-03 0. -1.
         11    1    4    4    0    0 -0.32820455513E-01 -0.45561856940E-02 -0.25580735266E-01  0.41863782269E-01  0.51100000000E-03 0.  1.
</event>
<event>
 8    1  0.1176534E+005  0.1043930E+01  0.7957747E-01            NaN
         13   -1    0    0    0    0  0.00000000000E+00  0.00000000000E+00  0.74505805969E-08  0.10566000000E+00  0.10566000000E+00 0.  1.
     999900   -1    0    0    0    0 -0.00000000000E+00 -0.00000000000E+00 -0.74505805969E-08  0.93827000000E+00  0.93827000000E+00 0.  1.
     999902    2    1    2    0    0 -0.52549362386E-02  0.12046020343E-02 -0.22710150676E-01  0.10205886983E+01  0.10203217506E+01 0.  0.
     999903    2    3    3    0    0 -0.10527269019E+00 -0.54028737277E-01 -0.56613122128E-01  0.13255509289E+00  0.19088302741E-01 0.  0.
         14    1    1    2    0    0  0.52549362386E-02 -0.12046020343E-02  0.22710150676E-01  0.23341301692E-01  0.00000000000E+00 0.  1.
     999901    1    3    3    0    0  0.10001775396E+00  0.55233339311E-01  0.33902971451E-01  0.88803360542E+00  0.88000000000E+00 0. -1.
        -11    1    4    4    0    0 -0.65227228977E-01 -0.22894746699E-01 -0.32670938680E-01  0.76461834804E-01  0.51100000000E-03 0. -1.
         11    1    4    4    0    0 -0.40045461218E-01 -0.31133990578E-01 -0.23942183448E-01  0.56093258087E-01  0.51100000000E-03 0.  1.
</event>
<event>
 8    1  0.1176534E+005  0.1043930E+01  0.7957747E-01            NaN
         13   -1    0    0    0    0  0.00000000000E+00  0.00000000000E+00  0.74505805969E-08  0.10566000000E+00  0.10566000000E+00 0. -1.
     999900   -1    0    0    0    0 -0.00000000000E+00 -0.00000000000E+00 -0.74505805969E-08  0.93827000000E+00  0.93827000000E+00 0.  1.
     999902    2    1    2    0    0 -0.16306121252E-01 -0.11402742015E-01 -0.10972719879E-01  0.10212074848E+01  0.10209546583E+01 0.  0.
     999903    2    3    3    0    0 -0.50511580917E-01 -0.96881623238E-01 -0.75047111057E-01  0.13408732370E+00  0.20245314825E-01 0.  0.
         14    1    1    2    0    0  0.16306121252E-01  0.11402742015E-01  0.10972719879E-01  0.22722515206E-01  0.00000000000E+00 0. -1.
     999901    1    3    3    0    0  0.34205459665E-01  0.85478881223E-01  0.64074391178E-01  0.88712016109E+00  0.88000000000E+00 0. -1.
        -11    1    4    4    0    0 -0.20182370914E-01 -0.19864301582E-01 -0.18022414436E-01  0.33570628773E-01  0.51100000000E-03 0. -1.
         11    1    4    4    0    0 -0.30329210003E-01 -0.77017321655E-01 -0.57024696621E-01  0.10051669493E+00  0.51100000000E-03 0.  1.
</event>
<event>
 8    1  0.1176534E+005  0.1043930E+01  0.7957747E-01            NaN
         13   -1    0    0    0    0  0.00000000000E+00  0.00000000000E+00  0.74505805969E-08  0.10566000000E+00  0.10566000000E+00 0.  1.
     999900   -1    0    0    0    0 -0.00000000000E+00 -0.00000000000E+00 -0.74505805969E-08  0.93827000000E+00  0.93827000000E+00 0. -1.
     999902    2    1    2    0    0  0.12438664042E-02 -0.10962743808E-01 -0.20155391441E-01  0.10209524292E+01  0.10206938297E+01 0.  0.
     999903    2    3    3    0    0 -0.12019820290E+00 -0.14406232623E-01 -0.50757978867E-01  0.13207867430E+00  0.14603296392E-01 0.  0.
         14    1    1    2    0    0 -0.12438664042E-02  0.10962743808E-01  0.20155391441E-01  0.22977570793E-01  0.00000000000E+00 0.  1.
     999901    1    3    3    0    0  0.12144206931E+00  0.34434888156E-02  0.30602587426E-01  0.88887375491E+00  0.88000000000E+00 0. -1.
        -11    1    4    4    0    0 -0.39780509143E-01  0.11768654673E-02 -0.12910992667E-01  0.41842905882E-01  0.51100000000E-03 0. -1.
         11    1    4    4    0    0 -0.80417693760E-01 -0.15583098090E-01 -0.37846986200E-01  0.90235768414E-01  0.51100000000E-03 0.  1.
</event>
<event>
 8    1  0.1176534E+005  0.1043930E+01  0.7957747E-01            NaN
         13   -1    0    0    0    0  0.00000000000E+00  0.00000000000E+00  0.74505805969E-08  0.10566000000E+00  0.10566000000E+00 0.  1.
     999900   -1    0    0    0    0 -0.00000000000E+00 -0.00000000000E+00 -0.74505805969E-08  0.93827000000E+00  0.93827000000E+00 0.  1.
     999902    2    1    2    0    0 -0.10807432908E-01 -0.17542388711E-01  0.10255103444E-01  0.10209147191E+01  0.10206552604E+01 0.  0.
     999903    2    3    3    0    0  0.96074474629E-01  0.20894229631E-01  0.83570382752E-01  0.13059104428E+00  0.20078308326E-01 0.  0.
         14    1    1    2    0    0  0.10807432908E-01  0.17542388711E-01 -0.10255103444E-01  0.23015280889E-01  0.00000000000E+00 0.  1.
     999901    1    3    3    0    0 -0.10688190754E+00 -0.38436618342E-01 -0.73315279308E-01  0.89032367483E+00  0.88000000000E+00 0.  1.
        -11    1    4    4    0    0  0.26746275789E-01 -0.16797595788E-02  0.29210586116E-01  0.39644726296E-01  0.51100000000E-03 0.  1.
         11    1    4    4    0    0  0.69328198840E-01  0.22573989210E-01  0.54359796636E-01  0.90946317983E-01  0.51100000000E-03 0. -1.
</event>
<event>
 8    1  0.1176534E+005  0.1043930E+01  0.7957747E-01            NaN
         13   -1    0    0    0    0  0.00000000000E+00  0.00000000000E+00  0.74505805969E-08  0.10566000000E+00  0.10566000000E+00 0.  1.
     999900   -1    0    0    0    0 -0.00000000000E+00 -0.00000000000E+00 -0.74505805969E-08  0.93827000000E+00  0.93827000000E+00 0. -1.
     999902    2    1    2    0    0 -0.20751163950E-01  0.98959955062E-02  0.74893357505E-02  0.10197508420E+01  0.10194641475E+01 0.  0.
     999903    2    3    3    0    0  0.10427878822E-01 -0.11196410882E+00 -0.58397126986E-01  0.12836818358E+00  0.20578235964E-01 0.  0.
         14    1    1    2    0    0  0.20751163950E-01 -0.98959955062E-02 -0.74893357505E-02  0.24179158015E-01  0.00000000000E+00 0.  1.
     999901    1    3    3    0    0 -0.31179042771E-01  0.12186010432E+00  0.65886462736E-01  0.89138265841E+00  0.88000000000E+00 0.  1.
        -11    1    4    4    0    0  0.10891715280E-01 -0.64978419781E-01 -0.43974499567E-01  0.79213901760E-01  0.51100000000E-03 0. -1.
         11    1    4    4    0    0 -0.46383645826E-03 -0.46985689037E-01 -0.14422627419E-01  0.49154281819E-01  0.51100000000E-03 0.  1.
</event>
<event>
 8    1  0.1176534E+005  0.1043930E+01  0.7957747E-01            NaN
         13   -1    0    0    0    0  0.00000000000E+00  0.00000000000E+00  0.74505805969E-08  0.10566000000E+00  0.10566000000E+00 0.  1.
     999900   -1    0    0    0    0 -0.00000000000E+00 -0.00000000000E+00 -0.74505805969E-08  0.93827000000E+00  0.93827000000E+00 0. -1.
     999902    2    1    2    0    0  0.13333124836E-01  0.15952714192E-01  0.10757994221E-01  0.10205206910E+01  0.10202521674E+01 0.  0.
     999903    2    3    3    0    0  0.55682845266E-01 -0.10763967260E+00  0.43484419192E-01  0.13027376134E+00  0.19836325417E-01 0.  0.
         14    1    1    2    0    0 -0.13333124836E-01 -0.15952714192E-01 -0.10757994221E-01  0.23409308995E-01  0.00000000000E+00 0.  1.
     999901    1    3    3    0    0 -0.42349720430E-01  0.12359238679E+00 -0.32726424971E-01  0.89024692967E+00  0.88000000000E+00 0. -1.
        -11    1    4    4    0    0  0.44442989842E-01 -0.88624495567E-01  0.27145445620E-01  0.10279405090E+00  0.51100000000E-03 0.  1.
         11    1    4    4    0    0  0.11239855425E-01 -0.19015177031E-01  0.16338973572E-01  0.27479710440E-01  0.51100000000E-03 0. -1.
</event>
<event>
 8    1  0.1176534E+005  0.1043930E+01  0.7957747E-01            NaN
         13   -1    0    0    0    0  0.00000000000E+00  0.00000000000E+00  0.74505805969E-08  0.10566000000E+00  0.10566000000E+00 0. -1.
     999900   -1    0    0    0    0 -0.00000000000E+00 -0.00000000000E+00 -0.74505805969E-08  0.93827000000E+00  0.93827000000E+00 0. -1.
     999902    2    1    2    0    0 -0.12005800105E-01 -0.20727480145E-01  0.73598955440E-02  0.10188713542E+01  0.10185631549E+01 0.  0.
     999903    2    3    3    0    0  0.76778536246E-01  0.92318562299E-01  0.34817639751E-01  0.12678615990E+00  0.21090323141E-01 0.  0.
         14    1    1    2    0    0  0.12005800105E-01  0.20727480145E-01 -0.73598955440E-02  0.25058645848E-01  0.00000000000E+00 0.  1.
     999901    1    3    3    0    0 -0.88784336351E-01 -0.11304604244E+00 -0.27457744207E-01  0.89208519426E+00  0.88000000000E+00 0. -1.
        -11    1    4    4    0    0  0.30380705428E-01  0.51156602156E-01  0.12016724815E-01  0.60701301491E-01  0.51100000000E-03 0. -1.
         11    1    4    4    0    0  0.46397830818E-01  0.41161960144E-01  0.22800914936E-01  0.66084858405E-01  0.51100000000E-03 0.  1.
</event>
<event>
 8    1  0.1176534E+005  0.1043930E+01  0.7957747E-01            NaN
         13   -1    0    0    0    0  0.00000000000E+00  0.00000000000E+00  0.74505805969E-08  0.10566000000E+00  0.10566000000E+00 0.  1.
     999900   -1    0    0    0    0 -0.00000000000E+00 -0.00000000000E+00 -0.74505805969E-08  0.93827000000E+00  0.93827000000E+00 0.  1.
     999902    2    1    2    0    0  0.12696245198E-01 -0.19501190353E-01 -0.85467611238E-02  0.10191401191E+01  0.10188385761E+01 0.  0.
     999903    2    3    3    0    0 -0.34509728004E-01  0.56058254815E-01 -0.10863944322E+00  0.12899621018E+00  0.22450932216E-01 0.  0.
         14    1    1    2    0    0 -0.12696245198E-01  0.19501190353E-01  0.85467611238E-02  0.24789880859E-01  0.00000000000E+00 0.  1.
     999901    1    3    3    0    0  0.47205973202E-01 -0.75559445167E-01  0.10009268209E+00  0.89014390897E+00  0.88000000000E+00 0. -1.
        -11    1    4    4    0    0  0.32849733760E-02  0.41481141795E-02 -0.74588074340E-02  0.91593029574E-02  0.51100000000E-03 0. -1.
         11    1    4    4    0    0 -0.37794701380E-01  0.51910140635E-01 -0.10118063578E+00  0.11983690722E+00  0.51100000000E-03 0.  1.
</event>
<event>
 8    1  0.1176534E+005  0.1043930E+01  0.7957747E-01            NaN
         13   -1    0    0    0    0  0.00000000000E+00  0.00000000000E+00  0.74505805969E-08  0.10566000000E+00  0.10566000000E+00 0.  1.
     999900   -1    0    0    0    0 -0.00000000000E+00 -0.00000000000E+00 -0.74505805969E-08  0.93827000000E+00  0.93827000000E+00 0.  1.
     999902    2    1    2    0    0 -0.20880698714E-01  0.66778235859E-02 -0.10140833201E-01  0.10197756338E+01  0.10194895340E+01 0.  0.
     999903    2    3    3    0    0 -0.11879854604E+00 -0.31074799875E-01 -0.46167199428E-01  0.13280829258E+00  0.20685612012E-01 0.  0.
         14    1    1    2    0    0  0.20880698714E-01 -0.66778235859E-02  0.10140833201E-01  0.24154366161E-01  0.00000000000E+00 0.  1.
     999901    1    3    3    0    0  0.97917847331E-01  0.37752623461E-01  0.36026366226E-01  0.88696734126E+00  0.88000000000E+00 0.  1.
        -11    1    4    4    0    0 -0.78760900113E-01 -0.25991556482E-01 -0.22174638008E-01  0.85853457046E-01  0.51100000000E-03 0.  1.
         11    1    4    4    0    0 -0.40037645932E-01 -0.50832433928E-02 -0.23992561420E-01  0.46954835530E-01  0.51100000000E-03 0. -1.
</event>
<event>
 8    1  0.1176534E+005  0.1043930E+01  0.7957747E-01            NaN
         13   -1    0    0    0    0  0.00000000000E+00  0.00000000000E+00  0.74505805969E-08  0.10566000000E+00  0.10566000000E+00 0.  1.
     999900   -1    0    0    0    0 -0.00000000000E+00 -0.00000000000E+00 -0.74505805969E-08  0.93827000000E+00  0.93827000000E+00 0. -1.
     999902    2    1    2    0    0 -0.20600284339E-01  0.10561240238E-01  0.58984852966E-02  0.10200405957E+01  0.10197608118E+01 0.  0.
     999903    2    3    3    0    0  0.94388686117E-01  0.65596276501E-01 -0.54544233861E-01  0.12880289402E+00  0.20075270956E-01 0.  0.
         14    1    1    2    0    0  0.20600284339E-01 -0.10561240238E-01 -0.58984852966E-02  0.23889404325E-01  0.00000000000E+00 0. -1.
     999901    1    3    3    0    0 -0.11498897046E+00 -0.55035036263E-01  0.60442719158E-01  0.89123770165E+00  0.88000000000E+00 0. -1.
        -11    1    4    4    0    0  0.23520025264E-01  0.88857654772E-02 -0.18138743272E-01  0.31006830619E-01  0.51100000000E-03 0. -1.
         11    1    4    4    0    0  0.70868660854E-01  0.56710511023E-01 -0.36405490589E-01  0.97796063406E-01  0.51100000000E-03 0.  1.
</event>
<event>
 8    1  0.1176534E+005  0.1043930E+01  0.7957747E-01            NaN
         13   -1    0    0    0    0  0.00000000000E+00  0.00000000000E+00  0.74505805969E-08  0.10566000000E+00  0.10566000000E+00 0. -1.
     999900   -1    0    0    0    0 -0.00000000000E+00 -0.00000000000E+00 -0.74505805969E-08  0.93827000000E+00  0.93827000000E+00 0.  1.
     999902    2    1    2    0    0 -0.42111553972E-02  0.16860898260E-01  0.12429907640E-01  0.10225635234E+01  0.10223402726E+01 0.  0.
     999903    2    3    3    0    0 -0.10157244319E+00  0.40485505712E-01  0.75853966920E-01  0.13461084797E+00  0.20253856599E-01 0.  0.
         14    1    1    2    0    0  0.42111553972E-02 -0.16860898260E-01 -0.12429907640E-01  0.21366476637E-01  0.00000000000E+00 0. -1.
     999901    1    3    3    0    0  0.97361287789E-01 -0.23624607452E-01 -0.63424059280E-01  0.88795267539E+00  0.88000000000E+00 0.  1.
        -11    1    4    4    0    0 -0.45479768738E-01  0.22820100774E-01  0.24248168170E-01  0.56368441032E-01  0.51100000000E-03 0. -1.
         11    1    4    4    0    0 -0.56092674447E-01  0.17665404938E-01  0.51605798750E-01  0.78242406941E-01  0.51100000000E-03 0.  1.
</event>
<event>
 8    1  0.1176534E+005  0.1043930E+01  0.7957747E-01            NaN
         13   -1    0    0    0    0  0.00000000000E+00  0.00000000000E+00  0.74505805969E-08  0.10566000000E+00  0.10566000000E+00 0. -1.
     999900   -1    0    0    0    0 -0.00000000000E+00 -0.00000000000E+00 -0.74505805969E-08  0.93827000000E+00  0.93827000000E+00 0. -1.
     999902    2    1    2    0    0  0.98070506806E-02  0.14518212645E-01 -0.15126613993E-01  0.10207832682E+01  0.10205208031E+01 0.  0.
     999903    2    3    3    0    0 -0.36405562787E-02 -0.12597579559E+00 -0.22664697058E-01  0.12950540628E+00  0.19359933851E-01 0.  0.
         14    1    1    2    0    0 -0.98070506806E-02 -0.14518212645E-01  0.15126613993E-01  0.23146731786E-01  0.00000000000E+00 0. -1.
     999901    1    3    3    0    0  0.13447606959E-01  0.14049400823E+00  0.75380830646E-02  0.89127786194E+00  0.88000000000E+00 0. -1.
        -11    1    4    4    0    0 -0.46018696064E-02 -0.93649495933E-01 -0.25111706028E-01  0.97068348049E-01  0.51100000000E-03 0.  1.
         11    1    4    4    0    0  0.96131332771E-03 -0.32326299654E-01  0.24470089703E-02  0.32437058228E-01  0.51100000000E-03 0. -1.
</event>
<event>
 8    1  0.1176534E+005  0.1043930E+01  0.7957747E-01            NaN
         13   -1    0    0    0    0  0.00000000000E+00  0.00000000000E+00  0.74505805969E-08  0.10566000000E+00  0.10566000000E+00 0. -1.
     999900   -1    0    0    0    0 -0.00000000000E+00 -0.00000000000E+00 -0.74505805969E-08  0.93827000000E+00  0.93827000000E+00 0. -1.
     999902    2    1    2    0    0  0.21483096064E-01 -0.87958536206E-02 -0.20087257401E-01  0.10132316553E+01  0.10127665076E+01 0.  0.
     999903    2    3    3    0    0 -0.11825022491E+00 -0.16847926626E-01 -0.15682534761E-01  0.12215947054E+00  0.20249099301E-01 0.  0.
         14    1    1    2    0    0 -0.21483096064E-01  0.87958536206E-02  0.20087257401E-01  0.30698344700E-01  0.00000000000E+00 0. -1.
     999901    1    3    3    0    0  0.13973332098E+00  0.80520730054E-02 -0.44047226404E-02  0.89107218476E+00  0.88000000000E+00 0. -1.
        -11    1    4    4    0    0 -0.32567660041E-02 -0.91127183569E-03 -0.43215632629E-02  0.55112585858E-02  0.51100000000E-03 0.  1.
         11    1    4    4    0    0 -0.11499345891E+00 -0.15936654790E-01 -0.11360971498E-01  0.11664821195E+00  0.51100000000E-03 0. -1.
</event>
<event>
 8    1  0.1176534E+005  0.1043930E+01  0.7957747E-01            NaN
         13   -1    0    0    0    0  0.00000000000E+00  0.00000000000E+00  0.74505805969E-08  0.10566000000E+00  0.10566000000E+00 0.  1.
     999900   -1    0    0    0    0 -0.00000000000E+00 -0.00000000000E+00 -0.74505805969E-08  0.93827000000E+00  0.93827000000E+00 0. -1.
     999902    2    1    2    0    0 -0.10981032725E-01  0.13287660631E-01 -0.16350620503E-01  0.10201710481E+01  0.10198943473E+01 0.  0.
     999903    2    3    3    0    0  0.79416827170E-01  0.64138383762E-01 -0.80787334682E-01  0.13174003825E+00  0.20200978302E-01 0.  0.
         14    1    1    2    0    0  0.10981032725E-01 -0.13287660631E-01  0.16350620503E-01  0.23758951904E-01  0.00000000000E+00 0. -1.
     999901    1    3    3    0    0 -0.90397859896E-01 -0.50850723130E-01  0.64436714180E-01  0.88843100984E+00  0.88000000000E+00 0.  1.
        -11    1    4    4    0    0  0.26208378095E-01  0.23573596480E-01 -0.16400536032E-01  0.38882286925E-01  0.51100000000E-03 0. -1.
         11    1    4    4    0    0  0.53208449076E-01  0.40564787281E-01 -0.64386798650E-01  0.92857751328E-01  0.51100000000E-03 0.  1.
</event>
<event>
 8    1  0.1176534E+005  0.1043930E+01  0.7957747E-01            NaN
         13   -1    0    0    0    0  0.00000000000E+00  0.00000000000E+00  0.74505805969E-08  0.10566000000E+00  0.10566000000E+00 0. -1.
     999900   -1    0    0    0    0 -0.00000000000E+00 -0.00000000000E+00 -0.74505805969E-08  0.93827000000E+00  0.93827000000E+00 0.  1.
     999902    2    1    2    0    0 -0.22015557452E-01  0.61115348534E-02 -0.52348352251E-03  0.10210759049E+01  0.10208201085E+01 0.  0.
     999903    2    3    3    0    0 -0.90496449106E-01 -0.40324662446E-01  0.86513885054E-01  0.13291969314E+00  0.19165250211E-01 0.  0.
         14    1    1    2    0    0  0.22015557452E-01 -0.61115348534E-02  0.52348352251E-03  0.22854095108E-01  0.00000000000E+00 0. -1.
     999901    1    3    3    0    0  0.68480891654E-01  0.46436197299E-01 -0.87037368577E-01  0.88815621175E+00  0.88000000000E+00 0. -1.
        -11    1    4    4    0    0 -0.64309636912E-01 -0.33401225521E-01  0.52765962873E-01  0.89643065682E-01  0.51100000000E-03 0.  1.
         11    1    4    4    0    0 -0.26186812194E-01 -0.69234369253E-02  0.33747922181E-01  0.43276627460E-01  0.51100000000E-03 0. -1.
</event>
<event>
 8    1  0.1176534E+005  0.1043930E+01  0.7957747E-01            NaN
         13   -1    0    0    0    0  0.00000000000E+00  0.00000000000E+00  0.74505805969E-08  0.10566000000E+00  0.10566000000E+00 0.  1.
     999900   -1    0    0    0    0 -0.00000000000E+00 -0.00000000000E+00 -0.74505805969E-08  0.93827000000E+00  0.93827000000E+00 0. -1.
     999902    2    1    2    0    0  0.20328014895E-02  0.82199523003E-02 -0.34466349164E-01  0.10084387458E+01  0.10078140081E+01 0.  0.
     999903    2    3    3    0    0 -0.64126659532E-01 -0.60610419611E-01  0.73989074841E-01  0.11665554719E+00  0.18662316759E-01 0.  0.
         14    1    1    2    0    0 -0.20328014895E-02 -0.82199523003E-02  0.34466349164E-01  0.35491254168E-01  0.00000000000E+00 0.  1.
     999901    1    3    3    0    0  0.66159461021E-01  0.68830371912E-01 -0.10845542400E+00  0.89178319864E+00  0.88000000000E+00 0. -1.
        -11    1    4    4    0    0 -0.51152321676E-01 -0.55492524356E-01  0.56492181068E-01  0.94274110524E-01  0.51100000000E-03 0. -1.
         11    1    4    4    0    0 -0.12974337856E-01 -0.51178952549E-02  0.17496893773E-01  0.22381436669E-01  0.51100000000E-03 0.  1.
</event>
<event>
 7    1  0.1176534E+005  0.1043930E+01  0.7957747E-01            NaN
         13   -1    0    0    0    0  0.00000000000E+00  0.00000000000E+00  0.74505805969E-08  0.10566000000E+00  0.10566000000E+00 0. -1.
     999900   -1    0    0    0    0 -0.00000000000E+00 -0.00000000000E+00 -0.74505805969E-08  0.93827000000E+00  0.93827000000E+00 0.  1.
     999903    2    1    2    0    0  0.10573644813E+00 -0.10210753941E-01 -0.41434589165E-01  0.11582418811E+00  0.20346041699E-01 0.  0.
         14    1    1    2    0    0 -0.13345538579E-01  0.34203989118E-01  0.21854152434E-01  0.42727277589E-01  0.00000000000E+00 0. -1.
     999901    1    1    2    0    0 -0.92390909549E-01 -0.23993235177E-01  0.19580436731E-01  0.88537853430E+00  0.88000000000E+00 0.  1.
        -11    1    3    3    0    0  0.77090219941E-01 -0.10169186344E-01 -0.20730883838E-01  0.80475741855E-01  0.51100000000E-03 0. -1.
         11    1    3    3    0    0  0.28646228188E-01 -0.41567596715E-04 -0.20703705328E-01  0.35348446253E-01  0.51100000000E-03 0.  1.
</event>
<event>
 8    1  0.1176534E+005  0.1043930E+01  0.7957747E-01            NaN
         13   -1    0    0    0    0  0.00000000000E+00  0.00000000000E+00  0.74505805969E-08  0.10566000000E+00  0.10566000000E+00 0. -1.
     999900   -1    0    0    0    0 -0.00000000000E+00 -0.00000000000E+00 -0.74505805969E-08  0.93827000000E+00  0.93827000000E+00 0.  1.
     999902    2    1    2    0    0  0.22093509330E-01  0.83968320894E-02  0.24632019129E-02  0.10201666394E+01  0.10198898347E+01 0.  0.
     999903    2    3    3    0    0  0.37305639880E-01 -0.17345728553E-01 -0.12201197513E+00  0.13090393465E+00  0.23586711653E-01 0.  0.
         14    1    1    2    0    0 -0.22093509330E-01 -0.83968320894E-02 -0.24632019129E-02  0.23763360606E-01  0.00000000000E+00 0. -1.
     999901    1    3    3    0    0 -0.15212130550E-01  0.25742560643E-01  0.12447517704E+00  0.88926270474E+00  0.88000000000E+00 0. -1.
        -11    1    4    4    0    0  0.17970060865E-01  0.33516802706E-02 -0.36556882636E-01  0.40875709623E-01  0.51100000000E-03 0. -1.
         11    1    4    4    0    0  0.19335579014E-01 -0.20697408824E-01 -0.85455092494E-01  0.90028225030E-01  0.51100000000E-03 0.  1.
</event>
<event>
 8    1  0.1176534E+005  0.1043930E+01  0.7957747E-01            NaN
         13   -1    0    0    0    0  0.00000000000E+00  0.00000000000E+00  0.74505805969E-08  0.10566000000E+00  0.10566000000E+00 0.  1.
     999900   -1    0    0    0    0 -0.00000000000E+00 -0.00000000000E+00 -0.74505805969E-08  0.93827000000E+00  0.93827000000E+00 0.  1.
     999902    2    1    2    0    0 -0.20808161879E-01  0.82361252396E-02 -0.43894968679E-02  0.10211247146E+01  0.10208700219E+01 0.  0.
     999903    2    3    3    0    0  0.67135168576E-02  0.53442907694E-01  0.11782772385E+00  0.13110328506E+00  0.20086890160E-01 0.  0.
         14    1    1    2    0    0  0.20808161879E-01 -0.82361252396E-02  0.43894968679E-02  0.22805285407E-01  0.00000000000E+00 0.  1.
     999901    1    3    3    0    0 -0.27521678737E-01 -0.45206782455E-01 -0.12221722071E+00  0.89002142953E+00  0.88000000000E+00 0.  1.
        -11    1    4    4    0    0  0.23873356895E-02  0.46903395256E-01  0.11158881484E+00  0.12107003170E+00  0.51100000000E-03 0. -1.
         11    1    4    4    0    0  0.43261811681E-02  0.65395124378E-02  0.62389090096E-02  0.10033253363E-01  0.51100000000E-03 0.  1.
</event>
<event>
 8    1  0.1176534E+005  0.1043930E+01  0.7957747E-01            NaN
         13   -1    0    0    0    0  0.00000000000E+00  0.00000000000E+00  0.74505805969E-08  0.10566000000E+00  0.10566000000E+00 0.  1.
     999900   -1    0    0    0    0 -0.00000000000E+00 -0.00000000000E+00 -0.74505805969E-08  0.93827000000E+00  0.93827000000E+00 0.  1.
     999902    2    1    2    0    0 -0.33827006525E-02  0.22464303664E-01 -0.51597172344E-02  0.10206338569E+01  0.10203679530E+01 0.  0.
     999903    2    3    3    0    0 -0.11569619652E+00 -0.32620528094E-01  0.46134239261E-01  0.13030822542E+00  0.20053848436E-01 0.  0.
         14    1    1    2    0    0  0.33827006525E-02 -0.22464303664E-01  0.51597172344E-02  0.23296143130E-01  0.00000000000E+00 0.  1.
     999901    1    3    3    0    0  0.11231349587E+00  0.55084831757E-01 -0.51293956496E-01  0.89032563145E+00  0.88000000000E+00 0.  1.
        -11    1    4    4    0    0 -0.55575450209E-01 -0.53380642142E-02  0.22018831937E-01  0.60018461130E-01  0.51100000000E-03 0.  1.
         11    1    4    4    0    0 -0.60120746313E-01 -0.27282463880E-01  0.24115407324E-01  0.70289764290E-01  0.51100000000E-03 0. -1.
</event>
<event>
 8    1  0.1176534E+005  0.1043930E+01  0.7957747E-01            NaN
         13   -1    0    0    0    0  0.00000000000E+00  0.00000000000E+00  0.74505805969E-08  0.10566000000E+00  0.10566000000E+00 0.  1.
     999900   -1    0    0    0    0 -0.00000000000E+00 -0.00000000000E+00 -0.74505805969E-08  0.93827000000E+00  0.93827000000E+00 0.  1.
     999902    2    1    2    0    0  0.16718305530E-01 -0.12779120863E-01 -0.73828237754E-02  0.10216294673E+01  0.10213860459E+01 0.  0.
     999903    2    3    3    0    0 -0.81151893659E-01  0.74996920241E-01  0.63516360601E-01  0.12904339103E+00  0.20191602592E-01 0.  0.
         14    1    1    2    0    0 -0.16718305530E-01  0.12779120863E-01  0.73828237754E-02  0.22300532655E-01  0.00000000000E+00 0. -1.
     999901    1    3    3    0    0  0.97870199188E-01 -0.87776041103E-01 -0.70899184377E-01  0.89258607631E+00  0.88000000000E+00 0. -1.
        -11    1    4    4    0    0 -0.52085912863E-01  0.56540833142E-01  0.35624472026E-01  0.84729996219E-01  0.51100000000E-03 0. -1.
         11    1    4    4    0    0 -0.29065980796E-01  0.18456087099E-01  0.27891888576E-01  0.44313394814E-01  0.51100000000E-03 0.  1.
</event>
<event>
 8    1  0.1176534E+005  0.1043930E+01  0.7957747E-01            NaN
         13   -1    0    0    0    0  0.00000000000E+00  0.00000000000E+00  0.74505805969E-08  0.10566000000E+00  0.10566000000E+00 0.  1.
     999900   -1    0    0    0    0 -0.00000000000E+00 -0.00000000000E+00 -0.74505805969E-08  0.93827000000E+00  0.93827000000E+00 0. -1.
     999902    2    1    2    0    0  0.56723691186E-02 -0.23017625934E-01  0.35424179939E-02  0.10199605277E+01  0.10196788428E+01 0.  0.
     999903    2    3    3    0    0 -0.65028843567E-01  0.10545624841E+00  0.23416679118E-01  0.12760455386E+00  0.19616586921E-01 0.  0.
         14    1    1    2    0    0 -0.56723691186E-02  0.23017625934E-01 -0.35424179939E-02  0.23969472257E-01  0.00000000000E+00 0.  1.
     999901    1    3    3    0    0  0.70701212685E-01 -0.12847387434E+00 -0.19874261124E-01  0.89235597388E+00  0.88000000000E+00 0.  1.
        -11    1    4    4    0    0 -0.42411504118E-01  0.84173985206E-01  0.15181567119E-01  0.95471129501E-01  0.51100000000E-03 0. -1.
         11    1    4    4    0    0 -0.22617339448E-01  0.21282263199E-01  0.82351119995E-02  0.32133424362E-01  0.51100000000E-03 0.  1.
</event>
<event>
 8    1  0.1176534E+005  0.1043930E+01  0.7957747E-01            NaN
         13   -1    0    0    0    0  0.00000000000E+00  0.00000000000E+00  0.74505805969E-08  0.10566000000E+00  0.10566000000E+00 0.  1.
     999900   -1    0    0    0    0 -0.00000000000E+00 -0.00000000000E+00 -0.74505805969E-08  0.93827000000E+00  0.93827000000E+00 0. -1.
     999902    2    1    2    0    0  0.21171163692E-01  0.72508240809E-02  0.20866147112E-02  0.10214545338E+01  0.10212072356E+01 0.  0.
     999903    2    3    3    0    0  0.95695141930E-01 -0.70896922251E-01 -0.55508120975E-01  0.13298503672E+00  0.20492308871E-01 0.  0.
         14    1    1    2    0    0 -0.21171163692E-01 -0.72508240809E-02 -0.20866147112E-02  0.22475466244E-01  0.00000000000E+00 0.  1.
     999901    1    3    3    0    0 -0.74523978237E-01  0.78147746332E-01  0.57594735686E-01  0.88846949704E+00  0.88000000000E+00 0. -1.
        -11    1    4    4    0    0  0.57239073046E-01 -0.48015256776E-01 -0.24842717218E-01  0.78734986418E-01  0.51100000000E-03 0. -1.
         11    1    4    4    0    0  0.38456068884E-01 -0.22881665475E-01 -0.30665403757E-01  0.54250050300E-01  0.51100000000E-03 0.  1.
</event>
<event>
 8    1  0.1176534E+005  0.1043930E+01  0.7957747E-01            NaN
         13   -1    0    0    0    0  0.00000000000E+00  0.00000000000E+00  0.74505805969E-08  0.10566000000E+00  0.10566000000E+00 0. -1.
     999900   -1    0    0    0    0 -0.00000000000E+00 -0.00000000000E+00 -0.74505805969E-08  0.93827000000E+00  0.93827000000E+00 0.  1.
     999902    2    1    2    0    0  0.14647316343E-01  0.79178390591E-02 -0.17032200473E-01  0.10201112699E+01  0.10198331584E+01 0.  0.
     999903    2    3    3    0    0 -0.63813569087E-01  0.54067471910E-01 -0.99478781170E-01  0.13158252087E+00  0.20554045270E-01 0.  0.
         14    1    1    2    0    0 -0.14647316343E-01 -0.79178390591E-02  0.17032200473E-01  0.23818730117E-01  0.00000000000E+00 0. -1.
     999901    1    3    3    0    0  0.78460885431E-01 -0.46149632851E-01  0.82446580697E-01  0.88852874901E+00  0.88000000000E+00 0. -1.
        -11    1    4    4    0    0 -0.19029143795E-01  0.50140908923E-02 -0.23888678474E-01  0.30954474657E-01  0.51100000000E-03 0.  1.
         11    1    4    4    0    0 -0.44784425293E-01  0.49053381017E-01 -0.75590102696E-01  0.10062804621E+00  0.51100000000E-03 0. -1.
</event>
<event>
 8    1  0.1176534E+005  0.1043930E+01  0.7957747E-01            NaN
         13   -1    0    0    0    0  0.00000000000E+00  0.00000000000E+00  0.74505805969E-08  0.10566000000E+00  0.10566000000E+00 0.  1.
     999900   -1    0    0    0    0 -0.00000000000E+00 -0.00000000000E+00 -0.74505805969E-08  0.93827000000E+00  0.93827000000E+00 0. -1.
     999902    2    1    2    0    0  0.82343756711E-02 -0.41757371745E-03  0.31157578812E-01  0.10116999825E+01  0.10111864717E+01 0.  0.
     999903    2    3    3    0    0 -0.52737339968E-01  0.10273839005E+00 -0.31140014174E-01  0.12139683578E+00  0.20762645264E-01 0.  0.
         14    1    1    2    0    0 -0.82343756711E-02  0.41757371745E-03 -0.31157578812E-01  0.32230017498E-01  0.00000000000E+00 0. -1.
     999901    1    3    3    0    0  0.60971715639E-01 -0.10315596377E+00  0.62297592986E-01  0.89030314672E+00  0.88000000000E+00 0.  1.
        -11    1    4    4    0    0 -0.34588858667E-01  0.85755276744E-01 -0.24097201738E-01  0.95557798666E-01  0.51100000000E-03 0.  1.
         11    1    4    4    0    0 -0.18148481301E-01  0.16983113305E-01 -0.70428124356E-02  0.25839037116E-01  0.51100000000E-03 0. -1.
</event>
<event>
 8    1  0.1176534E+005  0.1043930E+01  0.7957747E-01            NaN
         13   -1    0    0    0    0  0.00000000000E+00  0.00000000000E+00  0.74505805969E-08  0.10566000000E+00  0.10566000000E+00 0. -1.
     999900   -1    0    0    0    0 -0.00000000000E+00 -0.00000000000E+00 -0.74505805969E-08  0.93827000000E+00  0.93827000000E+00 0. -1.
     999902    2    1    2    0    0 -0.14762492044E-01  0.89700228226E-02  0.15876121450E-01  0.10204684631E+01  0.10201987260E+01 0.  0.
     999903    2    3    3    0    0  0.41662671475E-01  0.49126290815E-01  0.11380320948E+00  0.13233219006E+00  0.20284659098E-01 0.  0.
         14    1    1    2    0    0  0.14762492044E-01 -0.89700228226E-02 -0.15876121450E-01  0.23461536887E-01  0.00000000000E+00 0. -1.
     999901    1    3    3    0    0 -0.56425163518E-01 -0.40156267993E-01 -0.97927088032E-01  0.88813627305E+00  0.88000000000E+00 0. -1.
        -11    1    4    4    0    0  0.39563568394E-01  0.41454912358E-01  0.10866389566E+00  0.12284904982E+00  0.51100000000E-03 0. -1.
         11    1    4    4    0    0  0.20991030808E-02  0.76713784576E-02  0.51393138272E-02  0.94831402393E-02  0.51100000000E-03 0.  1.
</event>
<event>
 8    1  0.1176534E+005  0.1043930E+01  0.7957747E-01            NaN
         13   -1    0    0    0    0  0.00000000000E+00  0.00000000000E+00  0.74505805969E-08  0.10566000000E+00  0.10566000000E+00 0. -1.
     999900   -1    0    0    0    0 -0.00000000000E+00 -0.00000000000E+00 -0.74505805969E-08  0.93827000000E+00  0.93827000000E+00 0.  1.
     999902    2    1    2    0    0 -0.64854835264E-03 -0.23843298111E-01 -0.86376071634E-02  0.10185620727E+01  0.10182461216E+01 0.  0.
     999903    2    3    3    0    0  0.11890445372E+00  0.72098104773E-02  0.43539767293E-01  0.12840495492E+00  0.20046711234E-01 0.  0.
         14    1    1    2    0    0  0.64854835264E-03  0.23843298111E-01  0.86376071634E-02  0.25367927335E-01  0.00000000000E+00 0. -1.
     999901    1    3    3    0    0 -0.11955300207E+00 -0.31053108588E-01 -0.52177374456E-01  0.89015711774E+00  0.88000000000E+00 0. -1.
        -11    1    4    4    0    0  0.93630099067E-01 -0.87198570295E-03  0.28387074354E-01  0.97843972333E-01  0.51100000000E-03 0.  1.
         11    1    4    4    0    0  0.25274354655E-01  0.80817961803E-02  0.15152692939E-01  0.30560982592E-01  0.51100000000E-03 0. -1.
</event>
<event>
 8    1  0.1176534E+005  0.1043930E+01  0.7957747E-01            NaN
         13   -1    0    0    0    0  0.00000000000E+00  0.00000000000E+00  0.74505805969E-08  0.10566000000E+00  0.10566000000E+00 0. -1.
     999900   -1    0    0    0    0 -0.00000000000E+00 -0.00000000000E+00 -0.74505805969E-08  0.93827000000E+00  0.93827000000E+00 0.  1.
     999902    2    1    2    0    0 -0.22010369319E-01 -0.40902221427E-02  0.43229236410E-02  0.10211292556E+01  0.10208746656E+01 0.  0.
     999903    2    3    3    0    0 -0.66747269330E-01 -0.20907681719E-01  0.11176607981E+00  0.13330706118E+00  0.19666897206E-01 0.  0.
         14    1    1    2    0    0  0.22010369319E-01  0.40902221427E-02 -0.43229236410E-02  0.22800744364E-01  0.00000000000E+00 0. -1.
     999901    1    3    3    0    0  0.44736900011E-01  0.16817459576E-01 -0.10744315617E+00  0.88782219446E+00  0.88000000000E+00 0.  1.
        -11    1    4    4    0    0 -0.49583222189E-01 -0.23891074375E-01  0.88830122860E-01  0.10450038854E+00  0.51100000000E-03 0. -1.
         11    1    4    4    0    0 -0.17164047142E-01  0.29833926557E-02  0.22935956948E-01  0.28806672633E-01  0.51100000000E-03 0.  1.
</event>
<event>
 8    1  0.1176534E+005  0.1043930E+01  0.7957747E-01            NaN
         13   -1    0    0    0    0  0.00000000000E+00  0.00000000000E+00  0.74505805969E-08  0.10566000000E+00  0.10566000000E+00 0. -1.
     999900   -1    0    0    0    0 -0.00000000000E+00 -0.00000000000E+00 -0.74505805969E-08  0.93827000000E+00  0.93827000000E+00 0. -1.
     999902    2    1    2    0    0 -0.17006656494E-02  0.23413904746E-01  0.33720736938E-02  0.10202134640E+01  0.10199377618E+01 0.  0.
     999903    2    3    3    0    0  0.30621356354E-01  0.12814994926E+00  0.57658796621E-02  0.13341016989E+00  0.20123396877E-01 0.  0.
         14    1    1    2    0    0  0.17006656494E-02 -0.23413904746E-01 -0.33720736938E-02  0.23716536005E-01  0.00000000000E+00 0. -1.
     999901    1    3    3    0    0 -0.32322022004E-01 -0.10473604451E+00 -0.23938059683E-02  0.88680329410E+00  0.88000000000E+00 0.  1.
        -11    1    4    4    0    0  0.20252175829E-01  0.44153083567E-01  0.13071461413E-04  0.48578870985E-01  0.51100000000E-03 0. -1.
         11    1    4    4    0    0  0.10369180525E-01  0.83996865692E-01  0.57528082007E-02  0.84831298906E-01  0.51100000000E-03 0.  1.
</event>
<event>
 7    1  0.1176534E+005  0.1043930E+01  0.7957747E-01            NaN
         13   -1    0    0    0    0  0.00000000000E+00  0.00000000000E+00  0.74505805969E-08  0.10566000000E+00  0.10566000000E+00 0. -1.
     999900   -1    0    0    0    0 -0.00000000000E+00 -0.00000000000E+00 -0.74505805969E-08  0.93827000000E+00  0.93827000000E+00 0. -1.
     999903    2    1    2    0    0  0.89151208793E-01  0.71261169158E-01  0.17110241422E-01  0.11688550165E+00  0.18530188254E-01 0.  0.
         14    1    1    2    0    0  0.36829747110E-02 -0.29319942636E-01  0.27058874578E-01  0.40067518420E-01  0.00000000000E+00 0. -1.
     999901    1    1    2    0    0 -0.92834183504E-01 -0.41941226522E-01 -0.44169116000E-01  0.88697697993E+00  0.88000000000E+00 0. -1.
        -11    1    3    3    0    0  0.34970877654E-01  0.22508768049E-01 -0.16435813092E-02  0.41624144478E-01  0.51100000000E-03 0. -1.
         11    1    3    3    0    0  0.54180331138E-01  0.48752401108E-01  0.18753822731E-01  0.75261357177E-01  0.51100000000E-03 0.  1.
</event>
<event>
 8    1  0.1176534E+005  0.1043930E+01  0.7957747E-01            NaN
         13   -1    0    0    0    0  0.00000000000E+00  0.00000000000E+00  0.74505805969E-08  0.10566000000E+00  0.10566000000E+00 0. -1.
     999900   -1    0    0    0    0 -0.00000000000E+00 -0.00000000000E+00 -0.74505805969E-08  0.93827000000E+00  0.93827000000E+00 0. -1.
     999902    2    1    2    0    0 -0.19692243756E-01  0.73838931277E-02 -0.11481516117E-01  0.10199689576E+01  0.10196874731E+01 0.  0.
     999903    2    3    3    0    0 -0.15932245715E-01  0.12718601185E+00  0.19919263999E-01  0.13128864710E+00  0.20243856220E-01 0.  0.
         14    1    1    2    0    0  0.19692243756E-01 -0.73838931277E-02  0.11481516117E-01  0.23961042428E-01  0.00000000000E+00 0. -1.
     999901    1    3    3    0    0 -0.37599980410E-02 -0.11980211872E+00 -0.31400780115E-01  0.88868031048E+00  0.88000000000E+00 0.  1.
        -11    1    4    4    0    0 -0.18398128889E-01  0.67840337926E-01  0.13048010756E-01  0.71493456359E-01  0.51100000000E-03 0.  1.
         11    1    4    4    0    0  0.24658831732E-02  0.59345673923E-01  0.68712532431E-02  0.59795190737E-01  0.51100000000E-03 0. -1.
</event>
<event>
 8    1  0.1176534E+005  0.1043930E+01  0.7957747E-01            NaN
         13   -1    0    0    0    0  0.00000000000E+00  0.00000000000E+00  0.74505805969E-08  0.10566000000E+00  0.10566000000E+00 0. -1.
     999900   -1    0    0    0    0 -0.00000000000E+00 -0.00000000000E+00 -0.74505805969E-08  0.93827000000E+00  0.93827000000E+00 0.  1.
     999902    2    1    2    0    0  0.18080306925E-01 -0.81216938770E-03 -0.17042444678E-01  0.10190703532E+01  0.10187670896E+01 0.  0.
     999903    2    3    3    0    0  0.54954028767E-01  0.55389830420E-01  0.10098107866E+00  0.12865029043E+00  0.16301545620E-01 0.  0.
         14    1    1    2    0    0 -0.18080306925E-01  0.81216938770E-03  0.17042444678E-01  0.24859646784E-01  0.00000000000E+00 0. -1.
     999901    1    3    3    0    0 -0.36873721841E-01 -0.56201999807E-01 -0.11802352334E+00  0.89042006278E+00  0.88000000000E+00 0.  1.
        -11    1    4    4    0    0  0.38850179314E-01  0.39321745178E-01  0.58679039368E-01  0.80616542092E-01  0.51100000000E-03 0. -1.
         11    1    4    4    0    0  0.16103849452E-01  0.16068085242E-01  0.42302039291E-01  0.48033748341E-01  0.51100000000E-03 0.  1.
</event>
<event>
 8    1  0.1176534E+005  0.1043930E+01  0.7957747E-01            NaN
         13   -1    0    0    0    0  0.00000000000E+00  0.00000000000E+00  0.74505805969E-08  0.10566000000E+00  0.10566000000E+00 0.  1.
     999900   -1    0    0    0    0 -0.00000000000E+00 -0.00000000000E+00 -0.74505805969E-08  0.93827000000E+00  0.93827000000E+00 0.  1.
     999902    2    1    2    0    0  0.62270545503E-02  0.18704439883E-01  0.13301401259E-01  0.10201485039E+01  0.10198712715E+01 0.  0.
     999903    2    3    3    0    0  0.13369890867E-01 -0.39073848918E-01  0.12342226818E+00  0.13137634185E+00  0.17921140146E-01 0.  0.
         14    1    1    2    0    0 -0.62270545503E-02 -0.18704439883E-01 -0.13301401259E-01  0.23781496066E-01  0.00000000000E+00 0. -1.
     999901    1    3    3    0    0 -0.71428363166E-02  0.57778288801E-01 -0.11012086692E+00  0.88877216209E+00  0.88000000000E+00 0. -1.
        -11    1    4    4    0    0 -0.54551421870E-03  0.17404544976E-02  0.51062512788E-02  0.54462547446E-02  0.51100000000E-03 0. -1.
         11    1    4    4    0    0  0.13915405086E-01 -0.40814303416E-01  0.11831601690E+00  0.12593008710E+00  0.51100000000E-03 0.  1.
</event>
<event>
 8    1  0.1176534E+005  0.1043930E+01  0.7957747E-01            NaN
         13   -1    0    0    0    0  0.00000000000E+00  0.00000000000E+00  0.74505805969E-08  0.10566000000E+00  0.10566000000E+00 0. -1.
     999900   -1    0    0    0    0 -0.00000000000E+00 -0.00000000000E+00 -0.74505805969E-08  0.93827000000E+00  0.93827000000E+00 0. -1.
     999902    2    1    2    0    0 -0.15060464153E-01 -0.66202028038E-02  0.15266263451E-01  0.10214866610E+01  0.10212400771E+01 0.  0.
     999903    2    3    3    0    0 -0.10643379375E+00 -0.77997571541E-01  0.13378654366E-01  0.13387899024E+00  0.18243410181E-01 0.  0.
         14    1    1    2    0    0  0.15060464153E-01  0.66202028038E-02 -0.15266263451E-01  0.22443338999E-01  0.00000000000E+00 0.  1.
     999901    1    3    3    0    0  0.91373329602E-01  0.71377368737E-01  0.18876090843E-02  0.88760767076E+00  0.88000000000E+00 0.  1.
        -11    1    4    4    0    0 -0.78143666070E-01 -0.47783941065E-01  0.12752012024E-01  0.92480335760E-01  0.51100000000E-03 0.  1.
         11    1    4    4    0    0 -0.28290127685E-01 -0.30213630475E-01  0.62664234230E-03  0.41398654478E-01  0.51100000000E-03 0. -1.
</event>
<event>
 8    1  0.1176534E+005  0.1043930E+01  0.7957747E-01            NaN
         13   -1    0    0    0    0  0.00000000000E+00  0.00000000000E+00  0.74505805969E-08  0.10566000000E+00  0.10566000000E+00 0. -1.
     999900   -1    0    0    0    0 -0.00000000000E+00 -0.00000000000E+00 -0.74505805969E-08  0.93827000000E+00  0.93827000000E+00 0. -1.
     999902    2    1    2    0    0  0.68640344774E-03 -0.22518310383E-01  0.18824046981E-02  0.10213227246E+01  0.10210724847E+01 0.  0.
     999903    2    3    3    0    0  0.89158646097E-01  0.33589521289E-01 -0.87034747392E-01  0.13065910326E+00  0.20475202008E-01 0.  0.
         14    1    1    2    0    0 -0.68640344774E-03  0.22518310383E-01 -0.18824046981E-02  0.22607275369E-01  0.00000000000E+00 0. -1.
     999901    1    3    3    0    0 -0.88472242649E-01 -0.56107831672E-01  0.88917152090E-01  0.89066362137E+00  0.88000000000E+00 0.  1.
        -11    1    4    4    0    0  0.66324872562E-01  0.31171425196E-01 -0.56967253477E-01  0.92823356753E-01  0.51100000000E-03 0. -1.
         11    1    4    4    0    0  0.22833773535E-01  0.24180960931E-02 -0.30067493915E-01  0.37835746509E-01  0.51100000000E-03 0.  1.
</event>
<event>
 8    1  0.1176534E+005  0.1043930E+01  0.7957747E-01            NaN
         13   -1    0    0    0    0  0.00000000000E+00  0.00000000000E+00  0.74505805969E-08  0.10566000000E+00  0.10566000000E+00 0. -1.
     999900   -1    0    0    0    0 -0.00000000000E+00 -0.00000000000E+00 -0.74505805969E-08  0.93827000000E+00  0.93827000000E+00 0.  1.
     999902    2    1    2    0    0 -0.19496886891E-01  0.78851542184E-02  0.58089136564E-02  0.10221114819E+01  0.10218785807E+01 0.  0.
     999903    2    3    3    0    0  0.40765997266E-01 -0.99220225706E-02 -0.12203951338E+00  0.13065540833E+00  0.20417635421E-01 0.  0.
         14    1    1    2    0    0  0.19496886891E-01 -0.78851542184E-02 -0.58089136564E-02  0.21818518129E-01  0.00000000000E+00 0. -1.
     999901    1    3    3    0    0 -0.60262884157E-01  0.17807176789E-01  0.12784842703E+00  0.89145607354E+00  0.88000000000E+00 0. -1.
        -11    1    4    4    0    0  0.29208296899E-01 -0.51351273363E-02 -0.10726043026E+00  0.11128591628E+00  0.51100000000E-03 0.  1.
         11    1    4    4    0    0  0.11557700367E-01 -0.47868952343E-02 -0.14779083113E-01  0.19369492054E-01  0.51100000000E-03 0. -1.
</event>
<event>
 8    1  0.1176534E+005  0.1043930E+01  0.7957747E-01            NaN
         13   -1    0    0    0    0  0.00000000000E+00  0.00000000000E+00  0.74505805969E-08  0.10566000000E+00  0.10566000000E+00 0.  1.
     999900   -1    0    0    0    0 -0.00000000000E+00 -0.00000000000E+00 -0.74505805969E-08  0.93827000000E+00  0.93827000000E+00 0. -1.
     999902    2    1    2    0    0 -0.22294870283E-01 -0.77491588034E-02  0.39661754458E-02  0.10199958977E+01  0.10197150534E+01 0.  0.
     999903    2    3    3    0    0  0.95560947887E-01 -0.84202366805E-01 -0.97997154864E-03  0.12883959762E+00  0.19410003426E-01 0.  0.
         14    1    1    2    0    0  0.22294870283E-01  0.77491588034E-02 -0.39661754458E-02  0.23934102255E-01  0.00000000000E+00 0.  1.
     999901    1    3    3    0    0 -0.11785581817E+00  0.76453208002E-01  0.49461469944E-02  0.89115630013E+00  0.88000000000E+00 0. -1.
        -11    1    4    4    0    0  0.18859199750E-01 -0.27891342953E-01  0.40237160831E-03  0.33675205283E-01  0.51100000000E-03 0. -1.
         11    1    4    4    0    0  0.76701748137E-01 -0.56311023852E-01 -0.13823431569E-02  0.95164392333E-01  0.51100000000E-03 0.  1.
</event>
<event>
 8    1  0.1176534E+005  0.1043930E+01  0.7957747E-01            NaN
         13   -1    0    0    0    0  0.00000000000E+00  0.00000000000E+00  0.74505805969E-08  0.10566000000E+00  0.10566000000E+00 0. -1.
     999900   -1    0    0    0    0 -0.00000000000E+00 -0.00000000000E+00 -0.74505805969E-08  0.93827000000E+00  0.93827000000E+00 0.  1.
     999902    2    1    2    0    0 -0.30636194581E-02 -0.13334387112E-01 -0.19150901114E-01  0.10203938861E+01  0.10201224114E+01 0.  0.
     999903    2    3    3    0    0  0.45103416117E-01 -0.92267741300E-01 -0.83002907121E-01  0.13324811658E+00  0.17830416447E-01 0.  0.
         14    1    1    2    0    0  0.30636194581E-02  0.13334387112E-01  0.19150901114E-01  0.23536113896E-01  0.00000000000E+00 0.  1.
     999901    1    3    3    0    0 -0.48167035576E-01  0.78933354188E-01  0.63852006006E-01  0.88714576953E+00  0.88000000000E+00 0. -1.
        -11    1    4    4    0    0  0.19081175853E-01 -0.31948408095E-01 -0.40499975617E-01  0.55002738093E-01  0.51100000000E-03 0.  1.
         11    1    4    4    0    0  0.26022240264E-01 -0.60319333204E-01 -0.42502931504E-01  0.78245378483E-01  0.51100000000E-03 0. -1.
</event>
<event>
 8    1  0.1176534E+005  0.1043930E+01  0.7957747E-01            NaN
         13   -1    0    0    0    0  0.00000000000E+00  0.00000000000E+00  0.74505805969E-08  0.10566000000E+00  0.10566000000E+00 0. -1.
     999900   -1    0    0    0    0 -0.00000000000E+00 -0.00000000000E+00 -0.74505805969E-08  0.93827000000E+00  0.93827000000E+00 0. -1.
     999902    2    1    2    0    0 -0.14323429685E-01  0.14036871631E-02 -0.17836013847E-01  0.10210115715E+01  0.10207543165E+01 0.  0.
     999903    2    3    3    0    0 -0.89209934289E-01 -0.11973043975E-01  0.92809067950E-01  0.13082661338E+00  0.20007836406E-01 0.  0.
         14    1    1    2    0    0  0.14323429685E-01 -0.14036871631E-02  0.17836013847E-01  0.22918428514E-01  0.00000000000E+00 0. -1.
     999901    1    3    3    0    0  0.74886504604E-01  0.13376731138E-01 -0.11064508180E+00  0.89018495810E+00  0.88000000000E+00 0. -1.
        -11    1    4    4    0    0 -0.67664496443E-01 -0.39666213098E-02  0.78639153755E-01  0.10382001632E+00  0.51100000000E-03 0.  1.
         11    1    4    4    0    0 -0.21545437846E-01 -0.80064226648E-02  0.14169914195E-01  0.27006597067E-01  0.51100000000E-03 0. -1.
</event>
<event>
 8    1  0.1176534E+005  0.1043930E+01  0.7957747E-01            NaN
         13   -1    0    0    0    0  0.00000000000E+00  0.00000000000E+00  0.74505805969E-08  0.10566000000E+00  0.10566000000E+00 0.  1.
     999900   -1    0    0    0    0 -0.00000000000E+00 -0.00000000000E+00 -0.74505805969E-08  0.93827000000E+00  0.93827000000E+00 0.  1.
     999902    2    1    2    0    0 -0.64385453985E-02 -0.13027666273E-01  0.16987244755E-01  0.10215751026E+01  0.10213304797E+01 0.  0.
     999903    2    3    3    0    0 -0.80321919669E-01  0.36343722259E-01  0.98033459676E-01  0.13339450383E+00  0.20274553245E-01 0.  0.
         14    1    1    2    0    0  0.64385453985E-02  0.13027666273E-01 -0.16987244755E-01  0.22354897444E-01  0.00000000000E+00 0.  1.
     999901    1    3    3    0    0  0.73883374270E-01 -0.49371388532E-01 -0.81046214921E-01  0.88818059873E+00  0.88000000000E+00 0.  1.
        -11    1    4    4    0    0 -0.18624110871E-01  0.17647802923E-01  0.22923438322E-01  0.34409992724E-01  0.51100000000E-03 0. -1.
         11    1    4    4    0    0 -0.61697808797E-01  0.18695919335E-01  0.75110021354E-01  0.98984511107E-01  0.51100000000E-03 0.  1.
</event>
<event>
 8    1  0.1176534E+005  0.1043930E+01  0.7957747E-01            NaN
         13   -1    0    0    0    0  0.00000000000E+00  0.00000000000E+00  0.74505805969E-08  0.10566000000E+00  0.10566000000E+00 0. -1.
     999900   -1    0    0    0    0 -0.00000000000E+00 -0.00000000000E+00 -0.74505805969E-08  0.93827000000E+00  0.93827000000E+00 0. -1.
     999902    2    1    2    0    0  0.19040063073E-01  0.14006915331E-01  0.66816477646E-02  0.10193665700E+01  0.10190705775E+01 0.  0.
     999903    2    3    3    0    0 -0.29788661928E-01  0.35025541618E-01 -0.11870397026E+00  0.12889052859E+00  0.20198585566E-01 0.  0.
         14    1    1    2    0    0 -0.19040063073E-01 -0.14006915331E-01 -0.66816477646E-02  0.24563430048E-01  0.00000000000E+00 0.  1.
     999901    1    3    3    0    0  0.48828725001E-01 -0.21018626287E-01  0.12538561802E+00  0.89047604136E+00  0.88000000000E+00 0.  1.
        -11    1    4    4    0    0 -0.31104688561E-01  0.26909181098E-01 -0.88645274555E-01  0.97723341632E-01  0.51100000000E-03 0.  1.
         11    1    4    4    0    0  0.13160266330E-02  0.81163605195E-02 -0.30058695706E-01  0.31167186955E-01  0.51100000000E-03 0. -1.
</event>
<event>
 7    1  0.1176534E+005  0.1043930E+01  0.7957747E-01            NaN
         13   -1    0    0    0    0  0.00000000000E+00  0.00000000000E+00  0.74505805969E-08  0.10566000000E+00  0.10566000000E+00 0.  1.
     999900   -1    0    0    0    0 -0.00000000000E+00 -0.00000000000E+00 -0.74505805969E-08  0.93827000000E+00  0.93827000000E+00 0. -1.
     999903    2    1    2    0    0 -0.90124977367E-01  0.64461995199E-01 -0.99868120726E-02  0.11205773524E+00  0.13391760243E-01 0.  0.
         14    1    1    2    0    0  0.23936191282E-01  0.29968801384E-01  0.22099989035E-01  0.44266012072E-01  0.00000000000E+00 0.  1.
     999901    1    1    2    0    0  0.66188786085E-01 -0.94430796582E-01 -0.12113176962E-01  0.88760625268E+00  0.88000000000E+00 0. -1.
        -11    1    3    3    0    0 -0.72405818561E-01  0.49246473726E-01 -0.12911230602E-01  0.88514285472E-01  0.51100000000E-03 0. -1.
         11    1    3    3    0    0 -0.17719158806E-01  0.15215521472E-01  0.29244185290E-02  0.23543449773E-01  0.51100000000E-03 0.  1.
</event>
<event>
 8    1  0.1176534E+005  0.1043930E+01  0.7957747E-01            NaN
         13   -1    0    0    0    0  0.00000000000E+00  0.00000000000E+00  0.74505805969E-08  0.10566000000E+00  0.10566000000E+00 0.  1.
     999900   -1    0    0    0    0 -0.00000000000E+00 -0.00000000000E+00 -0.74505805969E-08  0.93827000000E+00  0.93827000000E+00 0. -1.
     999902    2    1    2    0    0 -0.17214643979E-01  0.80376474692E-02  0.32332500003E-01  0.10064288227E+01  0.10057299025E+01 0.  0.
     999903    2    3    3    0    0  0.25848701038E-01 -0.58388895098E-01 -0.92471363231E-01  0.11410436290E+00  0.19784696070E-01 0.  0.
         14    1    1    2    0    0  0.17214643979E-01 -0.80376474692E-02 -0.32332500003E-01  0.37501177323E-01  0.00000000000E+00 0. -1.
     999901    1    3    3    0    0 -0.43063345017E-01  0.66426542568E-01  0.12480386323E+00  0.89232445978E+00  0.88000000000E+00 0.  1.
        -11    1    4    4    0    0  0.12973434323E-01 -0.17829451769E-01 -0.18601678213E-01  0.28852779795E-01  0.51100000000E-03 0.  1.
         11    1    4    4    0    0  0.12875266715E-01 -0.40559443329E-01 -0.73869685017E-01  0.85251583104E-01  0.51100000000E-03 0. -1.
</event>
<event>
 8    1  0.1176534E+005  0.1043930E+01  0.7957747E-01            NaN
         13   -1    0    0    0    0  0.00000000000E+00  0.00000000000E+00  0.74505805969E-08  0.10566000000E+00  0.10566000000E+00 0. -1.
     999900   -1    0    0    0    0 -0.00000000000E+00 -0.00000000000E+00 -0.74505805969E-08  0.93827000000E+00  0.93827000000E+00 0.  1.
     999902    2    1    2    0    0  0.16310071979E-01  0.97393094083E-03  0.17688433206E-01  0.10198499739E+01  0.10195656534E+01 0.  0.
     999903    2    3    3    0    0  0.11038136326E+00  0.69228760507E-01 -0.44165513100E-02  0.13193288317E+00  0.20251249367E-01 0.  0.
         14    1    1    2    0    0 -0.16310071979E-01 -0.97393094083E-03 -0.17688433206E-01  0.24080026137E-01  0.00000000000E+00 0.  1.
     999901    1    3    3    0    0 -0.94071291277E-01 -0.68254829566E-01  0.22104984516E-01  0.88791709069E+00  0.88000000000E+00 0. -1.
        -11    1    4    4    0    0  0.22070606280E-01  0.58133072216E-02 -0.41887845938E-02  0.23210196893E-01  0.51100000000E-03 0. -1.
         11    1    4    4    0    0  0.88310756976E-01  0.63415453285E-01 -0.22776671620E-03  0.10872268628E+00  0.51100000000E-03 0.  1.
</event>
<event>
 8    1  0.1176534E+005  0.1043930E+01  0.7957747E-01            NaN
         13   -1    0    0    0    0  0.00000000000E+00  0.00000000000E+00  0.74505805969E-08  0.10566000000E+00  0.10566000000E+00 0. -1.
     999900   -1    0    0    0    0 -0.00000000000E+00 -0.00000000000E+00 -0.74505805969E-08  0.93827000000E+00  0.93827000000E+00 0. -1.
     999902    2    1    2    0    0 -0.67110000869E-02  0.22893834308E-01 -0.24317539668E-02  0.10199492035E+01  0.10196672493E+01 0.  0.
     999903    2    3    3    0    0  0.54812324498E-01  0.63533176442E-01 -0.99351939973E-01  0.13156291478E+00  0.19928300077E-01 0.  0.
         14    1    1    2    0    0  0.67110000869E-02 -0.22893834308E-01  0.24317539668E-02  0.23980796459E-01  0.00000000000E+00 0.  1.
     999901    1    3    3    0    0 -0.61523324585E-01 -0.40639342134E-01  0.96920186007E-01  0.88838628876E+00  0.88000000000E+00 0.  1.
        -11    1    4    4    0    0  0.35419268094E-01  0.34134482185E-01 -0.44257611105E-01  0.66171630538E-01  0.51100000000E-03 0. -1.
         11    1    4    4    0    0  0.19393056404E-01  0.29398694257E-01 -0.55094328869E-01  0.65391284245E-01  0.51100000000E-03 0.  1.
</event>
<event>
 8    1  0.1176534E+005  0.1043930E+01  0.7957747E-01            NaN
         13   -1    0    0    0    0  0.00000000000E+00  0.00000000000E+00  0.74505805969E-08  0.10566000000E+00  0.10566000000E+00 0. -1.
     999900   -1    0    0    0    0 -0.00000000000E+00 -0.00000000000E+00 -0.74505805969E-08  0.93827000000E+00  0.93827000000E+00 0.  1.
     999902    2    1    2    0    0  0.63742701117E-02 -0.11628295853E-01  0.18436362984E-01  0.10212199127E+01  0.10209673658E+01 0.  0.
     999903    2    3    3    0    0  0.55826933673E-01  0.59023357221E-01 -0.98545749148E-01  0.12929949219E+00  0.20166575909E-01 0.  0.
         14    1    1    2    0    0 -0.63742701117E-02  0.11628295853E-01 -0.18436362984E-01  0.22710087273E-01  0.00000000000E+00 0. -1.
     999901    1    3    3    0    0 -0.49452663561E-01 -0.70651653073E-01  0.11698211213E+00  0.89192042054E+00  0.88000000000E+00 0. -1.
        -11    1    4    4    0    0  0.25009451493E-01  0.23625201953E-01 -0.57192203940E-01  0.66744528943E-01  0.51100000000E-03 0.  1.
         11    1    4    4    0    0  0.30817482180E-01  0.35398155268E-01 -0.41353545208E-01  0.62554963245E-01  0.51100000000E-03 0. -1.
</event>
<event>
 8    1  0.1176534E+005  0.1043930E+01  0.7957747E-01            NaN
         13   -1    0    0    0    0  0.00000000000E+00  0.00000000000E+00  0.74505805969E-08  0.10566000000E+00  0.10566000000E+00 0.  1.
     999900   -1    0    0    0    0 -0.00000000000E+00 -0.00000000000E+00 -0.74505805969E-08  0.93827000000E+00  0.93827000000E+00 0.  1.
     999902    2    1    2    0    0 -0.21059207435E-01  0.10444021250E-01  0.45554266042E-03  0.10204188257E+01  0.10201479327E+01 0.  0.
     999903    2    3    3    0    0  0.74882356166E-01 -0.20401207777E-01 -0.10051704763E+00  0.12893036489E+00  0.22266243076E-01 0.  0.
         14    1    1    2    0    0  0.21059207435E-01 -0.10444021250E-01 -0.45554266042E-03  0.23511174296E-01  0.00000000000E+00 0.  1.
     999901    1    3    3    0    0 -0.95941563602E-01  0.30845229026E-01  0.10097259030E+00  0.89148846082E+00  0.88000000000E+00 0. -1.
        -11    1    4    4    0    0  0.23040034111E-01  0.29880985363E-02 -0.22191774293E-01  0.32132660518E-01  0.51100000000E-03 0. -1.
         11    1    4    4    0    0  0.51842322055E-01 -0.23389306313E-01 -0.78325273342E-01  0.96797704369E-01  0.51100000000E-03 0.  1.
</event>
<event>
 8    1  0.1176534E+005  0.1043930E+01  0.7957747E-01            NaN
         13   -1    0    0    0    0  0.00000000000E+00  0.00000000000E+00  0.74505805969E-08  0.10566000000E+00  0.10566000000E+00 0.  1.
     999900   -1    0    0    0    0 -0.00000000000E+00 -0.00000000000E+00 -0.74505805969E-08  0.93827000000E+00  0.93827000000E+00 0. -1.
     999902    2    1    2    0    0 -0.32170444163E-02 -0.87721507377E-02  0.18715915680E-01  0.10230114555E+01  0.10227975619E+01 0.  0.
     999903    2    3    3    0    0  0.10303798569E-01  0.12140688389E+00  0.48762430495E-01  0.13282485300E+00  0.20466246023E-01 0.  0.
         14    1    1    2    0    0  0.32170444163E-02  0.87721507377E-02 -0.18715915680E-01  0.20918544478E-01  0.00000000000E+00 0.  1.
     999901    1    3    3    0    0 -0.13520842986E-01 -0.13017903463E+00 -0.30046514815E-01  0.89018660252E+00  0.88000000000E+00 0.  1.
        -11    1    4    4    0    0  0.65279845063E-02  0.76896683208E-01  0.20107185119E-01  0.79751329045E-01  0.51100000000E-03 0.  1.
         11    1    4    4    0    0  0.37758140630E-02  0.44510200684E-01  0.28655245375E-01  0.53073523958E-01  0.51100000000E-03 0. -1.
</event>
<event>
 8    1  0.1176534E+005  0.1043930E+01  0.7957747E-01            NaN
         13   -1    0    0    0    0  0.00000000000E+00  0.00000000000E+00  0.74505805969E-08  0.10566000000E+00  0.10566000000E+00 0. -1.
     999900   -1    0    0    0    0 -0.00000000000E+00 -0.00000000000E+00 -0.74505805969E-08  0.93827000000E+00  0.93827000000E+00 0. -1.
     999902    2    1    2    0    0  0.13203385246E-01  0.13793892090E-01  0.16108305080E-01  0.10189484401E+01  0.10186421576E+01 0.  0.
     999903    2    3    3    0    0 -0.63942363383E-01 -0.82227115835E-02 -0.10730018861E+00  0.12672321426E+00  0.19728247139E-01 0.  0.
         14    1    1    2    0    0 -0.13203385246E-01 -0.13793892090E-01 -0.16108305080E-01  0.24981559869E-01  0.00000000000E+00 0.  1.
     999901    1    3    3    0    0  0.77145748629E-01  0.22016603673E-01  0.12340849369E+00  0.89222522587E+00  0.88000000000E+00 0.  1.
        -11    1    4    4    0    0 -0.15029523743E-01 -0.98201070352E-03 -0.11653494337E-01  0.19050353809E-01  0.51100000000E-03 0.  1.
         11    1    4    4    0    0 -0.48912839640E-01 -0.72407008799E-02 -0.95646694273E-01  0.10767286045E+00  0.51100000000E-03 0. -1.
</event>
<event>
 8    1  0.1176534E+005  0.1043930E+01  0.7957747E-01            NaN
         13   -1    0    0    0    0  0.00000000000E+00  0.00000000000E+00  0.74505805969E-08  0.10566000000E+00  0.10566000000E+00 0. -1.
     999900   -1    0    0    0    0 -0.00000000000E+00 -0.00000000000E+00 -0.74505805969E-08  0.93827000000E+00  0.93827000000E+00 0.  1.
     999902    2    1    2    0    0 -0.19876034166E-01 -0.13367425294E-01  0.12424933280E-02  0.10199448258E+01  0.10196627673E+01 0.  0.
     999903    2    3    3    0    0  0.41620130699E-01  0.23996986236E-01  0.11834494886E+00  0.12927605309E+00  0.19966981586E-01 0.  0.
         14    1    1    2    0    0  0.19876034166E-01  0.13367425294E-01 -0.12424933280E-02  0.23985174230E-01  0.00000000000E+00 0.  1.
     999901    1    3    3    0    0 -0.61496164865E-01 -0.37364411530E-01 -0.11710245553E+00  0.89066877268E+00  0.88000000000E+00 0.  1.
        -11    1    4    4    0    0  0.91864135541E-02  0.15408692590E-01  0.50333504213E-01  0.53437260116E-01  0.51100000000E-03 0.  1.
         11    1    4    4    0    0  0.32433717145E-01  0.85882936457E-02  0.68011444645E-01  0.75838792971E-01  0.51100000000E-03 0. -1.
</event>
<event>
 8    1  0.1176534E+005  0.1043930E+01  0.7957747E-01            NaN
         13   -1    0    0    0    0  0.00000000000E+00  0.00000000000E+00  0.74505805969E-08  0.10566000000E+00  0.10566000000E+00 0. -1.
     999900   -1    0    0    0    0 -0.00000000000E+00 -0.00000000000E+00 -0.74505805969E-08  0.93827000000E+00  0.93827000000E+00 0. -1.
     999902    2    1    2    0    0  0.17271730264E-01  0.32145196291E-02 -0.16944821238E-01  0.10195215431E+01  0.10192293187E+01 0.  0.
     999903    2    3    3    0    0  0.11362348781E+00  0.64171304097E-01 -0.30407687564E-02  0.13205733905E+00  0.20040989705E-01 0.  0.
         14    1    1    2    0    0 -0.17271730264E-01 -0.32145196291E-02  0.16944821238E-01  0.24408456927E-01  0.00000000000E+00 0. -1.
     999901    1    3    3    0    0 -0.96351757551E-01 -0.60956784468E-01 -0.13904052481E-01  0.88746420403E+00  0.88000000000E+00 0. -1.
        -11    1    4    4    0    0  0.65051554509E-01  0.46931239775E-01  0.22211819690E-02  0.80246126269E-01  0.51100000000E-03 0.  1.
         11    1    4    4    0    0  0.48571933306E-01  0.17240064322E-01 -0.52619507254E-02  0.51811212776E-01  0.51100000000E-03 0. -1.
</event>
<event>
 8    1  0.1176534E+005  0.1043930E+01  0.7957747E-01            NaN
         13   -1    0    0    0    0  0.00000000000E+00  0.00000000000E+00  0.74505805969E-08  0.10566000000E+00  0.10566000000E+00 0. -1.
     999900   -1    0    0    0    0 -0.00000000000E+00 -0.00000000000E+00 -0.74505805969E-08  0.93827000000E+00  0.93827000000E+00 0. -1.
     999902    2    1    2    0    0  0.12081108884E-01 -0.15053672652E-01 -0.13191771089E-01  0.10205507554E+01  0.10202829291E+01 0.  0.
     999903    2    3    3    0    0 -0.10845066748E+00  0.46327335172E-01  0.45942068624E-01  0.12825464526E+00  0.20755989496E-01 0.  0.
         14    1    1    2    0    0 -0.12081108884E-01  0.15053672652E-01  0.13191771089E-01  0.23379244569E-01  0.00000000000E+00 0.  1.
     999901    1    3    3    0    0  0.12053177636E+00 -0.61381007824E-01 -0.59133839712E-01  0.89229611017E+00  0.88000000000E+00 0.  1.
        -11    1    4    4    0    0 -0.14084043955E-01 -0.32746536603E-03  0.22451928393E-02  0.14274786849E-01  0.51100000000E-03 0.  1.
         11    1    4    4    0    0 -0.94366623521E-01  0.46654800538E-01  0.43696875785E-01  0.11397985841E+00  0.51100000000E-03 0. -1.
</event>
<event>
 8    1  0.1176534E+005  0.1043930E+01  0.7957747E-01            NaN
         13   -1    0    0    0    0  0.00000000000E+00  0.00000000000E+00  0.74505805969E-08  0.10566000000E+00  0.10566000000E+00 0.  1.
     999900   -1    0    0    0    0 -0.00000000000E+00 -0.00000000000E+00 -0.74505805969E-08  0.93827000000E+00  0.93827000000E+00 0. -1.
     999902    2    1    2    0    0  0.15662052330E-02 -0.36704548893E-02  0.23382818288E-01  0.10202090930E+01  0.10199332880E+01 0.  0.
     999903    2    3    3    0    0  0.12816938457E+00 -0.12014418492E-01  0.14332172364E-01  0.13106349135E+00  0.20012251416E-01 0.  0.
         14    1    1    2    0    0 -0.15662052330E-02  0.36704548893E-02 -0.23382818288E-01  0.23720907002E-01  0.00000000000E+00 0. -1.
     999901    1    3    3    0    0 -0.12660317933E+00  0.83439636026E-02  0.90506459241E-02  0.88914560165E+00  0.88000000000E+00 0.  1.
        -11    1    4    4    0    0  0.26059966829E-01 -0.72810481020E-02  0.96641868735E-02  0.28736617085E-01  0.51100000000E-03 0. -1.
         11    1    4    4    0    0  0.10210941774E+00 -0.47333703899E-02  0.46679854905E-02  0.10232687426E+00  0.51100000000E-03 0.  1.
</event>
<event>
 8    1  0.1176534E+005  0.1043930E+01  0.7957747E-01            NaN
         13   -1    0    0    0    0  0.00000000000E+00  0.00000000000E+00  0.74505805969E-08  0.10566000000E+00  0.10566000000E+00 0. -1.
     999900   -1    0    0    0    0 -0.00000000000E+00 -0.00000000000E+00 -0.74505805969E-08  0.93827000000E+00  0.93827000000E+00 0.  1.
     999902    2    1    2    0    0 -0.12108246784E-01 -0.20126989844E-01 -0.64657336908E-02  0.10195679173E+01  0.10192768157E+01 0.  0.
     999903    2    3    3    0    0 -0.31630207637E-01 -0.12535454374E+00 -0.27706959982E-01  0.13282943572E+00  0.12718163805E-01 0.  0.
         14    1    1    2    0    0  0.12108246784E-01  0.20126989844E-01  0.64657336908E-02  0.24362082680E-01  0.00000000000E+00 0. -1.
     999901    1    3    3    0    0  0.19521960854E-01  0.10522755390E+00  0.21241226291E-01  0.88673848160E+00  0.88000000000E+00 0. -1.
        -11    1    4    4    0    0 -0.28445018607E-01 -0.11816615045E+00 -0.23150647838E-01  0.12372781341E+00  0.51100000000E-03 0. -1.
         11    1    4    4    0    0 -0.31851890303E-02 -0.71883932924E-02 -0.45563121441E-02  0.91016223081E-02  0.51100000000E-03 0.  1.
</event>
<event>
 8    1  0.1176534E+005  0.1043930E+01  0.7957747E-01            NaN
         13   -1    0    0    0    0  0.00000000000E+00  0.00000000000E+00  0.74505805969E-08  0.10566000000E+00  0.10566000000E+00 0. -1.
     999900   -1    0    0    0    0 -0.00000000000E+00 -0.00000000000E+00 -0.74505805969E-08  0.93827000000E+00  0.93827000000E+00 0. -1.
     999902    2    1    2    0    0 -0.82028306651E-02 -0.22067751504E-01  0.35344127895E-02  0.10201231909E+01  0.10198453610E+01 0.  0.
     999903    2    3    3    0    0  0.97453797556E-01 -0.65190543477E-01  0.55444151768E-01  0.13123764184E+00  0.20055299856E-01 0.  0.
         14    1    1    2    0    0  0.82028306651E-02  0.22067751504E-01 -0.35344127895E-02  0.23806809134E-01  0.00000000000E+00 0.  1.
     999901    1    3    3    0    0 -0.10565662822E+00  0.43122791973E-01 -0.51909738979E-01  0.88888554903E+00  0.88000000000E+00 0. -1.
        -11    1    4    4    0    0  0.87756747714E-01 -0.53875078761E-01  0.53949042148E-01  0.11625201568E+00  0.51100000000E-03 0.  1.
         11    1    4    4    0    0  0.96970498412E-02 -0.11315464716E-01  0.14951096203E-02  0.14985626151E-01  0.51100000000E-03 0. -1.
</event>
<event>
 8    1  0.1176534E+005  0.1043930E+01  0.7957747E-01            NaN
         13   -1    0    0    0    0  0.00000000000E+00  0.00000000000E+00  0.74505805969E-08  0.10566000000E+00  0.10566000000E+00 0.  1.
     999900   -1    0    0    0    0 -0.00000000000E+00 -0.00000000000E+00 -0.74505805969E-08  0.93827000000E+00  0.93827000000E+00 0.  1.
     999902    2    1    2    0    0 -0.94820855612E-02 -0.43220231511E-02 -0.20247257611E-01  0.10211584987E+01  0.10209045686E+01 0.  0.
     999903    2    3    3    0    0  0.71704369267E-01 -0.58315248871E-02  0.10470218111E+00  0.12863069449E+00  0.20193701566E-01 0.  0.
         14    1    1    2    0    0  0.94820855612E-02  0.43220231511E-02  0.20247257611E-01  0.22771501300E-01  0.00000000000E+00 0.  1.
     999901    1    3    3    0    0 -0.81186454829E-01  0.15095017360E-02 -0.12494943872E+00  0.89252780421E+00  0.88000000000E+00 0.  1.
        -11    1    4    4    0    0  0.35209374472E-01  0.64037109817E-02  0.57401980390E-01  0.67645813165E-01  0.51100000000E-03 0. -1.
         11    1    4    4    0    0  0.36494994796E-01 -0.12235235869E-01  0.47300200718E-01  0.60984881330E-01  0.51100000000E-03 0.  1.
</event>
<event>
 8    1  0.1176534E+005  0.1043930E+01  0.7957747E-01            NaN
         13   -1    0    0    0    0  0.00000000000E+00  0.00000000000E+00  0.74505805969E-08  0.10566000000E+00  0.10566000000E+00 0. -1.
     999900   -1    0    0    0    0 -0.00000000000E+00 -0.00000000000E+00 -0.74505805969E-08  0.93827000000E+00  0.93827000000E+00 0. -1.
     999902    2    1    2    0    0  0.20717685482E-01 -0.35897968161E-02  0.10541090682E-01  0.10204092916E+01  0.10201381762E+01 0.  0.
     999903    2    3    3    0    0 -0.92630631510E-01  0.80731329961E-01  0.33619602336E-01  0.12884296700E+00  0.19293806069E-01 0.  0.
         14    1    1    2    0    0 -0.20717685482E-01  0.35897968161E-02 -0.10541090682E-01  0.23520708443E-01  0.00000000000E+00 0.  1.
     999901    1    3    3    0    0  0.11334831699E+00 -0.84321126777E-01 -0.23078511654E-01  0.89156632456E+00  0.88000000000E+00 0.  1.
        -11    1    4    4    0    0 -0.67839692310E-01  0.68938859307E-01  0.23119648050E-01  0.99446314272E-01  0.51100000000E-03 0. -1.
         11    1    4    4    0    0 -0.24790939201E-01  0.11792470654E-01  0.10499954286E-01  0.29396652727E-01  0.51100000000E-03 0.  1.
</event>
<event>
 8    1  0.1176534E+005  0.1043930E+01  0.7957747E-01            NaN
         13   -1    0    0    0    0  0.00000000000E+00  0.00000000000E+00  0.74505805969E-08  0.10566000000E+00  0.10566000000E+00 0. -1.
     999900   -1    0    0    0    0 -0.00000000000E+00 -0.00000000000E+00 -0.74505805969E-08  0.93827000000E+00  0.93827000000E+00 0.  1.
     999902    2    1    2    0    0  0.40349955030E-02  0.15144533672E-01  0.29431398323E-01  0.10105856557E+01  0.10100354064E+01 0.  0.
     999903    2    3    3    0    0  0.10985057461E+00  0.34874097227E-01  0.41313852880E-01  0.12394740637E+00  0.19307348561E-01 0.  0.
         14    1    1    2    0    0 -0.40349955030E-02 -0.15144533672E-01 -0.29431398323E-01  0.33344344289E-01  0.00000000000E+00 0.  1.
     999901    1    3    3    0    0 -0.10581557910E+00 -0.19729563555E-01 -0.11882454557E-01  0.88663824934E+00  0.88000000000E+00 0. -1.
        -11    1    4    4    0    0  0.76313229361E-01  0.33315827730E-01  0.28640316683E-01  0.88057834482E-01  0.51100000000E-03 0.  1.
         11    1    4    4    0    0  0.33537345245E-01  0.15582694961E-02  0.12673536197E-01  0.35889571893E-01  0.51100000000E-03 0. -1.
</event>
<event>
 8    1  0.1176534E+005  0.1043930E+01  0.7957747E-01            NaN
         13   -1    0    0    0    0  0.00000000000E+00  0.00000000000E+00  0.74505805969E-08  0.10566000000E+00  0.10566000000E+00 0.  1.
     999900   -1    0    0    0    0 -0.00000000000E+00 -0.00000000000E+00 -0.74505805969E-08  0.93827000000E+00  0.93827000000E+00 0. -1.
     999902    2    1    2    0    0  0.11038164580E-01 -0.32056007616E-02 -0.20273343440E-01  0.10206249489E+01  0.10203588393E+01 0.  0.
     999903    2    3    3    0    0  0.17124837030E-02 -0.12586009079E+00 -0.34152329382E-01  0.13196094122E+00  0.20090130710E-01 0.  0.
         14    1    1    2    0    0 -0.11038164580E-01  0.32056007616E-02  0.20273343440E-01  0.23305051122E-01  0.00000000000E+00 0.  1.
     999901    1    3    3    0    0  0.93256808775E-02  0.12265449003E+00  0.13878985941E-01  0.88866400765E+00  0.88000000000E+00 0. -1.
        -11    1    4    4    0    0 -0.29060488088E-02 -0.11527376763E+00 -0.27220322573E-01  0.11848077357E+00  0.51100000000E-03 0.  1.
         11    1    4    4    0    0  0.46185325118E-02 -0.10586323164E-01 -0.69320068084E-02  0.13480167658E-01  0.51100000000E-03 0. -1.
</event>
<event>
 8    1  0.1176534E+005  0.1043930E+01  0.7957747E-01            NaN
         13   -1    0    0    0    0  0.00000000000E+00  0.00000000000E+00  0.74505805969E-08  0.10566000000E+00  0.10566000000E+00 0. -1.
     999900   -1    0    0    0    0 -0.00000000000E+00 -0.00000000000E+00 -0.74505805969E-08  0.93827000000E+00  0.93827000000E+00 0.  1.
     999902    2    1    2    0    0  0.23098529218E-01 -0.29603876808E-02 -0.18417702527E-02  0.10205698188E+01  0.10203024341E+01 0.  0.
     999903    2    3    3    0    0  0.55021719385E-01 -0.97314226062E-01 -0.66615907731E-01  0.13258478191E+00  0.25369214268E-01 0.  0.
         14    1    1    2    0    0 -0.23098529218E-01  0.29603876808E-02  0.18417702527E-02  0.23360181183E-01  0.00000000000E+00 0.  1.
     999901    1    3    3    0    0 -0.31923190167E-01  0.94353838381E-01  0.64774137479E-01  0.88798503691E+00  0.88000000000E+00 0. -1.
        -11    1    4    4    0    0  0.22833011038E-01 -0.63228472516E-01 -0.32969813806E-01  0.74876270427E-01  0.51100000000E-03 0. -1.
         11    1    4    4    0    0  0.32188708347E-01 -0.34085753547E-01 -0.33646093926E-01  0.57708511481E-01  0.51100000000E-03 0.  1.
</event>
<event>
 8    1  0.1303956E+005  0.1043930E+01  0.7957747E-01            NaN
         13   -1    0    0    0    0  0.00000000000E+00  0.00000000000E+00  0.74505805969E-08  0.10566000000E+00  0.10566000000E+00 0. -1.
     999900   -1    0    0    0    0 -0.00000000000E+00 -0.00000000000E+00 -0.74505805969E-08  0.93827000000E+00  0.93827000000E+00 0. -1.
     999902    2    1    2    0    0 -0.81638263873E-02  0.24949889846E-02 -0.21901156134E-01  0.10204239652E+01  0.10201531920E+01 0.  0.
     999903    2    3    3    0    0  0.77594591304E-01 -0.10128312068E+00  0.11611371066E-01  0.12955501204E+00  0.19248014775E-01 0.  0.
         14    1    1    2    0    0  0.81638263873E-02 -0.24949889846E-02  0.21901156134E-01  0.23506034785E-01  0.00000000000E+00 0. -1.
     999901    1    3    3    0    0 -0.85758417691E-01  0.10377810966E+00 -0.33512527200E-01  0.89086895317E+00  0.88000000000E+00 0.  1.
        -11    1    4    4    0    0  0.47533689040E-01 -0.60634523958E-01  0.16388057625E-01  0.78770721992E-01  0.51100000000E-03 0. -1.
         11    1    4    4    0    0  0.30060902264E-01 -0.40648596721E-01 -0.47766865594E-02  0.50784290049E-01  0.51100000000E-03 0.  1.
</event>
<event>
 8    1  0.1176534E+005  0.1043930E+01  0.7957747E-01            NaN
         13   -1    0    0    0    0  0.00000000000E+00  0.00000000000E+00  0.74505805969E-08  0.10566000000E+00  0.10566000000E+00 0. -1.
     999900   -1    0    0    0    0 -0.00000000000E+00 -0.00000000000E+00 -0.74505805969E-08  0.93827000000E+00  0.93827000000E+00 0.  1.
     999902    2    1    2    0    0  0.50184433820E-03 -0.19010015126E-01  0.13311688298E-01  0.10207172111E+01  0.10204532285E+01 0.  0.
     999903    2    3    3    0    0 -0.49809673931E-02 -0.90080003745E-02 -0.12769893405E+00  0.12941810467E+00  0.18332319836E-01 0.  0.
         14    1    1    2    0    0 -0.50184433820E-03  0.19010015126E-01 -0.13311688298E-01  0.23212788892E-01  0.00000000000E+00 0.  1.
     999901    1    3    3    0    0  0.54828117313E-02 -0.10002014751E-01  0.14101062235E+00  0.89129910644E+00  0.88000000000E+00 0. -1.
        -11    1    4    4    0    0  0.44274052076E-02 -0.36826783166E-02 -0.13222741080E-01  0.14431425402E-01  0.51100000000E-03 0.  1.
         11    1    4    4    0    0 -0.94083726007E-02 -0.53253220579E-02 -0.11447619297E+00  0.11498667927E+00  0.51100000000E-03 0. -1.
</event>
<event>
 8    1  0.1176534E+005  0.1043930E+01  0.7957747E-01            NaN
         13   -1    0    0    0    0  0.00000000000E+00  0.00000000000E+00  0.74505805969E-08  0.10566000000E+00  0.10566000000E+00 0. -1.
     999900   -1    0    0    0    0 -0.00000000000E+00 -0.00000000000E+00 -0.74505805969E-08  0.93827000000E+00  0.93827000000E+00 0. -1.
     999902    2    1    2    0    0  0.10385534177E-01  0.12962252201E-01  0.16675135141E-01  0.10203940820E+01  0.10201226119E+01 0.  0.
     999903    2    3    3    0    0 -0.76815346431E-01 -0.59620243109E-01 -0.80735311388E-01  0.12777937944E+00  0.18820426920E-01 0.  0.
         14    1    1    2    0    0 -0.10385534177E-01 -0.12962252201E-01 -0.16675135141E-01  0.23535917960E-01  0.00000000000E+00 0.  1.
     999901    1    3    3    0    0  0.87200880608E-01  0.72582495310E-01  0.97410446529E-01  0.89261470260E+00  0.88000000000E+00 0.  1.
        -11    1    4    4    0    0 -0.57381355240E-02 -0.97287252682E-02 -0.43173673508E-02  0.12102688812E-01  0.51100000000E-03 0.  1.
         11    1    4    4    0    0 -0.71077210907E-01 -0.49891517841E-01 -0.76417944037E-01  0.11567669063E+00  0.51100000000E-03 0. -1.
</event>
<event>
 8    1  0.1176534E+005  0.1043930E+01  0.7957747E-01            NaN
         13   -1    0    0    0    0  0.00000000000E+00  0.00000000000E+00  0.74505805969E-08  0.10566000000E+00  0.10566000000E+00 0.  1.
     999900   -1    0    0    0    0 -0.00000000000E+00 -0.00000000000E+00 -0.74505805969E-08  0.93827000000E+00  0.93827000000E+00 0.  1.
     999902    2    1    2    0    0  0.14316702438E-01  0.78508449564E-02 -0.16073322552E-01  0.10210180941E+01  0.10207609872E+01 0.  0.
     999903    2    3    3    0    0 -0.66928401088E-01 -0.80473024420E-01  0.72069374070E-01  0.12850982649E+00  0.19117068110E-01 0.  0.
         14    1    1    2    0    0 -0.14316702438E-01 -0.78508449564E-02  0.16073322552E-01  0.22911905924E-01  0.00000000000E+00 0.  1.
     999901    1    3    3    0    0  0.81245103525E-01  0.88323869377E-01 -0.88142696622E-01  0.89250826759E+00  0.88000000000E+00 0.  1.
        -11    1    4    4    0    0 -0.28536990447E-01 -0.24770808016E-01  0.17769232658E-01  0.41760741179E-01  0.51100000000E-03 0.  1.
         11    1    4    4    0    0 -0.38391410641E-01 -0.55702216404E-01  0.54300141412E-01  0.86749085307E-01  0.51100000000E-03 0. -1.
</event>
<event>
 8    1  0.1176534E+005  0.1043930E+01  0.7957747E-01            NaN
         13   -1    0    0    0    0  0.00000000000E+00  0.00000000000E+00  0.74505805969E-08  0.10566000000E+00  0.10566000000E+00 0.  1.
     999900   -1    0    0    0    0 -0.00000000000E+00 -0.00000000000E+00 -0.74505805969E-08  0.93827000000E+00  0.93827000000E+00 0.  1.
     999902    2    1    2    0    0 -0.14018343670E-01 -0.14162985676E-01 -0.60476137753E-02  0.10231050689E+01  0.10228931050E+01 0.  0.
     999903    2    3    3    0    0 -0.19316685637E-01  0.11615170247E+00  0.54544679629E-01  0.13143168903E+00  0.20852205481E-01 0.  0.
         14    1    1    2    0    0  0.14018343670E-01  0.14162985676E-01  0.60476137753E-02  0.20824931089E-01  0.00000000000E+00 0.  1.
     999901    1    3    3    0    0  0.52983419677E-02 -0.13031468815E+00 -0.60592293404E-01  0.89167337988E+00  0.88000000000E+00 0. -1.
        -11    1    4    4    0    0 -0.21725458702E-02  0.58556343831E-01  0.18952661559E-01  0.61587578776E-01  0.51100000000E-03 0. -1.
         11    1    4    4    0    0 -0.17144139767E-01  0.57595358641E-01  0.35592018069E-01  0.69844110250E-01  0.51100000000E-03 0.  1.
</event>
<event>
 8    1  0.1176534E+005  0.1043930E+01  0.7957747E-01            NaN
         13   -1    0    0    0    0  0.00000000000E+00  0.00000000000E+00  0.74505805969E-08  0.10566000000E+00  0.10566000000E+00 0.  1.
     999900   -1    0    0    0    0 -0.00000000000E+00 -0.00000000000E+00 -0.74505805969E-08  0.93827000000E+00  0.93827000000E+00 0.  1.
     999902    2    1    2    0    0 -0.20948543411E-01  0.92020011128E-02  0.86139838988E-02  0.10194817073E+01  0.10191885167E+01 0.  0.
     999903    2    3    3    0    0 -0.19376805856E-01  0.69230340259E-01 -0.10636302614E+00  0.12997308754E+00  0.20288162483E-01 0.  0.
         14    1    1    2    0    0  0.20948543411E-01 -0.92020011128E-02 -0.86139838988E-02  0.24448292663E-01  0.00000000000E+00 0.  1.
     999901    1    3    3    0    0 -0.15717375551E-02 -0.60028339146E-01  0.11497701004E+00  0.88950861980E+00  0.88000000000E+00 0. -1.
        -11    1    4    4    0    0 -0.22519684481E-01  0.58871979956E-01 -0.83029340104E-01  0.10424576084E+00  0.51100000000E-03 0.  1.
         11    1    4    4    0    0  0.31428786258E-02  0.10358360303E-01 -0.23333686036E-01  0.25727326702E-01  0.51100000000E-03 0. -1.
</event>
<event>
 8    1  0.1176534E+005  0.1043930E+01  0.7957747E-01            NaN
         13   -1    0    0    0    0  0.00000000000E+00  0.00000000000E+00  0.74505805969E-08  0.10566000000E+00  0.10566000000E+00 0. -1.
     999900   -1    0    0    0    0 -0.00000000000E+00 -0.00000000000E+00 -0.74505805969E-08  0.93827000000E+00  0.93827000000E+00 0.  1.
     999902    2    1    2    0    0  0.21928824850E-01 -0.17766535010E-02 -0.30884197723E-02  0.10217136053E+01  0.10214720373E+01 0.  0.
     999903    2    3    3    0    0  0.38303028220E-01  0.15922612857E-01  0.12374976564E+00  0.13229283657E+00  0.21604132455E-01 0.  0.
         14    1    1    2    0    0 -0.21928824850E-01  0.17766535010E-02  0.30884197723E-02  0.22216394705E-01  0.00000000000E+00 0. -1.
     999901    1    3    3    0    0 -0.16374203369E-01 -0.17699266358E-01 -0.12683818542E+00  0.88942076873E+00  0.88000000000E+00 0.  1.
        -11    1    4    4    0    0  0.12698362465E-01  0.13476155880E-01  0.31695852795E-01  0.36711624752E-01  0.51100000000E-03 0. -1.
         11    1    4    4    0    0  0.25604665754E-01  0.24464569772E-02  0.92053912849E-01  0.95581211815E-01  0.51100000000E-03 0.  1.
</event>
<event>
 8    1  0.1176534E+005  0.1043930E+01  0.7957747E-01            NaN
         13   -1    0    0    0    0  0.00000000000E+00  0.00000000000E+00  0.74505805969E-08  0.10566000000E+00  0.10566000000E+00 0.  1.
     999900   -1    0    0    0    0 -0.00000000000E+00 -0.00000000000E+00 -0.74505805969E-08  0.93827000000E+00  0.93827000000E+00 0. -1.
     999902    2    1    2    0    0 -0.22745455339E-01 -0.10969088655E-01  0.13657292405E-03  0.10186773705E+01  0.10183643208E+01 0.  0.
     999903    2    3    3    0    0 -0.48154764855E-01  0.52599010457E-01 -0.10631836787E+00  0.12962214688E+00  0.20316700908E-01 0.  0.
         14    1    1    2    0    0  0.22745455339E-01  0.10969088655E-01 -0.13657292405E-03  0.25252629500E-01  0.00000000000E+00 0. -1.
     999901    1    3    3    0    0  0.25409309516E-01 -0.63568099112E-01  0.10645494079E+00  0.88905522362E+00  0.88000000000E+00 0.  1.
        -11    1    4    4    0    0 -0.18095729921E-01  0.17060545486E-01 -0.54845443211E-01  0.60222930979E-01  0.51100000000E-03 0.  1.
         11    1    4    4    0    0 -0.30059034934E-01  0.35538464970E-01 -0.51472924655E-01  0.69399215897E-01  0.51100000000E-03 0. -1.
</event>
<event>
 8    1  0.1176534E+005  0.1043930E+01  0.7957747E-01            NaN
         13   -1    0    0    0    0  0.00000000000E+00  0.00000000000E+00  0.74505805969E-08  0.10566000000E+00  0.10566000000E+00 0.  1.
     999900   -1    0    0    0    0 -0.00000000000E+00 -0.00000000000E+00 -0.74505805969E-08  0.93827000000E+00  0.93827000000E+00 0.  1.
     999902    2    1    2    0    0 -0.11631084417E-01  0.16005593279E-01  0.12654588786E-01  0.10204438390E+01  0.10201735288E+01 0.  0.
     999903    2    3    3    0    0 -0.11553304874E+00 -0.48571259957E-01  0.35091021928E-01  0.13169799137E+00  0.20147666501E-01 0.  0.
         14    1    1    2    0    0  0.11631084417E-01 -0.16005593279E-01 -0.12654588786E-01  0.23486160995E-01  0.00000000000E+00 0.  1.
     999901    1    3    3    0    0  0.10390196432E+00  0.64576853236E-01 -0.22436433142E-01  0.88874584764E+00  0.88000000000E+00 0. -1.
        -11    1    4    4    0    0 -0.10117607559E+00 -0.49120695613E-01  0.29526042842E-01  0.11628193900E+00  0.51100000000E-03 0.  1.
         11    1    4    4    0    0 -0.14356973144E-01  0.54943565663E-03  0.55649790863E-02  0.15416052368E-01  0.51100000000E-03 0. -1.
</event>
<event>
 8    1  0.1176534E+005  0.1043930E+01  0.7957747E-01            NaN
         13   -1    0    0    0    0  0.00000000000E+00  0.00000000000E+00  0.74505805969E-08  0.10566000000E+00  0.10566000000E+00 0.  1.
     999900   -1    0    0    0    0 -0.00000000000E+00 -0.00000000000E+00 -0.74505805969E-08  0.93827000000E+00  0.93827000000E+00 0.  1.
     999902    2    1    2    0    0  0.13534761886E-01 -0.11141208566E-02 -0.19055644336E-01  0.10205302430E+01  0.10202619410E+01 0.  0.
     999903    2    3    3    0    0  0.45055831948E-01 -0.11598361901E+00  0.34584119027E-01  0.13088660446E+00  0.21284127060E-01 0.  0.
         14    1    1    2    0    0 -0.13534761886E-01  0.11141208566E-02  0.19055644336E-01  0.23399756958E-01  0.00000000000E+00 0.  1.
     999901    1    3    3    0    0 -0.31521070062E-01  0.11486949816E+00 -0.53639763363E-01  0.88964363859E+00  0.88000000000E+00 0. -1.
        -11    1    4    4    0    0  0.41737241339E-01 -0.88309299534E-01  0.32456743761E-01  0.10292828103E+00  0.51100000000E-03 0. -1.
         11    1    4    4    0    0  0.33185906091E-02 -0.27674319480E-01  0.21273752654E-02  0.27958323427E-01  0.51100000000E-03 0.  1.
</event>
<event>
 8    1  0.1176534E+005  0.1043930E+01  0.7957747E-01            NaN
         13   -1    0    0    0    0  0.00000000000E+00  0.00000000000E+00  0.74505805969E-08  0.10566000000E+00  0.10566000000E+00 0.  1.
     999900   -1    0    0    0    0 -0.00000000000E+00 -0.00000000000E+00 -0.74505805969E-08  0.93827000000E+00  0.93827000000E+00 0.  1.
     999902    2    1    2    0    0 -0.11578086039E-02  0.23080927507E-01  0.51769543179E-02  0.10202472934E+01  0.10199723865E+01 0.  0.
     999903    2    3    3    0    0  0.78965375317E-02 -0.57265204699E-01 -0.11319527674E+00  0.12864790623E+00  0.19886028427E-01 0.  0.
         14    1    1    2    0    0  0.11578086039E-02 -0.23080927507E-01 -0.51769543179E-02  0.23682706588E-01  0.00000000000E+00 0.  1.
     999901    1    3    3    0    0 -0.90543461356E-02  0.80346132206E-01  0.11837223105E+00  0.89159938719E+00  0.88000000000E+00 0. -1.
        -11    1    4    4    0    0  0.10315416983E-01 -0.24135779064E-01 -0.65101495173E-01  0.70195508783E-01  0.51100000000E-03 0.  1.
         11    1    4    4    0    0 -0.24188794513E-02 -0.33129425635E-01 -0.48093781564E-01  0.58452397443E-01  0.51100000000E-03 0. -1.
</event>
<event>
 8    1  0.1176534E+005  0.1043930E+01  0.7957747E-01            NaN
         13   -1    0    0    0    0  0.00000000000E+00  0.00000000000E+00  0.74505805969E-08  0.10566000000E+00  0.10566000000E+00 0. -1.
     999900   -1    0    0    0    0 -0.00000000000E+00 -0.00000000000E+00 -0.74505805969E-08  0.93827000000E+00  0.93827000000E+00 0. -1.
     999902    2    1    2    0    0  0.15897635675E-01  0.11503957055E-01 -0.11904281737E-01  0.10209781423E+01  0.10207201278E+01 0.  0.
     999903    2    3    3    0    0  0.89532822124E-01  0.60390991728E-01  0.73753483947E-01  0.13241225523E+00  0.20742006238E-01 0.  0.
         14    1    1    2    0    0 -0.15897635675E-01 -0.11503957055E-01  0.11904281737E-01  0.22951857695E-01  0.00000000000E+00 0. -1.
     999901    1    3    3    0    0 -0.73635186449E-01 -0.48887034673E-01 -0.85657765684E-01  0.88856588707E+00  0.88000000000E+00 0.  1.
        -11    1    4    4    0    0  0.48298851603E-01  0.44206815864E-01  0.40113970350E-01  0.76788106977E-01  0.51100000000E-03 0. -1.
         11    1    4    4    0    0  0.41233970521E-01  0.16184175865E-01  0.33639513598E-01  0.55624148258E-01  0.51100000000E-03 0.  1.
</event>
<event>
 8    1  0.1176534E+005  0.1043930E+01  0.7957747E-01            NaN
         13   -1    0    0    0    0  0.00000000000E+00  0.00000000000E+00  0.74505805969E-08  0.10566000000E+00  0.10566000000E+00 0. -1.
     999900   -1    0    0    0    0 -0.00000000000E+00 -0.00000000000E+00 -0.74505805969E-08  0.93827000000E+00  0.93827000000E+00 0. -1.
     999902    2    1    2    0    0 -0.20648859055E-01 -0.99811229630E-02 -0.59156818203E-02  0.10202446989E+01  0.10199697310E+01 0.  0.
     999903    2    3    3    0    0  0.10274485852E+00  0.26273653223E-01  0.68667891626E-01  0.12777445977E+00  0.19084612236E-01 0.  0.
         14    1    1    2    0    0  0.20648859055E-01  0.99811229630E-02  0.59156818203E-02  0.23685301081E-01  0.00000000000E+00 0.  1.
     999901    1    3    3    0    0 -0.12339371757E+00 -0.36254776186E-01 -0.74583573446E-01  0.89247023915E+00  0.88000000000E+00 0. -1.
        -11    1    4    4    0    0  0.10387434605E-01 -0.29248884332E-02  0.53928450272E-02  0.12074670535E-01  0.51100000000E-03 0. -1.
         11    1    4    4    0    0  0.92357423914E-01  0.29198541656E-01  0.63275046599E-01  0.11569978924E+00  0.51100000000E-03 0.  1.
</event>
<event>
 8    1  0.1176534E+005  0.1043930E+01  0.7957747E-01            NaN
         13   -1    0    0    0    0  0.00000000000E+00  0.00000000000E+00  0.74505805969E-08  0.10566000000E+00  0.10566000000E+00 0.  1.
     999900   -1    0    0    0    0 -0.00000000000E+00 -0.00000000000E+00 -0.74505805969E-08  0.93827000000E+00  0.93827000000E+00 0. -1.
     999902    2    1    2    0    0 -0.14650209700E-01  0.13877275897E-02 -0.18531665101E-01  0.10202661659E+01  0.10199917021E+01 0.  0.
     999903    2    3    3    0    0  0.72523180153E-01 -0.60050649071E-01 -0.89174935276E-01  0.13101685012E+00  0.18642795393E-01 0.  0.
         14    1    1    2    0    0  0.14650209700E-01 -0.13877275897E-02  0.18531665101E-01  0.23663834084E-01  0.00000000000E+00 0.  1.
     999901    1    3    3    0    0 -0.87173389853E-01  0.61438376661E-01  0.70643270175E-01  0.88924931580E+00  0.88000000000E+00 0.  1.
        -11    1    4    4    0    0  0.46515847100E-01 -0.49425170517E-01 -0.64049562520E-01  0.93322982657E-01  0.51100000000E-03 0.  1.
         11    1    4    4    0    0  0.26007333054E-01 -0.10625478555E-01 -0.25125372756E-01  0.37693867462E-01  0.51100000000E-03 0. -1.
</event>
<event>
 8    1  0.1176534E+005  0.1043930E+01  0.7957747E-01            NaN
         13   -1    0    0    0    0  0.00000000000E+00  0.00000000000E+00  0.74505805969E-08  0.10566000000E+00  0.10566000000E+00 0. -1.
     999900   -1    0    0    0    0 -0.00000000000E+00 -0.00000000000E+00 -0.74505805969E-08  0.93827000000E+00  0.93827000000E+00 0.  1.
     999902    2    1    2    0    0 -0.21085359620E-01  0.82208806006E-02 -0.47110492446E-02  0.10208135718E+01  0.10205518013E+01 0.  0.
     999903    2    3    3    0    0  0.50129814386E-01 -0.11707309218E+00  0.61219421268E-02  0.12902462012E+00  0.19767832890E-01 0.  0.
         14    1    1    2    0    0  0.21085359620E-01 -0.82208806006E-02  0.47110492446E-02  0.23116428209E-01  0.00000000000E+00 0. -1.
     999901    1    3    3    0    0 -0.71215174006E-01  0.12529397278E+00 -0.10832991371E-01  0.89178895167E+00  0.88000000000E+00 0. -1.
        -11    1    4    4    0    0  0.10781533383E-01 -0.48975603741E-01  0.45793245586E-02  0.50359532944E-01  0.51100000000E-03 0. -1.
         11    1    4    4    0    0  0.39348281003E-01 -0.68097488443E-01  0.15426175682E-02  0.78665087174E-01  0.51100000000E-03 0.  1.
</event>
<event>
 8    1  0.1176534E+005  0.1043930E+01  0.7957747E-01            NaN
         13   -1    0    0    0    0  0.00000000000E+00  0.00000000000E+00  0.74505805969E-08  0.10566000000E+00  0.10566000000E+00 0. -1.
     999900   -1    0    0    0    0 -0.00000000000E+00 -0.00000000000E+00 -0.74505805969E-08  0.93827000000E+00  0.93827000000E+00 0. -1.
     999902    2    1    2    0    0 -0.19060647093E-02 -0.13461357949E-01 -0.19430541887E-01  0.10202152957E+01  0.10199396367E+01 0.  0.
     999903    2    3    3    0    0 -0.10712780051E+00  0.44154615820E-01  0.54566966206E-01  0.12899879828E+00  0.15399364219E-01 0.  0.
         14    1    1    2    0    0  0.19060647093E-02  0.13461357949E-01  0.19430541887E-01  0.23714704268E-01  0.00000000000E+00 0. -1.
     999901    1    3    3    0    0  0.10522173580E+00 -0.57615973770E-01 -0.73997508092E-01  0.89121649745E+00  0.88000000000E+00 0.  1.
        -11    1    4    4    0    0 -0.23285756883E-01  0.38084449287E-02  0.14449438858E-01  0.27672696484E-01  0.51100000000E-03 0. -1.
         11    1    4    4    0    0 -0.83842043624E-01  0.40346170892E-01  0.40117527348E-01  0.10132610180E+00  0.51100000000E-03 0.  1.
</event>
<event>
 8    1  0.1176534E+005  0.1043930E+01  0.7957747E-01            NaN
         13   -1    0    0    0    0  0.00000000000E+00  0.00000000000E+00  0.74505805969E-08  0.10566000000E+00  0.10566000000E+00 0.  1.
     999900   -1    0    0    0    0 -0.00000000000E+00 -0.00000000000E+00 -0.74505805969E-08  0.93827000000E+00  0.93827000000E+00 0. -1.
     999902    2    1    2    0    0  0.18451102025E-01  0.11168976702E-01 -0.96835502733E-02  0.10202876576E+01  0.10200136979E+01 0.  0.
     999903    2    3    3    0    0  0.85120984176E-02 -0.85523140418E-01 -0.96409458841E-01  0.13069812728E+00  0.20013829061E-01 0.  0.
         14    1    1    2    0    0 -0.18451102025E-01 -0.11168976702E-01  0.96835502733E-02  0.23642342363E-01  0.00000000000E+00 0.  1.
     999901    1    3    3    0    0  0.99390036076E-02  0.96692117121E-01  0.86725908568E-01  0.88958953036E+00  0.88000000000E+00 0.  1.
        -11    1    4    4    0    0  0.14255277534E-01 -0.63341732039E-01 -0.65592870360E-01  0.92293411024E-01  0.51100000000E-03 0.  1.
         11    1    4    4    0    0 -0.57431791161E-02 -0.22181408379E-01 -0.30816588480E-01  0.38404716255E-01  0.51100000000E-03 0. -1.
</event>
<event>
 8    1  0.1176534E+005  0.1043930E+01  0.7957747E-01            NaN
         13   -1    0    0    0    0  0.00000000000E+00  0.00000000000E+00  0.74505805969E-08  0.10566000000E+00  0.10566000000E+00 0. -1.
     999900   -1    0    0    0    0 -0.00000000000E+00 -0.00000000000E+00 -0.74505805969E-08  0.93827000000E+00  0.93827000000E+00 0. -1.
     999902    2    1    2    0    0 -0.17365534325E-01 -0.36866242508E-02 -0.15639218717E-01  0.10202712143E+01  0.10199968689E+01 0.  0.
     999903    2    3    3    0    0 -0.72072065677E-01 -0.10035544803E+00  0.40425861220E-01  0.13151874070E+00  0.19933145737E-01 0.  0.
         14    1    1    2    0    0  0.17365534325E-01  0.36866242508E-02  0.15639218717E-01  0.23658785744E-01  0.00000000000E+00 0. -1.
     999901    1    3    3    0    0  0.54706531352E-01  0.96668823783E-01 -0.56065079937E-01  0.88875247356E+00  0.88000000000E+00 0. -1.
        -11    1    4    4    0    0 -0.14012341092E-01 -0.25468316247E-01  0.17822747016E-01  0.34101206247E-01  0.51100000000E-03 0. -1.
         11    1    4    4    0    0 -0.58059724585E-01 -0.74887131787E-01  0.22603114204E-01  0.97417534453E-01  0.51100000000E-03 0.  1.
</event>
<event>
 8    1  0.1176534E+005  0.1043930E+01  0.7957747E-01            NaN
         13   -1    0    0    0    0  0.00000000000E+00  0.00000000000E+00  0.74505805969E-08  0.10566000000E+00  0.10566000000E+00 0.  1.
     999900   -1    0    0    0    0 -0.00000000000E+00 -0.00000000000E+00 -0.74505805969E-08  0.93827000000E+00  0.93827000000E+00 0. -1.
     999902    2    1    2    0    0  0.64558864211E-02 -0.22902128845E-01  0.81527398850E-02  0.10187774029E+01  0.10184668593E+01 0.  0.
     999903    2    3    3    0    0 -0.12472045816E+00  0.12194906411E-01  0.18487413169E-01  0.12830233823E+00  0.20391104007E-01 0.  0.
         14    1    1    2    0    0 -0.64558864211E-02  0.22902128845E-01 -0.81527398850E-02  0.25152597137E-01  0.00000000000E+00 0. -1.
     999901    1    3    3    0    0  0.13117634458E+00 -0.35097035256E-01 -0.10334673284E-01  0.89047506463E+00  0.88000000000E+00 0. -1.
        -11    1    4    4    0    0 -0.27491445124E-01 -0.37505833568E-02  0.96367669878E-02  0.29376433233E-01  0.51100000000E-03 0. -1.
         11    1    4    4    0    0 -0.97229013040E-01  0.15945489768E-01  0.88506461810E-02  0.98925904997E-01  0.51100000000E-03 0.  1.
</event>
<event>
 8    1  0.1176534E+005  0.1043930E+01  0.7957747E-01            NaN
         13   -1    0    0    0    0  0.00000000000E+00  0.00000000000E+00  0.74505805969E-08  0.10566000000E+00  0.10566000000E+00 0.  1.
     999900   -1    0    0    0    0 -0.00000000000E+00 -0.00000000000E+00 -0.74505805969E-08  0.93827000000E+00  0.93827000000E+00 0.  1.
     999902    2    1    2    0    0  0.16664014212E-01  0.17381536743E-01  0.30400354556E-03  0.10198488952E+01  0.10195645490E+01 0.  0.
     999903    2    3    3    0    0 -0.10377887301E+00 -0.59619025202E-01 -0.38422542291E-01  0.12747267357E+00  0.21178009830E-01 0.  0.
         14    1    1    2    0    0 -0.16664014212E-01 -0.17381536743E-01 -0.30400354556E-03  0.24081104779E-01  0.00000000000E+00 0. -1.
     999901    1    3    3    0    0  0.12044288722E+00  0.77000561946E-01  0.38726545837E-01  0.89237622165E+00  0.88000000000E+00 0. -1.
        -11    1    4    4    0    0 -0.94978105332E-01 -0.56205740291E-01 -0.28966867898E-01  0.11410199950E+00  0.51100000000E-03 0. -1.
         11    1    4    4    0    0 -0.88007676797E-02 -0.34132849114E-02 -0.94556743930E-02  0.13370674062E-01  0.51100000000E-03 0.  1.
</event>
<event>
 8    1  0.1176534E+005  0.1043930E+01  0.7957747E-01            NaN
         13   -1    0    0    0    0  0.00000000000E+00  0.00000000000E+00  0.74505805969E-08  0.10566000000E+00  0.10566000000E+00 0.  1.
     999900   -1    0    0    0    0 -0.00000000000E+00 -0.00000000000E+00 -0.74505805969E-08  0.93827000000E+00  0.93827000000E+00 0. -1.
     999902    2    1    2    0    0  0.90441916596E-02  0.44028002428E-02  0.46219990065E-02  0.10328599988E+01  0.10328006739E+01 0.  0.
     999903    2    3    3    0    0 -0.77825598236E-01 -0.81356528545E-01 -0.81130891100E-01  0.14030491304E+00  0.20677007888E-01 0.  0.
         14    1    1    2    0    0 -0.90441916596E-02 -0.44028002428E-02 -0.46219990065E-02  0.11070001245E-01  0.00000000000E+00 0. -1.
     999901    1    3    3    0    0  0.86869789895E-01  0.85759328788E-01  0.85752890107E-01  0.89255508571E+00  0.88000000000E+00 0.  1.
        -11    1    4    4    0    0 -0.62032475965E-01 -0.74647165355E-01 -0.72091933752E-01  0.12090382708E+00  0.51100000000E-03 0.  1.
         11    1    4    4    0    0 -0.15793122271E-01 -0.67093631899E-02 -0.90389573486E-02  0.19401085960E-01  0.51100000000E-03 0. -1.
</event>
<event>
 8    1  0.1176534E+005  0.1043930E+01  0.7957747E-01            NaN
         13   -1    0    0    0    0  0.00000000000E+00  0.00000000000E+00  0.74505805969E-08  0.10566000000E+00  0.10566000000E+00 0. -1.
     999900   -1    0    0    0    0 -0.00000000000E+00 -0.00000000000E+00 -0.74505805969E-08  0.93827000000E+00  0.93827000000E+00 0. -1.
     999902    2    1    2    0    0 -0.27855077946E-04 -0.18913686805E-01  0.16984155960E-01  0.10185097349E+01  0.10181924623E+01 0.  0.
     999903    2    3    3    0    0  0.12549802142E+00 -0.40562873203E-03 -0.18871908686E-01  0.12868674617E+00  0.21312245019E-01 0.  0.
         14    1    1    2    0    0  0.27855077946E-04  0.18913686805E-01 -0.16984155960E-01  0.25420265107E-01  0.00000000000E+00 0.  1.
     999901    1    3    3    0    0 -0.12552587650E+00 -0.18508058072E-01  0.35856064646E-01  0.88982298872E+00  0.88000000000E+00 0. -1.
        -11    1    4    4    0    0  0.39407482745E-01 -0.72707149757E-02  0.90458746713E-03  0.40086062316E-01  0.51100000000E-03 0. -1.
         11    1    4    4    0    0  0.86090538676E-01  0.68650862436E-02 -0.19776496153E-01  0.88600683856E-01  0.51100000000E-03 0.  1.
</event>
<event>
 8    1  0.1176534E+005  0.1043930E+01  0.7957747E-01            NaN
         13   -1    0    0    0    0  0.00000000000E+00  0.00000000000E+00  0.74505805969E-08  0.10566000000E+00  0.10566000000E+00 0. -1.
     999900   -1    0    0    0    0 -0.00000000000E+00 -0.00000000000E+00 -0.74505805969E-08  0.93827000000E+00  0.93827000000E+00 0. -1.
     999902    2    1    2    0    0  0.12532326038E-01 -0.17184173916E-01 -0.10013691941E-01  0.10204219364E+01  0.10201511159E+01 0.  0.
     999903    2    3    3    0    0  0.25179858399E-02  0.10543479188E+00  0.70243182361E-01  0.12824658161E+00  0.19754630733E-01 0.  0.
         14    1    1    2    0    0 -0.12532326038E-01  0.17184173916E-01  0.10013691941E-01  0.23508063625E-01  0.00000000000E+00 0. -1.
     999901    1    3    3    0    0  0.10014340198E-01 -0.12261896579E+00 -0.80256874302E-01  0.89217535477E+00  0.88000000000E+00 0. -1.
        -11    1    4    4    0    0 -0.76574802819E-02  0.25950940856E-01  0.15326197669E-01  0.31100511115E-01  0.51100000000E-03 0. -1.
         11    1    4    4    0    0  0.10175466122E-01  0.79483851019E-01  0.54916984692E-01  0.97146070493E-01  0.51100000000E-03 0.  1.
</event>
<event>
 8    1  0.1176534E+005  0.1043930E+01  0.7957747E-01            NaN
         13   -1    0    0    0    0  0.00000000000E+00  0.00000000000E+00  0.74505805969E-08  0.10566000000E+00  0.10566000000E+00 0. -1.
     999900   -1    0    0    0    0 -0.00000000000E+00 -0.00000000000E+00 -0.74505805969E-08  0.93827000000E+00  0.93827000000E+00 0.  1.
     999902    2    1    2    0    0 -0.16002327903E-01 -0.10554307202E-01 -0.14365203697E-01  0.10199753141E+01  0.10196939808E+01 0.  0.
     999903    2    3    3    0    0  0.74151237714E-01 -0.62189322994E-01  0.82196696669E-01  0.12861789935E+00  0.20502417913E-01 0.  0.
         14    1    1    2    0    0  0.16002327903E-01  0.10554307202E-01  0.14365203697E-01  0.23954685890E-01  0.00000000000E+00 0. -1.
     999901    1    3    3    0    0 -0.90153565618E-01  0.51635015792E-01 -0.96561900366E-01  0.89135741476E+00  0.88000000000E+00 0.  1.
        -11    1    4    4    0    0  0.23512198886E-01 -0.30287515612E-01  0.24632114534E-01  0.45575862974E-01  0.51100000000E-03 0. -1.
         11    1    4    4    0    0  0.50639038828E-01 -0.31901807382E-01  0.57564582135E-01  0.83042036373E-01  0.51100000000E-03 0.  1.
</event>
<event>
 7    1  0.1176534E+005  0.1043930E+01  0.7957747E-01            NaN
         13   -1    0    0    0    0  0.00000000000E+00  0.00000000000E+00  0.74505805969E-08  0.10566000000E+00  0.10566000000E+00 0. -1.
     999900   -1    0    0    0    0 -0.00000000000E+00 -0.00000000000E+00 -0.74505805969E-08  0.93827000000E+00  0.93827000000E+00 0. -1.
     999903    2    1    2    0    0 -0.36924010450E-01 -0.10592997679E+00  0.19795108102E-01  0.11560479560E+00  0.19699744434E-01 0.  0.
         14    1    1    2    0    0 -0.88831169149E-03  0.40844564574E-01  0.17223425837E-01  0.44336372770E-01  0.00000000000E+00 0. -1.
     999901    1    1    2    0    0  0.37812322141E-01  0.65085412216E-01 -0.37018533939E-01  0.88398883163E+00  0.88000000000E+00 0.  1.
        -11    1    3    3    0    0 -0.77608461438E-02 -0.37589074294E-01  0.14774207041E-01  0.41130372644E-01  0.51100000000E-03 0.  1.
         11    1    3    3    0    0 -0.29163164306E-01 -0.68340902496E-01  0.50209010607E-02  0.74474422957E-01  0.51100000000E-03 0. -1.
</event>
<event>
 8    1  0.1176534E+005  0.1043930E+01  0.7957747E-01            NaN
         13   -1    0    0    0    0  0.00000000000E+00  0.00000000000E+00  0.74505805969E-08  0.10566000000E+00  0.10566000000E+00 0. -1.
     999900   -1    0    0    0    0 -0.00000000000E+00 -0.00000000000E+00 -0.74505805969E-08  0.93827000000E+00  0.93827000000E+00 0.  1.
     999902    2    1    2    0    0  0.12839999073E-01 -0.15131245839E-01 -0.17946857448E-01  0.10171735079E+01  0.10168215356E+01 0.  0.
     999903    2    3    3    0    0 -0.23538082837E-01  0.72826929405E-01  0.96384523491E-01  0.12468727826E+00  0.19978438430E-01 0.  0.
         14    1    1    2    0    0 -0.12839999073E-01  0.15131245839E-01  0.17946857448E-01  0.26756492093E-01  0.00000000000E+00 0. -1.
     999901    1    3    3    0    0  0.36378081910E-01 -0.87958175244E-01 -0.11433138094E+00  0.89248622964E+00  0.88000000000E+00 0.  1.
        -11    1    4    4    0    0 -0.18392259007E-01  0.70740957952E-01  0.85721433595E-01  0.11265426588E+00  0.51100000000E-03 0. -1.
         11    1    4    4    0    0 -0.51458238301E-02  0.20859714523E-02  0.10663089896E-01  0.12033012380E-01  0.51100000000E-03 0.  1.
</event>
<event>
 8    1  0.1176534E+005  0.1043930E+01  0.7957747E-01            NaN
         13   -1    0    0    0    0  0.00000000000E+00  0.00000000000E+00  0.74505805969E-08  0.10566000000E+00  0.10566000000E+00 0. -1.
     999900   -1    0    0    0    0 -0.00000000000E+00 -0.00000000000E+00 -0.74505805969E-08  0.93827000000E+00  0.93827000000E+00 0. -1.
     999902    2    1    2    0    0  0.10530140192E-01  0.49632586535E-02  0.30170120808E-01  0.10115918804E+01  0.10110748630E+01 0.  0.
     999903    2    3    3    0    0  0.81511029495E-02 -0.36479818990E-01 -0.11132135355E+00  0.11932340858E+00  0.21175797643E-01 0.  0.
         14    1    1    2    0    0 -0.10530140192E-01 -0.49632586535E-02 -0.30170120808E-01  0.32338119588E-01  0.00000000000E+00 0.  1.
     999901    1    3    3    0    0  0.23790372423E-02  0.41443077644E-01  0.14149147436E+00  0.89226847183E+00  0.88000000000E+00 0.  1.
        -11    1    4    4    0    0 -0.34501342510E-02 -0.28506875168E-01 -0.79316553346E-01  0.84355925185E-01  0.51100000000E-03 0. -1.
         11    1    4    4    0    0  0.11601237201E-01 -0.79729438219E-02 -0.32004800208E-01  0.34967483398E-01  0.51100000000E-03 0.  1.
</event>
<event>
 8    1  0.1176534E+005  0.1043930E+01  0.7957747E-01            NaN
         13   -1    0    0    0    0  0.00000000000E+00  0.00000000000E+00  0.74505805969E-08  0.10566000000E+00  0.10566000000E+00 0.  1.
     999900   -1    0    0    0    0 -0.00000000000E+00 -0.00000000000E+00 -0.74505805969E-08  0.93827000000E+00  0.93827000000E+00 0.  1.
     999902    2    1    2    0    0 -0.59437895909E-02 -0.80896149278E-03 -0.22791013381E-01  0.10203627909E+01  0.10200905900E+01 0.  0.
     999903    2    3    3    0    0  0.11589396561E+00  0.53424926618E-01  0.11779017100E-01  0.12964350841E+00  0.19571918124E-01 0.  0.
         14    1    1    2    0    0  0.59437895909E-02  0.80896149278E-03  0.22791013381E-01  0.23567209091E-01  0.00000000000E+00 0.  1.
     999901    1    3    3    0    0 -0.12183775520E+00 -0.54233888110E-01 -0.34570030482E-01  0.89071928250E+00  0.88000000000E+00 0. -1.
        -11    1    4    4    0    0  0.47717248029E-01  0.16129279418E-01  0.12608725463E-01  0.51926202372E-01  0.51100000000E-03 0. -1.
         11    1    4    4    0    0  0.68176717583E-01  0.37295647200E-01 -0.82970836287E-03  0.77717306035E-01  0.51100000000E-03 0.  1.
</event>
<event>
 8    1  0.1176534E+005  0.1043930E+01  0.7957747E-01            NaN
         13   -1    0    0    0    0  0.00000000000E+00  0.00000000000E+00  0.74505805969E-08  0.10566000000E+00  0.10566000000E+00 0. -1.
     999900   -1    0    0    0    0 -0.00000000000E+00 -0.00000000000E+00 -0.74505805969E-08  0.93827000000E+00  0.93827000000E+00 0. -1.
     999902    2    1    2    0    0 -0.22616146642E-01 -0.41765341587E-02  0.35436711750E-02  0.10206600380E+01  0.10203947383E+01 0.  0.
     999903    2    3    3    0    0  0.35477124103E-01 -0.77757150126E-01  0.96884187374E-01  0.13077162526E+00  0.20245282882E-01 0.  0.
         14    1    1    2    0    0  0.22616146642E-01  0.41765341587E-02 -0.35436711750E-02  0.23269962010E-01  0.00000000000E+00 0. -1.
     999901    1    3    3    0    0 -0.58093270746E-01  0.73580615967E-01 -0.93340516199E-01  0.88988841273E+00  0.88000000000E+00 0. -1.
        -11    1    4    4    0    0  0.18156388603E-01 -0.17904877747E-01  0.26942703878E-01  0.37099993363E-01  0.51100000000E-03 0. -1.
         11    1    4    4    0    0  0.17320735500E-01 -0.59852272379E-01  0.69941483496E-01  0.93671631895E-01  0.51100000000E-03 0.  1.
</event>
<event>
 8    1  0.1176534E+005  0.1043930E+01  0.7957747E-01            NaN
         13   -1    0    0    0    0  0.00000000000E+00  0.00000000000E+00  0.74505805969E-08  0.10566000000E+00  0.10566000000E+00 0. -1.
     999900   -1    0    0    0    0 -0.00000000000E+00 -0.00000000000E+00 -0.74505805969E-08  0.93827000000E+00  0.93827000000E+00 0.  1.
     999902    2    1    2    0    0 -0.23189746973E-01  0.30048752931E-02  0.35269367875E-02  0.10202818939E+01  0.10200077990E+01 0.  0.
     999903    2    3    3    0    0 -0.81561998687E-01  0.96185706642E-04 -0.10209378833E+00  0.13204120700E+00  0.18957052738E-01 0.  0.
         14    1    1    2    0    0  0.23189746973E-01 -0.30048752931E-02 -0.35269367875E-02  0.23648106125E-01  0.00000000000E+00 0. -1.
     999901    1    3    3    0    0  0.58372251714E-01  0.29086895864E-02  0.10562072512E+00  0.88824068687E+00  0.88000000000E+00 0.  1.
        -11    1    4    4    0    0 -0.33538871769E-01  0.64642377758E-02 -0.31804427448E-01  0.46673600845E-01  0.51100000000E-03 0. -1.
         11    1    4    4    0    0 -0.48023126919E-01 -0.63680520691E-02 -0.70289360883E-01  0.85367606155E-01  0.51100000000E-03 0.  1.
</event>
<event>
 8    1  0.1176534E+005  0.1043930E+01  0.7957747E-01            NaN
         13   -1    0    0    0    0  0.00000000000E+00  0.00000000000E+00  0.74505805969E-08  0.10566000000E+00  0.10566000000E+00 0. -1.
     999900   -1    0    0    0    0 -0.00000000000E+00 -0.00000000000E+00 -0.74505805969E-08  0.93827000000E+00  0.93827000000E+00 0.  1.
     999902    2    1    2    0    0  0.10949951679E-01  0.22249115544E-01  0.10554185149E-02  0.10191098773E+01  0.10188075890E+01 0.  0.
     999903    2    3    3    0    0 -0.70887776139E-01  0.35122187508E-01 -0.10043690136E+00  0.12941115260E+00  0.20025743483E-01 0.  0.
         14    1    1    2    0    0 -0.10949951679E-01 -0.22249115544E-01 -0.10554185149E-02  0.24820122733E-01  0.00000000000E+00 0. -1.
     999901    1    3    3    0    0  0.81837727817E-01 -0.12873071964E-01  0.10149231987E+00  0.88969872466E+00  0.88000000000E+00 0. -1.
        -11    1    4    4    0    0 -0.37875007017E-01  0.23361472095E-01 -0.41558306828E-01  0.60890299083E-01  0.51100000000E-03 0. -1.
         11    1    4    4    0    0 -0.33012769121E-01  0.11760715413E-01 -0.58878594531E-01  0.68520853519E-01  0.51100000000E-03 0.  1.
</event>
<event>
 8    1  0.1176534E+005  0.1043930E+01  0.7957747E-01            NaN
         13   -1    0    0    0    0  0.00000000000E+00  0.00000000000E+00  0.74505805969E-08  0.10566000000E+00  0.10566000000E+00 0. -1.
     999900   -1    0    0    0    0 -0.00000000000E+00 -0.00000000000E+00 -0.74505805969E-08  0.93827000000E+00  0.93827000000E+00 0.  1.
     999902    2    1    2    0    0  0.14717752468E-01  0.57844824260E-02 -0.16717189600E-01  0.10209183312E+01  0.10206589548E+01 0.  0.
     999903    2    3    3    0    0 -0.81973433456E-01 -0.59375400259E-01  0.76452865341E-01  0.12835144017E+00  0.19595142960E-01 0.  0.
         14    1    1    2    0    0 -0.14717752468E-01 -0.57844824260E-02  0.16717189600E-01  0.23011668839E-01  0.00000000000E+00 0. -1.
     999901    1    3    3    0    0  0.96691185924E-01  0.65159882685E-01 -0.93170054941E-01  0.89256689099E+00  0.88000000000E+00 0.  1.
        -11    1    4    4    0    0 -0.38496116625E-01 -0.20522452206E-01  0.42342533252E-01  0.60796984160E-01  0.51100000000E-03 0.  1.
         11    1    4    4    0    0 -0.43477316831E-01 -0.38852948053E-01  0.34110332089E-01  0.67554456014E-01  0.51100000000E-03 0. -1.
</event>
<event>
 8    1  0.1176534E+005  0.1043930E+01  0.7957747E-01            NaN
         13   -1    0    0    0    0  0.00000000000E+00  0.00000000000E+00  0.74505805969E-08  0.10566000000E+00  0.10566000000E+00 0. -1.
     999900   -1    0    0    0    0 -0.00000000000E+00 -0.00000000000E+00 -0.74505805969E-08  0.93827000000E+00  0.93827000000E+00 0. -1.
     999902    2    1    2    0    0  0.21230543723E-01  0.86921912707E-02  0.82255781667E-02  0.10195589042E+01  0.10192675845E+01 0.  0.
     999903    2    3    3    0    0 -0.55588266747E-01  0.84300452865E-01  0.79647480098E-01  0.13011029579E+00  0.19706502292E-01 0.  0.
         14    1    1    2    0    0 -0.21230543723E-01 -0.86921912707E-02 -0.82255781667E-02  0.24371095831E-01  0.00000000000E+00 0.  1.
     999901    1    3    3    0    0  0.76818810470E-01 -0.75608261595E-01 -0.71421901931E-01  0.88944860837E+00  0.88000000000E+00 0.  1.
        -11    1    4    4    0    0 -0.41922849341E-01  0.46357907444E-01  0.50320326196E-01  0.80243237901E-01  0.51100000000E-03 0.  1.
         11    1    4    4    0    0 -0.13665417407E-01  0.37942545422E-01  0.29327153902E-01  0.49867057894E-01  0.51100000000E-03 0. -1.
</event>
<event>
 8    1  0.1176534E+005  0.1043930E+01  0.7957747E-01            NaN
         13   -1    0    0    0    0  0.00000000000E+00  0.00000000000E+00  0.74505805969E-08  0.10566000000E+00  0.10566000000E+00 0. -1.
     999900   -1    0    0    0    0 -0.00000000000E+00 -0.00000000000E+00 -0.74505805969E-08  0.93827000000E+00  0.93827000000E+00 0.  1.
     999902    2    1    2    0    0  0.14739104908E-01 -0.65757329551E-02 -0.16923877077E-01  0.10205441262E+01  0.10202761462E+01 0.  0.
     999903    2    3    3    0    0 -0.37960424046E-01 -0.18362414913E-01  0.11962348380E+00  0.12837746690E+00  0.19819789551E-01 0.  0.
         14    1    1    2    0    0 -0.14739104908E-01  0.65757329551E-02  0.16923877077E-01  0.23385873785E-01  0.00000000000E+00 0. -1.
     999901    1    3    3    0    0  0.52699528954E-01  0.11786681958E-01 -0.13654736087E+00  0.89216665931E+00  0.88000000000E+00 0.  1.
        -11    1    4    4    0    0 -0.19768131213E-01 -0.11911464623E-01  0.90767191809E-01  0.93656853625E-01  0.51100000000E-03 0. -1.
         11    1    4    4    0    0 -0.18192292833E-01 -0.64509502900E-02  0.28856291988E-01  0.34720613279E-01  0.51100000000E-03 0.  1.
</event>
<event>
 8    1  0.1176534E+005  0.1043930E+01  0.7957747E-01            NaN
         13   -1    0    0    0    0  0.00000000000E+00  0.00000000000E+00  0.74505805969E-08  0.10566000000E+00  0.10566000000E+00 0.  1.
     999900   -1    0    0    0    0 -0.00000000000E+00 -0.00000000000E+00 -0.74505805969E-08  0.93827000000E+00  0.93827000000E+00 0. -1.
     999902    2    1    2    0    0  0.17328785730E-01 -0.13119691343E-01  0.39359513127E-02  0.10218414322E+01  0.10216026662E+01 0.  0.
     999903    2    3    3    0    0  0.12914947411E+00  0.28909768957E-01  0.13561605301E-02  0.13376654952E+00  0.19398175079E-01 0.  0.
         14    1    1    2    0    0 -0.17328785730E-01  0.13119691343E-01 -0.39359513127E-02  0.22088567824E-01  0.00000000000E+00 0. -1.
     999901    1    3    3    0    0 -0.11182068838E+00 -0.42029460300E-01  0.25797907826E-02  0.88807488265E+00  0.88000000000E+00 0. -1.
        -11    1    4    4    0    0  0.10260451448E+00  0.24348684342E-01  0.87897934549E-02  0.10582091670E+00  0.51100000000E-03 0. -1.
         11    1    4    4    0    0  0.26544959626E-01  0.45610846152E-02 -0.74336329248E-02  0.27945632823E-01  0.51100000000E-03 0.  1.
</event>
<event>
 8    1  0.1176534E+005  0.1043930E+01  0.7957747E-01            NaN
         13   -1    0    0    0    0  0.00000000000E+00  0.00000000000E+00  0.74505805969E-08  0.10566000000E+00  0.10566000000E+00 0.  1.
     999900   -1    0    0    0    0 -0.00000000000E+00 -0.00000000000E+00 -0.74505805969E-08  0.93827000000E+00  0.93827000000E+00 0.  1.
     999902    2    1    2    0    0  0.23408188031E-01  0.53929559189E-03 -0.83174113514E-03  0.10205008323E+01  0.10202318476E+01 0.  0.
     999903    2    3    3    0    0 -0.86001581391E-03  0.41710276777E-02 -0.12928608808E+00  0.13083648297E+00  0.19625381653E-01 0.  0.
         14    1    1    2    0    0 -0.23408188031E-01 -0.53929559189E-03  0.83174113514E-03  0.23429167718E-01  0.00000000000E+00 0. -1.
     999901    1    3    3    0    0  0.24268203845E-01 -0.36317320858E-02  0.12845434694E+00  0.88966434932E+00  0.88000000000E+00 0. -1.
        -11    1    4    4    0    0  0.52327037510E-02 -0.60638085697E-02 -0.59598129678E-01  0.60136088542E-01  0.51100000000E-03 0. -1.
         11    1    4    4    0    0 -0.60927195649E-02  0.10234836247E-01 -0.69687958401E-01  0.70700394424E-01  0.51100000000E-03 0.  1.
</event>
<event>
 7    1  0.1176534E+005  0.1043930E+01  0.7957747E-01            NaN
         13   -1    0    0    0    0  0.00000000000E+00  0.00000000000E+00  0.74505805969E-08  0.10566000000E+00  0.10566000000E+00 0.  1.
     999900   -1    0    0    0    0 -0.00000000000E+00 -0.00000000000E+00 -0.74505805969E-08  0.93827000000E+00  0.93827000000E+00 0. -1.
     999903    2    1    2    0    0 -0.49842117485E-01 -0.83518099612E-01  0.29095609285E-01  0.10339832264E+00  0.19625213556E-01 0.  0.
         14    1    1    2    0    0 -0.23059894459E-01 -0.37209924854E-01 -0.22628698168E-01  0.49278750196E-01  0.00000000000E+00 0. -1.
     999901    1    1    2    0    0  0.72902011944E-01  0.12072802447E+00 -0.64669111170E-02  0.89125292716E+00  0.88000000000E+00 0. -1.
        -11    1    3    3    0    0 -0.27090705730E-01 -0.28306259988E-01  0.75007397363E-02  0.39895775579E-01  0.51100000000E-03 0.  1.
         11    1    3    3    0    0 -0.22751411755E-01 -0.55211839625E-01  0.21594869549E-01  0.63502547062E-01  0.51100000000E-03 0. -1.
</event>
<event>
 8    1  0.1176534E+005  0.1043930E+01  0.7957747E-01            NaN
         13   -1    0    0    0    0  0.00000000000E+00  0.00000000000E+00  0.74505805969E-08  0.10566000000E+00  0.10566000000E+00 0.  1.
     999900   -1    0    0    0    0 -0.00000000000E+00 -0.00000000000E+00 -0.74505805969E-08  0.93827000000E+00  0.93827000000E+00 0.  1.
     999902    2    1    2    0    0  0.20375721848E-01 -0.78664824586E-02  0.78834305732E-02  0.10207093182E+01  0.10204451539E+01 0.  0.
     999903    2    3    3    0    0 -0.11531073515E+00 -0.21820577431E-01  0.50619607464E-01  0.12917585711E+00  0.18744443419E-01 0.  0.
         14    1    1    2    0    0 -0.20375721848E-01  0.78664824586E-02 -0.78834305732E-02  0.23220681831E-01  0.00000000000E+00 0.  1.
     999901    1    3    3    0    0  0.13568645700E+00  0.13954094973E-01 -0.42736176890E-01  0.89153346106E+00  0.88000000000E+00 0.  1.
        -11    1    4    4    0    0 -0.69817625593E-01 -0.38419040438E-02  0.29850149057E-01  0.76029951926E-01  0.51100000000E-03 0.  1.
         11    1    4    4    0    0 -0.45493109557E-01 -0.17978673388E-01  0.20769458407E-01  0.53145905181E-01  0.51100000000E-03 0. -1.
</event>
<event>
 8    1  0.1176534E+005  0.1043930E+01  0.7957747E-01            NaN
         13   -1    0    0    0    0  0.00000000000E+00  0.00000000000E+00  0.74505805969E-08  0.10566000000E+00  0.10566000000E+00 0.  1.
     999900   -1    0    0    0    0 -0.00000000000E+00 -0.00000000000E+00 -0.74505805969E-08  0.93827000000E+00  0.93827000000E+00 0.  1.
     999902    2    1    2    0    0  0.40017174836E-02 -0.13788235480E-01 -0.18944519323E-01  0.10201597667E+01  0.10198827999E+01 0.  0.
     999903    2    3    3    0    0  0.18624135407E-01  0.17202287181E-01 -0.12867504594E+00  0.13268299735E+00  0.20117982857E-01 0.  0.
         14    1    1    2    0    0 -0.40017174836E-02  0.13788235480E-01  0.18944519323E-01  0.23770233336E-01  0.00000000000E+00 0.  1.
     999901    1    3    3    0    0 -0.14622417924E-01 -0.30990522661E-01  0.10973052662E+00  0.88747676931E+00  0.88000000000E+00 0. -1.
        -11    1    4    4    0    0  0.15837169669E-02  0.21664007934E-03 -0.57976453731E-01  0.58000736207E-01  0.51100000000E-03 0.  1.
         11    1    4    4    0    0  0.17040418441E-01  0.16985647102E-01 -0.70698592208E-01  0.74682261142E-01  0.51100000000E-03 0. -1.
</event>
<event>
 8    1  0.1176534E+005  0.1043930E+01  0.7957747E-01            NaN
         13   -1    0    0    0    0  0.00000000000E+00  0.00000000000E+00  0.74505805969E-08  0.10566000000E+00  0.10566000000E+00 0.  1.
     999900   -1    0    0    0    0 -0.00000000000E+00 -0.00000000000E+00 -0.74505805969E-08  0.93827000000E+00  0.93827000000E+00 0.  1.
     999902    2    1    2    0    0 -0.21541909328E-01  0.75266816240E-02  0.67494725818E-02  0.10201337782E+01  0.10198561983E+01 0.  0.
     999903    2    3    3    0    0 -0.39250084431E-01  0.11817926433E+00 -0.38558960454E-01  0.13187118881E+00  0.19907520221E-01 0.  0.
         14    1    1    2    0    0  0.21541909328E-01 -0.75266816240E-02 -0.67494725818E-02  0.23796221841E-01  0.00000000000E+00 0. -1.
     999901    1    3    3    0    0  0.17708175104E-01 -0.11065258271E+00  0.45308433036E-01  0.88826258935E+00  0.88000000000E+00 0. -1.
        -11    1    4    4    0    0 -0.11597521359E-01  0.44693265448E-01 -0.48756262770E-02  0.46432998295E-01  0.51100000000E-03 0. -1.
         11    1    4    4    0    0 -0.27652563073E-01  0.73485998887E-01 -0.33683334177E-01  0.85438190519E-01  0.51100000000E-03 0.  1.
</event>
<event>
 8    1  0.1176534E+005  0.1043930E+01  0.7957747E-01            NaN
         13   -1    0    0    0    0  0.00000000000E+00  0.00000000000E+00  0.74505805969E-08  0.10566000000E+00  0.10566000000E+00 0.  1.
     999900   -1    0    0    0    0 -0.00000000000E+00 -0.00000000000E+00 -0.74505805969E-08  0.93827000000E+00  0.93827000000E+00 0. -1.
     999902    2    1    2    0    0  0.20750592620E-01 -0.58205766046E-02  0.13752105191E-01  0.10183646601E+01  0.10180437095E+01 0.  0.
     999903    2    3    3    0    0  0.23824019452E-01 -0.34996419228E-01 -0.11909422146E+00  0.12791038153E+00  0.19629030993E-01 0.  0.
         14    1    1    2    0    0 -0.20750592620E-01  0.58205766046E-02 -0.13752105191E-01  0.25565339882E-01  0.00000000000E+00 0. -1.
     999901    1    3    3    0    0 -0.30734268313E-02  0.29175842623E-01  0.13284632665E+00  0.89045427858E+00  0.88000000000E+00 0.  1.
        -11    1    4    4    0    0 -0.23961848300E-02 -0.80494799839E-02 -0.14525598817E-01  0.16786600958E-01  0.51100000000E-03 0. -1.
         11    1    4    4    0    0  0.26220204282E-01 -0.26946939244E-01 -0.10456862264E+00  0.11112378058E+00  0.51100000000E-03 0.  1.
</event>
<event>
 8    1  0.1176534E+005  0.1043930E+01  0.7957747E-01            NaN
         13   -1    0    0    0    0  0.00000000000E+00  0.00000000000E+00  0.74505805969E-08  0.10566000000E+00  0.10566000000E+00 0. -1.
     999900   -1    0    0    0    0 -0.00000000000E+00 -0.00000000000E+00 -0.74505805969E-08  0.93827000000E+00  0.93827000000E+00 0. -1.
     999902    2    1    2    0    0 -0.92080520162E-02 -0.15996608241E-02 -0.23079317145E-01  0.10190301603E+01  0.10187259031E+01 0.  0.
     999903    2    3    3    0    0 -0.29572355721E-01 -0.10622289072E+00 -0.68579389957E-01  0.13143172536E+00  0.20330739516E-01 0.  0.
         14    1    1    2    0    0  0.92080520162E-02  0.15996608241E-02  0.23079317145E-01  0.24899839689E-01  0.00000000000E+00 0. -1.
     999901    1    3    3    0    0  0.20364303705E-01  0.10462322989E+00  0.45500072813E-01  0.88759843495E+00  0.88000000000E+00 0. -1.
        -11    1    4    4    0    0 -0.45972569209E-02 -0.38148243311E-01 -0.33035206210E-01  0.50675528702E-01  0.51100000000E-03 0. -1.
         11    1    4    4    0    0 -0.24975098800E-01 -0.68074647407E-01 -0.35544183748E-01  0.80756196660E-01  0.51100000000E-03 0.  1.
</event>
<event>
 8    1  0.1176534E+005  0.1043930E+01  0.7957747E-01            NaN
         13   -1    0    0    0    0  0.00000000000E+00  0.00000000000E+00  0.74505805969E-08  0.10566000000E+00  0.10566000000E+00 0.  1.
     999900   -1    0    0    0    0 -0.00000000000E+00 -0.00000000000E+00 -0.74505805969E-08  0.93827000000E+00  0.93827000000E+00 0.  1.
     999902    2    1    2    0    0 -0.11520486026E-01 -0.13467143409E-01 -0.16029465556E-01  0.10200337803E+01  0.10197538348E+01 0.  0.
     999903    2    3    3    0    0  0.11796956786E+00  0.45877754469E-01  0.28502642326E-02  0.12838029651E+00  0.21255334165E-01 0.  0.
         14    1    1    2    0    0  0.11520486026E-01  0.13467143409E-01  0.16029465556E-01  0.23896219699E-01  0.00000000000E+00 0.  1.
     999901    1    3    3    0    0 -0.12949005388E+00 -0.59344897877E-01 -0.18879729789E-01  0.89165348379E+00  0.88000000000E+00 0. -1.
        -11    1    4    4    0    0  0.10295437983E-01  0.10728123307E-01 -0.19861233202E-02  0.15009812783E-01  0.51100000000E-03 0.  1.
         11    1    4    4    0    0  0.10767412987E+00  0.35149631161E-01  0.48363875528E-02  0.11337048373E+00  0.51100000000E-03 0. -1.
</event>
<event>
 8    1  0.1176534E+005  0.1043930E+01  0.7957747E-01            NaN
         13   -1    0    0    0    0  0.00000000000E+00  0.00000000000E+00  0.74505805969E-08  0.10566000000E+00  0.10566000000E+00 0.  1.
     999900   -1    0    0    0    0 -0.00000000000E+00 -0.00000000000E+00 -0.74505805969E-08  0.93827000000E+00  0.93827000000E+00 0. -1.
     999902    2    1    2    0    0 -0.11139845512E-01 -0.17862163804E-01  0.10705024714E-01  0.10203132558E+01  0.10200398959E+01 0.  0.
     999903    2    3    3    0    0  0.19081695514E-01  0.11527272932E+00  0.50797403606E-01  0.12888426805E+00  0.19464457588E-01 0.  0.
         14    1    1    2    0    0  0.11139845512E-01  0.17862163804E-01 -0.10705024714E-01  0.23616744228E-01  0.00000000000E+00 0.  1.
     999901    1    3    3    0    0 -0.30221541026E-01 -0.13313489312E+00 -0.40092378892E-01  0.89142898772E+00  0.88000000000E+00 0.  1.
        -11    1    4    4    0    0 -0.27686944821E-02  0.39157008346E-01  0.16490082673E-01  0.42580757618E-01  0.51100000000E-03 0. -1.
         11    1    4    4    0    0  0.21850389997E-01  0.76115720972E-01  0.34307320933E-01  0.86303510431E-01  0.51100000000E-03 0.  1.
</event>
<event>
 8    1  0.1176534E+005  0.1043930E+01  0.7957747E-01            NaN
         13   -1    0    0    0    0  0.00000000000E+00  0.00000000000E+00  0.74505805969E-08  0.10566000000E+00  0.10566000000E+00 0. -1.
     999900   -1    0    0    0    0 -0.00000000000E+00 -0.00000000000E+00 -0.74505805969E-08  0.93827000000E+00  0.93827000000E+00 0.  1.
     999902    2    1    2    0    0 -0.11780674163E-01  0.19165771980E-01 -0.94519401443E-02  0.10195281502E+01  0.10192360859E+01 0.  0.
     999903    2    3    3    0    0 -0.12814746987E+00 -0.24021169367E-02 -0.21630940834E-01  0.13152210688E+00  0.20065462797E-01 0.  0.
         14    1    1    2    0    0  0.11780674163E-01 -0.19165771980E-01  0.94519401443E-02  0.24401849762E-01  0.00000000000E+00 0.  1.
     999901    1    3    3    0    0  0.11636679571E+00  0.21567888917E-01  0.12179000690E-01  0.88800604335E+00  0.88000000000E+00 0.  1.
        -11    1    4    4    0    0 -0.46657410283E-01  0.35978285860E-02  0.73394846690E-03  0.46804466734E-01  0.51100000000E-03 0. -1.
         11    1    4    4    0    0 -0.81490059589E-01 -0.59999455227E-02 -0.22364889301E-01  0.84717640150E-01  0.51100000000E-03 0.  1.
</event>
<event>
 8    1  0.1176534E+005  0.1043930E+01  0.7957747E-01            NaN
         13   -1    0    0    0    0  0.00000000000E+00  0.00000000000E+00  0.74505805969E-08  0.10566000000E+00  0.10566000000E+00 0. -1.
     999900   -1    0    0    0    0 -0.00000000000E+00 -0.00000000000E+00 -0.74505805969E-08  0.93827000000E+00  0.93827000000E+00 0.  1.
     999902    2    1    2    0    0 -0.14248083840E-01  0.84101138632E-02  0.18019150641E-01  0.10194672181E+01  0.10191736756E+01 0.  0.
     999903    2    3    3    0    0  0.25450927376E-01  0.63380140697E-02 -0.12312653690E+00  0.12733359011E+00  0.19125348472E-01 0.  0.
         14    1    1    2    0    0  0.14248083840E-01 -0.84101138632E-02 -0.18019150641E-01  0.24462781896E-01  0.00000000000E+00 0.  1.
     999901    1    3    3    0    0 -0.39699011215E-01  0.20720997935E-02  0.14114568754E+00  0.89213362800E+00  0.88000000000E+00 0. -1.
        -11    1    4    4    0    0  0.20486474014E-01 -0.13578950106E-02 -0.10531629308E+00  0.10730015007E+00  0.51100000000E-03 0.  1.
         11    1    4    4    0    0  0.49644533624E-02  0.76959090804E-02 -0.17810243824E-01  0.20033440040E-01  0.51100000000E-03 0. -1.
</event>
<event>
 8    1  0.1176534E+005  0.1043930E+01  0.7957747E-01            NaN
         13   -1    0    0    0    0  0.00000000000E+00  0.00000000000E+00  0.74505805969E-08  0.10566000000E+00  0.10566000000E+00 0.  1.
     999900   -1    0    0    0    0 -0.00000000000E+00 -0.00000000000E+00 -0.74505805969E-08  0.93827000000E+00  0.93827000000E+00 0.  1.
     999902    2    1    2    0    0 -0.15245434439E-02 -0.67463380843E-02  0.22907986022E-01  0.10200006637E+01  0.10197199326E+01 0.  0.
     999903    2    3    3    0    0  0.67824912798E-01 -0.57627977927E-01  0.96327870821E-01  0.13276407306E+00  0.20640682231E-01 0.  0.
         14    1    1    2    0    0  0.15245434439E-02  0.67463380843E-02 -0.22907986022E-01  0.23929336260E-01  0.00000000000E+00 0. -1.
     999901    1    3    3    0    0 -0.69349456242E-01  0.50881639843E-01 -0.73419884800E-01  0.88723659068E+00  0.88000000000E+00 0.  1.
        -11    1    4    4    0    0  0.50617081181E-01 -0.41190362650E-01  0.82657780681E-01  0.10531526343E+00  0.51100000000E-03 0.  1.
         11    1    4    4    0    0  0.17207831617E-01 -0.16437615277E-01  0.13670090141E-01  0.27448809635E-01  0.51100000000E-03 0. -1.
</event>
<event>
 8    1  0.1176534E+005  0.1043930E+01  0.7957747E-01            NaN
         13   -1    0    0    0    0  0.00000000000E+00  0.00000000000E+00  0.74505805969E-08  0.10566000000E+00  0.10566000000E+00 0. -1.
     999900   -1    0    0    0    0 -0.00000000000E+00 -0.00000000000E+00 -0.74505805969E-08  0.93827000000E+00  0.93827000000E+00 0. -1.
     999902    2    1    2    0    0 -0.10827129595E-01  0.62539950437E-02  0.20810488053E-01  0.10196521170E+01  0.10193630482E+01 0.  0.
     999903    2    3    3    0    0  0.64136938330E-01  0.51563113009E-01 -0.95568407674E-01  0.12767870092E+00  0.19905492742E-01 0.  0.
         14    1    1    2    0    0  0.10827129595E-01 -0.62539950437E-02 -0.20810488053E-01  0.24277882986E-01  0.00000000000E+00 0.  1.
     999901    1    3    3    0    0 -0.74964067925E-01 -0.45309117965E-01  0.11637889573E+00  0.89197341610E+00  0.88000000000E+00 0.  1.
        -11    1    4    4    0    0  0.60120367911E-01  0.41935885788E-01 -0.89162819573E-01  0.11542680222E+00  0.51100000000E-03 0. -1.
         11    1    4    4    0    0  0.40165704190E-02  0.96272272207E-02 -0.64055881011E-02  0.12251898702E-01  0.51100000000E-03 0.  1.
</event>
<event>
 8    1  0.1176534E+005  0.1043930E+01  0.7957747E-01            NaN
         13   -1    0    0    0    0  0.00000000000E+00  0.00000000000E+00  0.74505805969E-08  0.10566000000E+00  0.10566000000E+00 0. -1.
     999900   -1    0    0    0    0 -0.00000000000E+00 -0.00000000000E+00 -0.74505805969E-08  0.93827000000E+00  0.93827000000E+00 0. -1.
     999902    2    1    2    0    0  0.19853145990E-01  0.90546838996E-02  0.84162061797E-02  0.10205426694E+01  0.10202746556E+01 0.  0.
     999903    2    3    3    0    0 -0.10629128517E+00 -0.68293454161E-01 -0.54309183011E-02  0.12808152468E+00  0.20335901920E-01 0.  0.
         14    1    1    2    0    0 -0.19853145990E-01 -0.90546838996E-02 -0.84162061797E-02  0.23387330602E-01  0.00000000000E+00 0.  1.
     999901    1    3    3    0    0  0.12614443116E+00  0.77348138061E-01  0.13847124481E-01  0.89246114472E+00  0.88000000000E+00 0.  1.
        -11    1    4    4    0    0 -0.93158351213E-01 -0.54845903368E-01 -0.10478827461E-01  0.10861223901E+00  0.51100000000E-03 0.  1.
         11    1    4    4    0    0 -0.13132933956E-01 -0.13447550793E-01  0.50479091597E-02  0.19469285670E-01  0.51100000000E-03 0. -1.
</event>
<event>
 8    1  0.1176534E+005  0.1043930E+01  0.7957747E-01            NaN
         13   -1    0    0    0    0  0.00000000000E+00  0.00000000000E+00  0.74505805969E-08  0.10566000000E+00  0.10566000000E+00 0.  1.
     999900   -1    0    0    0    0 -0.00000000000E+00 -0.00000000000E+00 -0.74505805969E-08  0.93827000000E+00  0.93827000000E+00 0.  1.
     999902    2    1    2    0    0  0.22076819892E-01 -0.41272027137E-02  0.98098832520E-02  0.10194217649E+01  0.10191271173E+01 0.  0.
     999903    2    3    3    0    0 -0.83228064737E-01  0.64904736449E-01 -0.67745943942E-01  0.12708246077E+00  0.20515928947E-01 0.  0.
         14    1    1    2    0    0 -0.22076819892E-01  0.41272027137E-02 -0.98098832520E-02  0.24508235110E-01  0.00000000000E+00 0. -1.
     999901    1    3    3    0    0  0.10530488463E+00 -0.69031939163E-01  0.77555827194E-01  0.89233930412E+00  0.88000000000E+00 0.  1.
        -11    1    4    4    0    0 -0.53431957513E-01  0.52980590862E-01 -0.50758947169E-01  0.90767003534E-01  0.51100000000E-03 0. -1.
         11    1    4    4    0    0 -0.29796107224E-01  0.11924145586E-01 -0.16986996773E-01  0.36315457233E-01  0.51100000000E-03 0.  1.
</event>
<event>
 8    1  0.1176534E+005  0.1043930E+01  0.7957747E-01            NaN
         13   -1    0    0    0    0  0.00000000000E+00  0.00000000000E+00  0.74505805969E-08  0.10566000000E+00  0.10566000000E+00 0. -1.
     999900   -1    0    0    0    0 -0.00000000000E+00 -0.00000000000E+00 -0.74505805969E-08  0.93827000000E+00  0.93827000000E+00 0.  1.
     999902    2    1    2    0    0  0.23426771330E-02 -0.21941831407E-01  0.89591380390E-02  0.10201140756E+01  0.10198360304E+01 0.  0.
     999903    2    3    3    0    0  0.10498245041E+00 -0.76445924251E-01  0.16572613184E-01  0.13244094644E+00  0.20016457142E-01 0.  0.
         14    1    1    2    0    0 -0.23426771330E-02  0.21941831407E-01 -0.89591380390E-02  0.23815924421E-01  0.00000000000E+00 0.  1.
     999901    1    3    3    0    0 -0.10263977328E+00  0.54504092844E-01 -0.76134751448E-02  0.88767312914E+00  0.88000000000E+00 0. -1.
        -11    1    4    4    0    0  0.74373626686E-01 -0.61501473678E-01  0.56838703785E-02  0.96676962688E-01  0.51100000000E-03 0.  1.
         11    1    4    4    0    0  0.30608823726E-01 -0.14944450573E-01  0.10888742805E-01  0.35763983750E-01  0.51100000000E-03 0. -1.
</event>
<event>
 8    1  0.1176534E+005  0.1043930E+01  0.7957747E-01            NaN
         13   -1    0    0    0    0  0.00000000000E+00  0.00000000000E+00  0.74505805969E-08  0.10566000000E+00  0.10566000000E+00 0. -1.
     999900   -1    0    0    0    0 -0.00000000000E+00 -0.00000000000E+00 -0.74505805969E-08  0.93827000000E+00  0.93827000000E+00 0. -1.
     999902    2    1    2    0    0  0.21150910092E-01 -0.10491703085E-01  0.12562723014E-02  0.10202865009E+01  0.10200125140E+01 0.  0.
     999903    2    3    3    0    0  0.41594024085E-01  0.12246967255E-02 -0.12288609391E+00  0.13126089829E+00  0.19921561737E-01 0.  0.
         14    1    1    2    0    0 -0.21150910092E-01  0.10491703085E-01 -0.12562723014E-02  0.23643499137E-01  0.00000000000E+00 0. -1.
     999901    1    3    3    0    0 -0.20443113993E-01 -0.11716399811E-01  0.12414236621E+00  0.88902560257E+00  0.88000000000E+00 0.  1.
        -11    1    4    4    0    0  0.12390469823E-01 -0.28450685806E-02 -0.65679136767E-01  0.66900136660E-01  0.51100000000E-03 0. -1.
         11    1    4    4    0    0  0.29203554262E-01  0.40697653061E-02 -0.57206957146E-01  0.64360761634E-01  0.51100000000E-03 0.  1.
</event>
<event>
 8    1  0.1176534E+005  0.1043930E+01  0.7957747E-01            NaN
         13   -1    0    0    0    0  0.00000000000E+00  0.00000000000E+00  0.74505805969E-08  0.10566000000E+00  0.10566000000E+00 0. -1.
     999900   -1    0    0    0    0 -0.00000000000E+00 -0.00000000000E+00 -0.74505805969E-08  0.93827000000E+00  0.93827000000E+00 0.  1.
     999902    2    1    2    0    0  0.27335581243E-02  0.57608340012E-02 -0.21385256104E-01  0.10216143390E+01  0.10213705835E+01 0.  0.
     999903    2    3    3    0    0 -0.12907139333E+00 -0.11586425451E-01  0.47832058292E-02  0.13124460620E+00  0.20213801425E-01 0.  0.
         14    1    1    2    0    0 -0.27335581243E-02 -0.57608340012E-02  0.21385256104E-01  0.22315661026E-01  0.00000000000E+00 0. -1.
     999901    1    3    3    0    0  0.13180495145E+00  0.17347259452E-01 -0.26168461933E-01  0.89036973277E+00  0.88000000000E+00 0. -1.
        -11    1    4    4    0    0 -0.43412243508E-01 -0.12898619205E-01 -0.17545086589E-02  0.45324791069E-01  0.51100000000E-03 0. -1.
         11    1    4    4    0    0 -0.85659149821E-01  0.13121937540E-02  0.65377144881E-02  0.85919815132E-01  0.51100000000E-03 0.  1.
</event>
<event>
 8    1  0.1176534E+005  0.1043930E+01  0.7957747E-01            NaN
         13   -1    0    0    0    0  0.00000000000E+00  0.00000000000E+00  0.74505805969E-08  0.10566000000E+00  0.10566000000E+00 0.  1.
     999900   -1    0    0    0    0 -0.00000000000E+00 -0.00000000000E+00 -0.74505805969E-08  0.93827000000E+00  0.93827000000E+00 0.  1.
     999902    2    1    2    0    0  0.23405642104E-02 -0.91208640062E-02 -0.21655366462E-01  0.10203159513E+01  0.10200426546E+01 0.  0.
     999903    2    3    3    0    0 -0.40560500718E-01  0.10574305817E+00  0.57045814575E-01  0.12833607600E+00  0.19727515611E-01 0.  0.
         14    1    1    2    0    0 -0.23405642104E-02  0.91208640062E-02  0.21655366462E-01  0.23614048734E-01  0.00000000000E+00 0. -1.
     999901    1    3    3    0    0  0.42901064928E-01 -0.11486392218E+00 -0.78701181036E-01  0.89197987527E+00  0.88000000000E+00 0.  1.
        -11    1    4    4    0    0 -0.20985147112E-01  0.53691784168E-01  0.18033358628E-01  0.60404033234E-01  0.51100000000E-03 0.  1.
         11    1    4    4    0    0 -0.19575353606E-01  0.52051274001E-01  0.39012455947E-01  0.67932042762E-01  0.51100000000E-03 0. -1.
</event>
<event>
 8    1  0.1176534E+005  0.1043930E+01  0.7957747E-01            NaN
         13   -1    0    0    0    0  0.00000000000E+00  0.00000000000E+00  0.74505805969E-08  0.10566000000E+00  0.10566000000E+00 0.  1.
     999900   -1    0    0    0    0 -0.00000000000E+00 -0.00000000000E+00 -0.74505805969E-08  0.93827000000E+00  0.93827000000E+00 0.  1.
     999902    2    1    2    0    0  0.55052902864E-02 -0.20653344042E-01  0.20451267071E-01  0.10143475193E+01  0.10139160550E+01 0.  0.
     999903    2    3    3    0    0 -0.94862375633E-01  0.11643906786E-01 -0.74738972503E-01  0.12295649257E+00  0.19948287606E-01 0.  0.
         14    1    1    2    0    0 -0.55052902864E-02  0.20653344042E-01 -0.20451267071E-01  0.29582480729E-01  0.00000000000E+00 0.  1.
     999901    1    3    3    0    0  0.10036766592E+00 -0.32297250828E-01  0.95190239574E-01  0.89139102670E+00  0.88000000000E+00 0. -1.
        -11    1    4    4    0    0 -0.47792302264E-01  0.11276373906E-01 -0.27573588991E-01  0.56318955024E-01  0.51100000000E-03 0.  1.
         11    1    4    4    0    0 -0.47070073369E-01  0.36753288008E-03 -0.47165383512E-01  0.66637537546E-01  0.51100000000E-03 0. -1.
</event>
<event>
 8    1  0.1176534E+005  0.1043930E+01  0.7957747E-01            NaN
         13   -1    0    0    0    0  0.00000000000E+00  0.00000000000E+00  0.74505805969E-08  0.10566000000E+00  0.10566000000E+00 0. -1.
     999900   -1    0    0    0    0 -0.00000000000E+00 -0.00000000000E+00 -0.74505805969E-08  0.93827000000E+00  0.93827000000E+00 0.  1.
     999902    2    1    2    0    0  0.20032541181E-01 -0.80700356680E-03 -0.61755795260E-02  0.10229516363E+01  0.10227365049E+01 0.  0.
     999903    2    3    3    0    0  0.10835940054E+00 -0.72602488415E-01 -0.30041933771E-01  0.13529977403E+00  0.19764363330E-01 0.  0.
         14    1    1    2    0    0 -0.20032541181E-01  0.80700356680E-03  0.61755795260E-02  0.20978363697E-01  0.00000000000E+00 0. -1.
     999901    1    3    3    0    0 -0.88326859362E-01  0.71795484849E-01  0.23866354245E-01  0.88765186227E+00  0.88000000000E+00 0.  1.
        -11    1    4    4    0    0  0.30108581402E-01 -0.11642754581E-01 -0.26562703452E-02  0.32394402317E-01  0.51100000000E-03 0. -1.
         11    1    4    4    0    0  0.78250819141E-01 -0.60959733834E-01 -0.27385663426E-01  0.10290537171E+00  0.51100000000E-03 0.  1.
</event>
<event>
 8    1  0.1176534E+005  0.1043930E+01  0.7957747E-01            NaN
         13   -1    0    0    0    0  0.00000000000E+00  0.00000000000E+00  0.74505805969E-08  0.10566000000E+00  0.10566000000E+00 0.  1.
     999900   -1    0    0    0    0 -0.00000000000E+00 -0.00000000000E+00 -0.74505805969E-08  0.93827000000E+00  0.93827000000E+00 0. -1.
     999902    2    1    2    0    0  0.16905518788E-01 -0.46562723297E-02 -0.15013355396E-01  0.10208458436E+01  0.10205848118E+01 0.  0.
     999903    2    3    3    0    0  0.14946574707E-02 -0.11683844248E+00 -0.59582565322E-01  0.13247162715E+00  0.18579404360E-01 0.  0.
         14    1    1    2    0    0 -0.16905518788E-01  0.46562723297E-02  0.15013355396E-01  0.23084156422E-01  0.00000000000E+00 0. -1.
     999901    1    3    3    0    0  0.15410861317E-01  0.11218217015E+00  0.44569209926E-01  0.88837421643E+00  0.88000000000E+00 0.  1.
        -11    1    4    4    0    0 -0.67110335171E-02 -0.22655155334E-01 -0.93735615394E-02  0.25424767669E-01  0.51100000000E-03 0.  1.
         11    1    4    4    0    0  0.82056909878E-02 -0.94183287146E-01 -0.50209003783E-01  0.10704685948E+00  0.51100000000E-03 0. -1.
</event>
<event>
 8    1  0.1176534E+005  0.1043930E+01  0.7957747E-01            NaN
         13   -1    0    0    0    0  0.00000000000E+00  0.00000000000E+00  0.74505805969E-08  0.10566000000E+00  0.10566000000E+00 0. -1.
     999900   -1    0    0    0    0 -0.00000000000E+00 -0.00000000000E+00 -0.74505805969E-08  0.93827000000E+00  0.93827000000E+00 0. -1.
     999902    2    1    2    0    0  0.76995111027E-02  0.21407998545E-01  0.84578085245E-02  0.10196582181E+01  0.10193692963E+01 0.  0.
     999903    2    3    3    0    0  0.32536678107E-01 -0.29357992420E-01  0.12104043611E+00  0.13068751060E+00  0.22536883401E-01 0.  0.
         14    1    1    2    0    0 -0.76995111027E-02 -0.21407998545E-01 -0.84578085245E-02  0.24271781928E-01  0.00000000000E+00 0.  1.
     999901    1    3    3    0    0 -0.24837167004E-01  0.50765990965E-01 -0.11258262758E+00  0.88897070747E+00  0.88000000000E+00 0. -1.
        -11    1    4    4    0    0  0.68485394498E-02 -0.20683286589E-01  0.61948108922E-01  0.65669857292E-01  0.51100000000E-03 0.  1.
         11    1    4    4    0    0  0.25688138657E-01 -0.86747058309E-02  0.59092327186E-01  0.65017653312E-01  0.51100000000E-03 0. -1.
</event>
<event>
 8    1  0.1176534E+005  0.1043930E+01  0.7957747E-01            NaN
         13   -1    0    0    0    0  0.00000000000E+00  0.00000000000E+00  0.74505805969E-08  0.10566000000E+00  0.10566000000E+00 0.  1.
     999900   -1    0    0    0    0 -0.00000000000E+00 -0.00000000000E+00 -0.74505805969E-08  0.93827000000E+00  0.93827000000E+00 0. -1.
     999902    2    1    2    0    0  0.20168916699E-01  0.52328998510E-02 -0.81849804078E-02  0.10215433445E+01  0.10212980183E+01 0.  0.
     999903    2    3    3    0    0 -0.66816154787E-01  0.10581710841E+00 -0.32503753932E-01  0.13122037587E+00  0.22374853096E-01 0.  0.
         14    1    1    2    0    0 -0.20168916699E-01 -0.52328998510E-02  0.81849804078E-02  0.22386655533E-01  0.00000000000E+00 0.  1.
     999901    1    3    3    0    0  0.86985071486E-01 -0.10058420856E+00  0.24318773524E-01  0.89032296860E+00  0.88000000000E+00 0. -1.
        -11    1    4    4    0    0 -0.47837604982E-01  0.89710067475E-01 -0.30945275562E-01  0.10627419187E+00  0.51100000000E-03 0. -1.
         11    1    4    4    0    0 -0.18978549805E-01  0.16107040931E-01 -0.15584783705E-02  0.24946183998E-01  0.51100000000E-03 0.  1.
</event>
<event>
 8    1  0.1176534E+005  0.1043930E+01  0.7957747E-01            NaN
         13   -1    0    0    0    0  0.00000000000E+00  0.00000000000E+00  0.74505805969E-08  0.10566000000E+00  0.10566000000E+00 0. -1.
     999900   -1    0    0    0    0 -0.00000000000E+00 -0.00000000000E+00 -0.74505805969E-08  0.93827000000E+00  0.93827000000E+00 0.  1.
     999902    2    1    2    0    0 -0.10211066729E-01 -0.77769963541E-02 -0.20132794385E-01  0.10200537154E+01  0.10197742423E+01 0.  0.
     999903    2    3    3    0    0 -0.10120747907E+00 -0.47112117708E-01  0.64493196802E-01  0.13045315493E+00  0.19903460557E-01 0.  0.
         14    1    1    2    0    0  0.10211066729E-01  0.77769963541E-02  0.20132794385E-01  0.23876284589E-01  0.00000000000E+00 0. -1.
     999901    1    3    3    0    0  0.90996412339E-01  0.39335121354E-01 -0.84625991187E-01  0.88960056048E+00  0.88000000000E+00 0. -1.
        -11    1    4    4    0    0 -0.45306082718E-01 -0.14514802096E-01  0.36402757285E-01  0.59906113796E-01  0.51100000000E-03 0. -1.
         11    1    4    4    0    0 -0.55901396350E-01 -0.32597315612E-01  0.28090439518E-01  0.70547041131E-01  0.51100000000E-03 0.  1.
</event>
<event>
 7    1  0.1176534E+005  0.1043930E+01  0.7957747E-01            NaN
         13   -1    0    0    0    0  0.00000000000E+00  0.00000000000E+00  0.74505805969E-08  0.10566000000E+00  0.10566000000E+00 0.  1.
     999900   -1    0    0    0    0 -0.00000000000E+00 -0.00000000000E+00 -0.74505805969E-08  0.93827000000E+00  0.93827000000E+00 0. -1.
     999903    2    1    2    0    0 -0.76507542996E-01  0.74498566091E-01 -0.32454238619E-02  0.10893040615E+00  0.21257001740E-01 0.  0.
         14    1    1    2    0    0  0.24096579431E-01 -0.39779460581E-01  0.24364468940E-01  0.52504075757E-01  0.00000000000E+00 0.  1.
     999901    1    1    2    0    0  0.52410963565E-01 -0.34719105510E-01 -0.21119045078E-01  0.88249551809E+00  0.88000000000E+00 0. -1.
        -11    1    3    3    0    0 -0.72478336157E-01  0.62493488801E-01  0.54163809881E-03  0.95703186193E-01  0.51100000000E-03 0.  1.
         11    1    3    3    0    0 -0.40292068388E-02  0.12005077290E-01 -0.37870619607E-02  0.13227219957E-01  0.51100000000E-03 0. -1.
</event>
<event>
 7    1  0.1176534E+005  0.1043930E+01  0.7957747E-01            NaN
         13   -1    0    0    0    0  0.00000000000E+00  0.00000000000E+00  0.74505805969E-08  0.10566000000E+00  0.10566000000E+00 0. -1.
     999900   -1    0    0    0    0 -0.00000000000E+00 -0.00000000000E+00 -0.74505805969E-08  0.93827000000E+00  0.93827000000E+00 0. -1.
     999903    2    1    2    0    0 -0.79032829095E-02  0.11410193539E+00 -0.29563800923E-01  0.12000806223E+00  0.21123520920E-01 0.  0.
         14    1    1    2    0    0  0.15319542326E-02 -0.30127462513E-01 -0.23604717694E-01  0.38303962963E-01  0.00000000000E+00 0.  1.
     999901    1    1    2    0    0  0.63713286769E-02 -0.83974472874E-01  0.53168518616E-01  0.88561797480E+00  0.88000000000E+00 0.  1.
        -11    1    3    3    0    0 -0.13270655113E-01  0.80697992896E-01 -0.26784617982E-01  0.86057848137E-01  0.51100000000E-03 0.  1.
         11    1    3    3    0    0  0.53673722035E-02  0.33403942492E-01 -0.27791829405E-02  0.33950214096E-01  0.51100000000E-03 0. -1.
</event>
<event>
 8    1  0.1176534E+005  0.1043930E+01  0.7957747E-01            NaN
         13   -1    0    0    0    0  0.00000000000E+00  0.00000000000E+00  0.74505805969E-08  0.10566000000E+00  0.10566000000E+00 0. -1.
     999900   -1    0    0    0    0 -0.00000000000E+00 -0.00000000000E+00 -0.74505805969E-08  0.93827000000E+00  0.93827000000E+00 0. -1.
     999902    2    1    2    0    0 -0.18516720085E-01  0.17735957262E-02 -0.12403916037E-01  0.10215721893E+01  0.10213275020E+01 0.  0.
     999903    2    3    3    0    0  0.74503771924E-01 -0.51218657671E-01  0.89628800761E-01  0.12923163431E+00  0.22211043553E-01 0.  0.
         14    1    1    2    0    0  0.18516720085E-01 -0.17735957262E-02  0.12403916037E-01  0.22357810661E-01  0.00000000000E+00 0. -1.
     999901    1    3    3    0    0 -0.93020492010E-01  0.52992253398E-01 -0.10203271680E+00  0.89234055503E+00  0.88000000000E+00 0. -1.
        -11    1    4    4    0    0  0.11204888632E-01 -0.64650168321E-02  0.25591378199E-01  0.28679709396E-01  0.51100000000E-03 0. -1.
         11    1    4    4    0    0  0.63298883292E-01 -0.44753640839E-01  0.64037422562E-01  0.10055192491E+00  0.51100000000E-03 0.  1.
</event>
<event>
 8    1  0.1176534E+005  0.1043930E+01  0.7957747E-01            NaN
         13   -1    0    0    0    0  0.00000000000E+00  0.00000000000E+00  0.74505805969E-08  0.10566000000E+00  0.10566000000E+00 0.  1.
     999900   -1    0    0    0    0 -0.00000000000E+00 -0.00000000000E+00 -0.74505805969E-08  0.93827000000E+00  0.93827000000E+00 0.  1.
     999902    2    1    2    0    0  0.23030311212E-01 -0.82749735952E-02  0.10687243492E-02  0.10194348455E+01  0.10191405161E+01 0.  0.
     999903    2    3    3    0    0  0.96717847709E-01  0.82937027301E-01 -0.27154291207E-01  0.13120851130E+00  0.15666057081E-01 0.  0.
         14    1    1    2    0    0 -0.23030311212E-01  0.82749735952E-02 -0.10687243492E-02  0.24495154506E-01  0.00000000000E+00 0. -1.
     999901    1    3    3    0    0 -0.73687536496E-01 -0.91212000896E-01  0.28223015557E-01  0.88822633419E+00  0.88000000000E+00 0. -1.
        -11    1    4    4    0    0  0.17662835419E-01  0.83190989445E-02 -0.62580593249E-02  0.20508719848E-01  0.51100000000E-03 0.  1.
         11    1    4    4    0    0  0.79055012290E-01  0.74617928357E-01 -0.20896231883E-01  0.11069979146E+00  0.51100000000E-03 0. -1.
</event>
<event>
 8    1  0.1176534E+005  0.1043930E+01  0.7957747E-01            NaN
         13   -1    0    0    0    0  0.00000000000E+00  0.00000000000E+00  0.74505805969E-08  0.10566000000E+00  0.10566000000E+00 0. -1.
     999900   -1    0    0    0    0 -0.00000000000E+00 -0.00000000000E+00 -0.74505805969E-08  0.93827000000E+00  0.93827000000E+00 0. -1.
     999902    2    1    2    0    0 -0.15495662468E-01 -0.17603269286E-01  0.21373419488E-01  0.10121996721E+01  0.10117022104E+01 0.  0.
     999903    2    3    3    0    0  0.46968313802E-01  0.34163048327E-01  0.10709109979E+00  0.12432072731E+00  0.24779088232E-01 0.  0.
         14    1    1    2    0    0  0.15495662468E-01  0.17603269286E-01 -0.21373419488E-01  0.31730327850E-01  0.00000000000E+00 0.  1.
     999901    1    3    3    0    0 -0.62463976270E-01 -0.51766317612E-01 -0.85717680298E-01  0.88787894484E+00  0.88000000000E+00 0. -1.
        -11    1    4    4    0    0  0.39831402729E-02  0.15857361139E-01  0.30242860050E-01  0.34383324646E-01  0.51100000000E-03 0. -1.
         11    1    4    4    0    0  0.42985173529E-01  0.18305687188E-01  0.76848239737E-01  0.89937402666E-01  0.51100000000E-03 0.  1.
</event>
<event>
 8    1  0.1176534E+005  0.1043930E+01  0.7957747E-01            NaN
         13   -1    0    0    0    0  0.00000000000E+00  0.00000000000E+00  0.74505805969E-08  0.10566000000E+00  0.10566000000E+00 0.  1.
     999900   -1    0    0    0    0 -0.00000000000E+00 -0.00000000000E+00 -0.74505805969E-08  0.93827000000E+00  0.93827000000E+00 0.  1.
     999902    2    1    2    0    0  0.15935307548E-01 -0.56931627947E-02 -0.17362480664E-01  0.10196853745E+01  0.10193971067E+01 0.  0.
     999903    2    3    3    0    0  0.99023603641E-01  0.28311227794E-01  0.77551139394E-01  0.13004018751E+00  0.17002101284E-01 0.  0.
         14    1    1    2    0    0 -0.15935307548E-01  0.56931627947E-02  0.17362480664E-01  0.24244625467E-01  0.00000000000E+00 0.  1.
     999901    1    3    3    0    0 -0.83088296093E-01 -0.34004390588E-01 -0.94913620057E-01  0.88964518703E+00  0.88000000000E+00 0.  1.
        -11    1    4    4    0    0  0.39255437931E-01  0.19492668703E-01  0.29344991186E-01  0.52747920993E-01  0.51100000000E-03 0.  1.
         11    1    4    4    0    0  0.59768165710E-01  0.88185590911E-02  0.48206148208E-01  0.77292266514E-01  0.51100000000E-03 0. -1.
</event>
<event>
 8    1  0.1176534E+005  0.1043930E+01  0.7957747E-01            NaN
         13   -1    0    0    0    0  0.00000000000E+00  0.00000000000E+00  0.74505805969E-08  0.10566000000E+00  0.10566000000E+00 0. -1.
     999900   -1    0    0    0    0 -0.00000000000E+00 -0.00000000000E+00 -0.74505805969E-08  0.93827000000E+00  0.93827000000E+00 0.  1.
     999902    2    1    2    0    0 -0.12202517652E-01 -0.96719018271E-02  0.17876807190E-01  0.10202228838E+01  0.10199474032E+01 0.  0.
     999903    2    3    3    0    0 -0.99215007630E-01 -0.34224293024E-01 -0.77141783424E-01  0.13050240756E+00  0.80686837058E-02 0.  0.
         14    1    1    2    0    0  0.12202517652E-01  0.96719018271E-02 -0.17876807190E-01  0.23707116175E-01  0.00000000000E+00 0.  1.
     999901    1    3    3    0    0  0.87012489977E-01  0.24552391197E-01  0.95018590615E-01  0.88972047627E+00  0.88000000000E+00 0. -1.
        -11    1    4    4    0    0 -0.85202165321E-02 -0.36721070762E-02 -0.43405031374E-02  0.10255708099E-01  0.51100000000E-03 0. -1.
         11    1    4    4    0    0 -0.90694791098E-01 -0.30552185948E-01 -0.72801280287E-01  0.12024669946E+00  0.51100000000E-03 0.  1.
</event>
<event>
 8    1  0.1176534E+005  0.1043930E+01  0.7957747E-01            NaN
         13   -1    0    0    0    0  0.00000000000E+00  0.00000000000E+00  0.74505805969E-08  0.10566000000E+00  0.10566000000E+00 0.  1.
     999900   -1    0    0    0    0 -0.00000000000E+00 -0.00000000000E+00 -0.74505805969E-08  0.93827000000E+00  0.93827000000E+00 0.  1.
     999902    2    1    2    0    0 -0.32021224310E-02  0.18822672857E-01 -0.25779101807E-01  0.10118502760E+01  0.10113416200E+01 0.  0.
     999903    2    3    3    0    0 -0.56987135956E-01 -0.86456456730E-01  0.56409251800E-01  0.12014884151E+00  0.23054020341E-01 0.  0.
         14    1    1    2    0    0  0.32021224310E-02 -0.18822672857E-01  0.25779101807E-01  0.32079723994E-01  0.00000000000E+00 0.  1.
     999901    1    3    3    0    0  0.53785013525E-01  0.10527912959E+00 -0.82188353607E-01  0.89170143449E+00  0.88000000000E+00 0.  1.
        -11    1    4    4    0    0 -0.33945998425E-01 -0.55876540267E-01  0.22933873585E-01  0.69287388751E-01  0.51100000000E-03 0.  1.
         11    1    4    4    0    0 -0.23041137531E-01 -0.30579916463E-01  0.33475378215E-01  0.50861452764E-01  0.51100000000E-03 0. -1.
</event>
<event>
 8    1  0.1176534E+005  0.1043930E+01  0.7957747E-01            NaN
         13   -1    0    0    0    0  0.00000000000E+00  0.00000000000E+00  0.74505805969E-08  0.10566000000E+00  0.10566000000E+00 0.  1.
     999900   -1    0    0    0    0 -0.00000000000E+00 -0.00000000000E+00 -0.74505805969E-08  0.93827000000E+00  0.93827000000E+00 0.  1.
     999902    2    1    2    0    0 -0.27713995868E-02 -0.19546779473E-01  0.13681883183E-01  0.10199101921E+01  0.10196273088E+01 0.  0.
     999903    2    3    3    0    0  0.12160191786E+00  0.47173550835E-02 -0.39154329453E-01  0.12926484424E+00  0.19158772811E-01 0.  0.
         14    1    1    2    0    0  0.27713995868E-02  0.19546779473E-01 -0.13681883183E-01  0.24019807886E-01  0.00000000000E+00 0. -1.
     999901    1    3    3    0    0 -0.12437331745E+00 -0.24264134557E-01  0.52836212636E-01  0.89064534787E+00  0.88000000000E+00 0. -1.
        -11    1    4    4    0    0  0.70854583592E-01  0.12169173116E-01 -0.22313421729E-01  0.75276893537E-01  0.51100000000E-03 0.  1.
         11    1    4    4    0    0  0.50747334269E-01 -0.74518180324E-02 -0.16840907724E-01  0.53987950706E-01  0.51100000000E-03 0. -1.
</event>
<event>
 8    1  0.1176534E+005  0.1043930E+01  0.7957747E-01            NaN
         13   -1    0    0    0    0  0.00000000000E+00  0.00000000000E+00  0.74505805969E-08  0.10566000000E+00  0.10566000000E+00 0. -1.
     999900   -1    0    0    0    0 -0.00000000000E+00 -0.00000000000E+00 -0.74505805969E-08  0.93827000000E+00  0.93827000000E+00 0.  1.
     999902    2    1    2    0    0 -0.12638005887E-01 -0.12661758597E-01 -0.16392079599E-01  0.10196660432E+01  0.10193773100E+01 0.  0.
     999903    2    3    3    0    0  0.31480303253E-01  0.87126761317E-01  0.84760906033E-01  0.12717733161E+00  0.20188621861E-01 0.  0.
         14    1    1    2    0    0  0.12638005887E-01  0.12661758597E-01  0.16392079599E-01  0.24263956750E-01  0.00000000000E+00 0. -1.
     999901    1    3    3    0    0 -0.44118309140E-01 -0.99788519914E-01 -0.10115298563E+00  0.89248871164E+00  0.88000000000E+00 0.  1.
        -11    1    4    4    0    0  0.13736873201E-01  0.63852591715E-01  0.54380913745E-01  0.84990588036E-01  0.51100000000E-03 0. -1.
         11    1    4    4    0    0  0.17743430051E-01  0.23274169602E-01  0.30379992288E-01  0.42186743570E-01  0.51100000000E-03 0.  1.
</event>
<event>
 8    1  0.1176534E+005  0.1043930E+01  0.7957747E-01            NaN
         13   -1    0    0    0    0  0.00000000000E+00  0.00000000000E+00  0.74505805969E-08  0.10566000000E+00  0.10566000000E+00 0.  1.
     999900   -1    0    0    0    0 -0.00000000000E+00 -0.00000000000E+00 -0.74505805969E-08  0.93827000000E+00  0.93827000000E+00 0.  1.
     999902    2    1    2    0    0  0.34760581495E-02 -0.14615441046E-01 -0.18165913390E-01  0.10203568265E+01  0.10200844862E+01 0.  0.
     999903    2    3    3    0    0  0.59446272241E-01 -0.10495123940E+00 -0.53041883744E-01  0.13327759974E+00  0.20021369216E-01 0.  0.
         14    1    1    2    0    0 -0.34760581495E-02  0.14615441046E-01  0.18165913390E-01  0.23573173451E-01  0.00000000000E+00 0.  1.
     999901    1    3    3    0    0 -0.55970214092E-01  0.90335798358E-01  0.34875970354E-01  0.88707922681E+00  0.88000000000E+00 0.  1.
        -11    1    4    4    0    0  0.40772483358E-01 -0.64684699659E-01 -0.23642641255E-01  0.80035875554E-01  0.51100000000E-03 0. -1.
         11    1    4    4    0    0  0.18673788883E-01 -0.40266539745E-01 -0.29399242489E-01  0.53241724185E-01  0.51100000000E-03 0.  1.
</event>
<event>
 8    1  0.1176534E+005  0.1043930E+01  0.7957747E-01            NaN
         13   -1    0    0    0    0  0.00000000000E+00  0.00000000000E+00  0.74505805969E-08  0.10566000000E+00  0.10566000000E+00 0.  1.
     999900   -1    0    0    0    0 -0.00000000000E+00 -0.00000000000E+00 -0.74505805969E-08  0.93827000000E+00  0.93827000000E+00 0. -1.
     999902    2    1    2    0    0 -0.15627956464E-01 -0.84171724150E-02 -0.14028061101E-01  0.10213054931E+01  0.10210548672E+01 0.  0.
     999903    2    3    3    0    0 -0.22435400935E-01  0.11439151614E+00 -0.57952964370E-01  0.13166640199E+00  0.19716215477E-01 0.  0.
         14    1    1    2    0    0  0.15627956464E-01  0.84171724150E-02  0.14028061101E-01  0.22624506910E-01  0.00000000000E+00 0.  1.
     999901    1    3    3    0    0  0.68074444717E-02 -0.12280868856E+00  0.43924903269E-01  0.88963909110E+00  0.88000000000E+00 0. -1.
        -11    1    4    4    0    0 -0.16981612387E-01  0.59924969286E-01 -0.40137835607E-01  0.74099150274E-01  0.51100000000E-03 0.  1.
         11    1    4    4    0    0 -0.54537885483E-02  0.54466546859E-01 -0.17815128763E-01  0.57567251716E-01  0.51100000000E-03 0. -1.
</event>
<event>
 8    1  0.1176534E+005  0.1043930E+01  0.7957747E-01            NaN
         13   -1    0    0    0    0  0.00000000000E+00  0.00000000000E+00  0.74505805969E-08  0.10566000000E+00  0.10566000000E+00 0. -1.
     999900   -1    0    0    0    0 -0.00000000000E+00 -0.00000000000E+00 -0.74505805969E-08  0.93827000000E+00  0.93827000000E+00 0. -1.
     999902    2    1    2    0    0 -0.28843732584E-01 -0.42830318714E-02  0.18557339659E-02  0.10147110161E+01  0.10142902431E+01 0.  0.
     999903    2    3    3    0    0  0.76520764081E-01  0.75066602120E-01  0.56534705726E-01  0.12320227721E+00  0.22185717668E-01 0.  0.
         14    1    1    2    0    0  0.28843732584E-01  0.42830318714E-02 -0.18557339659E-02  0.29218983897E-01  0.00000000000E+00 0. -1.
     999901    1    3    3    0    0 -0.10536449667E+00 -0.79349633992E-01 -0.54678971761E-01  0.89150873889E+00  0.88000000000E+00 0. -1.
        -11    1    4    4    0    0  0.28258079067E-01  0.40450637771E-01  0.32731480131E-01  0.59214728246E-01  0.51100000000E-03 0.  1.
         11    1    4    4    0    0  0.48262685014E-01  0.34615964350E-01  0.23803225595E-01  0.63987548963E-01  0.51100000000E-03 0. -1.
</event>
<event>
 8    1  0.1176534E+005  0.1043930E+01  0.7957747E-01            NaN
         13   -1    0    0    0    0  0.00000000000E+00  0.00000000000E+00  0.74505805969E-08  0.10566000000E+00  0.10566000000E+00 0. -1.
     999900   -1    0    0    0    0 -0.00000000000E+00 -0.00000000000E+00 -0.74505805969E-08  0.93827000000E+00  0.93827000000E+00 0.  1.
     999902    2    1    2    0    0 -0.16203850353E-01  0.15165349034E-01  0.40485974074E-02  0.10213702190E+01  0.10211210411E+01 0.  0.
     999903    2    3    3    0    0  0.52822882437E-02 -0.12651187422E+00 -0.17163128059E-01  0.12952716833E+00  0.21202770613E-01 0.  0.
         14    1    1    2    0    0  0.16203850353E-01 -0.15165349034E-01 -0.40485974074E-02  0.22559780995E-01  0.00000000000E+00 0.  1.
     999901    1    3    3    0    0 -0.21486138597E-01  0.14167722326E+00  0.21211725466E-01  0.89184305068E+00  0.88000000000E+00 0. -1.
        -11    1    4    4    0    0 -0.68279067345E-02 -0.67618782151E-01 -0.47395498172E-02  0.68129615172E-01  0.51100000000E-03 0.  1.
         11    1    4    4    0    0  0.12110194978E-01 -0.58893092073E-01 -0.12423578242E-01  0.61397553157E-01  0.51100000000E-03 0. -1.
</event>
<event>
 8    1  0.1176534E+005  0.1043930E+01  0.7957747E-01            NaN
         13   -1    0    0    0    0  0.00000000000E+00  0.00000000000E+00  0.74505805969E-08  0.10566000000E+00  0.10566000000E+00 0. -1.
     999900   -1    0    0    0    0 -0.00000000000E+00 -0.00000000000E+00 -0.74505805969E-08  0.93827000000E+00  0.93827000000E+00 0.  1.
     999902    2    1    2    0    0 -0.15991047409E-01  0.19732631458E-02 -0.17178171126E-01  0.10203779952E+01  0.10201061495E+01 0.  0.
     999903    2    3    3    0    0 -0.54934078879E-01  0.69044983672E-01  0.93316742749E-01  0.13008349263E+00  0.20705984293E-01 0.  0.
         14    1    1    2    0    0  0.15991047409E-01 -0.19732631458E-02  0.17178171126E-01  0.23552004753E-01  0.00000000000E+00 0. -1.
     999901    1    3    3    0    0  0.38943031470E-01 -0.67071720526E-01 -0.11049491387E+00  0.89029450262E+00  0.88000000000E+00 0.  1.
        -11    1    4    4    0    0 -0.92374055725E-02  0.21390307063E-01  0.15305083424E-01  0.27881563757E-01  0.51100000000E-03 0. -1.
         11    1    4    4    0    0 -0.45696673306E-01  0.47654676609E-01  0.78011659325E-01  0.10220192887E+00  0.51100000000E-03 0.  1.
</event>
<event>
 8    1  0.1176534E+005  0.1043930E+01  0.7957747E-01            NaN
         13   -1    0    0    0    0  0.00000000000E+00  0.00000000000E+00  0.74505805969E-08  0.10566000000E+00  0.10566000000E+00 0. -1.
     999900   -1    0    0    0    0 -0.00000000000E+00 -0.00000000000E+00 -0.74505805969E-08  0.93827000000E+00  0.93827000000E+00 0.  1.
     999902    2    1    2    0    0  0.16526487156E-01 -0.11124054483E-01 -0.11957957747E-01  0.10206950668E+01  0.10204305745E+01 0.  0.
     999903    2    3    3    0    0  0.10341809212E+00  0.55097977948E-01 -0.58742182219E-01  0.13270617487E+00  0.20717044282E-01 0.  0.
         14    1    1    2    0    0 -0.16526487156E-01  0.11124054483E-01  0.11957957747E-01  0.23234933168E-01  0.00000000000E+00 0. -1.
     999901    1    3    3    0    0 -0.86891604967E-01 -0.66222032431E-01  0.46784224472E-01  0.88798889196E+00  0.88000000000E+00 0. -1.
        -11    1    4    4    0    0  0.73838634036E-01  0.40830492638E-01 -0.52192604412E-01  0.99214928724E-01  0.51100000000E-03 0.  1.
         11    1    4    4    0    0  0.29579458086E-01  0.14267485310E-01 -0.65495778062E-02  0.33491246143E-01  0.51100000000E-03 0. -1.
</event>
<event>
 8    1  0.1176534E+005  0.1043930E+01  0.7957747E-01            NaN
         13   -1    0    0    0    0  0.00000000000E+00  0.00000000000E+00  0.74505805969E-08  0.10566000000E+00  0.10566000000E+00 0. -1.
     999900   -1    0    0    0    0 -0.00000000000E+00 -0.00000000000E+00 -0.74505805969E-08  0.93827000000E+00  0.93827000000E+00 0. -1.
     999902    2    1    2    0    0 -0.16609592105E-01  0.18869941746E-01 -0.12534528656E-02  0.10187600895E+01  0.10184491129E+01 0.  0.
     999903    2    3    3    0    0  0.11399166264E+00  0.43457779963E-01  0.33482632149E-01  0.12810423836E+00  0.20172541772E-01 0.  0.
         14    1    1    2    0    0  0.16609592105E-01 -0.18869941746E-01  0.12534528656E-02  0.25169910518E-01  0.00000000000E+00 0. -1.
     999901    1    3    3    0    0 -0.13060125474E+00 -0.24587838216E-01 -0.34736085014E-01  0.89065585112E+00  0.88000000000E+00 0. -1.
        -11    1    4    4    0    0  0.76629981725E-01  0.33557779352E-01  0.31525730142E-01  0.89400287674E-01  0.51100000000E-03 0. -1.
         11    1    4    4    0    0  0.37361680911E-01  0.99000006102E-02  0.19569020071E-02  0.38703950691E-01  0.51100000000E-03 0.  1.
</event>
<event>
 8    1  0.1176534E+005  0.1043930E+01  0.7957747E-01            NaN
         13   -1    0    0    0    0  0.00000000000E+00  0.00000000000E+00  0.74505805969E-08  0.10566000000E+00  0.10566000000E+00 0. -1.
     999900   -1    0    0    0    0 -0.00000000000E+00 -0.00000000000E+00 -0.74505805969E-08  0.93827000000E+00  0.93827000000E+00 0.  1.
     999902    2    1    2    0    0 -0.19945456448E-01  0.10723717583E-01 -0.33468679692E-03  0.10212820119E+01  0.10210308597E+01 0.  0.
     999903    2    3    3    0    0 -0.34505474803E-01 -0.12189158525E+00  0.26676716727E-01  0.13081672416E+00  0.18793130608E-01 0.  0.
         14    1    1    2    0    0  0.19945456448E-01 -0.10723717583E-01  0.33468679692E-03  0.22647988144E-01  0.00000000000E+00 0. -1.
     999901    1    3    3    0    0  0.14560018356E-01  0.13261530283E+00 -0.27011403524E-01  0.89046528770E+00  0.88000000000E+00 0.  1.
        -11    1    4    4    0    0 -0.28363129183E-01 -0.70368030335E-01  0.20269265087E-01  0.78531719824E-01  0.51100000000E-03 0. -1.
         11    1    4    4    0    0 -0.61423456204E-02 -0.51523554911E-01  0.64074516403E-02  0.52285004331E-01  0.51100000000E-03 0.  1.
</event>
<event>
 8    1  0.1176534E+005  0.1043930E+01  0.7957747E-01            NaN
         13   -1    0    0    0    0  0.00000000000E+00  0.00000000000E+00  0.74505805969E-08  0.10566000000E+00  0.10566000000E+00 0.  1.
     999900   -1    0    0    0    0 -0.00000000000E+00 -0.00000000000E+00 -0.74505805969E-08  0.93827000000E+00  0.93827000000E+00 0.  1.
     999902    2    1    2    0    0 -0.64293750688E-02 -0.22788644129E-01  0.19733545595E-02  0.10201696698E+01  0.10198929364E+01 0.  0.
     999903    2    3    3    0    0 -0.12721274371E+00 -0.18938419440E-01  0.21083540897E-01  0.13170546362E+00  0.18975446172E-01 0.  0.
         14    1    1    2    0    0  0.64293750688E-02  0.22788644129E-01 -0.19733545595E-02  0.23760330243E-01  0.00000000000E+00 0.  1.
     999901    1    3    3    0    0  0.12078336864E+00 -0.38502246895E-02 -0.19110186338E-01  0.88846420614E+00  0.88000000000E+00 0. -1.
        -11    1    4    4    0    0 -0.90320924651E-01 -0.16520458774E-01  0.23080186046E-01  0.94677088553E-01  0.51100000000E-03 0.  1.
         11    1    4    4    0    0 -0.36891819056E-01 -0.24179606661E-02 -0.19966451487E-02  0.37028375064E-01  0.51100000000E-03 0. -1.
</event>
<event>
 8    1  0.1176534E+005  0.1043930E+01  0.7957747E-01            NaN
         13   -1    0    0    0    0  0.00000000000E+00  0.00000000000E+00  0.74505805969E-08  0.10566000000E+00  0.10566000000E+00 0. -1.
     999900   -1    0    0    0    0 -0.00000000000E+00 -0.00000000000E+00 -0.74505805969E-08  0.93827000000E+00  0.93827000000E+00 0.  1.
     999902    2    1    2    0    0  0.54584925288E-02 -0.33284308267E-02  0.23388645515E-01  0.10196833027E+01  0.10193949850E+01 0.  0.
     999903    2    3    3    0    0 -0.43527297269E-01  0.97098903443E-01 -0.66787782778E-01  0.12804601919E+00  0.24745756091E-01 0.  0.
         14    1    1    2    0    0 -0.54584925288E-02  0.33284308267E-02 -0.23388645515E-01  0.24246697331E-01  0.00000000000E+00 0.  1.
     999901    1    3    3    0    0  0.48985789797E-01 -0.10042733427E+00  0.90176428293E-01  0.89163728348E+00  0.88000000000E+00 0. -1.
        -11    1    4    4    0    0 -0.40179830830E-01  0.62121439125E-01 -0.42422008198E-01  0.85284112852E-01  0.51100000000E-03 0. -1.
         11    1    4    4    0    0 -0.33474664385E-02  0.34977464318E-01 -0.24365774581E-01  0.42761906337E-01  0.51100000000E-03 0.  1.
</event>
<event>
 8    1  0.1176534E+005  0.1043930E+01  0.7957747E-01            NaN
         13   -1    0    0    0    0  0.00000000000E+00  0.00000000000E+00  0.74505805969E-08  0.10566000000E+00  0.10566000000E+00 0.  1.
     999900   -1    0    0    0    0 -0.00000000000E+00 -0.00000000000E+00 -0.74505805969E-08  0.93827000000E+00  0.93827000000E+00 0. -1.
     999902    2    1    2    0    0 -0.45407379719E-02  0.17262105190E-01  0.20867204406E-01  0.10164702331E+01  0.10160992550E+01 0.  0.
     999903    2    3    3    0    0  0.64149342174E-01  0.70139793917E-01  0.86103250774E-01  0.12980788543E+00  0.20039674014E-01 0.  0.
         14    1    1    2    0    0  0.45407379719E-02 -0.17262105190E-01 -0.20867204406E-01  0.27459766872E-01  0.00000000000E+00 0. -1.
     999901    1    3    3    0    0 -0.68690080146E-01 -0.52877688727E-01 -0.65236046367E-01  0.88666234770E+00  0.88000000000E+00 0.  1.
        -11    1    4    4    0    0  0.43946360881E-01  0.43923281806E-01  0.43465181613E-01  0.75828889303E-01  0.51100000000E-03 0. -1.
         11    1    4    4    0    0  0.20202981293E-01  0.26216512111E-01  0.42638069161E-01  0.53978996130E-01  0.51100000000E-03 0.  1.
</event>
<event>
 8    1  0.1176534E+005  0.1043930E+01  0.7957747E-01            NaN
         13   -1    0    0    0    0  0.00000000000E+00  0.00000000000E+00  0.74505805969E-08  0.10566000000E+00  0.10566000000E+00 0. -1.
     999900   -1    0    0    0    0 -0.00000000000E+00 -0.00000000000E+00 -0.74505805969E-08  0.93827000000E+00  0.93827000000E+00 0.  1.
     999902    2    1    2    0    0 -0.83315641362E-02 -0.22557138052E-01 -0.70486834834E-02  0.10188716007E+01  0.10185634076E+01 0.  0.
     999903    2    3    3    0    0 -0.32591054042E-01  0.93277006773E-01  0.77020825759E-01  0.12697824699E+00  0.20700019612E-01 0.  0.
         14    1    1    2    0    0  0.83315641362E-02  0.22557138052E-01  0.70486834834E-02  0.25058399329E-01  0.00000000000E+00 0.  1.
     999901    1    3    3    0    0  0.24259489906E-01 -0.11583414483E+00 -0.84069509242E-01  0.89189335368E+00  0.88000000000E+00 0.  1.
        -11    1    4    4    0    0  0.24685742444E-02  0.76024614084E-02  0.93380957920E-02  0.12302537636E-01  0.51100000000E-03 0. -1.
         11    1    4    4    0    0 -0.35059628286E-01  0.85674545365E-01  0.67682729967E-01  0.11467570935E+00  0.51100000000E-03 0.  1.
</event>
<event>
 8    1  0.1176534E+005  0.1043930E+01  0.7957747E-01            NaN
         13   -1    0    0    0    0  0.00000000000E+00  0.00000000000E+00  0.74505805969E-08  0.10566000000E+00  0.10566000000E+00 0. -1.
     999900   -1    0    0    0    0 -0.00000000000E+00 -0.00000000000E+00 -0.74505805969E-08  0.93827000000E+00  0.93827000000E+00 0. -1.
     999902    2    1    2    0    0 -0.10040142932E-01 -0.22770805396E-01  0.24096365286E-02  0.10189275922E+01  0.10186207919E+01 0.  0.
     999903    2    3    3    0    0 -0.13437507845E-01  0.11650313098E+00  0.44638170887E-01  0.12696794032E+00  0.19358342465E-01 0.  0.
         14    1    1    2    0    0  0.10040142932E-01  0.22770805396E-01 -0.24096365286E-02  0.25002407817E-01  0.00000000000E+00 0. -1.
     999901    1    3    3    0    0  0.33973649125E-02 -0.13927393638E+00 -0.42228534358E-01  0.89195965187E+00  0.88000000000E+00 0. -1.
        -11    1    4    4    0    0 -0.11180512167E-01  0.98030080309E-01  0.29528809533E-01  0.10299083557E+00  0.51100000000E-03 0. -1.
         11    1    4    4    0    0 -0.22569956774E-02  0.18473050671E-01  0.15109361354E-01  0.23977104749E-01  0.51100000000E-03 0.  1.
</event>
<event>
 8    1  0.1176534E+005  0.1043930E+01  0.7957747E-01            NaN
         13   -1    0    0    0    0  0.00000000000E+00  0.00000000000E+00  0.74505805969E-08  0.10566000000E+00  0.10566000000E+00 0.  1.
     999900   -1    0    0    0    0 -0.00000000000E+00 -0.00000000000E+00 -0.74505805969E-08  0.93827000000E+00  0.93827000000E+00 0.  1.
     999902    2    1    2    0    0  0.49822875453E-02 -0.21472799785E-01  0.73967085341E-02  0.10206788577E+01  0.10204139920E+01 0.  0.
     999903    2    3    3    0    0  0.32726127243E-01  0.74551933764E-01 -0.97861339191E-01  0.12878776196E+00  0.19505273412E-01 0.  0.
         14    1    1    2    0    0 -0.49822875453E-02  0.21472799785E-01 -0.73967085341E-02  0.23251142272E-01  0.00000000000E+00 0. -1.
     999901    1    3    3    0    0 -0.27743839698E-01 -0.96024733549E-01  0.10525804773E+00  0.89189109577E+00  0.88000000000E+00 0. -1.
        -11    1    4    4    0    0  0.13412716003E-01  0.44102119274E-01 -0.66975456457E-01  0.81307261445E-01  0.51100000000E-03 0.  1.
         11    1    4    4    0    0  0.19313411240E-01  0.30449814490E-01 -0.30885882734E-01  0.47480500518E-01  0.51100000000E-03 0. -1.
</event>
<event>
 8    1  0.1176534E+005  0.1043930E+01  0.7957747E-01            NaN
         13   -1    0    0    0    0  0.00000000000E+00  0.00000000000E+00  0.74505805969E-08  0.10566000000E+00  0.10566000000E+00 0.  1.
     999900   -1    0    0    0    0 -0.00000000000E+00 -0.00000000000E+00 -0.74505805969E-08  0.93827000000E+00  0.93827000000E+00 0.  1.
     999902    2    1    2    0    0  0.62450236894E-02 -0.23032005160E-01 -0.44292119845E-03  0.10200622443E+01  0.10197829732E+01 0.  0.
     999903    2    3    3    0    0 -0.49188803828E-01 -0.81424310300E-01  0.89331290465E-01  0.13183818496E+00  0.18755554548E-01 0.  0.
         14    1    1    2    0    0 -0.62450236894E-02  0.23032005160E-01  0.44292119845E-03  0.23867755692E-01  0.00000000000E+00 0. -1.
     999901    1    3    3    0    0  0.55433827517E-01  0.58392305140E-01 -0.89774211663E-01  0.88822405935E+00  0.88000000000E+00 0.  1.
        -11    1    4    4    0    0 -0.22124249449E-01 -0.23626330570E-01  0.38109458220E-01  0.50002778290E-01  0.51100000000E-03 0. -1.
         11    1    4    4    0    0 -0.27064554379E-01 -0.57797979731E-01  0.51221832245E-01  0.81835406666E-01  0.51100000000E-03 0.  1.
</event>
<event>
 8    1  0.1176534E+005  0.1043930E+01  0.7957747E-01            NaN
         13   -1    0    0    0    0  0.00000000000E+00  0.00000000000E+00  0.74505805969E-08  0.10566000000E+00  0.10566000000E+00 0. -1.
     999900   -1    0    0    0    0 -0.00000000000E+00 -0.00000000000E+00 -0.74505805969E-08  0.93827000000E+00  0.93827000000E+00 0.  1.
     999902    2    1    2    0    0 -0.54557747972E-02  0.22446329948E-01  0.26035610562E-02  0.10206838877E+01  0.10204191378E+01 0.  0.
     999903    2    3    3    0    0 -0.26212264096E-01 -0.11459449421E+00  0.48491155203E-01  0.12865435308E+00  0.19533805126E-01 0.  0.
         14    1    1    2    0    0  0.54557747972E-02 -0.22446329948E-01 -0.26035610562E-02  0.23246112298E-01  0.00000000000E+00 0.  1.
     999901    1    3    3    0    0  0.20756489299E-01  0.13704082416E+00 -0.45887594147E-01  0.89202953462E+00  0.88000000000E+00 0.  1.
        -11    1    4    4    0    0 -0.38253754490E-02 -0.60375047746E-01  0.25275272442E-01  0.65565847861E-01  0.51100000000E-03 0.  1.
         11    1    4    4    0    0 -0.22386888647E-01 -0.54219446463E-01  0.23215882761E-01  0.63088505224E-01  0.51100000000E-03 0. -1.
</event>
<event>
 8    1  0.1176534E+005  0.1043930E+01  0.7957747E-01            NaN
         13   -1    0    0    0    0  0.00000000000E+00  0.00000000000E+00  0.74505805969E-08  0.10566000000E+00  0.10566000000E+00 0. -1.
     999900   -1    0    0    0    0 -0.00000000000E+00 -0.00000000000E+00 -0.74505805969E-08  0.93827000000E+00  0.93827000000E+00 0. -1.
     999902    2    1    2    0    0 -0.53158880622E-02  0.22621209280E-01  0.46246739002E-02  0.10202368494E+01  0.10199616971E+01 0.  0.
     999903    2    3    3    0    0  0.11373921671E+00  0.58104069917E-03 -0.58831386026E-01  0.12968277553E+00  0.20482755210E-01 0.  0.
         14    1    1    2    0    0  0.53158880622E-02 -0.22621209280E-01 -0.46246739002E-02  0.23693150568E-01  0.00000000000E+00 0. -1.
     999901    1    3    3    0    0 -0.11905510477E+00  0.22040168581E-01  0.63456059926E-01  0.89055407390E+00  0.88000000000E+00 0.  1.
        -11    1    4    4    0    0  0.74249509790E-01 -0.47736646530E-02 -0.47404608202E-01  0.88222647762E-01  0.51100000000E-03 0.  1.
         11    1    4    4    0    0  0.39489706920E-01  0.53547053522E-02 -0.11426777824E-01  0.41460127767E-01  0.51100000000E-03 0. -1.
</event>
<event>
 8    1  0.1176534E+005  0.1043930E+01  0.7957747E-01            NaN
         13   -1    0    0    0    0  0.00000000000E+00  0.00000000000E+00  0.74505805969E-08  0.10566000000E+00  0.10566000000E+00 0. -1.
     999900   -1    0    0    0    0 -0.00000000000E+00 -0.00000000000E+00 -0.74505805969E-08  0.93827000000E+00  0.93827000000E+00 0.  1.
     999902    2    1    2    0    0  0.11822076766E-01 -0.56611467288E-02 -0.19890074158E-01  0.10201093130E+01  0.10198311553E+01 0.  0.
     999903    2    3    3    0    0 -0.82398380105E-01 -0.86381488785E-01  0.44617022797E-01  0.12906810534E+00  0.20411821167E-01 0.  0.
         14    1    1    2    0    0 -0.11822076766E-01  0.56611467288E-02  0.19890074158E-01  0.23820687046E-01  0.00000000000E+00 0.  1.
     999901    1    3    3    0    0  0.94220456871E-01  0.80720342056E-01 -0.64507096955E-01  0.89104120762E+00  0.88000000000E+00 0.  1.
        -11    1    4    4    0    0 -0.31603894823E-01 -0.42857057229E-01  0.11734802875E-01  0.54529810580E-01  0.51100000000E-03 0. -1.
         11    1    4    4    0    0 -0.50794485282E-01 -0.43524431555E-01  0.32882219922E-01  0.74538294757E-01  0.51100000000E-03 0.  1.
</event>
<event>
 8    1  0.1176534E+005  0.1043930E+01  0.7957747E-01            NaN
         13   -1    0    0    0    0  0.00000000000E+00  0.00000000000E+00  0.74505805969E-08  0.10566000000E+00  0.10566000000E+00 0. -1.
     999900   -1    0    0    0    0 -0.00000000000E+00 -0.00000000000E+00 -0.74505805969E-08  0.93827000000E+00  0.93827000000E+00 0. -1.
     999902    2    1    2    0    0  0.14939336474E-02  0.14636852010E-01 -0.17888092834E-01  0.10207685419E+01  0.10205057389E+01 0.  0.
     999903    2    3    3    0    0  0.78097498061E-01  0.18187387177E-01  0.99896628581E-01  0.12961538283E+00  0.19768935453E-01 0.  0.
         14    1    1    2    0    0 -0.14939336474E-02 -0.14636852010E-01  0.17888092834E-01  0.23161458066E-01  0.00000000000E+00 0.  1.
     999901    1    3    3    0    0 -0.76603564413E-01 -0.35505351674E-02 -0.11778472141E+00  0.89115315910E+00  0.88000000000E+00 0. -1.
        -11    1    4    4    0    0  0.13984178522E-01 -0.39307566485E-03  0.29207303039E-01  0.32388878172E-01  0.51100000000E-03 0. -1.
         11    1    4    4    0    0  0.64113319539E-01  0.18580462842E-01  0.70689325541E-01  0.97226504659E-01  0.51100000000E-03 0.  1.
</event>
<event>
 8    1  0.1176534E+005  0.1043930E+01  0.7957747E-01            NaN
         13   -1    0    0    0    0  0.00000000000E+00  0.00000000000E+00  0.74505805969E-08  0.10566000000E+00  0.10566000000E+00 0.  1.
     999900   -1    0    0    0    0 -0.00000000000E+00 -0.00000000000E+00 -0.74505805969E-08  0.93827000000E+00  0.93827000000E+00 0.  1.
     999902    2    1    2    0    0  0.14981273001E-01  0.80167778664E-02  0.19767136732E-01  0.10178637965E+01  0.10175299806E+01 0.  0.
     999903    2    3    3    0    0 -0.33746365757E-01  0.19078829743E-01  0.12297481508E+00  0.13042445966E+00  0.19619265749E-01 0.  0.
         14    1    1    2    0    0 -0.14981273001E-01 -0.80167778664E-02 -0.19767136732E-01  0.26066203457E-01  0.00000000000E+00 0. -1.
     999901    1    3    3    0    0  0.48727638758E-01 -0.11062051876E-01 -0.10320767835E+00  0.88743933688E+00  0.88000000000E+00 0. -1.
        -11    1    4    4    0    0 -0.62867477768E-02  0.28539923881E-02  0.53864941784E-01  0.54308024680E-01  0.51100000000E-03 0.  1.
         11    1    4    4    0    0 -0.27459617980E-01  0.16224837355E-01  0.69109873295E-01  0.76116434984E-01  0.51100000000E-03 0. -1.
</event>
<event>
 8    1  0.1176534E+005  0.1043930E+01  0.7957747E-01            NaN
         13   -1    0    0    0    0  0.00000000000E+00  0.00000000000E+00  0.74505805969E-08  0.10566000000E+00  0.10566000000E+00 0.  1.
     999900   -1    0    0    0    0 -0.00000000000E+00 -0.00000000000E+00 -0.74505805969E-08  0.93827000000E+00  0.93827000000E+00 0.  1.
     999902    2    1    2    0    0 -0.14386270712E-01  0.17874355781E-01  0.71016569791E-02  0.10199114465E+01  0.10196285931E+01 0.  0.
     999903    2    3    3    0    0  0.17382276325E-01  0.57361924471E-01 -0.11356919030E+00  0.13023175020E+00  0.21675190058E-01 0.  0.
         14    1    1    2    0    0  0.14386270712E-01 -0.17874355781E-01 -0.71016569791E-02  0.24018553484E-01  0.00000000000E+00 0. -1.
     999901    1    3    3    0    0 -0.31768547037E-01 -0.39487568690E-01  0.12067084728E+00  0.88967969632E+00  0.88000000000E+00 0. -1.
        -11    1    4    4    0    0  0.12750541377E-01  0.26147741485E-01 -0.34709136850E-01  0.45290904076E-01  0.51100000000E-03 0.  1.
         11    1    4    4    0    0  0.46317349473E-02  0.31214182986E-01 -0.78860053452E-01  0.84940846120E-01  0.51100000000E-03 0. -1.
</event>
<event>
 8    1  0.1176534E+005  0.1043930E+01  0.7957747E-01            NaN
         13   -1    0    0    0    0  0.00000000000E+00  0.00000000000E+00  0.74505805969E-08  0.10566000000E+00  0.10566000000E+00 0. -1.
     999900   -1    0    0    0    0 -0.00000000000E+00 -0.00000000000E+00 -0.74505805969E-08  0.93827000000E+00  0.93827000000E+00 0.  1.
     999902    2    1    2    0    0 -0.41102251237E-02 -0.29285219415E-02 -0.19789485528E-01  0.10235071224E+01  0.10233033449E+01 0.  0.
     999903    2    3    3    0    0 -0.10084316141E+00  0.10077565182E-01 -0.87701748971E-01  0.13551022220E+00  0.20013071371E-01 0.  0.
         14    1    1    2    0    0  0.41102251237E-02  0.29285219415E-02  0.19789485528E-01  0.20422877583E-01  0.00000000000E+00 0. -1.
     999901    1    3    3    0    0  0.96732936286E-01 -0.13006087124E-01  0.67912263443E-01  0.88799690021E+00  0.88000000000E+00 0. -1.
        -11    1    4    4    0    0 -0.63716492108E-01 -0.30695465023E-02 -0.57384663375E-01  0.85804861132E-01  0.51100000000E-03 0. -1.
         11    1    4    4    0    0 -0.37126669302E-01  0.13147111685E-01 -0.30317085596E-01  0.49705361070E-01  0.51100000000E-03 0.  1.
</event>
<event>
 8    1  0.1176534E+005  0.1043930E+01  0.7957747E-01            NaN
         13   -1    0    0    0    0  0.00000000000E+00  0.00000000000E+00  0.74505805969E-08  0.10566000000E+00  0.10566000000E+00 0.  1.
     999900   -1    0    0    0    0 -0.00000000000E+00 -0.00000000000E+00 -0.74505805969E-08  0.93827000000E+00  0.93827000000E+00 0.  1.
     999902    2    1    2    0    0  0.10882999793E-01  0.75986703892E-03 -0.20783418980E-01  0.10204573012E+01  0.10201873044E+01 0.  0.
     999903    2    3    3    0    0 -0.47023991416E-01 -0.95357275706E-02  0.11638129306E+00  0.12789168622E+00  0.22571933003E-01 0.  0.
         14    1    1    2    0    0 -0.10882999793E-01 -0.75986703892E-03  0.20783418980E-01  0.23472698756E-01  0.00000000000E+00 0.  1.
     999901    1    3    3    0    0  0.57906991209E-01  0.10295594609E-01 -0.13716471204E+00  0.89256561503E+00  0.88000000000E+00 0.  1.
        -11    1    4    4    0    0 -0.46342256434E-01 -0.30101314256E-02  0.10161138403E+00  0.11172197683E+00  0.51100000000E-03 0.  1.
         11    1    4    4    0    0 -0.68173498153E-03 -0.65255961449E-02  0.14769909033E-01  0.16169709382E-01  0.51100000000E-03 0. -1.
</event>
<event>
 8    1  0.1176534E+005  0.1043930E+01  0.7957747E-01            NaN
         13   -1    0    0    0    0  0.00000000000E+00  0.00000000000E+00  0.74505805969E-08  0.10566000000E+00  0.10566000000E+00 0. -1.
     999900   -1    0    0    0    0 -0.00000000000E+00 -0.00000000000E+00 -0.74505805969E-08  0.93827000000E+00  0.93827000000E+00 0.  1.
     999902    2    1    2    0    0 -0.65637327424E-03  0.15220198988E-01  0.16820089436E-01  0.10212363733E+01  0.10209841965E+01 0.  0.
     999903    2    3    3    0    0  0.31500260822E-01  0.91689960982E-01  0.90868886276E-01  0.13423868565E+00  0.19067114531E-01 0.  0.
         14    1    1    2    0    0  0.65637327424E-03 -0.15220198988E-01 -0.16820089436E-01  0.22693626677E-01  0.00000000000E+00 0.  1.
     999901    1    3    3    0    0 -0.32156634096E-01 -0.76469761994E-01 -0.74048796840E-01  0.88699768767E+00  0.88000000000E+00 0. -1.
        -11    1    4    4    0    0  0.39722165553E-02  0.49355089044E-02  0.12939955625E-01  0.14416702989E-01  0.51100000000E-03 0.  1.
         11    1    4    4    0    0  0.27528044267E-01  0.86754452078E-01  0.77928930651E-01  0.11982198267E+00  0.51100000000E-03 0. -1.
</event>
<event>
 8    1  0.1176534E+005  0.1043930E+01  0.7957747E-01            NaN
         13   -1    0    0    0    0  0.00000000000E+00  0.00000000000E+00  0.74505805969E-08  0.10566000000E+00  0.10566000000E+00 0. -1.
     999900   -1    0    0    0    0 -0.00000000000E+00 -0.00000000000E+00 -0.74505805969E-08  0.93827000000E+00  0.93827000000E+00 0. -1.
     999902    2    1    2    0    0  0.14298687615E-01 -0.16172576871E-01  0.43116477991E-02  0.10219164810E+01  0.10216793524E+01 0.  0.
     999903    2    3    3    0    0  0.90093527995E-01  0.73146559500E-01 -0.59423992169E-01  0.13186873078E+00  0.19770896749E-01 0.  0.
         14    1    1    2    0    0 -0.14298687615E-01  0.16172576871E-01 -0.43116477991E-02  0.22013518958E-01  0.00000000000E+00 0.  1.
     999901    1    3    3    0    0 -0.75794840379E-01 -0.89319136371E-01  0.63735639968E-01  0.89004775027E+00  0.88000000000E+00 0.  1.
        -11    1    4    4    0    0  0.73336962091E-01  0.50664552821E-01 -0.39673928166E-01  0.97567866731E-01  0.51100000000E-03 0. -1.
         11    1    4    4    0    0  0.16756565904E-01  0.22482006679E-01 -0.19750064003E-01  0.34300864046E-01  0.51100000000E-03 0.  1.
</event>
<event>
 8    1  0.1176534E+005  0.1043930E+01  0.7957747E-01            NaN
         13   -1    0    0    0    0  0.00000000000E+00  0.00000000000E+00  0.74505805969E-08  0.10566000000E+00  0.10566000000E+00 0. -1.
     999900   -1    0    0    0    0 -0.00000000000E+00 -0.00000000000E+00 -0.74505805969E-08  0.93827000000E+00  0.93827000000E+00 0.  1.
     999902    2    1    2    0    0 -0.10701899800E-01 -0.21260749429E-01  0.60352886607E-02  0.10193744541E+01  0.10190786539E+01 0.  0.
     999903    2    3    3    0    0 -0.50121556797E-01 -0.63400458433E-01  0.10269003129E+00  0.13220378071E+00  0.20020202847E-01 0.  0.
         14    1    1    2    0    0  0.10701899800E-01  0.21260749429E-01 -0.60352886607E-02  0.24555545908E-01  0.00000000000E+00 0. -1.
     999901    1    3    3    0    0  0.39419656997E-01  0.42139709004E-01 -0.96654742634E-01  0.88717067338E+00  0.88000000000E+00 0.  1.
        -11    1    4    4    0    0 -0.36082141719E-01 -0.35203943843E-01  0.51288117255E-01  0.71916414716E-01  0.51100000000E-03 0. -1.
         11    1    4    4    0    0 -0.14039415078E-01 -0.28196514590E-01  0.51401914040E-01  0.60287365996E-01  0.51100000000E-03 0.  1.
</event>
<event>
 8    1  0.1176534E+005  0.1043930E+01  0.7957747E-01            NaN
         13   -1    0    0    0    0  0.00000000000E+00  0.00000000000E+00  0.74505805969E-08  0.10566000000E+00  0.10566000000E+00 0.  1.
     999900   -1    0    0    0    0 -0.00000000000E+00 -0.00000000000E+00 -0.74505805969E-08  0.93827000000E+00  0.93827000000E+00 0.  1.
     999902    2    1    2    0    0 -0.12479023156E-01 -0.49958005554E-02 -0.20095335852E-01  0.10197534294E+01  0.10194667970E+01 0.  0.
     999903    2    3    3    0    0 -0.34792352968E-01  0.97538935429E-01 -0.77746116713E-01  0.13164596447E+00  0.23703365719E-01 0.  0.
         14    1    1    2    0    0  0.12479023156E-01  0.49958005554E-02  0.20095335852E-01  0.24176570582E-01  0.00000000000E+00 0.  1.
     999901    1    3    3    0    0  0.22313329812E-01 -0.10253473598E+00  0.57650780861E-01  0.88810746495E+00  0.88000000000E+00 0. -1.
        -11    1    4    4    0    0 -0.25812945151E-01  0.86572956819E-01 -0.58082038686E-01  0.10740097452E+00  0.51100000000E-03 0. -1.
         11    1    4    4    0    0 -0.89794078170E-02  0.10965978610E-01 -0.19664078027E-01  0.24244989941E-01  0.51100000000E-03 0.  1.
</event>
<event>
 8    1  0.1176534E+005  0.1043930E+01  0.7957747E-01            NaN
         13   -1    0    0    0    0  0.00000000000E+00  0.00000000000E+00  0.74505805969E-08  0.10566000000E+00  0.10566000000E+00 0.  1.
     999900   -1    0    0    0    0 -0.00000000000E+00 -0.00000000000E+00 -0.74505805969E-08  0.93827000000E+00  0.93827000000E+00 0.  1.
     999902    2    1    2    0    0  0.16370806003E-01  0.16191760065E-01  0.63254483435E-02  0.10200513970E+01  0.10197718690E+01 0.  0.
     999903    2    3    3    0    0  0.10115369875E+00  0.47050165680E-01 -0.68364566258E-01  0.13229074326E+00  0.19527876743E-01 0.  0.
         14    1    1    2    0    0 -0.16370806003E-01 -0.16191760065E-01 -0.63254483435E-02  0.23878602973E-01  0.00000000000E+00 0. -1.
     999901    1    3    3    0    0 -0.84782892750E-01 -0.30858405615E-01  0.74690014601E-01  0.88776065377E+00  0.88000000000E+00 0. -1.
        -11    1    4    4    0    0  0.81813534209E-01  0.36398267664E-01 -0.45282306617E-01  0.10034458970E+00  0.51100000000E-03 0. -1.
         11    1    4    4    0    0  0.19340164544E-01  0.10651898015E-01 -0.23082259641E-01  0.31946153557E-01  0.51100000000E-03 0.  1.
</event>
<event>
 8    1  0.1176534E+005  0.1043930E+01  0.7957747E-01            NaN
         13   -1    0    0    0    0  0.00000000000E+00  0.00000000000E+00  0.74505805969E-08  0.10566000000E+00  0.10566000000E+00 0. -1.
     999900   -1    0    0    0    0 -0.00000000000E+00 -0.00000000000E+00 -0.74505805969E-08  0.93827000000E+00  0.93827000000E+00 0.  1.
     999902    2    1    2    0    0  0.60153659290E-02  0.85824628065E-02 -0.21589783450E-01  0.10199307908E+01  0.10196483982E+01 0.  0.
     999903    2    3    3    0    0 -0.46023866400E-01 -0.87547175985E-01 -0.83471944985E-01  0.13101100187E+00  0.20337470573E-01 0.  0.
         14    1    1    2    0    0 -0.60153659290E-02 -0.85824628065E-02  0.21589783450E-01  0.23999209247E-01  0.00000000000E+00 0. -1.
     999901    1    3    3    0    0  0.52039232329E-01  0.96129638792E-01  0.61882161535E-01  0.88891978889E+00  0.88000000000E+00 0. -1.
        -11    1    4    4    0    0 -0.17431439763E-01 -0.19594829756E-01 -0.14104196019E-01  0.29782577319E-01  0.51100000000E-03 0.  1.
         11    1    4    4    0    0 -0.28592426637E-01 -0.67952346229E-01 -0.69367748966E-01  0.10122842455E+00  0.51100000000E-03 0. -1.
</event>
<event>
 8    1  0.1176534E+005  0.1043930E+01  0.7957747E-01            NaN
         13   -1    0    0    0    0  0.00000000000E+00  0.00000000000E+00  0.74505805969E-08  0.10566000000E+00  0.10566000000E+00 0.  1.
     999900   -1    0    0    0    0 -0.00000000000E+00 -0.00000000000E+00 -0.74505805969E-08  0.93827000000E+00  0.93827000000E+00 0.  1.
     999902    2    1    2    0    0 -0.10934660169E-01  0.18480519771E-01 -0.95975073561E-02  0.10204096141E+01  0.10201385063E+01 0.  0.
     999903    2    3    3    0    0 -0.36030255488E-01 -0.82650843443E-04 -0.12567641211E+00  0.13223806970E+00  0.19853472641E-01 0.  0.
         14    1    1    2    0    0  0.10934660169E-01 -0.18480519771E-01  0.95975073561E-02  0.23520385870E-01  0.00000000000E+00 0. -1.
     999901    1    3    3    0    0  0.25095595319E-01  0.18563170614E-01  0.11607890475E+00  0.88817154443E+00  0.88000000000E+00 0. -1.
        -11    1    4    4    0    0 -0.82234934113E-02 -0.84924255560E-02 -0.43307075268E-01  0.44894443142E-01  0.51100000000E-03 0. -1.
         11    1    4    4    0    0 -0.27806762077E-01  0.84097747126E-02 -0.82369336840E-01  0.87343626558E-01  0.51100000000E-03 0.  1.
</event>
<event>
 8    1  0.1176534E+005  0.1043930E+01  0.7957747E-01            NaN
         13   -1    0    0    0    0  0.00000000000E+00  0.00000000000E+00  0.74505805969E-08  0.10566000000E+00  0.10566000000E+00 0. -1.
     999900   -1    0    0    0    0 -0.00000000000E+00 -0.00000000000E+00 -0.74505805969E-08  0.93827000000E+00  0.93827000000E+00 0. -1.
     999902    2    1    2    0    0  0.95871717411E-02 -0.57812627276E-03 -0.22181612918E-01  0.10197582801E+01  0.10194717641E+01 0.  0.
     999903    2    3    3    0    0 -0.80190185683E-02 -0.54808719147E-01  0.11320374041E+00  0.12758109531E+00  0.19838061526E-01 0.  0.
         14    1    1    2    0    0 -0.95871717411E-02  0.57812627276E-03  0.22181612918E-01  0.24171719915E-01  0.00000000000E+00 0. -1.
     999901    1    3    3    0    0  0.17606190309E-01  0.54230592874E-01 -0.13538535332E+00  0.89217718478E+00  0.88000000000E+00 0. -1.
        -11    1    4    4    0    0 -0.11545871590E-01 -0.26316522604E-01  0.42889437572E-01  0.51629753912E-01  0.51100000000E-03 0.  1.
         11    1    4    4    0    0  0.35268530217E-02 -0.28492196543E-01  0.70314302833E-01  0.75951341397E-01  0.51100000000E-03 0. -1.
</event>
<event>
 8    1  0.1176534E+005  0.1043930E+01  0.7957747E-01            NaN
         13   -1    0    0    0    0  0.00000000000E+00  0.00000000000E+00  0.74505805969E-08  0.10566000000E+00  0.10566000000E+00 0. -1.
     999900   -1    0    0    0    0 -0.00000000000E+00 -0.00000000000E+00 -0.74505805969E-08  0.93827000000E+00  0.93827000000E+00 0.  1.
     999902    2    1    2    0    0  0.14664577583E-01  0.13835276002E-02  0.18665626968E-01  0.10201524977E+01  0.10198753595E+01 0.  0.
     999903    2    3    3    0    0  0.84518783793E-01 -0.98742555320E-01  0.30318947513E-02  0.13158665538E+00  0.20306118349E-01 0.  0.
         14    1    1    2    0    0 -0.14664577583E-01 -0.13835276002E-02 -0.18665626968E-01  0.23777502275E-01  0.00000000000E+00 0.  1.
     999901    1    3    3    0    0 -0.69854206210E-01  0.10012608292E+00  0.15633732217E-01  0.88856584235E+00  0.88000000000E+00 0. -1.
        -11    1    4    4    0    0  0.40166595987E-01 -0.31833706085E-01  0.23508921611E-02  0.51308167880E-01  0.51100000000E-03 0.  1.
         11    1    4    4    0    0  0.44352187806E-01 -0.66908849235E-01  0.68100259018E-03  0.80278487496E-01  0.51100000000E-03 0. -1.
</event>
<event>
 8    1  0.1176534E+005  0.1043930E+01  0.7957747E-01            NaN
         13   -1    0    0    0    0  0.00000000000E+00  0.00000000000E+00  0.74505805969E-08  0.10566000000E+00  0.10566000000E+00 0. -1.
     999900   -1    0    0    0    0 -0.00000000000E+00 -0.00000000000E+00 -0.74505805969E-08  0.93827000000E+00  0.93827000000E+00 0.  1.
     999902    2    1    2    0    0 -0.22111241600E-01  0.78835409319E-02  0.33556050013E-02  0.10202167694E+01  0.10199411450E+01 0.  0.
     999903    2    3    3    0    0 -0.79534686693E-01  0.10367518050E+00 -0.15095982893E-01  0.13296598668E+00  0.19435932592E-01 0.  0.
         14    1    1    2    0    0  0.22111241600E-01 -0.78835409319E-02 -0.33556050013E-02  0.23713230645E-01  0.00000000000E+00 0. -1.
     999901    1    3    3    0    0  0.57423445093E-01 -0.95791639568E-01  0.18451587895E-01  0.88725078267E+00  0.88000000000E+00 0. -1.
        -11    1    4    4    0    0 -0.65289834710E-01  0.75443789545E-01 -0.55371153574E-02  0.99927216838E-01  0.51100000000E-03 0. -1.
         11    1    4    4    0    0 -0.14244851982E-01  0.28231390955E-01 -0.95588675359E-02  0.33038769844E-01  0.51100000000E-03 0.  1.
</event>
<event>
 8    1  0.1176534E+005  0.1043930E+01  0.7957747E-01            NaN
         13   -1    0    0    0    0  0.00000000000E+00  0.00000000000E+00  0.74505805969E-08  0.10566000000E+00  0.10566000000E+00 0.  1.
     999900   -1    0    0    0    0 -0.00000000000E+00 -0.00000000000E+00 -0.74505805969E-08  0.93827000000E+00  0.93827000000E+00 0. -1.
     999902    2    1    2    0    0  0.11609358358E-01 -0.18334720079E-01  0.20000384039E-02  0.10221368975E+01  0.10219045444E+01 0.  0.
     999903    2    3    3    0    0  0.82574076397E-01  0.37393287352E-01 -0.94377312499E-01  0.13228848584E+00  0.19401812763E-01 0.  0.
         14    1    1    2    0    0 -0.11609358358E-01  0.18334720079E-01 -0.20000384039E-02  0.21793102475E-01  0.00000000000E+00 0. -1.
     999901    1    3    3    0    0 -0.70964718039E-01 -0.55728007431E-01  0.96377350903E-01  0.88984841169E+00  0.88000000000E+00 0.  1.
        -11    1    4    4    0    0  0.79685931965E-01  0.32336203062E-01 -0.83111908353E-01  0.11959652258E+00  0.51100000000E-03 0.  1.
         11    1    4    4    0    0  0.28881444313E-02  0.50570842904E-02 -0.11265404146E-01  0.12691963258E-01  0.51100000000E-03 0. -1.
</event>
<event>
 8    1  0.1176534E+005  0.1043930E+01  0.7957747E-01            NaN
         13   -1    0    0    0    0  0.00000000000E+00  0.00000000000E+00  0.74505805969E-08  0.10566000000E+00  0.10566000000E+00 0.  1.
     999900   -1    0    0    0    0 -0.00000000000E+00 -0.00000000000E+00 -0.74505805969E-08  0.93827000000E+00  0.93827000000E+00 0.  1.
     999902    2    1    2    0    0 -0.41149566712E-02 -0.18553727419E-02 -0.23205590865E-01  0.10202894686E+01  0.10200155514E+01 0.  0.
     999903    2    3    3    0    0 -0.11826145801E+00  0.19883935184E-01  0.46123610606E-01  0.12994764693E+00  0.19438625398E-01 0.  0.
         14    1    1    2    0    0  0.41149566712E-02  0.18553727419E-02  0.23205590865E-01  0.23640531377E-01  0.00000000000E+00 0.  1.
     999901    1    3    3    0    0  0.11414650134E+00 -0.21739307926E-01 -0.69329201470E-01  0.89034182169E+00  0.88000000000E+00 0.  1.
        -11    1    4    4    0    0 -0.62023285276E-01  0.37442906105E-02  0.16131613128E-01  0.64198112836E-01  0.51100000000E-03 0.  1.
         11    1    4    4    0    0 -0.56238172739E-01  0.16139644574E-01  0.29991997478E-01  0.65749534095E-01  0.51100000000E-03 0. -1.
</event>
<event>
 8    1  0.1176534E+005  0.1043930E+01  0.7957747E-01            NaN
         13   -1    0    0    0    0  0.00000000000E+00  0.00000000000E+00  0.74505805969E-08  0.10566000000E+00  0.10566000000E+00 0.  1.
     999900   -1    0    0    0    0 -0.00000000000E+00 -0.00000000000E+00 -0.74505805969E-08  0.93827000000E+00  0.93827000000E+00 0. -1.
     999902    2    1    2    0    0 -0.64916600649E-02 -0.11217837120E-01  0.19813482100E-01  0.10202539447E+01  0.10199791940E+01 0.  0.
     999903    2    3    3    0    0  0.48810392439E-01  0.10405460040E+00 -0.52847007549E-01  0.12805127795E+00  0.19862258255E-01 0.  0.
         14    1    1    2    0    0  0.64916600649E-02  0.11217837120E-01 -0.19813482100E-01  0.23676055266E-01  0.00000000000E+00 0. -1.
     999901    1    3    3    0    0 -0.55302052504E-01 -0.11527243752E+00  0.72660489649E-01  0.89220266679E+00  0.88000000000E+00 0.  1.
        -11    1    4    4    0    0  0.27096253882E-01  0.69867785995E-01 -0.42877687947E-01  0.86339282710E-01  0.51100000000E-03 0.  1.
         11    1    4    4    0    0  0.21714138557E-01  0.34186814405E-01 -0.99693196020E-02  0.41711995238E-01  0.51100000000E-03 0. -1.
</event>
<event>
 8    1  0.1176534E+005  0.1043930E+01  0.7957747E-01            NaN
         13   -1    0    0    0    0  0.00000000000E+00  0.00000000000E+00  0.74505805969E-08  0.10566000000E+00  0.10566000000E+00 0.  1.
     999900   -1    0    0    0    0 -0.00000000000E+00 -0.00000000000E+00 -0.74505805969E-08  0.93827000000E+00  0.93827000000E+00 0. -1.
     999902    2    1    2    0    0  0.21633846859E-01 -0.25435765626E-02 -0.97209860699E-02  0.10200764744E+01  0.10197975402E+01 0.  0.
     999903    2    3    3    0    0 -0.11793495943E+00 -0.50179367451E-02 -0.46048463159E-01  0.12833365291E+00  0.20377221728E-01 0.  0.
         14    1    1    2    0    0 -0.21633846859E-01  0.25435765626E-02  0.97209860699E-02  0.23853525563E-01  0.00000000000E+00 0. -1.
     999901    1    3    3    0    0  0.13956880629E+00  0.24743601825E-02  0.36327477089E-01  0.89174282152E+00  0.88000000000E+00 0.  1.
        -11    1    4    4    0    0 -0.68183177211E-01  0.48429124337E-02 -0.19500725072E-01  0.71084026720E-01  0.51100000000E-03 0. -1.
         11    1    4    4    0    0 -0.49751782220E-01 -0.98608491788E-02 -0.26547738087E-01  0.57249626192E-01  0.51100000000E-03 0.  1.
</event>
<event>
 8    1  0.1176534E+005  0.1043930E+01  0.7957747E-01            NaN
         13   -1    0    0    0    0  0.00000000000E+00  0.00000000000E+00  0.74505805969E-08  0.10566000000E+00  0.10566000000E+00 0.  1.
     999900   -1    0    0    0    0 -0.00000000000E+00 -0.00000000000E+00 -0.74505805969E-08  0.93827000000E+00  0.93827000000E+00 0. -1.
     999902    2    1    2    0    0  0.40965138395E-02 -0.12299058600E-01  0.19672521074E-01  0.10203703660E+01  0.10200983421E+01 0.  0.
     999903    2    3    3    0    0 -0.10053139976E+00  0.38186705926E-01 -0.67220705382E-01  0.12849243405E+00  0.20661450282E-01 0.  0.
         14    1    1    2    0    0 -0.40965138395E-02  0.12299058600E-01 -0.19672521074E-01  0.23559633985E-01  0.00000000000E+00 0.  1.
     999901    1    3    3    0    0  0.10462791360E+00 -0.50485764526E-01  0.86893226456E-01  0.89187793197E+00  0.88000000000E+00 0.  1.
        -11    1    4    4    0    0 -0.63889142776E-01  0.15321412463E-01 -0.33854353693E-01  0.73911748927E-01  0.51100000000E-03 0. -1.
         11    1    4    4    0    0 -0.36642256989E-01  0.22865293463E-01 -0.33366351688E-01  0.54580685122E-01  0.51100000000E-03 0.  1.
</event>
<event>
 8    1  0.1176534E+005  0.1043930E+01  0.7957747E-01            NaN
         13   -1    0    0    0    0  0.00000000000E+00  0.00000000000E+00  0.74505805969E-08  0.10566000000E+00  0.10566000000E+00 0.  1.
     999900   -1    0    0    0    0 -0.00000000000E+00 -0.00000000000E+00 -0.74505805969E-08  0.93827000000E+00  0.93827000000E+00 0. -1.
     999902    2    1    2    0    0  0.20223609979E-01 -0.97827807667E-02 -0.59392283713E-02  0.10206927103E+01  0.10204281637E+01 0.  0.
     999903    2    3    3    0    0  0.12846839772E+00  0.75123352582E-02 -0.29430211275E-01  0.13358060835E+00  0.20422467951E-01 0.  0.
         14    1    1    2    0    0 -0.20223609979E-01  0.97827807667E-02  0.59392283713E-02  0.23237289724E-01  0.00000000000E+00 0.  1.
     999901    1    3    3    0    0 -0.10824478774E+00 -0.17295116025E-01  0.23490982904E-01  0.88711210193E+00  0.88000000000E+00 0. -1.
        -11    1    4    4    0    0  0.73664152965E-01 -0.57114641290E-02 -0.18156005323E-01  0.76085017611E-01  0.51100000000E-03 0. -1.
         11    1    4    4    0    0  0.54804244753E-01  0.13223799387E-01 -0.11274205952E-01  0.57495590736E-01  0.51100000000E-03 0.  1.
</event>
<event>
 8    1  0.1176534E+005  0.1043930E+01  0.7957747E-01            NaN
         13   -1    0    0    0    0  0.00000000000E+00  0.00000000000E+00  0.74505805969E-08  0.10566000000E+00  0.10566000000E+00 0.  1.
     999900   -1    0    0    0    0 -0.00000000000E+00 -0.00000000000E+00 -0.74505805969E-08  0.93827000000E+00  0.93827000000E+00 0.  1.
     999902    2    1    2    0    0 -0.55252293243E-02  0.26399832532E-01  0.54380596294E-02  0.10164154255E+01  0.10160429447E+01 0.  0.
     999903    2    3    3    0    0 -0.11176201961E+00  0.54202387959E-01 -0.28374602400E-01  0.12894568867E+00  0.19829893545E-01 0.  0.
         14    1    1    2    0    0  0.55252293243E-02 -0.26399832532E-01 -0.54380596294E-02  0.27514574490E-01  0.00000000000E+00 0. -1.
     999901    1    3    3    0    0  0.10623679028E+00 -0.27802555427E-01  0.33812662029E-01  0.88746973684E+00  0.88000000000E+00 0.  1.
        -11    1    4    4    0    0 -0.10148076651E+00  0.46541762691E-01 -0.30954373711E-01  0.11585730887E+00  0.51100000000E-03 0. -1.
         11    1    4    4    0    0 -0.10281253094E-01  0.76606252680E-02  0.25797713112E-02  0.13088379797E-01  0.51100000000E-03 0.  1.
</event>
<event>
 7    1  0.1176534E+005  0.1043930E+01  0.7957747E-01            NaN
         13   -1    0    0    0    0  0.00000000000E+00  0.00000000000E+00  0.74505805969E-08  0.10566000000E+00  0.10566000000E+00 0. -1.
     999900   -1    0    0    0    0 -0.00000000000E+00 -0.00000000000E+00 -0.74505805969E-08  0.93827000000E+00  0.93827000000E+00 0.  1.
     999902    2    1    2    0    0  0.59104345902E-02 -0.22491938974E-01 -0.37190393541E-02  0.10203789531E+01  0.10201071297E+01 0.  0.
         14    1    1    2    0    0 -0.59104345902E-02  0.22491938974E-01  0.37190393541E-02  0.23551046889E-01  0.00000000000E+00 0. -1.
     999901    1    3    3    0    0  0.17998960249E-01  0.41758912307E-01  0.10236684967E+00  0.88710018670E+00  0.88000000000E+00 0. -1.
        -11    1    3    3    0    0 -0.10065821256E-01 -0.29826350251E-01 -0.89761608254E-01  0.95122759444E-01  0.51100000000E-03 0.  1.
         11    1    3    3    0    0 -0.20227044033E-02 -0.34424501030E-01 -0.16324280770E-01  0.38156006970E-01  0.51100000000E-03 0. -1.
</event>
<event>
 8    1  0.1176534E+005  0.1043930E+01  0.7957747E-01            NaN
         13   -1    0    0    0    0  0.00000000000E+00  0.00000000000E+00  0.74505805969E-08  0.10566000000E+00  0.10566000000E+00 0. -1.
     999900   -1    0    0    0    0 -0.00000000000E+00 -0.00000000000E+00 -0.74505805969E-08  0.93827000000E+00  0.93827000000E+00 0.  1.
     999902    2    1    2    0    0  0.20549732877E-01 -0.40923287374E-02  0.11626317755E-01  0.10199673219E+01  0.10196857986E+01 0.  0.
     999903    2    3    3    0    0 -0.48668871453E-01 -0.50277298091E-01 -0.10558202326E+00  0.12830479508E+00  0.20447274996E-01 0.  0.
         14    1    1    2    0    0 -0.20549732877E-01  0.40923287374E-02 -0.11626317755E-01  0.23962678071E-01  0.00000000000E+00 0.  1.
     999901    1    3    3    0    0  0.69218604329E-01  0.46184969353E-01  0.11720834101E+00  0.89166252685E+00  0.88000000000E+00 0. -1.
        -11    1    4    4    0    0 -0.21906513317E-01 -0.91972530776E-02 -0.31285005274E-01  0.39287370310E-01  0.51100000000E-03 0. -1.
         11    1    4    4    0    0 -0.26762358136E-01 -0.41080045013E-01 -0.74297017981E-01  0.89017424773E-01  0.51100000000E-03 0.  1.
</event>
<event>
 8    1  0.1176534E+005  0.1043930E+01  0.7957747E-01            NaN
         13   -1    0    0    0    0  0.00000000000E+00  0.00000000000E+00  0.74505805969E-08  0.10566000000E+00  0.10566000000E+00 0.  1.
     999900   -1    0    0    0    0 -0.00000000000E+00 -0.00000000000E+00 -0.74505805969E-08  0.93827000000E+00  0.93827000000E+00 0.  1.
     999902    2    1    2    0    0  0.12209765369E-01  0.12274875481E-01 -0.29920954463E-01  0.10093610189E+01  0.10087688794E+01 0.  0.
     999903    2    3    3    0    0 -0.34044242431E-01  0.65525658648E-01 -0.97175575804E-01  0.12398072590E+00  0.21806088064E-01 0.  0.
         14    1    1    2    0    0 -0.12209765369E-01 -0.12274875481E-01  0.29920954463E-01  0.34568981102E-01  0.00000000000E+00 0.  1.
     999901    1    3    3    0    0  0.46254007800E-01 -0.53250783167E-01  0.67254621341E-01  0.88538029300E+00  0.88000000000E+00 0. -1.
        -11    1    4    4    0    0 -0.10184591847E-01  0.42656098158E-01 -0.52560308911E-01  0.68455210284E-01  0.51100000000E-03 0.  1.
         11    1    4    4    0    0 -0.23859650584E-01  0.22869560490E-01 -0.44615266893E-01  0.55525515611E-01  0.51100000000E-03 0. -1.
</event>
<event>
 8    1  0.1176534E+005  0.1043930E+01  0.7957747E-01            NaN
         13   -1    0    0    0    0  0.00000000000E+00  0.00000000000E+00  0.74505805969E-08  0.10566000000E+00  0.10566000000E+00 0. -1.
     999900   -1    0    0    0    0 -0.00000000000E+00 -0.00000000000E+00 -0.74505805969E-08  0.93827000000E+00  0.93827000000E+00 0.  1.
     999902    2    1    2    0    0 -0.20340290048E-01  0.85063322215E-03 -0.12208348999E-01  0.10201919554E+01  0.10199157471E+01 0.  0.
     999903    2    3    3    0    0  0.11000507893E+00  0.38185338508E-01  0.48594259865E-01  0.12773425182E+00  0.19884655615E-01 0.  0.
         14    1    1    2    0    0  0.20340290048E-01 -0.85063322215E-03  0.12208348999E-01  0.23738044599E-01  0.00000000000E+00 0. -1.
     999901    1    3    3    0    0 -0.13034536898E+00 -0.37334705286E-01 -0.60802608865E-01  0.89245770358E+00  0.88000000000E+00 0. -1.
        -11    1    4    4    0    0  0.46209567440E-01  0.59662190758E-02  0.17158492609E-01  0.49654756899E-01  0.51100000000E-03 0. -1.
         11    1    4    4    0    0  0.63795511491E-01  0.32219119432E-01  0.31435767256E-01  0.78079494923E-01  0.51100000000E-03 0.  1.
</event>
<event>
 8    1  0.1176534E+005  0.1043930E+01  0.7957747E-01            NaN
         13   -1    0    0    0    0  0.00000000000E+00  0.00000000000E+00  0.74505805969E-08  0.10566000000E+00  0.10566000000E+00 0. -1.
     999900   -1    0    0    0    0 -0.00000000000E+00 -0.00000000000E+00 -0.74505805969E-08  0.93827000000E+00  0.93827000000E+00 0.  1.
     999902    2    1    2    0    0 -0.11198260116E-01 -0.20921859068E-01  0.36919441496E-03  0.10201968687E+01  0.10199207760E+01 0.  0.
     999903    2    3    3    0    0  0.38696562133E-01  0.10803520752E+00 -0.52355966665E-01  0.12784079576E+00  0.20810858451E-01 0.  0.
         14    1    1    2    0    0  0.11198260116E-01  0.20921859068E-01 -0.36919441496E-03  0.23733131294E-01  0.00000000000E+00 0.  1.
     999901    1    3    3    0    0 -0.49894822248E-01 -0.12895706659E+00  0.52725161080E-01  0.89235607295E+00  0.88000000000E+00 0. -1.
        -11    1    4    4    0    0  0.34354561326E-01  0.87844821529E-01 -0.34186578827E-01  0.10032911764E+00  0.51100000000E-03 0.  1.
         11    1    4    4    0    0  0.43420008071E-02  0.20190385996E-01 -0.18169387837E-01  0.27511678121E-01  0.51100000000E-03 0. -1.
</event>
<event>
 8    1  0.1176534E+005  0.1043930E+01  0.7957747E-01            NaN
         13   -1    0    0    0    0  0.00000000000E+00  0.00000000000E+00  0.74505805969E-08  0.10566000000E+00  0.10566000000E+00 0.  1.
     999900   -1    0    0    0    0 -0.00000000000E+00 -0.00000000000E+00 -0.74505805969E-08  0.93827000000E+00  0.93827000000E+00 0. -1.
     999902    2    1    2    0    0 -0.20469318858E-01 -0.62551600682E-02  0.11801580747E-01  0.10194882867E+01  0.10191952557E+01 0.  0.
     999903    2    3    3    0    0 -0.95834477616E-01  0.71785156589E-01 -0.48623204128E-01  0.13076934753E+00  0.19976247557E-01 0.  0.
         14    1    1    2    0    0  0.20469318858E-01  0.62551600682E-02 -0.11801580747E-01  0.24441713322E-01  0.00000000000E+00 0. -1.
     999901    1    3    3    0    0  0.75365158759E-01 -0.78040316657E-01  0.60424784875E-01  0.88871893915E+00  0.88000000000E+00 0.  1.
        -11    1    4    4    0    0 -0.59600299408E-01  0.56287250320E-01 -0.32595095656E-01  0.88222171929E-01  0.51100000000E-03 0. -1.
         11    1    4    4    0    0 -0.36234178209E-01  0.15497906269E-01 -0.16028108472E-01  0.42547175598E-01  0.51100000000E-03 0.  1.
</event>
<event>
 8    1  0.1176534E+005  0.1043930E+01  0.7957747E-01            NaN
         13   -1    0    0    0    0  0.00000000000E+00  0.00000000000E+00  0.74505805969E-08  0.10566000000E+00  0.10566000000E+00 0.  1.
     999900   -1    0    0    0    0 -0.00000000000E+00 -0.00000000000E+00 -0.74505805969E-08  0.93827000000E+00  0.93827000000E+00 0. -1.
     999902    2    1    2    0    0 -0.88028943852E-02  0.11243343382E-01  0.55561433491E-02  0.10286076487E+01  0.10284935199E+01 0.  0.
     999903    2    3    3    0    0 -0.13459241544E+00 -0.22043669331E-01  0.17746322427E-01  0.13895623985E+00  0.19820771512E-01 0.  0.
         14    1    1    2    0    0  0.88028943852E-02 -0.11243343382E-01 -0.55561433491E-02  0.15322351284E-01  0.00000000000E+00 0. -1.
     999901    1    3    3    0    0  0.12578952105E+00  0.33287012713E-01 -0.12190179077E-01  0.88965140886E+00  0.88000000000E+00 0.  1.
        -11    1    4    4    0    0 -0.80172094972E-01 -0.10183819990E-01  0.11124503184E-02  0.80825575584E-01  0.51100000000E-03 0.  1.
         11    1    4    4    0    0 -0.54420320468E-01 -0.11859849341E-01  0.16633872108E-01  0.58130664270E-01  0.51100000000E-03 0. -1.
</event>
<event>
 8    1  0.1176534E+005  0.1043930E+01  0.7957747E-01            NaN
         13   -1    0    0    0    0  0.00000000000E+00  0.00000000000E+00  0.74505805969E-08  0.10566000000E+00  0.10566000000E+00 0.  1.
     999900   -1    0    0    0    0 -0.00000000000E+00 -0.00000000000E+00 -0.74505805969E-08  0.93827000000E+00  0.93827000000E+00 0.  1.
     999902    2    1    2    0    0  0.39428559061E-02  0.69906616838E-02  0.21654698094E-01  0.10208358143E+01  0.10205745531E+01 0.  0.
     999903    2    3    3    0    0 -0.28661639965E-01 -0.11982075010E+00  0.39595908521E-01  0.13096724292E+00  0.20151451213E-01 0.  0.
         14    1    1    2    0    0 -0.39428559061E-02 -0.69906616838E-02 -0.21654698094E-01  0.23094185697E-01  0.00000000000E+00 0. -1.
     999901    1    3    3    0    0  0.32604495871E-01  0.12681141178E+00 -0.17941210427E-01  0.88986857139E+00  0.88000000000E+00 0.  1.
        -11    1    4    4    0    0 -0.18092149652E-01 -0.10490351684E+00  0.35581906819E-01  0.11224262532E+00  0.51100000000E-03 0. -1.
         11    1    4    4    0    0 -0.10569490313E-01 -0.14917233259E-01  0.40140017024E-02  0.18724617600E-01  0.51100000000E-03 0.  1.
</event>
<event>
 8    1  0.1176534E+005  0.1043930E+01  0.7957747E-01            NaN
         13   -1    0    0    0    0  0.00000000000E+00  0.00000000000E+00  0.74505805969E-08  0.10566000000E+00  0.10566000000E+00 0. -1.
     999900   -1    0    0    0    0 -0.00000000000E+00 -0.00000000000E+00 -0.74505805969E-08  0.93827000000E+00  0.93827000000E+00 0.  1.
     999902    2    1    2    0    0  0.67998579142E-02  0.19862141441E-01 -0.10589494639E-01  0.10204165969E+01  0.10201456519E+01 0.  0.
     999903    2    3    3    0    0 -0.10232136684E-01 -0.12605256819E+00 -0.52521552075E-02  0.12822285192E+00  0.20483360335E-01 0.  0.
         14    1    1    2    0    0 -0.67998579142E-02 -0.19862141441E-01  0.10589494639E-01  0.23513403135E-01  0.00000000000E+00 0. -1.
     999901    1    3    3    0    0  0.17031994599E-01  0.14591470963E+00 -0.53373394316E-02  0.89219374495E+00  0.88000000000E+00 0.  1.
        -11    1    4    4    0    0 -0.26782781350E-02 -0.72325422305E-01 -0.12613807769E-01  0.73467742260E-01  0.51100000000E-03 0.  1.
         11    1    4    4    0    0 -0.75538585494E-02 -0.53727145889E-01  0.73616525619E-02  0.54755109659E-01  0.51100000000E-03 0. -1.
</event>
<event>
 8    1  0.1176534E+005  0.1043930E+01  0.7957747E-01            NaN
         13   -1    0    0    0    0  0.00000000000E+00  0.00000000000E+00  0.74505805969E-08  0.10566000000E+00  0.10566000000E+00 0.  1.
     999900   -1    0    0    0    0 -0.00000000000E+00 -0.00000000000E+00 -0.74505805969E-08  0.93827000000E+00  0.93827000000E+00 0.  1.
     999902    2    1    2    0    0  0.12807418021E-01 -0.18099906076E-01  0.61494633137E-02  0.10209201661E+01  0.10206608316E+01 0.  0.
     999903    2    3    3    0    0  0.11537952857E+00 -0.23089112574E-01 -0.57797856014E-01  0.13264363840E+00  0.20203957938E-01 0.  0.
         14    1    1    2    0    0 -0.12807418021E-01  0.18099906076E-01 -0.61494633137E-02  0.23009833884E-01  0.00000000000E+00 0.  1.
     999901    1    3    3    0    0 -0.10257211055E+00  0.49892064980E-02  0.63947319327E-01  0.88827652772E+00  0.88000000000E+00 0. -1.
        -11    1    4    4    0    0  0.74950638716E-01 -0.98546783049E-02 -0.27623585428E-01  0.80486250511E-01  0.51100000000E-03 0. -1.
         11    1    4    4    0    0  0.40428889851E-01 -0.13234434269E-01 -0.30174270585E-01  0.52157387889E-01  0.51100000000E-03 0.  1.
</event>
<event>
 8    1  0.1176534E+005  0.1043930E+01  0.7957747E-01            NaN
         13   -1    0    0    0    0  0.00000000000E+00  0.00000000000E+00  0.74505805969E-08  0.10566000000E+00  0.10566000000E+00 0.  1.
     999900   -1    0    0    0    0 -0.00000000000E+00 -0.00000000000E+00 -0.74505805969E-08  0.93827000000E+00  0.93827000000E+00 0. -1.
     999902    2    1    2    0    0 -0.91989688959E-02  0.12024126804E-01 -0.18048603408E-01  0.10203725651E+01  0.10201005925E+01 0.  0.
     999903    2    3    3    0    0 -0.40460505066E-02  0.12497385751E+00 -0.39716578369E-01  0.13287400433E+00  0.21053713282E-01 0.  0.
         14    1    1    2    0    0  0.91989688959E-02 -0.12024126804E-01  0.18048603408E-01  0.23557434901E-01  0.00000000000E+00 0.  1.
     999901    1    3    3    0    0 -0.51529183893E-02 -0.11294973071E+00  0.21667974961E-01  0.88749856077E+00  0.88000000000E+00 0. -1.
        -11    1    4    4    0    0 -0.61729088137E-02  0.34626305846E-01 -0.29229213821E-02  0.35297173402E-01  0.51100000000E-03 0.  1.
         11    1    4    4    0    0  0.21268583071E-02  0.90347551664E-01 -0.36793656986E-01  0.97576830925E-01  0.51100000000E-03 0. -1.
</event>
<event>
 8    1  0.1176534E+005  0.1043930E+01  0.7957747E-01            NaN
         13   -1    0    0    0    0  0.00000000000E+00  0.00000000000E+00  0.74505805969E-08  0.10566000000E+00  0.10566000000E+00 0.  1.
     999900   -1    0    0    0    0 -0.00000000000E+00 -0.00000000000E+00 -0.74505805969E-08  0.93827000000E+00  0.93827000000E+00 0. -1.
     999902    2    1    2    0    0  0.11040543538E-01  0.46119839029E-03  0.19336495707E-01  0.10216587995E+01  0.10214160250E+01 0.  0.
     999903    2    3    3    0    0  0.55871030856E-01  0.11317218409E+00 -0.32283720495E-01  0.13183961246E+00  0.20246714904E-01 0.  0.
         14    1    1    2    0    0 -0.11040543538E-01 -0.46119839029E-03 -0.19336495707E-01  0.22271200502E-01  0.00000000000E+00 0. -1.
     999901    1    3    3    0    0 -0.44830487318E-01 -0.11271098570E+00  0.51620216202E-01  0.88981918703E+00  0.88000000000E+00 0.  1.
        -11    1    4    4    0    0  0.10112916281E-01  0.28402272381E-01 -0.16016279099E-01  0.34142971008E-01  0.51100000000E-03 0. -1.
         11    1    4    4    0    0  0.45758114576E-01  0.84769911713E-01 -0.16267441396E-01  0.97696641456E-01  0.51100000000E-03 0.  1.
</event>
<event>
 8    1  0.1176534E+005  0.1043930E+01  0.7957747E-01            NaN
         13   -1    0    0    0    0  0.00000000000E+00  0.00000000000E+00  0.74505805969E-08  0.10566000000E+00  0.10566000000E+00 0.  1.
     999900   -1    0    0    0    0 -0.00000000000E+00 -0.00000000000E+00 -0.74505805969E-08  0.93827000000E+00  0.93827000000E+00 0. -1.
     999902    2    1    2    0    0 -0.24338550099E-01  0.96445605123E-02  0.10625694720E-01  0.10156760099E+01  0.10152829503E+01 0.  0.
     999903    2    3    3    0    0 -0.10570544395E+00 -0.56156776291E-01  0.43308508989E-01  0.12887357774E+00  0.20138214500E-01 0.  0.
         14    1    1    2    0    0  0.24338550099E-01 -0.96445605123E-02 -0.10625694720E-01  0.28253990102E-01  0.00000000000E+00 0.  1.
     999901    1    3    3    0    0  0.81366893852E-01  0.65801336803E-01 -0.32682814269E-01  0.88680243216E+00  0.88000000000E+00 0. -1.
        -11    1    4    4    0    0 -0.38880928050E-01 -0.30467993802E-01  0.12662592038E-01  0.50996348600E-01  0.51100000000E-03 0.  1.
         11    1    4    4    0    0 -0.66824515901E-01 -0.25688782489E-01  0.30645916951E-01  0.77877229136E-01  0.51100000000E-03 0. -1.
</event>
<event>
 8    1  0.1176534E+005  0.1043930E+01  0.7957747E-01            NaN
         13   -1    0    0    0    0  0.00000000000E+00  0.00000000000E+00  0.74505805969E-08  0.10566000000E+00  0.10566000000E+00 0. -1.
     999900   -1    0    0    0    0 -0.00000000000E+00 -0.00000000000E+00 -0.74505805969E-08  0.93827000000E+00  0.93827000000E+00 0.  1.
     999902    2    1    2    0    0 -0.98245867013E-02 -0.20802866005E-01 -0.39191887288E-02  0.10205924385E+01  0.10203255773E+01 0.  0.
     999903    2    3    3    0    0 -0.54629034396E-01 -0.13542186229E-02  0.11720088247E+00  0.13095444464E+00  0.20660455295E-01 0.  0.
         14    1    1    2    0    0  0.98245867013E-02  0.20802866005E-01  0.39191887288E-02  0.23337561530E-01  0.00000000000E+00 0. -1.
     999901    1    3    3    0    0  0.44804447694E-01 -0.19448647382E-01 -0.12112007120E+00  0.88963799383E+00  0.88000000000E+00 0.  1.
        -11    1    4    4    0    0 -0.12642395359E-01  0.11495517131E-02  0.11291354165E-01  0.16997277118E-01  0.51100000000E-03 0.  1.
         11    1    4    4    0    0 -0.41986639036E-01 -0.25037703360E-02  0.10590952830E+00  0.11395716752E+00  0.51100000000E-03 0. -1.
</event>
<event>
 8    1  0.1176534E+005  0.1043930E+01  0.7957747E-01            NaN
         13   -1    0    0    0    0  0.00000000000E+00  0.00000000000E+00  0.74505805969E-08  0.10566000000E+00  0.10566000000E+00 0. -1.
     999900   -1    0    0    0    0 -0.00000000000E+00 -0.00000000000E+00 -0.74505805969E-08  0.93827000000E+00  0.93827000000E+00 0.  1.
     999902    2    1    2    0    0  0.16697589909E-01  0.12421221289E-01 -0.96735269371E-02  0.10209806346E+01  0.10207226768E+01 0.  0.
     999903    2    3    3    0    0  0.25016061623E-01  0.10747414497E+00  0.70045147989E-01  0.13224033376E+00  0.20116857147E-01 0.  0.
         14    1    1    2    0    0 -0.16697589909E-01 -0.12421221289E-01  0.96735269371E-02  0.22949365362E-01  0.00000000000E+00 0.  1.
     999901    1    3    3    0    0 -0.83184717130E-02 -0.95052923676E-01 -0.79718674926E-01  0.88874030088E+00  0.88000000000E+00 0.  1.
        -11    1    4    4    0    0  0.16004867159E-01  0.46573346098E-01  0.41391124854E-01  0.64332874001E-01  0.51100000000E-03 0.  1.
         11    1    4    4    0    0  0.90111944632E-02  0.60900798867E-01  0.28654023135E-01  0.67907459760E-01  0.51100000000E-03 0. -1.
</event>
<event>
 8    1  0.1176534E+005  0.1043930E+01  0.7957747E-01            NaN
         13   -1    0    0    0    0  0.00000000000E+00  0.00000000000E+00  0.74505805969E-08  0.10566000000E+00  0.10566000000E+00 0.  1.
     999900   -1    0    0    0    0 -0.00000000000E+00 -0.00000000000E+00 -0.74505805969E-08  0.93827000000E+00  0.93827000000E+00 0. -1.
     999902    2    1    2    0    0  0.24631018104E-02 -0.18247322226E-01 -0.14437519956E-01  0.10205318458E+01  0.10202635809E+01 0.  0.
     999903    2    3    3    0    0 -0.33760036371E-01 -0.69944686181E-01  0.10291830005E+00  0.13049975552E+00  0.20149702840E-01 0.  0.
         14    1    1    2    0    0 -0.24631018104E-02  0.18247322226E-01  0.14437519956E-01  0.23398154232E-01  0.00000000000E+00 0. -1.
     999901    1    3    3    0    0  0.36223138181E-01  0.51697363955E-01 -0.11735582001E+00  0.89003209025E+00  0.88000000000E+00 0. -1.
        -11    1    4    4    0    0 -0.11815698802E-01 -0.45309305614E-01  0.66805653060E-01  0.81583088414E-01  0.51100000000E-03 0.  1.
         11    1    4    4    0    0 -0.21944337569E-01 -0.24635380568E-01  0.36112646993E-01  0.48916667107E-01  0.51100000000E-03 0. -1.
</event>
<event>
 8    1  0.1176534E+005  0.1043930E+01  0.7957747E-01            NaN
         13   -1    0    0    0    0  0.00000000000E+00  0.00000000000E+00  0.74505805969E-08  0.10566000000E+00  0.10566000000E+00 0.  1.
     999900   -1    0    0    0    0 -0.00000000000E+00 -0.00000000000E+00 -0.74505805969E-08  0.93827000000E+00  0.93827000000E+00 0.  1.
     999902    2    1    2    0    0 -0.13431839195E-01 -0.19797657327E-01  0.52036407998E-03  0.10200002629E+01  0.10197195222E+01 0.  0.
     999903    2    3    3    0    0  0.25510977655E-01  0.12131182920E+00  0.21101266981E-01  0.12767072525E+00  0.22072171004E-01 0.  0.
         14    1    1    2    0    0  0.13431839195E-01  0.19797657327E-01 -0.52036407998E-03  0.23929737119E-01  0.00000000000E+00 0. -1.
     999901    1    3    3    0    0 -0.38942816850E-01 -0.14110948652E+00 -0.20580902901E-01  0.89232953763E+00  0.88000000000E+00 0. -1.
        -11    1    4    4    0    0  0.58460146928E-02  0.47939703186E-01  0.18323349520E-01  0.51656531901E-01  0.51100000000E-03 0. -1.
         11    1    4    4    0    0  0.19664962962E-01  0.73372126010E-01  0.27779174604E-02  0.76014193346E-01  0.51100000000E-03 0.  1.
</event>
<event>
 8    1  0.1176534E+005  0.1043930E+01  0.7957747E-01            NaN
         13   -1    0    0    0    0  0.00000000000E+00  0.00000000000E+00  0.74505805969E-08  0.10566000000E+00  0.10566000000E+00 0.  1.
     999900   -1    0    0    0    0 -0.00000000000E+00 -0.00000000000E+00 -0.74505805969E-08  0.93827000000E+00  0.93827000000E+00 0. -1.
     999902    2    1    2    0    0 -0.54894859103E-02  0.66871956336E-02 -0.21874719033E-01  0.10204064719E+01  0.10201352908E+01 0.  0.
     999903    2    3    3    0    0  0.22932923351E-01 -0.77540744741E-02 -0.12928912648E+00  0.13330205948E+00  0.21626747131E-01 0.  0.
         14    1    1    2    0    0  0.54894859103E-02 -0.66871956336E-02  0.21874719033E-01  0.23523528089E-01  0.00000000000E+00 0.  1.
     999901    1    3    3    0    0 -0.28422409261E-01  0.14441270108E-01  0.10741440744E+00  0.88710441243E+00  0.88000000000E+00 0.  1.
        -11    1    4    4    0    0  0.19803131434E-01 -0.64412315433E-02 -0.53159025255E-01  0.57094628166E-01  0.51100000000E-03 0.  1.
         11    1    4    4    0    0  0.31297919167E-02 -0.13128429308E-02 -0.76130101223E-01  0.76207431312E-01  0.51100000000E-03 0. -1.
</event>
<event>
 8    1  0.1176534E+005  0.1043930E+01  0.7957747E-01            NaN
         13   -1    0    0    0    0  0.00000000000E+00  0.00000000000E+00  0.74505805969E-08  0.10566000000E+00  0.10566000000E+00 0. -1.
     999900   -1    0    0    0    0 -0.00000000000E+00 -0.00000000000E+00 -0.74505805969E-08  0.93827000000E+00  0.93827000000E+00 0.  1.
     999902    2    1    2    0    0 -0.10887530833E-02  0.19370972444E-01 -0.13587870552E-01  0.10202435021E+01  0.10199685061E+01 0.  0.
     999903    2    3    3    0    0  0.10990494574E+00 -0.29657147567E-01 -0.60570645292E-01  0.13067577626E+00  0.21182821571E-01 0.  0.
         14    1    1    2    0    0  0.10887530833E-02 -0.19370972444E-01  0.13587870552E-01  0.23686497901E-01  0.00000000000E+00 0.  1.
     999901    1    3    3    0    0 -0.11099369883E+00  0.49028120011E-01  0.46982774740E-01  0.88956772584E+00  0.88000000000E+00 0. -1.
        -11    1    4    4    0    0  0.29738645783E-01 -0.14215800174E-01 -0.26136664627E-01  0.42069732426E-01  0.51100000000E-03 0.  1.
         11    1    4    4    0    0  0.80166299959E-01 -0.15441347393E-01 -0.34433980665E-01  0.88606043834E-01  0.51100000000E-03 0. -1.
</event>
<event>
 8    1  0.1176534E+005  0.1043930E+01  0.7957747E-01            NaN
         13   -1    0    0    0    0  0.00000000000E+00  0.00000000000E+00  0.74505805969E-08  0.10566000000E+00  0.10566000000E+00 0. -1.
     999900   -1    0    0    0    0 -0.00000000000E+00 -0.00000000000E+00 -0.74505805969E-08  0.93827000000E+00  0.93827000000E+00 0. -1.
     999902    2    1    2    0    0 -0.22844095079E-01  0.69558569222E-02 -0.67992759748E-02  0.10191012510E+01  0.10187987500E+01 0.  0.
     999903    2    3    3    0    0  0.11715725623E+00  0.22869236445E-01 -0.39350993700E-01  0.12729789351E+00  0.20184853839E-01 0.  0.
         14    1    1    2    0    0  0.22844095079E-01 -0.69558569222E-02  0.67992759748E-02  0.24828749048E-01  0.00000000000E+00 0.  1.
     999901    1    3    3    0    0 -0.14000135131E+00 -0.15913379523E-01  0.32551717725E-01  0.89180335744E+00  0.88000000000E+00 0. -1.
        -11    1    4    4    0    0  0.80431369534E-01  0.22704266940E-01 -0.20687568018E-01  0.86098348033E-01  0.51100000000E-03 0.  1.
         11    1    4    4    0    0  0.36725886694E-01  0.16496950509E-03 -0.18663425682E-01  0.41199545478E-01  0.51100000000E-03 0. -1.
</event>
<event>
 8    1  0.1176534E+005  0.1043930E+01  0.7957747E-01            NaN
         13   -1    0    0    0    0  0.00000000000E+00  0.00000000000E+00  0.74505805969E-08  0.10566000000E+00  0.10566000000E+00 0. -1.
     999900   -1    0    0    0    0 -0.00000000000E+00 -0.00000000000E+00 -0.74505805969E-08  0.93827000000E+00  0.93827000000E+00 0.  1.
     999902    2    1    2    0    0 -0.13159486937E-01 -0.15951637492E-01 -0.10474807310E-01  0.10207492230E+01  0.10204859763E+01 0.  0.
     999903    2    3    3    0    0  0.53620227454E-01  0.56137586453E-01 -0.10304552873E+00  0.13045392089E+00  0.19320638670E-01 0.  0.
         14    1    1    2    0    0  0.13159486937E-01  0.15951637492E-01  0.10474807310E-01  0.23180777021E-01  0.00000000000E+00 0. -1.
     999901    1    3    3    0    0 -0.66779714391E-01 -0.72089223945E-01  0.92570721419E-01  0.89029530209E+00  0.88000000000E+00 0. -1.
        -11    1    4    4    0    0  0.32854062046E-01  0.45224190867E-01 -0.64757835418E-01  0.85547970178E-01  0.51100000000E-03 0.  1.
         11    1    4    4    0    0  0.20766165408E-01  0.10913395585E-01 -0.38287693311E-01  0.44905950708E-01  0.51100000000E-03 0. -1.
</event>
<event>
 8    1  0.1176534E+005  0.1043930E+01  0.7957747E-01            NaN
         13   -1    0    0    0    0  0.00000000000E+00  0.00000000000E+00  0.74505805969E-08  0.10566000000E+00  0.10566000000E+00 0.  1.
     999900   -1    0    0    0    0 -0.00000000000E+00 -0.00000000000E+00 -0.74505805969E-08  0.93827000000E+00  0.93827000000E+00 0. -1.
     999902    2    1    2    0    0 -0.79300406448E-02 -0.14126860470E-01  0.17686451964E-01  0.10199453317E+01  0.10196632853E+01 0.  0.
     999903    2    3    3    0    0  0.11014421377E+00  0.38136115096E-01 -0.48794085168E-01  0.12804140749E+00  0.20679172675E-01 0.  0.
         14    1    1    2    0    0  0.79300406448E-02  0.14126860470E-01 -0.17686451964E-01  0.23984668321E-01  0.00000000000E+00 0.  1.
     999901    1    3    3    0    0 -0.11807425441E+00 -0.52262975566E-01  0.66480537132E-01  0.89190392419E+00  0.88000000000E+00 0.  1.
        -11    1    4    4    0    0  0.65792834725E-01  0.26566745354E-01 -0.19299776020E-01  0.73533880187E-01  0.51100000000E-03 0.  1.
         11    1    4    4    0    0  0.44351379044E-01  0.11569369742E-01 -0.29494309148E-01  0.54507527301E-01  0.51100000000E-03 0. -1.
</event>
<event>
 8    1  0.1176534E+005  0.1043930E+01  0.7957747E-01            NaN
         13   -1    0    0    0    0  0.00000000000E+00  0.00000000000E+00  0.74505805969E-08  0.10566000000E+00  0.10566000000E+00 0.  1.
     999900   -1    0    0    0    0 -0.00000000000E+00 -0.00000000000E+00 -0.74505805969E-08  0.93827000000E+00  0.93827000000E+00 0.  1.
     999902    2    1    2    0    0  0.57353857073E-02 -0.21597494106E-01  0.70527431407E-02  0.10204973820E+01  0.10202283171E+01 0.  0.
     999903    2    3    3    0    0  0.55370144291E-01 -0.51725868291E-01  0.10738557145E+00  0.13289499093E+00  0.19697698561E-01 0.  0.
         14    1    1    2    0    0 -0.57353857073E-02  0.21597494106E-01 -0.70527431407E-02  0.23432618007E-01  0.00000000000E+00 0. -1.
     999901    1    3    3    0    0 -0.49634758584E-01  0.30128374185E-01 -0.10033282831E+00  0.88760239107E+00  0.88000000000E+00 0.  1.
        -11    1    4    4    0    0  0.11545249196E-01 -0.97591779227E-02  0.36948360626E-01  0.39924639093E-01  0.51100000000E-03 0. -1.
         11    1    4    4    0    0  0.43824895094E-01 -0.41966690369E-01  0.70437210823E-01  0.92970351834E-01  0.51100000000E-03 0.  1.
</event>
<event>
 8    1  0.1176534E+005  0.1043930E+01  0.7957747E-01            NaN
         13   -1    0    0    0    0  0.00000000000E+00  0.00000000000E+00  0.74505805969E-08  0.10566000000E+00  0.10566000000E+00 0.  1.
     999900   -1    0    0    0    0 -0.00000000000E+00 -0.00000000000E+00 -0.74505805969E-08  0.93827000000E+00  0.93827000000E+00 0. -1.
     999902    2    1    2    0    0  0.15849183095E-03  0.23449898651E-01  0.49359246354E-02  0.10199657304E+01  0.10196841692E+01 0.  0.
     999903    2    3    3    0    0 -0.32396609389E-01 -0.46501055953E-01  0.11503852565E+00  0.12975477032E+00  0.19762326038E-01 0.  0.
         14    1    1    2    0    0 -0.15849183095E-03 -0.23449898651E-01 -0.49359246354E-02  0.23964269620E-01  0.00000000000E+00 0. -1.
     999901    1    3    3    0    0  0.32555101220E-01  0.69950954604E-01 -0.11010260102E+00  0.89021096006E+00  0.88000000000E+00 0. -1.
        -11    1    4    4    0    0 -0.15935495950E-01 -0.85253364229E-02  0.27325784430E-01  0.32765546051E-01  0.51100000000E-03 0. -1.
         11    1    4    4    0    0 -0.16461113439E-01 -0.37975719530E-01  0.87712741225E-01  0.96989224266E-01  0.51100000000E-03 0.  1.
</event>
<event>
 8    1  0.1176534E+005  0.1043930E+01  0.7957747E-01            NaN
         13   -1    0    0    0    0  0.00000000000E+00  0.00000000000E+00  0.74505805969E-08  0.10566000000E+00  0.10566000000E+00 0. -1.
     999900   -1    0    0    0    0 -0.00000000000E+00 -0.00000000000E+00 -0.74505805969E-08  0.93827000000E+00  0.93827000000E+00 0.  1.
     999902    2    1    2    0    0 -0.10697958457E-01  0.31594984656E-02  0.22821117222E-01  0.10185285800E+01  0.10182117836E+01 0.  0.
     999903    2    3    3    0    0 -0.75280456644E-01 -0.18059435216E-02  0.10681662514E+00  0.13215913107E+00  0.19642706896E-01 0.  0.
         14    1    1    2    0    0  0.10697958457E-01 -0.31594984656E-02 -0.22821117222E-01  0.25401419980E-01  0.00000000000E+00 0.  1.
     999901    1    3    3    0    0  0.64582498187E-01  0.49654419872E-02 -0.83995507915E-01  0.88636944895E+00  0.88000000000E+00 0.  1.
        -11    1    4    4    0    0 -0.59662935536E-01  0.44405605858E-02  0.72990554964E-01  0.94378316843E-01  0.51100000000E-03 0.  1.
         11    1    4    4    0    0 -0.15617521109E-01 -0.62465041074E-02  0.33826070174E-01  0.37780814225E-01  0.51100000000E-03 0. -1.
</event>
<event>
 8    1  0.1176534E+005  0.1043930E+01  0.7957747E-01            NaN
         13   -1    0    0    0    0  0.00000000000E+00  0.00000000000E+00  0.74505805969E-08  0.10566000000E+00  0.10566000000E+00 0.  1.
     999900   -1    0    0    0    0 -0.00000000000E+00 -0.00000000000E+00 -0.74505805969E-08  0.93827000000E+00  0.93827000000E+00 0. -1.
     999902    2    1    2    0    0 -0.20506565603E-01 -0.10274362669E-02 -0.37756995843E-02  0.10230534398E+01  0.10228404127E+01 0.  0.
     999903    2    3    3    0    0 -0.90974445246E-02 -0.17322246542E-01 -0.13081520056E+00  0.13370833036E+00  0.19557024048E-01 0.  0.
         14    1    1    2    0    0  0.20506565603E-01  0.10274362669E-02  0.37756995843E-02  0.20876560192E-01  0.00000000000E+00 0.  1.
     999901    1    3    3    0    0 -0.11409121078E-01  0.16294810275E-01  0.12703950097E+00  0.88934510944E+00  0.88000000000E+00 0.  1.
        -11    1    4    4    0    0 -0.12905115527E-01 -0.11598203291E-01 -0.57326297626E-01  0.59896793293E-01  0.51100000000E-03 0. -1.
         11    1    4    4    0    0  0.38076710021E-02 -0.57240432507E-02 -0.73488902931E-01  0.73811537070E-01  0.51100000000E-03 0.  1.
</event>
<event>
 7    1  0.1234557E+005  0.1043930E+01  0.7957747E-01            NaN
         13   -1    0    0    0    0  0.00000000000E+00  0.00000000000E+00  0.74505805969E-08  0.10566000000E+00  0.10566000000E+00 0.  1.
     999900   -1    0    0    0    0 -0.00000000000E+00 -0.00000000000E+00 -0.74505805969E-08  0.93827000000E+00  0.93827000000E+00 0.  1.
     999903    2    1    2    0    0  0.32868923945E-01 -0.11072253294E+00  0.15050710086E-01  0.11805171747E+00  0.19231189821E-01 0.  0.
         14    1    1    2    0    0 -0.38515823475E-01  0.10152636301E-01 -0.43421592840E-02  0.40067431026E-01  0.00000000000E+00 0.  1.
     999901    1    1    2    0    0  0.56468995291E-02  0.10056989664E+00 -0.10708550802E-01  0.88581085151E+00  0.88000000000E+00 0. -1.
        -11    1    3    3    0    0  0.20337342017E-01 -0.38353093258E-01  0.91382629033E-02  0.44365935273E-01  0.51100000000E-03 0. -1.
         11    1    3    3    0    0  0.12531581928E-01 -0.72369439679E-01  0.59124471826E-02  0.73685782196E-01  0.51100000000E-03 0.  1.
</event>
<event>
 8    1  0.1176534E+005  0.1043930E+01  0.7957747E-01            NaN
         13   -1    0    0    0    0  0.00000000000E+00  0.00000000000E+00  0.74505805969E-08  0.10566000000E+00  0.10566000000E+00 0.  1.
     999900   -1    0    0    0    0 -0.00000000000E+00 -0.00000000000E+00 -0.74505805969E-08  0.93827000000E+00  0.93827000000E+00 0.  1.
     999902    2    1    2    0    0 -0.31904641632E-02 -0.21912398984E-01 -0.71748493460E-02  0.10206531713E+01  0.10203877132E+01 0.  0.
     999903    2    3    3    0    0  0.89634284676E-01  0.37755366773E-01  0.82758432436E-01  0.12921350905E+00  0.19682481378E-01 0.  0.
         14    1    1    2    0    0  0.31904641632E-02  0.21912398984E-01  0.71748493460E-02  0.23276828692E-01  0.00000000000E+00 0.  1.
     999901    1    3    3    0    0 -0.92824748839E-01 -0.59667765757E-01 -0.89933281782E-01  0.89143966225E+00  0.88000000000E+00 0. -1.
        -11    1    4    4    0    0  0.50275914312E-01  0.17965475783E-01  0.57345141323E-01  0.78352742353E-01  0.51100000000E-03 0.  1.
         11    1    4    4    0    0  0.39358370365E-01  0.19789890990E-01  0.25413291113E-01  0.50860766700E-01  0.51100000000E-03 0. -1.
</event>
<event>
 8    1  0.1176534E+005  0.1043930E+01  0.7957747E-01            NaN
         13   -1    0    0    0    0  0.00000000000E+00  0.00000000000E+00  0.74505805969E-08  0.10566000000E+00  0.10566000000E+00 0.  1.
     999900   -1    0    0    0    0 -0.00000000000E+00 -0.00000000000E+00 -0.74505805969E-08  0.93827000000E+00  0.93827000000E+00 0. -1.
     999902    2    1    2    0    0 -0.91630152732E-02 -0.20757996359E-01  0.10082831717E-02  0.10212171865E+01  0.10209645783E+01 0.  0.
     999903    2    3    3    0    0  0.97124878630E-01 -0.54056781718E-01  0.68324661000E-01  0.13164570528E+00  0.17520123242E-01 0.  0.
         14    1    1    2    0    0  0.91630152732E-02  0.20757996359E-01 -0.10082831717E-02  0.22712813492E-01  0.00000000000E+00 0. -1.
     999901    1    3    3    0    0 -0.10628789390E+00  0.33298785359E-01 -0.67316377829E-01  0.88957148123E+00  0.88000000000E+00 0. -1.
        -11    1    4    4    0    0  0.12281533615E-01 -0.79677047116E-03  0.84901486924E-02  0.14960436389E-01  0.51100000000E-03 0.  1.
         11    1    4    4    0    0  0.84843345014E-01 -0.53260011247E-01  0.59834512308E-01  0.11668526889E+00  0.51100000000E-03 0. -1.
</event>
<event>
 8    1  0.1176534E+005  0.1043930E+01  0.7957747E-01            NaN
         13   -1    0    0    0    0  0.00000000000E+00  0.00000000000E+00  0.74505805969E-08  0.10566000000E+00  0.10566000000E+00 0. -1.
     999900   -1    0    0    0    0 -0.00000000000E+00 -0.00000000000E+00 -0.74505805969E-08  0.93827000000E+00  0.93827000000E+00 0.  1.
     999902    2    1    2    0    0  0.21663039224E-02  0.38157067482E-03 -0.23511442094E-01  0.10203158860E+01  0.10200425878E+01 0.  0.
     999903    2    3    3    0    0  0.11249901265E+00 -0.42445395322E-02 -0.69172310618E-01  0.13223952534E+00  0.53328738225E-02 0.  0.
         14    1    1    2    0    0 -0.21663039224E-02 -0.38157067482E-03  0.23511442094E-01  0.23614113962E-01  0.00000000000E+00 0. -1.
     999901    1    3    3    0    0 -0.11033270873E+00  0.46261102070E-02  0.45660868524E-01  0.88807636070E+00  0.88000000000E+00 0. -1.
        -11    1    4    4    0    0  0.27524521613E-02 -0.76459336366E-03 -0.17278590695E-02  0.33774567171E-02  0.51100000000E-03 0.  1.
         11    1    4    4    0    0  0.10974656049E+00 -0.34799461685E-02 -0.67444451549E-01  0.12886206863E+00  0.51100000000E-03 0. -1.
</event>
<event>
 8    1  0.1176534E+005  0.1043930E+01  0.7957747E-01            NaN
         13   -1    0    0    0    0  0.00000000000E+00  0.00000000000E+00  0.74505805969E-08  0.10566000000E+00  0.10566000000E+00 0.  1.
     999900   -1    0    0    0    0 -0.00000000000E+00 -0.00000000000E+00 -0.74505805969E-08  0.93827000000E+00  0.93827000000E+00 0. -1.
     999902    2    1    2    0    0  0.84486779113E-02  0.18551572306E-01  0.11457610048E-01  0.10205458639E+01  0.10202779241E+01 0.  0.
     999903    2    3    3    0    0 -0.37414361569E-02  0.12985564137E+00 -0.19118131685E-01  0.13292428312E+00  0.20660981155E-01 0.  0.
         14    1    1    2    0    0 -0.84486779113E-02 -0.18551572306E-01 -0.11457610048E-01  0.23384136107E-01  0.00000000000E+00 0.  1.
     999901    1    3    3    0    0  0.12190114068E-01 -0.11130406907E+00  0.30575741733E-01  0.88762158077E+00  0.88000000000E+00 0.  1.
        -11    1    4    4    0    0  0.83679291031E-02  0.67585322457E-01 -0.99688611580E-02  0.68829044471E-01  0.51100000000E-03 0. -1.
         11    1    4    4    0    0 -0.12109365260E-01  0.62270318918E-01 -0.91492705271E-02  0.64095238648E-01  0.51100000000E-03 0.  1.
</event>
<event>
 8    1  0.1176534E+005  0.1043930E+01  0.7957747E-01            NaN
         13   -1    0    0    0    0  0.00000000000E+00  0.00000000000E+00  0.74505805969E-08  0.10566000000E+00  0.10566000000E+00 0. -1.
     999900   -1    0    0    0    0 -0.00000000000E+00 -0.00000000000E+00 -0.74505805969E-08  0.93827000000E+00  0.93827000000E+00 0.  1.
     999902    2    1    2    0    0 -0.15915148560E-01  0.62401144201E-02 -0.44959949987E-03  0.10268293240E+01  0.10266869179E+01 0.  0.
     999903    2    3    3    0    0 -0.16207473980E-01  0.21258395543E-01 -0.13243200781E+00  0.13686022880E+00  0.21860556757E-01 0.  0.
         14    1    1    2    0    0  0.15915148560E-01 -0.62401144201E-02  0.44959949987E-03  0.17100676050E-01  0.00000000000E+00 0.  1.
     999901    1    3    3    0    0  0.29232542060E-03 -0.15018281123E-01  0.13198240831E+00  0.88996909515E+00  0.88000000000E+00 0. -1.
        -11    1    4    4    0    0  0.14872178018E-02 -0.77640161442E-03 -0.43701212956E-01  0.43736389324E-01  0.51100000000E-03 0. -1.
         11    1    4    4    0    0 -0.17694691782E-01  0.22034797158E-01 -0.88730794849E-01  0.93123839475E-01  0.51100000000E-03 0.  1.
</event>
<event>
 8    1  0.1176534E+005  0.1043930E+01  0.7957747E-01            NaN
         13   -1    0    0    0    0  0.00000000000E+00  0.00000000000E+00  0.74505805969E-08  0.10566000000E+00  0.10566000000E+00 0. -1.
     999900   -1    0    0    0    0 -0.00000000000E+00 -0.00000000000E+00 -0.74505805969E-08  0.93827000000E+00  0.93827000000E+00 0. -1.
     999902    2    1    2    0    0 -0.39366183592E-02 -0.16836792437E-01  0.16362308122E-01  0.10201245454E+01  0.10198467475E+01 0.  0.
     999903    2    3    3    0    0  0.57801657732E-01  0.23486959972E-01  0.11414229703E+00  0.13164351237E+00  0.20220817310E-01 0.  0.
         14    1    1    2    0    0  0.39366183592E-02  0.16836792437E-01 -0.16362308122E-01  0.23805454643E-01  0.00000000000E+00 0.  1.
     999901    1    3    3    0    0 -0.61738276092E-01 -0.40323752409E-01 -0.97779988910E-01  0.88848103299E+00  0.88000000000E+00 0. -1.
        -11    1    4    4    0    0  0.27302071393E-01  0.17039293790E-01  0.74903091073E-01  0.81525914951E-01  0.51100000000E-03 0. -1.
         11    1    4    4    0    0  0.30499586339E-01  0.64476661815E-02  0.39239205959E-01  0.50117597421E-01  0.51100000000E-03 0.  1.
</event>
<event>
 8    1  0.1176534E+005  0.1043930E+01  0.7957747E-01            NaN
         13   -1    0    0    0    0  0.00000000000E+00  0.00000000000E+00  0.74505805969E-08  0.10566000000E+00  0.10566000000E+00 0. -1.
     999900   -1    0    0    0    0 -0.00000000000E+00 -0.00000000000E+00 -0.74505805969E-08  0.93827000000E+00  0.93827000000E+00 0. -1.
     999902    2    1    2    0    0 -0.45910244549E-02  0.19564470088E-01 -0.15543149136E-01  0.10185245777E+01  0.10182076802E+01 0.  0.
     999903    2    3    3    0    0 -0.11634197625E+00 -0.49515258604E-01 -0.14214286375E-01  0.12877065107E+00  0.19814599864E-01 0.  0.
         14    1    1    2    0    0  0.45910244549E-02 -0.19564470088E-01  0.15543149136E-01  0.25405422264E-01  0.00000000000E+00 0. -1.
     999901    1    3    3    0    0  0.11175095179E+00  0.69079728692E-01 -0.13288627615E-02  0.88975392667E+00  0.88000000000E+00 0.  1.
        -11    1    4    4    0    0 -0.28966818104E-01 -0.13646636394E-01 -0.12281010642E-01  0.34298565266E-01  0.51100000000E-03 0. -1.
         11    1    4    4    0    0 -0.87375158143E-01 -0.35868622210E-01 -0.19332757329E-02  0.94472085803E-01  0.51100000000E-03 0.  1.
</event>
<event>
 8    1  0.1176534E+005  0.1043930E+01  0.7957747E-01            NaN
         13   -1    0    0    0    0  0.00000000000E+00  0.00000000000E+00  0.74505805969E-08  0.10566000000E+00  0.10566000000E+00 0. -1.
     999900   -1    0    0    0    0 -0.00000000000E+00 -0.00000000000E+00 -0.74505805969E-08  0.93827000000E+00  0.93827000000E+00 0.  1.
     999902    2    1    2    0    0 -0.10670843940E-01 -0.18639547393E-01  0.78349549533E-02  0.10210676695E+01  0.10208116866E+01 0.  0.
     999903    2    3    3    0    0 -0.11634273664E+00  0.33902966778E-01  0.48821604338E-01  0.13224419425E+00  0.20492299474E-01 0.  0.
         14    1    1    2    0    0  0.10670843940E-01  0.18639547393E-01 -0.78349549533E-02  0.22862330514E-01  0.00000000000E+00 0.  1.
     999901    1    3    3    0    0  0.10567189270E+00 -0.52542514170E-01 -0.40986649385E-01  0.88882347524E+00  0.88000000000E+00 0.  1.
        -11    1    4    4    0    0 -0.98148701049E-02  0.84666585453E-02  0.86214785057E-02  0.15575846517E-01  0.51100000000E-03 0. -1.
         11    1    4    4    0    0 -0.10652786653E+00  0.25436308233E-01  0.40200125832E-01  0.11666834773E+00  0.51100000000E-03 0.  1.
</event>
<event>
 8    1  0.1176534E+005  0.1043930E+01  0.7957747E-01            NaN
         13   -1    0    0    0    0  0.00000000000E+00  0.00000000000E+00  0.74505805969E-08  0.10566000000E+00  0.10566000000E+00 0.  1.
     999900   -1    0    0    0    0 -0.00000000000E+00 -0.00000000000E+00 -0.74505805969E-08  0.93827000000E+00  0.93827000000E+00 0. -1.
     999902    2    1    2    0    0  0.57932267663E-03  0.89480688749E-02 -0.24492608635E-01  0.10178476031E+01  0.10175133668E+01 0.  0.
     999903    2    3    3    0    0 -0.58166873398E-01 -0.35249934993E-01 -0.10984900397E+00  0.13066650921E+00  0.19518962008E-01 0.  0.
         14    1    1    2    0    0 -0.57932267663E-03 -0.89480688749E-02  0.24492608635E-01  0.26082396920E-01  0.00000000000E+00 0.  1.
     999901    1    3    3    0    0  0.58746196074E-01  0.44198003868E-01  0.85356395334E-01  0.88718109387E+00  0.88000000000E+00 0.  1.
        -11    1    4    4    0    0 -0.37334954124E-01 -0.13439926885E-01 -0.72575199862E-01  0.82716087856E-01  0.51100000000E-03 0.  1.
         11    1    4    4    0    0 -0.20831919273E-01 -0.21810008109E-01 -0.37273804106E-01  0.47950421352E-01  0.51100000000E-03 0. -1.
</event>
<event>
 8    1  0.1176534E+005  0.1043930E+01  0.7957747E-01            NaN
         13   -1    0    0    0    0  0.00000000000E+00  0.00000000000E+00  0.74505805969E-08  0.10566000000E+00  0.10566000000E+00 0. -1.
     999900   -1    0    0    0    0 -0.00000000000E+00 -0.00000000000E+00 -0.74505805969E-08  0.93827000000E+00  0.93827000000E+00 0. -1.
     999902    2    1    2    0    0 -0.22374272530E-01 -0.60497158965E-02  0.57966540098E-02  0.10200384046E+01  0.10197585687E+01 0.  0.
     999903    2    3    3    0    0 -0.11332606892E-01 -0.10196183260E+00 -0.78574329730E-01  0.13074682394E+00  0.19903853722E-01 0.  0.
         14    1    1    2    0    0  0.22374272530E-01  0.60497158965E-02 -0.57966540098E-02  0.23891595413E-01  0.00000000000E+00 0. -1.
     999901    1    3    3    0    0 -0.11041665638E-01  0.95912116700E-01  0.84370983740E-01  0.88929158065E+00  0.88000000000E+00 0.  1.
        -11    1    4    4    0    0 -0.99500427858E-02 -0.56294403110E-01 -0.55008494944E-01  0.79336364990E-01  0.51100000000E-03 0.  1.
         11    1    4    4    0    0 -0.13825641059E-02 -0.45667429487E-01 -0.23565834786E-01  0.51410458951E-01  0.51100000000E-03 0. -1.
</event>
<event>
 8    1  0.1176534E+005  0.1043930E+01  0.7957747E-01            NaN
         13   -1    0    0    0    0  0.00000000000E+00  0.00000000000E+00  0.74505805969E-08  0.10566000000E+00  0.10566000000E+00 0.  1.
     999900   -1    0    0    0    0 -0.00000000000E+00 -0.00000000000E+00 -0.74505805969E-08  0.93827000000E+00  0.93827000000E+00 0. -1.
     999902    2    1    2    0    0  0.20898701736E-01  0.10956575656E-01 -0.21937692056E-02  0.10202315843E+01  0.10199563082E+01 0.  0.
     999903    2    3    3    0    0  0.17959748606E-01 -0.56102686942E-01  0.11421255188E+00  0.13003159903E+00  0.19840506227E-01 0.  0.
         14    1    1    2    0    0 -0.20898701736E-01 -0.10956575656E-01  0.21937692056E-02  0.23698415721E-01  0.00000000000E+00 0.  1.
     999901    1    3    3    0    0  0.29389531302E-02  0.67059262598E-01 -0.11640632109E+00  0.89019998525E+00  0.88000000000E+00 0. -1.
        -11    1    4    4    0    0 -0.39802128353E-02 -0.77826553172E-02  0.11904495851E-01  0.14778022887E-01  0.51100000000E-03 0.  1.
         11    1    4    4    0    0  0.21939961441E-01 -0.48320031625E-01  0.10230805603E+00  0.11525357614E+00  0.51100000000E-03 0. -1.
</event>
<event>
 8    1  0.1176534E+005  0.1043930E+01  0.7957747E-01            NaN
         13   -1    0    0    0    0  0.00000000000E+00  0.00000000000E+00  0.74505805969E-08  0.10566000000E+00  0.10566000000E+00 0.  1.
     999900   -1    0    0    0    0 -0.00000000000E+00 -0.00000000000E+00 -0.74505805969E-08  0.93827000000E+00  0.93827000000E+00 0. -1.
     999902    2    1    2    0    0 -0.21384709642E-01 -0.77198054505E-02 -0.57338619392E-02  0.10204826467E+01  0.10202132394E+01 0.  0.
     999903    2    3    3    0    0  0.49319349961E-01  0.11702764485E+00  0.79315745826E-02  0.12877208015E+00  0.19785621317E-01 0.  0.
         14    1    1    2    0    0  0.21384709642E-01  0.77198054505E-02  0.57338619392E-02  0.23447353271E-01  0.00000000000E+00 0. -1.
     999901    1    3    3    0    0 -0.70704059603E-01 -0.12474745030E+00 -0.13665436522E-01  0.89171056658E+00  0.88000000000E+00 0. -1.
        -11    1    4    4    0    0  0.37021936459E-01  0.79636114153E-01  0.14033936083E-01  0.88936758089E-01  0.51100000000E-03 0. -1.
         11    1    4    4    0    0  0.12297413502E-01  0.37391530694E-01 -0.61023615004E-02  0.39835322057E-01  0.51100000000E-03 0.  1.
</event>
<event>
 8    1  0.1176534E+005  0.1043930E+01  0.7957747E-01            NaN
         13   -1    0    0    0    0  0.00000000000E+00  0.00000000000E+00  0.74505805969E-08  0.10566000000E+00  0.10566000000E+00 0.  1.
     999900   -1    0    0    0    0 -0.00000000000E+00 -0.00000000000E+00 -0.74505805969E-08  0.93827000000E+00  0.93827000000E+00 0.  1.
     999902    2    1    2    0    0  0.89098627200E-02 -0.75542970866E-02 -0.20911234387E-01  0.10199772803E+01  0.10196959937E+01 0.  0.
     999903    2    3    3    0    0 -0.57307537108E-01 -0.92890424531E-01  0.65885889776E-01  0.12913456720E+00  0.20542667701E-01 0.  0.
         14    1    1    2    0    0 -0.89098627200E-02  0.75542970866E-02  0.20911234387E-01  0.23952719715E-01  0.00000000000E+00 0.  1.
     999901    1    3    3    0    0  0.66217399828E-01  0.85336127445E-01 -0.86797124164E-01  0.89084271308E+00  0.88000000000E+00 0.  1.
        -11    1    4    4    0    0 -0.43901293831E-01 -0.55665641908E-01  0.35768552988E-01  0.79408046147E-01  0.51100000000E-03 0.  1.
         11    1    4    4    0    0 -0.13406243277E-01 -0.37224782623E-01  0.30117336789E-01  0.49726521057E-01  0.51100000000E-03 0. -1.
</event>
<event>
 8    1  0.1176534E+005  0.1043930E+01  0.7957747E-01            NaN
         13   -1    0    0    0    0  0.00000000000E+00  0.00000000000E+00  0.74505805969E-08  0.10566000000E+00  0.10566000000E+00 0. -1.
     999900   -1    0    0    0    0 -0.00000000000E+00 -0.00000000000E+00 -0.74505805969E-08  0.93827000000E+00  0.93827000000E+00 0.  1.
     999902    2    1    2    0    0 -0.21878938323E-01  0.10950824575E-01 -0.75228443366E-02  0.10183330922E+01  0.10180113384E+01 0.  0.
     999903    2    3    3    0    0 -0.24405398393E-01 -0.72722484689E-02 -0.12601293859E+00  0.13020113928E+00  0.20605021478E-01 0.  0.
         14    1    1    2    0    0  0.21878938323E-01 -0.10950824575E-01  0.75228443366E-02  0.25596907780E-01  0.00000000000E+00 0. -1.
     999901    1    3    3    0    0  0.25264600705E-02  0.18223073044E-01  0.11849009425E+00  0.88813195294E+00  0.88000000000E+00 0. -1.
        -11    1    4    4    0    0 -0.10841742133E-01 -0.36652674841E-02 -0.18394546583E-01  0.21670210502E-01  0.51100000000E-03 0. -1.
         11    1    4    4    0    0 -0.13563656260E-01 -0.36069809848E-02 -0.10761839201E+00  0.10853092878E+00  0.51100000000E-03 0.  1.
</event>
<event>
 8    1  0.1176534E+005  0.1043930E+01  0.7957747E-01            NaN
         13   -1    0    0    0    0  0.00000000000E+00  0.00000000000E+00  0.74505805969E-08  0.10566000000E+00  0.10566000000E+00 0.  1.
     999900   -1    0    0    0    0 -0.00000000000E+00 -0.00000000000E+00 -0.74505805969E-08  0.93827000000E+00  0.93827000000E+00 0.  1.
     999902    2    1    2    0    0  0.91833189807E-02 -0.19464548566E-01 -0.99165647890E-02  0.10202331594E+01  0.10199579203E+01 0.  0.
     999903    2    3    3    0    0  0.15609208743E-01  0.65085249298E-01  0.10770379110E+00  0.12836741359E+00  0.19958686889E-01 0.  0.
         14    1    1    2    0    0 -0.91833189807E-02  0.19464548566E-01  0.99165647890E-02  0.23696840624E-01  0.00000000000E+00 0.  1.
     999901    1    3    3    0    0 -0.64258897625E-02 -0.84549797863E-01 -0.11762035589E+00  0.89186574578E+00  0.88000000000E+00 0.  1.
        -11    1    4    4    0    0  0.12014732544E-01  0.14742924808E-01  0.24037118233E-01  0.30655371535E-01  0.51100000000E-03 0. -1.
         11    1    4    4    0    0  0.35944761995E-02  0.50342324490E-01  0.83666672865E-01  0.97712042060E-01  0.51100000000E-03 0.  1.
</event>
<event>
 8    1  0.1176534E+005  0.1043930E+01  0.7957747E-01            NaN
         13   -1    0    0    0    0  0.00000000000E+00  0.00000000000E+00  0.74505805969E-08  0.10566000000E+00  0.10566000000E+00 0. -1.
     999900   -1    0    0    0    0 -0.00000000000E+00 -0.00000000000E+00 -0.74505805969E-08  0.93827000000E+00  0.93827000000E+00 0. -1.
     999902    2    1    2    0    0 -0.17240453504E-01  0.11159029180E-01 -0.16164408251E-01  0.10177948653E+01  0.10174592585E+01 0.  0.
     999903    2    3    3    0    0  0.45410139873E-01 -0.10732119234E+00 -0.46630840927E-01  0.12712609231E+00  0.20166528976E-01 0.  0.
         14    1    1    2    0    0  0.17240453504E-01 -0.11159029180E-01  0.16164408251E-01  0.26135134653E-01  0.00000000000E+00 0. -1.
     999901    1    3    3    0    0 -0.62650593377E-01  0.11848022152E+00  0.30466432676E-01  0.89066877304E+00  0.88000000000E+00 0. -1.
        -11    1    4    4    0    0  0.26816965613E-01 -0.44494509198E-01 -0.27940929212E-01  0.58990402946E-01  0.51100000000E-03 0.  1.
         11    1    4    4    0    0  0.18593174260E-01 -0.62826683146E-01 -0.18689911715E-01  0.68135689364E-01  0.51100000000E-03 0. -1.
</event>
<event>
 8    1  0.1176534E+005  0.1043930E+01  0.7957747E-01            NaN
         13   -1    0    0    0    0  0.00000000000E+00  0.00000000000E+00  0.74505805969E-08  0.10566000000E+00  0.10566000000E+00 0.  1.
     999900   -1    0    0    0    0 -0.00000000000E+00 -0.00000000000E+00 -0.74505805969E-08  0.93827000000E+00  0.93827000000E+00 0. -1.
     999902    2    1    2    0    0 -0.63649011139E-02 -0.19634354960E-01  0.10685294003E-01  0.10206878966E+01  0.10204232391E+01 0.  0.
     999903    2    3    3    0    0 -0.43295342467E-01  0.11169494835E+00  0.44948324014E-01  0.12951720668E+00  0.20102408518E-01 0.  0.
         14    1    1    2    0    0  0.63649011139E-02  0.19634354960E-01 -0.10685294003E-01  0.23242103364E-01  0.00000000000E+00 0.  1.
     999901    1    3    3    0    0  0.36930441353E-01 -0.13132930331E+00 -0.34263030011E-01  0.89117068995E+00  0.88000000000E+00 0. -1.
        -11    1    4    4    0    0 -0.31259607739E-01  0.57387206293E-01  0.18479513649E-01  0.67913239267E-01  0.51100000000E-03 0. -1.
         11    1    4    4    0    0 -0.12035734728E-01  0.54307742060E-01  0.26468810365E-01  0.61603967414E-01  0.51100000000E-03 0.  1.
</event>
<event>
 8    1  0.1176534E+005  0.1043930E+01  0.7957747E-01            NaN
         13   -1    0    0    0    0  0.00000000000E+00  0.00000000000E+00  0.74505805969E-08  0.10566000000E+00  0.10566000000E+00 0.  1.
     999900   -1    0    0    0    0 -0.00000000000E+00 -0.00000000000E+00 -0.74505805969E-08  0.93827000000E+00  0.93827000000E+00 0.  1.
     999902    2    1    2    0    0  0.20416009353E-01  0.12319223630E-01  0.30701764546E-02  0.10198883134E+01  0.10196049084E+01 0.  0.
     999903    2    3    3    0    0 -0.77102466204E-01  0.59757519193E-01  0.83067613224E-01  0.12963001675E+00  0.19696737797E-01 0.  0.
         14    1    1    2    0    0 -0.20416009353E-01 -0.12319223630E-01 -0.30701764546E-02  0.24041686550E-01  0.00000000000E+00 0.  1.
     999901    1    3    3    0    0  0.97518475556E-01 -0.47438295564E-01 -0.79997436769E-01  0.89025829670E+00  0.88000000000E+00 0.  1.
        -11    1    4    4    0    0 -0.13805887607E-01  0.10606292707E-01  0.25807491488E-01  0.31134927582E-01  0.51100000000E-03 0.  1.
         11    1    4    4    0    0 -0.63296578597E-01  0.49151226486E-01  0.57260121736E-01  0.98495089164E-01  0.51100000000E-03 0. -1.
</event>
<event>
 8    1  0.1176534E+005  0.1043930E+01  0.7957747E-01            NaN
         13   -1    0    0    0    0  0.00000000000E+00  0.00000000000E+00  0.74505805969E-08  0.10566000000E+00  0.10566000000E+00 0. -1.
     999900   -1    0    0    0    0 -0.00000000000E+00 -0.00000000000E+00 -0.74505805969E-08  0.93827000000E+00  0.93827000000E+00 0. -1.
     999902    2    1    2    0    0 -0.11649909148E-01  0.19739942680E-01  0.35335877362E-02  0.10207379332E+01  0.10204744271E+01 0.  0.
     999903    2    3    3    0    0  0.62128064678E-01  0.91312238227E-01  0.71240137776E-01  0.13217169491E+00  0.14013508995E-01 0.  0.
         14    1    1    2    0    0  0.11649909148E-01 -0.19739942680E-01 -0.35335877362E-02  0.23192066800E-01  0.00000000000E+00 0.  1.
     999901    1    3    3    0    0 -0.73777973826E-01 -0.71572295547E-01 -0.67706550040E-01  0.88856623829E+00  0.88000000000E+00 0. -1.
        -11    1    4    4    0    0  0.19585990039E-01  0.36209037047E-01  0.20261334387E-01  0.45885598632E-01  0.51100000000E-03 0.  1.
         11    1    4    4    0    0  0.42542074639E-01  0.55103201179E-01  0.50978803390E-01  0.86286096278E-01  0.51100000000E-03 0. -1.
</event>
<event>
 8    1  0.1176534E+005  0.1043930E+01  0.7957747E-01            NaN
         13   -1    0    0    0    0  0.00000000000E+00  0.00000000000E+00  0.74505805969E-08  0.10566000000E+00  0.10566000000E+00 0.  1.
     999900   -1    0    0    0    0 -0.00000000000E+00 -0.00000000000E+00 -0.74505805969E-08  0.93827000000E+00  0.93827000000E+00 0. -1.
     999902    2    1    2    0    0 -0.23403963510E-01 -0.54711542188E-02  0.36612572248E-02  0.10196177841E+01  0.10193278873E+01 0.  0.
     999903    2    3    3    0    0  0.12114793308E+00  0.16878494950E-01  0.28524828175E-01  0.12719806516E+00  0.20099171058E-01 0.  0.
         14    1    1    2    0    0  0.23403963510E-01  0.54711542188E-02 -0.36612572248E-02  0.24312215879E-01  0.00000000000E+00 0.  1.
     999901    1    3    3    0    0 -0.14455189659E+00 -0.22349649169E-01 -0.24863570950E-01  0.89241971896E+00  0.88000000000E+00 0.  1.
        -11    1    4    4    0    0  0.28703629570E-01  0.84972187004E-02  0.14686024791E-01  0.33347286565E-01  0.51100000000E-03 0. -1.
         11    1    4    4    0    0  0.92444303511E-01  0.83812762494E-02  0.13838803384E-01  0.93850778597E-01  0.51100000000E-03 0.  1.
</event>
<event>
 8    1  0.1176534E+005  0.1043930E+01  0.7957747E-01            NaN
         13   -1    0    0    0    0  0.00000000000E+00  0.00000000000E+00  0.74505805969E-08  0.10566000000E+00  0.10566000000E+00 0. -1.
     999900   -1    0    0    0    0 -0.00000000000E+00 -0.00000000000E+00 -0.74505805969E-08  0.93827000000E+00  0.93827000000E+00 0. -1.
     999902    2    1    2    0    0  0.17430965072E-01  0.28738870901E-02 -0.15379426592E-01  0.10205072646E+01  0.10202384293E+01 0.  0.
     999903    2    3    3    0    0  0.14348064148E-01  0.59512705138E-01 -0.11643632606E+00  0.13290940696E+00  0.18970066319E-01 0.  0.
         14    1    1    2    0    0 -0.17430965072E-01 -0.28738870901E-02  0.15379426592E-01  0.23422735380E-01  0.00000000000E+00 0. -1.
     999901    1    3    3    0    0  0.30829009246E-02 -0.56638818048E-01  0.10105689946E+00  0.88759785766E+00  0.88000000000E+00 0.  1.
        -11    1    4    4    0    0  0.80802827258E-02  0.32675682498E-01 -0.83059545841E-01  0.89622209703E-01  0.51100000000E-03 0. -1.
         11    1    4    4    0    0  0.62677814218E-02  0.26837022640E-01 -0.33376780215E-01  0.43287197261E-01  0.51100000000E-03 0.  1.
</event>
<event>
 8    1  0.1176534E+005  0.1043930E+01  0.7957747E-01            NaN
         13   -1    0    0    0    0  0.00000000000E+00  0.00000000000E+00  0.74505805969E-08  0.10566000000E+00  0.10566000000E+00 0. -1.
     999900   -1    0    0    0    0 -0.00000000000E+00 -0.00000000000E+00 -0.74505805969E-08  0.93827000000E+00  0.93827000000E+00 0.  1.
     999902    2    1    2    0    0  0.15897239221E-01 -0.16718474038E-01 -0.62598715881E-03  0.10208514071E+01  0.10205905026E+01 0.  0.
     999903    2    3    3    0    0  0.66216486228E-01 -0.93170743589E-01  0.67103039754E-01  0.13351595916E+00  0.16071182163E-01 0.  0.
         14    1    1    2    0    0 -0.15897239221E-01  0.16718474038E-01  0.62598715881E-03  0.23078592872E-01  0.00000000000E+00 0. -1.
     999901    1    3    3    0    0 -0.50319247008E-01  0.76452269551E-01 -0.67729026913E-01  0.88733544797E+00  0.88000000000E+00 0.  1.
        -11    1    4    4    0    0  0.54793520154E-01 -0.65916058525E-01  0.46837129614E-01  0.97679242697E-01  0.51100000000E-03 0. -1.
         11    1    4    4    0    0  0.11422966074E-01 -0.27254685064E-01  0.20265910140E-01  0.35836716461E-01  0.51100000000E-03 0.  1.
</event>
<event>
 7    1  0.1176534E+005  0.1043930E+01  0.7957747E-01            NaN
         13   -1    0    0    0    0  0.00000000000E+00  0.00000000000E+00  0.74505805969E-08  0.10566000000E+00  0.10566000000E+00 0. -1.
     999900   -1    0    0    0    0 -0.00000000000E+00 -0.00000000000E+00 -0.74505805969E-08  0.93827000000E+00  0.93827000000E+00 0. -1.
     999903    2    1    2    0    0 -0.90907576239E-01 -0.48936941279E-01  0.24257150769E-01  0.10798416449E+00  0.20326307540E-01 0.  0.
         14    1    1    2    0    0  0.25574538913E-01 -0.39846007149E-01 -0.12588150578E-01  0.48992069372E-01  0.00000000000E+00 0.  1.
     999901    1    1    2    0    0  0.65333037326E-01  0.88782948428E-01 -0.11669000191E-01  0.88695376614E+00  0.88000000000E+00 0. -1.
        -11    1    3    3    0    0 -0.68383151572E-01 -0.44643628604E-01  0.13997118361E-01  0.82858249060E-01  0.51100000000E-03 0. -1.
         11    1    3    3    0    0 -0.22524424667E-01 -0.42933126754E-02  0.10260032407E-01  0.25125915432E-01  0.51100000000E-03 0.  1.
</event>
<event>
 8    1  0.1176534E+005  0.1043930E+01  0.7957747E-01            NaN
         13   -1    0    0    0    0  0.00000000000E+00  0.00000000000E+00  0.74505805969E-08  0.10566000000E+00  0.10566000000E+00 0.  1.
     999900   -1    0    0    0    0 -0.00000000000E+00 -0.00000000000E+00 -0.74505805969E-08  0.93827000000E+00  0.93827000000E+00 0.  1.
     999902    2    1    2    0    0  0.62957971237E-02 -0.18323630447E-01 -0.83926678809E-02  0.10228153281E+01  0.10225973626E+01 0.  0.
     999903    2    3    3    0    0 -0.28158838831E-01  0.12564732551E+00  0.10975173235E-02  0.13040016593E+00  0.20562784831E-01 0.  0.
         14    1    1    2    0    0 -0.62957971237E-02  0.18323630447E-01  0.83926678809E-02  0.21114671874E-01  0.00000000000E+00 0.  1.
     999901    1    3    3    0    0  0.34454635955E-01 -0.14397095595E+00 -0.94901852044E-02  0.89241516219E+00  0.88000000000E+00 0.  1.
        -11    1    4    4    0    0 -0.23389738685E-01  0.95776706290E-01 -0.77022784722E-02  0.98893091559E-01  0.51100000000E-03 0.  1.
         11    1    4    4    0    0 -0.47691001462E-02  0.29870619216E-01  0.87997957957E-02  0.31507074374E-01  0.51100000000E-03 0. -1.
</event>
<event>
 8    1  0.1176534E+005  0.1043930E+01  0.7957747E-01            NaN
         13   -1    0    0    0    0  0.00000000000E+00  0.00000000000E+00  0.74505805969E-08  0.10566000000E+00  0.10566000000E+00 0. -1.
     999900   -1    0    0    0    0 -0.00000000000E+00 -0.00000000000E+00 -0.74505805969E-08  0.93827000000E+00  0.93827000000E+00 0. -1.
     999902    2    1    2    0    0  0.20637884795E-01  0.70658573032E-03 -0.12033935092E-01  0.10200294321E+01  0.10197493835E+01 0.  0.
     999903    2    3    3    0    0  0.10757716534E+00  0.32439013392E-01  0.65872665625E-01  0.13175311028E+00  0.19862978101E-01 0.  0.
         14    1    1    2    0    0 -0.20637884795E-01 -0.70658573032E-03  0.12033935092E-01  0.23900567901E-01  0.00000000000E+00 0. -1.
     999901    1    3    3    0    0 -0.86939280549E-01 -0.31732427662E-01 -0.77906600717E-01  0.88827632182E+00  0.88000000000E+00 0. -1.
        -11    1    4    4    0    0  0.19335625995E-01  0.13209840922E-01  0.94123619992E-02  0.25243217093E-01  0.51100000000E-03 0. -1.
         11    1    4    4    0    0  0.88241539348E-01  0.19229172470E-01  0.56460303625E-01  0.10650989319E+00  0.51100000000E-03 0.  1.
</event>
<event>
 8    1  0.1176534E+005  0.1043930E+01  0.7957747E-01            NaN
         13   -1    0    0    0    0  0.00000000000E+00  0.00000000000E+00  0.74505805969E-08  0.10566000000E+00  0.10566000000E+00 0. -1.
     999900   -1    0    0    0    0 -0.00000000000E+00 -0.00000000000E+00 -0.74505805969E-08  0.93827000000E+00  0.93827000000E+00 0.  1.
     999902    2    1    2    0    0 -0.12834565614E-01  0.75370702796E-02 -0.18682549810E-01  0.10200433684E+01  0.10197636502E+01 0.  0.
     999903    2    3    3    0    0 -0.83612388198E-01  0.54860919659E-01  0.81301241448E-01  0.13029857047E+00  0.19159165932E-01 0.  0.
         14    1    1    2    0    0  0.12834565614E-01 -0.75370702796E-02  0.18682549810E-01  0.23886631623E-01  0.00000000000E+00 0. -1.
     999901    1    3    3    0    0  0.70777822584E-01 -0.47323849380E-01 -0.99983791258E-01  0.88974479791E+00  0.88000000000E+00 0.  1.
        -11    1    4    4    0    0 -0.21347300234E-01  0.14297357813E-01  0.32333066512E-01  0.41301452502E-01  0.51100000000E-03 0. -1.
         11    1    4    4    0    0 -0.62265087964E-01  0.40563561846E-01  0.48968174936E-01  0.88997117967E-01  0.51100000000E-03 0.  1.
</event>
<event>
 8    1  0.1176534E+005  0.1043930E+01  0.7957747E-01            NaN
         13   -1    0    0    0    0  0.00000000000E+00  0.00000000000E+00  0.74505805969E-08  0.10566000000E+00  0.10566000000E+00 0. -1.
     999900   -1    0    0    0    0 -0.00000000000E+00 -0.00000000000E+00 -0.74505805969E-08  0.93827000000E+00  0.93827000000E+00 0. -1.
     999902    2    1    2    0    0 -0.13972952362E-01  0.20361071288E-01 -0.70471782171E-02  0.10182496701E+01  0.10179257887E+01 0.  0.
     999903    2    3    3    0    0 -0.69771904328E-01  0.10992457658E+00 -0.10211831638E-01  0.13193981485E+00  0.18769711458E-01 0.  0.
         14    1    1    2    0    0  0.13972952362E-01 -0.20361071288E-01  0.70471782171E-02  0.25680329876E-01  0.00000000000E+00 0. -1.
     999901    1    3    3    0    0  0.55798951966E-01 -0.89563505291E-01  0.31646534211E-02  0.88630985527E+00  0.88000000000E+00 0.  1.
        -11    1    4    4    0    0 -0.31707344064E-01  0.34067794521E-01 -0.64056892912E-02  0.46981531131E-01  0.51100000000E-03 0. -1.
         11    1    4    4    0    0 -0.38064560263E-01  0.75856782058E-01 -0.38061423470E-02  0.84958283721E-01  0.51100000000E-03 0.  1.
</event>
<event>
 8    1  0.1176534E+005  0.1043930E+01  0.7957747E-01            NaN
         13   -1    0    0    0    0  0.00000000000E+00  0.00000000000E+00  0.74505805969E-08  0.10566000000E+00  0.10566000000E+00 0.  1.
     999900   -1    0    0    0    0 -0.00000000000E+00 -0.00000000000E+00 -0.74505805969E-08  0.93827000000E+00  0.93827000000E+00 0.  1.
     999902    2    1    2    0    0  0.13786294587E-01  0.49404516435E-02  0.18346113895E-01  0.10204555484E+01  0.10201855108E+01 0.  0.
     999903    2    3    3    0    0 -0.39084394353E-01  0.71958632521E-01 -0.97225373765E-01  0.12880342173E+00  0.20782527957E-01 0.  0.
         14    1    1    2    0    0 -0.13786294587E-01 -0.49404516435E-02 -0.18346113895E-01  0.23474451558E-01  0.00000000000E+00 0.  1.
     999901    1    3    3    0    0  0.52870688940E-01 -0.67018180878E-01  0.11557148766E+00  0.89165212672E+00  0.88000000000E+00 0. -1.
        -11    1    4    4    0    0 -0.17292450207E-01  0.51851781911E-01 -0.59106253719E-01  0.80507431155E-01  0.51100000000E-03 0. -1.
         11    1    4    4    0    0 -0.21791944146E-01  0.20106850610E-01 -0.38119120046E-01  0.48295990571E-01  0.51100000000E-03 0.  1.
</event>
<event>
 8    1  0.1176534E+005  0.1043930E+01  0.7957747E-01            NaN
         13   -1    0    0    0    0  0.00000000000E+00  0.00000000000E+00  0.74505805969E-08  0.10566000000E+00  0.10566000000E+00 0.  1.
     999900   -1    0    0    0    0 -0.00000000000E+00 -0.00000000000E+00 -0.74505805969E-08  0.93827000000E+00  0.93827000000E+00 0.  1.
     999902    2    1    2    0    0 -0.20863344948E-01  0.22562118373E-02  0.10883329942E-01  0.10202906996E+01  0.10200168112E+01 0.  0.
     999903    2    3    3    0    0 -0.48571690912E-01  0.29919053631E-01 -0.11554277145E+00  0.13039377050E+00  0.19951050690E-01 0.  0.
         14    1    1    2    0    0  0.20863344948E-01 -0.22562118373E-02 -0.10883329942E-01  0.23639300431E-01  0.00000000000E+00 0. -1.
     999901    1    3    3    0    0  0.27708345964E-01 -0.27662841793E-01  0.12642610139E+00  0.88989692907E+00  0.88000000000E+00 0. -1.
        -11    1    4    4    0    0 -0.18856616787E-01  0.22805895000E-01 -0.63122724143E-01  0.69716714406E-01  0.51100000000E-03 0. -1.
         11    1    4    4    0    0 -0.29715074125E-01  0.71131586310E-02 -0.52420047304E-01  0.60677056095E-01  0.51100000000E-03 0.  1.
</event>
<event>
 8    1  0.1176534E+005  0.1043930E+01  0.7957747E-01            NaN
         13   -1    0    0    0    0  0.00000000000E+00  0.00000000000E+00  0.74505805969E-08  0.10566000000E+00  0.10566000000E+00 0. -1.
     999900   -1    0    0    0    0 -0.00000000000E+00 -0.00000000000E+00 -0.74505805969E-08  0.93827000000E+00  0.93827000000E+00 0.  1.
     999902    2    1    2    0    0 -0.94050377237E-02 -0.42754653457E-02  0.20375172150E-01  0.10210852637E+01  0.10208296791E+01 0.  0.
     999903    2    3    3    0    0  0.11372613023E+00  0.60000719132E-01  0.32053835935E-02  0.13002549346E+00  0.19042990108E-01 0.  0.
         14    1    1    2    0    0  0.94050377237E-02  0.42754653457E-02 -0.20375172150E-01  0.22844736345E-01  0.00000000000E+00 0.  1.
     999901    1    3    3    0    0 -0.12313116796E+00 -0.64276184478E-01  0.17169788557E-01  0.89105977019E+00  0.88000000000E+00 0.  1.
        -11    1    4    4    0    0  0.10559295382E+00  0.60713674087E-01  0.31477618502E-02  0.12184494919E+00  0.51100000000E-03 0. -1.
         11    1    4    4    0    0  0.81331764144E-02 -0.71295495481E-03  0.57621743328E-04  0.81805442741E-02  0.51100000000E-03 0.  1.
</event>
<event>
 8    1  0.1176534E+005  0.1043930E+01  0.7957747E-01            NaN
         13   -1    0    0    0    0  0.00000000000E+00  0.00000000000E+00  0.74505805969E-08  0.10566000000E+00  0.10566000000E+00 0.  1.
     999900   -1    0    0    0    0 -0.00000000000E+00 -0.00000000000E+00 -0.74505805969E-08  0.93827000000E+00  0.93827000000E+00 0.  1.
     999902    2    1    2    0    0 -0.13947882743E-01 -0.14727462478E-01  0.12030917786E-01  0.10203464344E+01  0.10200738511E+01 0.  0.
     999903    2    3    3    0    0  0.80460137069E-01 -0.13314238837E-01 -0.97285377377E-01  0.12857015987E+00  0.20365135537E-01 0.  0.
         14    1    1    2    0    0  0.13947882743E-01  0.14727462478E-01 -0.12030917786E-01  0.23583565609E-01  0.00000000000E+00 0. -1.
     999901    1    3    3    0    0 -0.94408019812E-01 -0.14132236413E-02  0.10931629516E+00  0.89177627452E+00  0.88000000000E+00 0. -1.
        -11    1    4    4    0    0  0.23509284497E-01 -0.13204871556E-01 -0.27898331310E-01  0.38802488338E-01  0.51100000000E-03 0. -1.
         11    1    4    4    0    0  0.56950852573E-01 -0.10936728097E-03 -0.69387046067E-01  0.89767671535E-01  0.51100000000E-03 0.  1.
</event>
<event>
 7    1  0.1176534E+005  0.1043930E+01  0.7957747E-01            NaN
         13   -1    0    0    0    0  0.00000000000E+00  0.00000000000E+00  0.74505805969E-08  0.10566000000E+00  0.10566000000E+00 0. -1.
     999900   -1    0    0    0    0 -0.00000000000E+00 -0.00000000000E+00 -0.74505805969E-08  0.93827000000E+00  0.93827000000E+00 0. -1.
     999902    2    1    2    0    0  0.11353376578E-01  0.16338891683E-01 -0.11870194140E-01  0.10207619174E+01  0.10204989623E+01 0.  0.
         14    1    1    2    0    0 -0.11353376578E-01 -0.16338891683E-01  0.11870194140E-01  0.23168082573E-01  0.00000000000E+00 0. -1.
     999901    1    3    3    0    0  0.45847914246E-01  0.12511415045E+00  0.29095681248E-01  0.89050667631E+00  0.88000000000E+00 0.  1.
        -11    1    3    3    0    0 -0.19816575235E-01 -0.78227028066E-01 -0.50303180550E-02  0.80856229165E-01  0.51100000000E-03 0. -1.
         11    1    3    3    0    0 -0.14677962433E-01 -0.30548230701E-01 -0.35935557333E-01  0.49399011954E-01  0.51100000000E-03 0.  1.
</event>
<event>
 8    1  0.1176534E+005  0.1043930E+01  0.7957747E-01            NaN
         13   -1    0    0    0    0  0.00000000000E+00  0.00000000000E+00  0.74505805969E-08  0.10566000000E+00  0.10566000000E+00 0. -1.
     999900   -1    0    0    0    0 -0.00000000000E+00 -0.00000000000E+00 -0.74505805969E-08  0.93827000000E+00  0.93827000000E+00 0.  1.
     999902    2    1    2    0    0  0.15437573382E-01 -0.26697330723E-02 -0.17356941847E-01  0.10205481785E+01  0.10202802924E+01 0.  0.
     999903    2    3    3    0    0 -0.35288343356E-01  0.11269887134E-01 -0.12552738078E+00  0.13236560971E+00  0.19780135854E-01 0.  0.
         14    1    1    2    0    0 -0.15437573382E-01  0.26697330723E-02  0.17356941847E-01  0.23381821505E-01  0.00000000000E+00 0. -1.
     999901    1    3    3    0    0  0.50725916737E-01 -0.13939620206E-01  0.10817043893E+00  0.88818256879E+00  0.88000000000E+00 0. -1.
        -11    1    4    4    0    0 -0.37474087945E-01  0.12202929371E-01 -0.11519969687E+00  0.12175569816E+00  0.51100000000E-03 0.  1.
         11    1    4    4    0    0  0.21857445894E-02 -0.93304223715E-03 -0.10327683908E-01  0.10609911551E-01  0.51100000000E-03 0. -1.
</event>
<event>
 8    1  0.1176534E+005  0.1043930E+01  0.7957747E-01            NaN
         13   -1    0    0    0    0  0.00000000000E+00  0.00000000000E+00  0.74505805969E-08  0.10566000000E+00  0.10566000000E+00 0. -1.
     999900   -1    0    0    0    0 -0.00000000000E+00 -0.00000000000E+00 -0.74505805969E-08  0.93827000000E+00  0.93827000000E+00 0. -1.
     999902    2    1    2    0    0 -0.19057879984E-01  0.20761685507E-01 -0.14357125344E-01  0.10123012564E+01  0.10118070252E+01 0.  0.
     999903    2    3    3    0    0  0.36387808300E-01  0.52130766525E-01  0.10247498127E+00  0.12229677059E+00  0.20339343615E-01 0.  0.
         14    1    1    2    0    0  0.19057879984E-01 -0.20761685507E-01  0.14357125344E-01  0.31628743616E-01  0.00000000000E+00 0. -1.
     999901    1    3    3    0    0 -0.55445688285E-01 -0.31369081018E-01 -0.11683210662E+00  0.89000448579E+00  0.88000000000E+00 0. -1.
        -11    1    4    4    0    0  0.38297435376E-03  0.26596615035E-02  0.16765490037E-01  0.16987149432E-01  0.51100000000E-03 0.  1.
         11    1    4    4    0    0  0.36004833947E-01  0.49471105022E-01  0.85709491238E-01  0.10530962116E+00  0.51100000000E-03 0. -1.
</event>
<event>
 8    1  0.1176534E+005  0.1043930E+01  0.7957747E-01            NaN
         13   -1    0    0    0    0  0.00000000000E+00  0.00000000000E+00  0.74505805969E-08  0.10566000000E+00  0.10566000000E+00 0. -1.
     999900   -1    0    0    0    0 -0.00000000000E+00 -0.00000000000E+00 -0.74505805969E-08  0.93827000000E+00  0.93827000000E+00 0.  1.
     999902    2    1    2    0    0 -0.16797714671E-01 -0.21157718056E-01  0.34764119740E-02  0.10166922010E+01  0.10163272770E+01 0.  0.
     999903    2    3    3    0    0 -0.85151491904E-01  0.81081978936E-01  0.42633048092E-01  0.12727754148E+00  0.23599404529E-01 0.  0.
         14    1    1    2    0    0  0.16797714671E-01  0.21157718056E-01 -0.34764119740E-02  0.27237798952E-01  0.00000000000E+00 0.  1.
     999901    1    3    3    0    0  0.68353777232E-01 -0.10223969699E+00 -0.39156636118E-01  0.88941465957E+00  0.88000000000E+00 0.  1.
        -11    1    4    4    0    0 -0.63561761548E-01  0.45868104652E-01  0.24137799351E-01  0.82017528822E-01  0.51100000000E-03 0. -1.
         11    1    4    4    0    0 -0.21589730355E-01  0.35213874283E-01  0.18495248741E-01  0.45260012658E-01  0.51100000000E-03 0.  1.
</event>
<event>
 8    1  0.1176534E+005  0.1043930E+01  0.7957747E-01            NaN
         13   -1    0    0    0    0  0.00000000000E+00  0.00000000000E+00  0.74505805969E-08  0.10566000000E+00  0.10566000000E+00 0.  1.
     999900   -1    0    0    0    0 -0.00000000000E+00 -0.00000000000E+00 -0.74505805969E-08  0.93827000000E+00  0.93827000000E+00 0. -1.
     999902    2    1    2    0    0 -0.21757751729E-02  0.21172301205E-01  0.71756762648E-02  0.10214691303E+01  0.10212221568E+01 0.  0.
     999903    2    3    3    0    0 -0.87277544542E-01  0.33675153818E-01 -0.90811874808E-01  0.13186236742E+00  0.19735794117E-01 0.  0.
         14    1    1    2    0    0  0.21757751729E-02 -0.21172301205E-01 -0.71756762648E-02  0.22460869657E-01  0.00000000000E+00 0. -1.
     999901    1    3    3    0    0  0.85101769369E-01 -0.12502852614E-01  0.97987551073E-01  0.88960676292E+00  0.88000000000E+00 0. -1.
        -11    1    4    4    0    0 -0.19804395500E-01  0.22945713457E-02 -0.11143597509E-01  0.22845569051E-01  0.51100000000E-03 0.  1.
         11    1    4    4    0    0 -0.67473149041E-01  0.31380582473E-01 -0.79668277299E-01  0.10901679837E+00  0.51100000000E-03 0. -1.
</event>
<event>
 8    1  0.1176534E+005  0.1043930E+01  0.7957747E-01            NaN
         13   -1    0    0    0    0  0.00000000000E+00  0.00000000000E+00  0.74505805969E-08  0.10566000000E+00  0.10566000000E+00 0. -1.
     999900   -1    0    0    0    0 -0.00000000000E+00 -0.00000000000E+00 -0.74505805969E-08  0.93827000000E+00  0.93827000000E+00 0. -1.
     999902    2    1    2    0    0 -0.11864920540E-01  0.16769688801E-01  0.12565706787E-01  0.10198489745E+01  0.10195646301E+01 0.  0.
     999903    2    3    3    0    0 -0.69205627012E-01  0.93722478742E-01  0.61918844551E-01  0.13325694843E+00  0.18712273016E-01 0.  0.
         14    1    1    2    0    0  0.11864920540E-01 -0.16769688801E-01 -0.12565706787E-01  0.24081025497E-01  0.00000000000E+00 0.  1.
     999901    1    3    3    0    0  0.57340706471E-01 -0.76952789941E-01 -0.49353137764E-01  0.88659202608E+00  0.88000000000E+00 0. -1.
        -11    1    4    4    0    0 -0.45712469780E-01  0.49564037312E-01  0.29158075617E-01  0.73462086702E-01  0.51100000000E-03 0. -1.
         11    1    4    4    0    0 -0.23493157232E-01  0.44158441430E-01  0.32760768934E-01  0.59794861723E-01  0.51100000000E-03 0.  1.
</event>
<event>
 8    1  0.1176534E+005  0.1043930E+01  0.7957747E-01            NaN
         13   -1    0    0    0    0  0.00000000000E+00  0.00000000000E+00  0.74505805969E-08  0.10566000000E+00  0.10566000000E+00 0.  1.
     999900   -1    0    0    0    0 -0.00000000000E+00 -0.00000000000E+00 -0.74505805969E-08  0.93827000000E+00  0.93827000000E+00 0. -1.
     999902    2    1    2    0    0 -0.10950738706E-01  0.17788891731E-01  0.99185173902E-02  0.10208055468E+01  0.10205435925E+01 0.  0.
     999903    2    3    3    0    0  0.11089348966E-01  0.98540891580E-01 -0.84355099897E-01  0.13182063927E+00  0.20678904379E-01 0.  0.
         14    1    1    2    0    0  0.10950738706E-01 -0.17788891731E-01 -0.99185173902E-02  0.23124453171E-01  0.00000000000E+00 0. -1.
     999901    1    3    3    0    0 -0.22040087672E-01 -0.80751999849E-01  0.94273617287E-01  0.88898490755E+00  0.88000000000E+00 0.  1.
        -11    1    4    4    0    0  0.14245289610E-01  0.47458579863E-01 -0.48427713582E-01  0.69287442170E-01  0.51100000000E-03 0. -1.
         11    1    4    4    0    0 -0.31559406441E-02  0.51082311717E-01 -0.35927386315E-01  0.62533197104E-01  0.51100000000E-03 0.  1.
</event>
<event>
 8    1  0.1176534E+005  0.1043930E+01  0.7957747E-01            NaN
         13   -1    0    0    0    0  0.00000000000E+00  0.00000000000E+00  0.74505805969E-08  0.10566000000E+00  0.10566000000E+00 0.  1.
     999900   -1    0    0    0    0 -0.00000000000E+00 -0.00000000000E+00 -0.74505805969E-08  0.93827000000E+00  0.93827000000E+00 0.  1.
     999902    2    1    2    0    0  0.11638201853E-01  0.20561637882E-01  0.20700275647E-02  0.10202126285E+01  0.10199369067E+01 0.  0.
     999903    2    3    3    0    0  0.68210751688E-01 -0.69402559959E-01 -0.83527616413E-01  0.12969538169E+00  0.19354775973E-01 0.  0.
         14    1    1    2    0    0 -0.11638201853E-01 -0.20561637882E-01 -0.20700275647E-02  0.23717371459E-01  0.00000000000E+00 0.  1.
     999901    1    3    3    0    0 -0.56572549835E-01  0.89964197841E-01  0.85597643978E-01  0.89051724685E+00  0.88000000000E+00 0. -1.
        -11    1    4    4    0    0  0.54415396612E-01 -0.43278181878E-01 -0.55412830406E-01  0.88909388198E-01  0.51100000000E-03 0.  1.
         11    1    4    4    0    0  0.13795355076E-01 -0.26124378081E-01 -0.28114786008E-01  0.40785993491E-01  0.51100000000E-03 0. -1.
</event>
<event>
 8    1  0.1176534E+005  0.1043930E+01  0.7957747E-01            NaN
         13   -1    0    0    0    0  0.00000000000E+00  0.00000000000E+00  0.74505805969E-08  0.10566000000E+00  0.10566000000E+00 0.  1.
     999900   -1    0    0    0    0 -0.00000000000E+00 -0.00000000000E+00 -0.74505805969E-08  0.93827000000E+00  0.93827000000E+00 0.  1.
     999902    2    1    2    0    0  0.18993692022E-01  0.62912471455E-02 -0.77337166187E-02  0.10224788811E+01  0.10222538393E+01 0.  0.
     999903    2    3    3    0    0  0.42590549851E-01  0.97850916446E-01  0.77333914085E-01  0.13333519954E+00  0.20223362329E-01 0.  0.
         14    1    1    2    0    0 -0.18993692022E-01 -0.62912471455E-02  0.77337166187E-02  0.21451118852E-01  0.00000000000E+00 0.  1.
     999901    1    3    3    0    0 -0.23596857829E-01 -0.91559669300E-01 -0.85067630703E-01  0.88914368160E+00  0.88000000000E+00 0.  1.
        -11    1    4    4    0    0  0.27978759610E-01  0.73642261300E-01  0.46430068342E-01  0.91444004757E-01  0.51100000000E-03 0. -1.
         11    1    4    4    0    0  0.14611790241E-01  0.24208655146E-01  0.30903845743E-01  0.41891194787E-01  0.51100000000E-03 0.  1.
</event>
<event>
 8    1  0.1176534E+005  0.1043930E+01  0.7957747E-01            NaN
         13   -1    0    0    0    0  0.00000000000E+00  0.00000000000E+00  0.74505805969E-08  0.10566000000E+00  0.10566000000E+00 0. -1.
     999900   -1    0    0    0    0 -0.00000000000E+00 -0.00000000000E+00 -0.74505805969E-08  0.93827000000E+00  0.93827000000E+00 0. -1.
     999902    2    1    2    0    0 -0.21764799050E-02  0.15885501762E-01 -0.17017952411E-01  0.10205484488E+01  0.10202805690E+01 0.  0.
     999903    2    3    3    0    0 -0.67765589069E-02 -0.55713573777E-01  0.11320610172E+00  0.12807666069E+00  0.20930491922E-01 0.  0.
         14    1    1    2    0    0  0.21764799050E-02 -0.15885501762E-01  0.17017952411E-01  0.23381551173E-01  0.00000000000E+00 0. -1.
     999901    1    3    3    0    0  0.46000790019E-02  0.71599075539E-01 -0.13022405414E+00  0.89247178814E+00  0.88000000000E+00 0. -1.
        -11    1    4    4    0    0  0.27653582031E-02 -0.39962092189E-01  0.89472504966E-01  0.98031659601E-01  0.51100000000E-03 0. -1.
         11    1    4    4    0    0 -0.95419171100E-02 -0.15751481587E-01  0.23733596759E-01  0.30045001089E-01  0.51100000000E-03 0.  1.
</event>
<event>
 8    1  0.1176534E+005  0.1043930E+01  0.7957747E-01            NaN
         13   -1    0    0    0    0  0.00000000000E+00  0.00000000000E+00  0.74505805969E-08  0.10566000000E+00  0.10566000000E+00 0. -1.
     999900   -1    0    0    0    0 -0.00000000000E+00 -0.00000000000E+00 -0.74505805969E-08  0.93827000000E+00  0.93827000000E+00 0.  1.
     999902    2    1    2    0    0  0.23855573864E-02 -0.10061002293E-01  0.20723954470E-01  0.10207697552E+01  0.10205069800E+01 0.  0.
     999903    2    3    3    0    0  0.52180768519E-01 -0.41104688024E-01 -0.10899638204E+00  0.12932674568E+00  0.20803073569E-01 0.  0.
         14    1    1    2    0    0 -0.23855573864E-02  0.10061002293E-01 -0.20723954470E-01  0.23160244819E-01  0.00000000000E+00 0.  1.
     999901    1    3    3    0    0 -0.49795211133E-01  0.31043685731E-01  0.12972033651E+00  0.89144300950E+00  0.88000000000E+00 0. -1.
        -11    1    4    4    0    0  0.47727095677E-01 -0.28040111179E-01 -0.81007210824E-01  0.98114997952E-01  0.51100000000E-03 0.  1.
         11    1    4    4    0    0  0.44536728419E-02 -0.13064576845E-01 -0.27989171220E-01  0.31211747732E-01  0.51100000000E-03 0. -1.
</event>
<event>
 8    1  0.1176534E+005  0.1043930E+01  0.7957747E-01            NaN
         13   -1    0    0    0    0  0.00000000000E+00  0.00000000000E+00  0.74505805969E-08  0.10566000000E+00  0.10566000000E+00 0.  1.
     999900   -1    0    0    0    0 -0.00000000000E+00 -0.00000000000E+00 -0.74505805969E-08  0.93827000000E+00  0.93827000000E+00 0.  1.
     999902    2    1    2    0    0 -0.88159521757E-02 -0.15216636810E-01  0.17075064962E-01  0.10194182703E+01  0.10191235376E+01 0.  0.
     999903    2    3    3    0    0  0.59416684777E-01 -0.20637678825E-01 -0.10944405585E+00  0.12773886135E+00  0.19569341366E-01 0.  0.
         14    1    1    2    0    0  0.88159521757E-02  0.15216636810E-01 -0.17075064962E-01  0.24511729682E-01  0.00000000000E+00 0. -1.
     999901    1    3    3    0    0 -0.68232636952E-01  0.54210420151E-02  0.12651912081E+00  0.89167940897E+00  0.88000000000E+00 0. -1.
        -11    1    4    4    0    0  0.32074825114E-01 -0.21307593387E-01 -0.63054739758E-01  0.73884837883E-01  0.51100000000E-03 0. -1.
         11    1    4    4    0    0  0.27341859662E-01  0.66991456201E-03 -0.46389316093E-01  0.53854023470E-01  0.51100000000E-03 0.  1.
</event>
<event>
 8    1  0.1176534E+005  0.1043930E+01  0.7957747E-01            NaN
         13   -1    0    0    0    0  0.00000000000E+00  0.00000000000E+00  0.74505805969E-08  0.10566000000E+00  0.10566000000E+00 0.  1.
     999900   -1    0    0    0    0 -0.00000000000E+00 -0.00000000000E+00 -0.74505805969E-08  0.93827000000E+00  0.93827000000E+00 0. -1.
     999902    2    1    2    0    0  0.18922768190E-02 -0.57968439615E-02  0.23442889935E-01  0.10197070109E+01  0.10194192636E+01 0.  0.
     999903    2    3    3    0    0 -0.58417513924E-01 -0.10310140808E+00 -0.49044037857E-01  0.12933641181E+00  0.16735695073E-01 0.  0.
         14    1    1    2    0    0 -0.18922768190E-02  0.57968439615E-02 -0.23442889935E-01  0.24222989081E-01  0.00000000000E+00 0. -1.
     999901    1    3    3    0    0  0.60309790743E-01  0.97304564118E-01  0.72486927792E-01  0.89037059911E+00  0.88000000000E+00 0. -1.
        -11    1    4    4    0    0 -0.27455462921E-01 -0.35707266773E-01 -0.24095154364E-01  0.51084723053E-01  0.51100000000E-03 0.  1.
         11    1    4    4    0    0 -0.30962051003E-01 -0.67394141307E-01 -0.24948883493E-01  0.78251688757E-01  0.51100000000E-03 0. -1.
</event>
<event>
 8    1  0.1176534E+005  0.1043930E+01  0.7957747E-01            NaN
         13   -1    0    0    0    0  0.00000000000E+00  0.00000000000E+00  0.74505805969E-08  0.10566000000E+00  0.10566000000E+00 0. -1.
     999900   -1    0    0    0    0 -0.00000000000E+00 -0.00000000000E+00 -0.74505805969E-08  0.93827000000E+00  0.93827000000E+00 0.  1.
     999902    2    1    2    0    0 -0.70353929359E-02 -0.65579507496E-02 -0.24549490159E-01  0.10175637159E+01  0.10172220677E+01 0.  0.
     999903    2    3    3    0    0  0.18103742075E-01 -0.79761010814E-01 -0.10018984246E+00  0.13093407109E+00  0.20400051839E-01 0.  0.
         14    1    1    2    0    0  0.70353929359E-02  0.65579507496E-02  0.24549490159E-01  0.26366284131E-01  0.00000000000E+00 0. -1.
     999901    1    3    3    0    0 -0.25139135011E-01  0.73203060064E-01  0.75640352305E-01  0.88662964478E+00  0.88000000000E+00 0. -1.
        -11    1    4    4    0    0 -0.11241869885E-02 -0.33705240689E-01 -0.32548897776E-01  0.46872154993E-01  0.51100000000E-03 0.  1.
         11    1    4    4    0    0  0.19227929064E-01 -0.46055770124E-01 -0.67640944688E-01  0.84061916092E-01  0.51100000000E-03 0. -1.
</event>
<event>
 8    1  0.1176534E+005  0.1043930E+01  0.7957747E-01            NaN
         13   -1    0    0    0    0  0.00000000000E+00  0.00000000000E+00  0.74505805969E-08  0.10566000000E+00  0.10566000000E+00 0. -1.
     999900   -1    0    0    0    0 -0.00000000000E+00 -0.00000000000E+00 -0.74505805969E-08  0.93827000000E+00  0.93827000000E+00 0. -1.
     999902    2    1    2    0    0  0.92042899212E-02 -0.19898953245E-01 -0.82355082464E-02  0.10205096907E+01  0.10202409117E+01 0.  0.
     999903    2    3    3    0    0  0.18707755256E-01 -0.17306933824E-01 -0.12833563467E+00  0.13229739916E+00  0.19571832667E-01 0.  0.
         14    1    1    2    0    0 -0.92042899212E-02  0.19898953245E-01  0.82355082464E-02  0.23420309334E-01  0.00000000000E+00 0. -1.
     999901    1    3    3    0    0 -0.95034653350E-02 -0.25920194218E-02  0.12010012642E+00  0.88821229151E+00  0.88000000000E+00 0.  1.
        -11    1    4    4    0    0 -0.13126822502E-02 -0.18426405706E-02 -0.48338039010E-01  0.48393652428E-01  0.51100000000E-03 0.  1.
         11    1    4    4    0    0  0.20020437506E-01 -0.15464293253E-01 -0.79997595656E-01  0.83903746731E-01  0.51100000000E-03 0. -1.
</event>
<event>
 8    1  0.1176534E+005  0.1043930E+01  0.7957747E-01            NaN
         13   -1    0    0    0    0  0.00000000000E+00  0.00000000000E+00  0.74505805969E-08  0.10566000000E+00  0.10566000000E+00 0.  1.
     999900   -1    0    0    0    0 -0.00000000000E+00 -0.00000000000E+00 -0.74505805969E-08  0.93827000000E+00  0.93827000000E+00 0.  1.
     999902    2    1    2    0    0 -0.14862521698E-01 -0.14498560952E-01 -0.91688596640E-02  0.10212326255E+01  0.10209803645E+01 0.  0.
     999903    2    3    3    0    0 -0.17601797454E-01  0.39459843217E-01 -0.12347001688E+00  0.13219732388E+00  0.19088867787E-01 0.  0.
         14    1    1    2    0    0  0.14862521698E-01  0.14498560952E-01  0.91688596640E-02  0.22697374484E-01  0.00000000000E+00 0.  1.
     999901    1    3    3    0    0  0.27392757558E-02 -0.53958404169E-01  0.11430115721E+00  0.88903530163E+00  0.88000000000E+00 0. -1.
        -11    1    4    4    0    0 -0.20450514820E-01  0.31504555937E-01 -0.87094331967E-01  0.94849588206E-01  0.51100000000E-03 0.  1.
         11    1    4    4    0    0  0.28487173656E-02  0.79552872802E-02 -0.36375684911E-01  0.37347735676E-01  0.51100000000E-03 0. -1.
</event>
<event>
 8    1  0.1176534E+005  0.1043930E+01  0.7957747E-01            NaN
         13   -1    0    0    0    0  0.00000000000E+00  0.00000000000E+00  0.74505805969E-08  0.10566000000E+00  0.10566000000E+00 0.  1.
     999900   -1    0    0    0    0 -0.00000000000E+00 -0.00000000000E+00 -0.74505805969E-08  0.93827000000E+00  0.93827000000E+00 0. -1.
     999902    2    1    2    0    0  0.52720211370E-03 -0.80688766235E-02  0.22498170032E-01  0.10200228386E+01  0.10197426336E+01 0.  0.
     999903    2    3    3    0    0  0.47860339726E-01 -0.64701577902E-01 -0.98179751740E-01  0.12872555397E+00  0.21309582131E-01 0.  0.
         14    1    1    2    0    0 -0.52720211370E-03  0.80688766235E-02 -0.22498170032E-01  0.23907161412E-01  0.00000000000E+00 0. -1.
     999901    1    3    3    0    0 -0.47333137612E-01  0.56632701278E-01  0.12067792177E+00  0.89129728462E+00  0.88000000000E+00 0.  1.
        -11    1    4    4    0    0  0.49241328193E-01 -0.56737482888E-01 -0.87641524362E-01  0.11543460608E+00  0.51100000000E-03 0.  1.
         11    1    4    4    0    0 -0.13809884669E-02 -0.79640950132E-02 -0.10538227378E-01  0.13290947889E-01  0.51100000000E-03 0. -1.
</event>
<event>
 8    1  0.1176534E+005  0.1043930E+01  0.7957747E-01            NaN
         13   -1    0    0    0    0  0.00000000000E+00  0.00000000000E+00  0.74505805969E-08  0.10566000000E+00  0.10566000000E+00 0. -1.
     999900   -1    0    0    0    0 -0.00000000000E+00 -0.00000000000E+00 -0.74505805969E-08  0.93827000000E+00  0.93827000000E+00 0. -1.
     999902    2    1    2    0    0 -0.11387198350E-01  0.17772290088E-01 -0.11334008417E-01  0.10199720717E+01  0.10196906613E+01 0.  0.
     999903    2    3    3    0    0  0.97746709604E-01 -0.57388656254E-01 -0.57950108915E-01  0.12883098381E+00  0.19782066632E-01 0.  0.
         14    1    1    2    0    0  0.11387198350E-01 -0.17772290088E-01  0.11334008417E-01  0.23957928292E-01  0.00000000000E+00 0. -1.
     999901    1    3    3    0    0 -0.10913390795E+00  0.75160946342E-01  0.46616100498E-01  0.89114108790E+00  0.88000000000E+00 0.  1.
        -11    1    4    4    0    0  0.51572273803E-01 -0.19401131834E-01 -0.31230070101E-01  0.63337838147E-01  0.51100000000E-03 0.  1.
         11    1    4    4    0    0  0.46174435801E-01 -0.37987524421E-01 -0.26720038814E-01  0.65493145659E-01  0.51100000000E-03 0. -1.
</event>
<event>
 8    1  0.1176534E+005  0.1043930E+01  0.7957747E-01            NaN
         13   -1    0    0    0    0  0.00000000000E+00  0.00000000000E+00  0.74505805969E-08  0.10566000000E+00  0.10566000000E+00 0. -1.
     999900   -1    0    0    0    0 -0.00000000000E+00 -0.00000000000E+00 -0.74505805969E-08  0.93827000000E+00  0.93827000000E+00 0. -1.
     999902    2    1    2    0    0  0.24026302484E-01 -0.40375544341E-02  0.25146593340E-02  0.10194373773E+01  0.10191431095E+01 0.  0.
     999903    2    3    3    0    0 -0.12167883559E-01 -0.88895594725E-01  0.92021710553E-01  0.13009918607E+00  0.20182141867E-01 0.  0.
         14    1    1    2    0    0 -0.24026302484E-01  0.40375544341E-02 -0.25146593340E-02  0.24492622735E-01  0.00000000000E+00 0. -1.
     999901    1    3    3    0    0  0.36194186043E-01  0.84858040291E-01 -0.89507051219E-01  0.88933819120E+00  0.88000000000E+00 0. -1.
        -11    1    4    4    0    0  0.30713191172E-02 -0.23212852347E-01  0.33132721497E-01  0.40574719592E-01  0.51100000000E-03 0.  1.
         11    1    4    4    0    0 -0.15239202676E-01 -0.65682742378E-01  0.58888989056E-01  0.89524466475E-01  0.51100000000E-03 0. -1.
</event>
<event>
 8    1  0.1176534E+005  0.1043930E+01  0.7957747E-01            NaN
         13   -1    0    0    0    0  0.00000000000E+00  0.00000000000E+00  0.74505805969E-08  0.10566000000E+00  0.10566000000E+00 0. -1.
     999900   -1    0    0    0    0 -0.00000000000E+00 -0.00000000000E+00 -0.74505805969E-08  0.93827000000E+00  0.93827000000E+00 0. -1.
     999902    2    1    2    0    0  0.15362290455E-01 -0.95402507760E-02 -0.15496417030E-01  0.10201149776E+01  0.10198369537E+01 0.  0.
     999903    2    3    3    0    0  0.57147294095E-01 -0.11761632506E+00  0.27898368167E-02  0.13233076311E+00  0.20105584572E-01 0.  0.
         14    1    1    2    0    0 -0.15362290455E-01  0.95402507760E-02  0.15496417030E-01  0.23815022436E-01  0.00000000000E+00 0. -1.
     999901    1    3    3    0    0 -0.41785003640E-01  0.10807607429E+00 -0.18286253846E-01  0.88778421446E+00  0.88000000000E+00 0. -1.
        -11    1    4    4    0    0  0.37578513362E-01 -0.56612754757E-01 -0.28832284486E-02  0.68012666430E-01  0.51100000000E-03 0. -1.
         11    1    4    4    0    0  0.19568780733E-01 -0.61003570305E-01  0.56730652653E-02  0.64318096675E-01  0.51100000000E-03 0.  1.
</event>
<event>
 8    1  0.1176534E+005  0.1043930E+01  0.7957747E-01            NaN
         13   -1    0    0    0    0  0.00000000000E+00  0.00000000000E+00  0.74505805969E-08  0.10566000000E+00  0.10566000000E+00 0. -1.
     999900   -1    0    0    0    0 -0.00000000000E+00 -0.00000000000E+00 -0.74505805969E-08  0.93827000000E+00  0.93827000000E+00 0. -1.
     999902    2    1    2    0    0  0.22029077932E-01  0.65554698265E-02 -0.65707047392E-02  0.10200254268E+01  0.10197452832E+01 0.  0.
     999903    2    3    3    0    0  0.87718135435E-01 -0.14570610247E-01  0.94844177078E-01  0.13151749673E+00  0.19866052809E-01 0.  0.
         14    1    1    2    0    0 -0.22029077932E-01 -0.65554698265E-02  0.65707047392E-02  0.23904573201E-01  0.00000000000E+00 0.  1.
     999901    1    3    3    0    0 -0.65689057504E-01  0.21126080073E-01 -0.10141488182E+00  0.88850793007E+00  0.88000000000E+00 0. -1.
        -11    1    4    4    0    0  0.13065799782E-01 -0.97345183312E-02  0.16863809981E-01  0.23454747476E-01  0.51100000000E-03 0. -1.
         11    1    4    4    0    0  0.74652335653E-01 -0.48360919156E-02  0.77980367097E-01  0.10806274926E+00  0.51100000000E-03 0.  1.
</event>
<event>
 8    1  0.1176534E+005  0.1043930E+01  0.7957747E-01            NaN
         13   -1    0    0    0    0  0.00000000000E+00  0.00000000000E+00  0.74505805969E-08  0.10566000000E+00  0.10566000000E+00 0. -1.
     999900   -1    0    0    0    0 -0.00000000000E+00 -0.00000000000E+00 -0.74505805969E-08  0.93827000000E+00  0.93827000000E+00 0.  1.
     999902    2    1    2    0    0 -0.64945221707E-02 -0.14241191538E-01 -0.17433279024E-01  0.10205011807E+01  0.10202322041E+01 0.  0.
     999903    2    3    3    0    0 -0.10926339527E+00  0.21098421581E-01 -0.69509655213E-01  0.13228821163E+00  0.16880338539E-01 0.  0.
         14    1    1    2    0    0  0.64945221707E-02  0.14241191538E-01  0.17433279024E-01  0.23428819266E-01  0.00000000000E+00 0. -1.
     999901    1    3    3    0    0  0.10276887310E+00 -0.35339613119E-01  0.52076376189E-01  0.88821296911E+00  0.88000000000E+00 0. -1.
        -11    1    4    4    0    0 -0.30229034535E-01  0.11755092531E-01 -0.26087796679E-01  0.41627046327E-01  0.51100000000E-03 0.  1.
         11    1    4    4    0    0 -0.79034360732E-01  0.93433290498E-02 -0.43421858535E-01  0.90661165301E-01  0.51100000000E-03 0. -1.
</event>
<event>
 8    1  0.1176534E+005  0.1043930E+01  0.7957747E-01            NaN
         13   -1    0    0    0    0  0.00000000000E+00  0.00000000000E+00  0.74505805969E-08  0.10566000000E+00  0.10566000000E+00 0.  1.
     999900   -1    0    0    0    0 -0.00000000000E+00 -0.00000000000E+00 -0.74505805969E-08  0.93827000000E+00  0.93827000000E+00 0.  1.
     999902    2    1    2    0    0 -0.14473207774E-01  0.13894757999E-02 -0.18596167039E-01  0.10203244537E+01  0.10200513561E+01 0.  0.
     999903    2    3    3    0    0  0.17025139112E-01 -0.92750342817E-01 -0.89121513871E-01  0.13193924682E+00  0.23934058627E-01 0.  0.
         14    1    1    2    0    0  0.14473207774E-01 -0.13894757999E-02  0.18596167039E-01  0.23605546273E-01  0.00000000000E+00 0.  1.
     999901    1    3    3    0    0 -0.31498346886E-01  0.94139818617E-01  0.70525346831E-01  0.88838520691E+00  0.88000000000E+00 0. -1.
        -11    1    4    4    0    0  0.92717182794E-02 -0.49018272680E-01 -0.30806286562E-01  0.58634838016E-01  0.51100000000E-03 0.  1.
         11    1    4    4    0    0  0.77534208328E-02 -0.43732070137E-01 -0.58315227309E-01  0.73304408805E-01  0.51100000000E-03 0. -1.
</event>
<event>
 8    1  0.1176534E+005  0.1043930E+01  0.7957747E-01            NaN
         13   -1    0    0    0    0  0.00000000000E+00  0.00000000000E+00  0.74505805969E-08  0.10566000000E+00  0.10566000000E+00 0.  1.
     999900   -1    0    0    0    0 -0.00000000000E+00 -0.00000000000E+00 -0.74505805969E-08  0.93827000000E+00  0.93827000000E+00 0.  1.
     999902    2    1    2    0    0 -0.49241214692E-02  0.16925590029E-01  0.15302554118E-01  0.10205871053E+01  0.10203201207E+01 0.  0.
     999903    2    3    3    0    0  0.68672974424E-01 -0.93474716896E-01  0.54407561978E-01  0.12978187299E+00  0.20728039956E-01 0.  0.
         14    1    1    2    0    0  0.49241214692E-02 -0.16925590029E-01 -0.15302554118E-01  0.23342894692E-01  0.00000000000E+00 0. -1.
     999901    1    3    3    0    0 -0.73597095893E-01  0.11040030692E+00 -0.39105007860E-01  0.89080523232E+00  0.88000000000E+00 0.  1.
        -11    1    4    4    0    0  0.68620085560E-02 -0.33456431661E-02  0.79333571034E-02  0.11021785951E-01  0.51100000000E-03 0. -1.
         11    1    4    4    0    0  0.61810965868E-01 -0.90129073730E-01  0.46474204875E-01  0.11876008704E+00  0.51100000000E-03 0.  1.
</event>
<event>
 8    1  0.1176534E+005  0.1043930E+01  0.7957747E-01            NaN
         13   -1    0    0    0    0  0.00000000000E+00  0.00000000000E+00  0.74505805969E-08  0.10566000000E+00  0.10566000000E+00 0.  1.
     999900   -1    0    0    0    0 -0.00000000000E+00 -0.00000000000E+00 -0.74505805969E-08  0.93827000000E+00  0.93827000000E+00 0. -1.
     999902    2    1    2    0    0 -0.22788580850E-01 -0.80374907796E-02  0.16894017966E-02  0.10197065660E+01  0.10194188080E+01 0.  0.
     999903    2    3    3    0    0 -0.57398726558E-01 -0.11156023161E+00  0.36771360622E-01  0.13226892659E+00  0.20065813954E-01 0.  0.
         14    1    1    2    0    0  0.22788580850E-01  0.80374907796E-02 -0.16894017966E-02  0.24223433977E-01  0.00000000000E+00 0. -1.
     999901    1    3    3    0    0  0.34610145708E-01  0.10352274083E+00 -0.35081958826E-01  0.88743763944E+00  0.88000000000E+00 0. -1.
        -11    1    4    4    0    0 -0.33862430297E-01 -0.44976593020E-01  0.13334703358E-01  0.57858737802E-01  0.51100000000E-03 0.  1.
         11    1    4    4    0    0 -0.23536296261E-01 -0.66583638594E-01  0.23436657264E-01  0.74410188784E-01  0.51100000000E-03 0. -1.
</event>
<event>
 8    1  0.1176534E+005  0.1043930E+01  0.7957747E-01            NaN
         13   -1    0    0    0    0  0.00000000000E+00  0.00000000000E+00  0.74505805969E-08  0.10566000000E+00  0.10566000000E+00 0. -1.
     999900   -1    0    0    0    0 -0.00000000000E+00 -0.00000000000E+00 -0.74505805969E-08  0.93827000000E+00  0.93827000000E+00 0.  1.
     999902    2    1    2    0    0 -0.18793059431E-01  0.96654964844E-02  0.19062678187E-02  0.10227112639E+01  0.10224911220E+01 0.  0.
     999903    2    3    3    0    0 -0.59990233472E-01  0.65647680519E-01  0.99081618078E-01  0.13463792189E+00  0.20043874370E-01 0.  0.
         14    1    1    2    0    0  0.18793059431E-01 -0.96654964844E-02 -0.19062678187E-02  0.21218736109E-01  0.00000000000E+00 0. -1.
     999901    1    3    3    0    0  0.41197174041E-01 -0.55982184034E-01 -0.97175350260E-01  0.88807334200E+00  0.88000000000E+00 0.  1.
        -11    1    4    4    0    0 -0.42147137055E-01  0.54632765136E-01  0.84487715519E-01  0.10908508323E+00  0.51100000000E-03 0.  1.
         11    1    4    4    0    0 -0.17843096417E-01  0.11014915383E-01  0.14593902559E-01  0.25552838659E-01  0.51100000000E-03 0. -1.
</event>
<event>
 8    1  0.1176534E+005  0.1043930E+01  0.7957747E-01            NaN
         13   -1    0    0    0    0  0.00000000000E+00  0.00000000000E+00  0.74505805969E-08  0.10566000000E+00  0.10566000000E+00 0.  1.
     999900   -1    0    0    0    0 -0.00000000000E+00 -0.00000000000E+00 -0.74505805969E-08  0.93827000000E+00  0.93827000000E+00 0.  1.
     999902    2    1    2    0    0 -0.14082974190E-01 -0.19034719844E-01 -0.22192831218E-02  0.10201481595E+01  0.10198709190E+01 0.  0.
     999903    2    3    3    0    0  0.11976488369E-01  0.18817041430E-01 -0.12663807296E+00  0.13020889936E+00  0.20485083000E-01 0.  0.
         14    1    1    2    0    0  0.14082974190E-01  0.19034719844E-01  0.22192831218E-02  0.23781840533E-01  0.00000000000E+00 0. -1.
     999901    1    3    3    0    0 -0.26059462560E-01 -0.37851761273E-01  0.12441878984E+00  0.88993926011E+00  0.88000000000E+00 0. -1.
        -11    1    4    4    0    0 -0.30322952106E-02  0.10614211960E-01 -0.74992270873E-01  0.75802098398E-01  0.51100000000E-03 0.  1.
         11    1    4    4    0    0  0.15008783580E-01  0.82028294694E-02 -0.51645802091E-01  0.54406800958E-01  0.51100000000E-03 0. -1.
</event>
<event>
 8    1  0.1176534E+005  0.1043930E+01  0.7957747E-01            NaN
         13   -1    0    0    0    0  0.00000000000E+00  0.00000000000E+00  0.74505805969E-08  0.10566000000E+00  0.10566000000E+00 0. -1.
     999900   -1    0    0    0    0 -0.00000000000E+00 -0.00000000000E+00 -0.74505805969E-08  0.93827000000E+00  0.93827000000E+00 0. -1.
     999902    2    1    2    0    0 -0.83222026873E-02 -0.14599890167E-01  0.14658130607E-01  0.10216302995E+01  0.10213868964E+01 0.  0.
     999903    2    3    3    0    0 -0.53242008391E-02 -0.29804686758E-01 -0.12538490005E+00  0.13042200492E+00  0.19283665131E-01 0.  0.
         14    1    1    2    0    0  0.83222026873E-02  0.14599890167E-01 -0.14658130607E-01  0.22299700522E-01  0.00000000000E+00 0.  1.
     999901    1    3    3    0    0 -0.29980018482E-02  0.15204796591E-01  0.14004303065E+00  0.89120829456E+00  0.88000000000E+00 0.  1.
        -11    1    4    4    0    0 -0.11269205156E-01 -0.18630233215E-01 -0.95702988426E-01  0.98149904173E-01  0.51100000000E-03 0. -1.
         11    1    4    4    0    0  0.59450043167E-02 -0.11174453543E-01 -0.29681911619E-01  0.32272100747E-01  0.51100000000E-03 0.  1.
</event>
<event>
 8    1  0.1176534E+005  0.1043930E+01  0.7957747E-01            NaN
         13   -1    0    0    0    0  0.00000000000E+00  0.00000000000E+00  0.74505805969E-08  0.10566000000E+00  0.10566000000E+00 0. -1.
     999900   -1    0    0    0    0 -0.00000000000E+00 -0.00000000000E+00 -0.74505805969E-08  0.93827000000E+00  0.93827000000E+00 0.  1.
     999902    2    1    2    0    0  0.20971822923E-01 -0.14820758697E-02  0.97990147324E-02  0.10207344272E+01  0.10204708405E+01 0.  0.
     999903    2    3    3    0    0 -0.46452402640E-01 -0.11312831916E+00  0.40851623607E-01  0.13057984834E+00  0.20649439102E-01 0.  0.
         14    1    1    2    0    0 -0.20971822923E-01  0.14820758697E-02 -0.97990147324E-02  0.23195572753E-01  0.00000000000E+00 0.  1.
     999901    1    3    3    0    0  0.67424225563E-01  0.11164624329E+00 -0.31052608874E-01  0.89015457891E+00  0.88000000000E+00 0.  1.
        -11    1    4    4    0    0 -0.26087280879E-01 -0.77137666329E-01  0.35668110972E-01  0.88900174644E-01  0.51100000000E-03 0. -1.
         11    1    4    4    0    0 -0.20365121761E-01 -0.35990652826E-01  0.51835126347E-02  0.41679673696E-01  0.51100000000E-03 0.  1.
</event>
<event>
 8    1  0.1176534E+005  0.1043930E+01  0.7957747E-01            NaN
         13   -1    0    0    0    0  0.00000000000E+00  0.00000000000E+00  0.74505805969E-08  0.10566000000E+00  0.10566000000E+00 0. -1.
     999900   -1    0    0    0    0 -0.00000000000E+00 -0.00000000000E+00 -0.74505805969E-08  0.93827000000E+00  0.93827000000E+00 0.  1.
     999902    2    1    2    0    0 -0.87834587965E-02 -0.67669011844E-02 -0.17106531051E-01  0.10235443800E+01  0.10233413527E+01 0.  0.
     999903    2    3    3    0    0  0.10936048361E+00  0.43285061819E-01  0.54852439012E-01  0.13133292323E+00  0.20155265003E-01 0.  0.
         14    1    1    2    0    0  0.87834587965E-02  0.67669011844E-02  0.17106531051E-01  0.20385620046E-01  0.00000000000E+00 0. -1.
     999901    1    3    3    0    0 -0.11814394241E+00 -0.50051963003E-01 -0.71958970063E-01  0.89221145672E+00  0.88000000000E+00 0.  1.
        -11    1    4    4    0    0  0.83320958646E-01  0.28905974219E-01  0.32004633954E-01  0.93821613772E-01  0.51100000000E-03 0. -1.
         11    1    4    4    0    0  0.26039524966E-01  0.14379087600E-01  0.22847805058E-01  0.37511309463E-01  0.51100000000E-03 0.  1.
</event>
<event>
 8    1  0.1176534E+005  0.1043930E+01  0.7957747E-01            NaN
         13   -1    0    0    0    0  0.00000000000E+00  0.00000000000E+00  0.74505805969E-08  0.10566000000E+00  0.10566000000E+00 0.  1.
     999900   -1    0    0    0    0 -0.00000000000E+00 -0.00000000000E+00 -0.74505805969E-08  0.93827000000E+00  0.93827000000E+00 0.  1.
     999902    2    1    2    0    0  0.15556593703E-03 -0.20309230393E-01  0.53097564653E-02  0.10229375596E+01  0.10227221364E+01 0.  0.
     999903    2    3    3    0    0 -0.10320232083E+00 -0.79238870850E-01  0.27773520015E-01  0.13464696754E+00  0.20710378445E-01 0.  0.
         14    1    1    2    0    0 -0.15556593703E-03  0.20309230393E-01 -0.53097564653E-02  0.20992440393E-01  0.00000000000E+00 0. -1.
     999901    1    3    3    0    0  0.10335788677E+00  0.58929640457E-01 -0.22463763550E-01  0.88829059207E+00  0.88000000000E+00 0. -1.
        -11    1    4    4    0    0 -0.39086326660E-01 -0.39186243002E-01  0.44359101066E-02  0.55526939335E-01  0.51100000000E-03 0. -1.
         11    1    4    4    0    0 -0.64115994171E-01 -0.40052627848E-01  0.23337609909E-01  0.79120028206E-01  0.51100000000E-03 0.  1.
</event>
<event>
 8    1  0.1176534E+005  0.1043930E+01  0.7957747E-01            NaN
         13   -1    0    0    0    0  0.00000000000E+00  0.00000000000E+00  0.74505805969E-08  0.10566000000E+00  0.10566000000E+00 0.  1.
     999900   -1    0    0    0    0 -0.00000000000E+00 -0.00000000000E+00 -0.74505805969E-08  0.93827000000E+00  0.93827000000E+00 0. -1.
     999902    2    1    2    0    0  0.34783999065E-02  0.62371754359E-03 -0.23570493333E-01  0.10200960653E+01  0.10198175944E+01 0.  0.
     999903    2    3    3    0    0  0.13552278743E-01  0.22490155083E-01 -0.12884082590E+00  0.13349498977E+00  0.23053905107E-01 0.  0.
         14    1    1    2    0    0 -0.34783999065E-02 -0.62371754359E-03  0.23570493333E-01  0.23833934745E-01  0.00000000000E+00 0.  1.
     999901    1    3    3    0    0 -0.10073878836E-01 -0.21866437539E-01  0.10527033257E+00  0.88660107548E+00  0.88000000000E+00 0.  1.
        -11    1    4    4    0    0  0.26759871073E-02  0.11217005218E-01 -0.10005844305E+00  0.10072206938E+00  0.51100000000E-03 0.  1.
         11    1    4    4    0    0  0.10876291636E-01  0.11273149865E-01 -0.28782382849E-01  0.32772920393E-01  0.51100000000E-03 0. -1.
</event>
<event>
 8    1  0.1176534E+005  0.1043930E+01  0.7957747E-01            NaN
         13   -1    0    0    0    0  0.00000000000E+00  0.00000000000E+00  0.74505805969E-08  0.10566000000E+00  0.10566000000E+00 0. -1.
     999900   -1    0    0    0    0 -0.00000000000E+00 -0.00000000000E+00 -0.74505805969E-08  0.93827000000E+00  0.93827000000E+00 0.  1.
     999902    2    1    2    0    0 -0.24503729228E-01  0.65163461007E-02 -0.16574225799E-02  0.10185205025E+01  0.10182035020E+01 0.  0.
     999903    2    3    3    0    0 -0.11245785611E+00 -0.51570468267E-01 -0.39200822310E-01  0.13143566255E+00  0.20792939236E-01 0.  0.
         14    1    1    2    0    0  0.24503729228E-01 -0.65163461007E-02  0.16574225799E-02  0.25409497480E-01  0.00000000000E+00 0. -1.
     999901    1    3    3    0    0  0.87954126883E-01  0.58086814368E-01  0.37543399730E-01  0.88708483997E+00  0.88000000000E+00 0. -1.
        -11    1    4    4    0    0 -0.63399927998E-01 -0.22710470695E-01 -0.12224925711E-01  0.68447251800E-01  0.51100000000E-03 0.  1.
         11    1    4    4    0    0 -0.49057928113E-01 -0.28859997572E-01 -0.26975896600E-01  0.62988410751E-01  0.51100000000E-03 0. -1.
</event>
<event>
 8    1  0.1176534E+005  0.1043930E+01  0.7957747E-01            NaN
         13   -1    0    0    0    0  0.00000000000E+00  0.00000000000E+00  0.74505805969E-08  0.10566000000E+00  0.10566000000E+00 0.  1.
     999900   -1    0    0    0    0 -0.00000000000E+00 -0.00000000000E+00 -0.74505805969E-08  0.93827000000E+00  0.93827000000E+00 0.  1.
     999902    2    1    2    0    0  0.71604810359E-02  0.17915707341E-01 -0.14069721941E-01  0.10200510944E+01  0.10197715592E+01 0.  0.
     999903    2    3    3    0    0 -0.11548669401E+00  0.56228963822E-01  0.90000343110E-02  0.13042058185E+00  0.20728113406E-01 0.  0.
         14    1    1    2    0    0 -0.71604810359E-02 -0.17915707341E-01  0.14069721941E-01  0.23878905622E-01  0.00000000000E+00 0.  1.
     999901    1    3    3    0    0  0.12264717505E+00 -0.38313256481E-01 -0.23069756252E-01  0.88963051253E+00  0.88000000000E+00 0. -1.
        -11    1    4    4    0    0 -0.84043546624E-01  0.41831817333E-01  0.15720980429E-01  0.95187336433E-01  0.51100000000E-03 0. -1.
         11    1    4    4    0    0 -0.31443147390E-01  0.14397146489E-01 -0.67209461179E-02  0.35233245416E-01  0.51100000000E-03 0.  1.
</event>
<event>
 8    1  0.1176534E+005  0.1043930E+01  0.7957747E-01            NaN
         13   -1    0    0    0    0  0.00000000000E+00  0.00000000000E+00  0.74505805969E-08  0.10566000000E+00  0.10566000000E+00 0. -1.
     999900   -1    0    0    0    0 -0.00000000000E+00 -0.00000000000E+00 -0.74505805969E-08  0.93827000000E+00  0.93827000000E+00 0. -1.
     999902    2    1    2    0    0 -0.32115685322E-02  0.24245077420E-01  0.52787907070E-02  0.10189099364E+01  0.10186026973E+01 0.  0.
     999903    2    3    3    0    0  0.10199245791E+00  0.77669960072E-01 -0.16151340712E-01  0.13077630017E+00  0.20161614775E-01 0.  0.
         14    1    1    2    0    0  0.32115685322E-02 -0.24245077420E-01 -0.52787907070E-02  0.25020063606E-01  0.00000000000E+00 0. -1.
     999901    1    3    3    0    0 -0.10520402644E+00 -0.53424882652E-01  0.21430131420E-01  0.88813363623E+00  0.88000000000E+00 0. -1.
        -11    1    4    4    0    0  0.50458373225E-01  0.50440707833E-01 -0.11899324858E-01  0.72333723036E-01  0.51100000000E-03 0.  1.
         11    1    4    4    0    0  0.51534084685E-01  0.27229252239E-01 -0.42520158550E-02  0.58442577130E-01  0.51100000000E-03 0. -1.
</event>
<event>
 8    1  0.1176534E+005  0.1043930E+01  0.7957747E-01            NaN
         13   -1    0    0    0    0  0.00000000000E+00  0.00000000000E+00  0.74505805969E-08  0.10566000000E+00  0.10566000000E+00 0. -1.
     999900   -1    0    0    0    0 -0.00000000000E+00 -0.00000000000E+00 -0.74505805969E-08  0.93827000000E+00  0.93827000000E+00 0. -1.
     999902    2    1    2    0    0 -0.36189797444E-02 -0.69681958093E-02 -0.14111833285E-01  0.10277808017E+01  0.10276539202E+01 0.  0.
     999903    2    3    3    0    0  0.99750063425E-01  0.78104161093E-01 -0.48916791296E-01  0.13697563215E+00  0.17864383495E-01 0.  0.
         14    1    1    2    0    0  0.36189797444E-02  0.69681958093E-02  0.14111833285E-01  0.16149198305E-01  0.00000000000E+00 0. -1.
     999901    1    3    3    0    0 -0.10336904317E+00 -0.85072356903E-01  0.34804958012E-01  0.89080516955E+00  0.88000000000E+00 0.  1.
        -11    1    4    4    0    0  0.28912253578E-01  0.22088688659E-01 -0.22892716997E-01  0.42990303397E-01  0.51100000000E-03 0. -1.
         11    1    4    4    0    0  0.70837809846E-01  0.56015472434E-01 -0.26024074299E-01  0.93985328748E-01  0.51100000000E-03 0.  1.
</event>
<event>
 8    1  0.1176534E+005  0.1043930E+01  0.7957747E-01            NaN
         13   -1    0    0    0    0  0.00000000000E+00  0.00000000000E+00  0.74505805969E-08  0.10566000000E+00  0.10566000000E+00 0. -1.
     999900   -1    0    0    0    0 -0.00000000000E+00 -0.00000000000E+00 -0.74505805969E-08  0.93827000000E+00  0.93827000000E+00 0.  1.
     999902    2    1    2    0    0  0.47972454115E-02 -0.12618185581E-01 -0.19569926924E-01  0.10201557658E+01  0.10198787047E+01 0.  0.
     999903    2    3    3    0    0 -0.31086888217E-01  0.11854173447E+00 -0.38682314189E-01  0.12950663231E+00  0.16034617287E-01 0.  0.
         14    1    1    2    0    0 -0.47972454115E-02  0.12618185581E-01  0.19569926924E-01  0.23774234177E-01  0.00000000000E+00 0. -1.
     999901    1    3    3    0    0  0.35884133629E-01 -0.13115992005E+00  0.19112387265E-01  0.89064913351E+00  0.88000000000E+00 0.  1.
        -11    1    4    4    0    0 -0.65182187541E-02  0.55877563776E-01 -0.18924335227E-01  0.59356388822E-01  0.51100000000E-03 0. -1.
         11    1    4    4    0    0 -0.24568669463E-01  0.62664170696E-01 -0.19757978962E-01  0.70150243491E-01  0.51100000000E-03 0.  1.
</event>
<event>
 8    1  0.1176534E+005  0.1043930E+01  0.7957747E-01            NaN
         13   -1    0    0    0    0  0.00000000000E+00  0.00000000000E+00  0.74505805969E-08  0.10566000000E+00  0.10566000000E+00 0. -1.
     999900   -1    0    0    0    0 -0.00000000000E+00 -0.00000000000E+00 -0.74505805969E-08  0.93827000000E+00  0.93827000000E+00 0.  1.
     999902    2    1    2    0    0 -0.35039774826E-02  0.15744798096E-01  0.16213822682E-01  0.10210593950E+01  0.10208032247E+01 0.  0.
     999903    2    3    3    0    0  0.11210941836E+00 -0.30249276053E-01  0.58114546570E-01  0.13131921790E+00  0.19593266214E-01 0.  0.
         14    1    1    2    0    0  0.35039774826E-02 -0.15744798096E-01 -0.16213822682E-01  0.22870604960E-01  0.00000000000E+00 0.  1.
     999901    1    3    3    0    0 -0.11561339584E+00  0.45994074149E-01 -0.41900723888E-01  0.88974017714E+00  0.88000000000E+00 0. -1.
        -11    1    4    4    0    0  0.51538343620E-01 -0.21824043166E-01  0.34575433434E-01  0.65789143796E-01  0.51100000000E-03 0. -1.
         11    1    4    4    0    0  0.60571074736E-01 -0.84252328876E-02  0.23539113136E-01  0.65530074105E-01  0.51100000000E-03 0.  1.
</event>
<event>
 8    1  0.1176534E+005  0.1043930E+01  0.7957747E-01            NaN
         13   -1    0    0    0    0  0.00000000000E+00  0.00000000000E+00  0.74505805969E-08  0.10566000000E+00  0.10566000000E+00 0. -1.
     999900   -1    0    0    0    0 -0.00000000000E+00 -0.00000000000E+00 -0.74505805969E-08  0.93827000000E+00  0.93827000000E+00 0.  1.
     999902    2    1    2    0    0 -0.14838717776E-02  0.16207386334E-01  0.17718970768E-01  0.10198708402E+01  0.10195870181E+01 0.  0.
     999903    2    3    3    0    0 -0.30389193463E-01 -0.66724544865E-01 -0.10193876538E+00  0.12744090080E+00  0.21771617847E-01 0.  0.
         14    1    1    2    0    0  0.14838717776E-02 -0.16207386334E-01 -0.17718970768E-01  0.24059159842E-01  0.00000000000E+00 0.  1.
     999901    1    3    3    0    0  0.28905321686E-01  0.82931931199E-01  0.11965773615E+00  0.89242993935E+00  0.88000000000E+00 0.  1.
        -11    1    4    4    0    0 -0.42901853593E-02 -0.34975970078E-01 -0.50901397677E-01  0.61910722656E-01  0.51100000000E-03 0. -1.
         11    1    4    4    0    0 -0.26099008104E-01 -0.31748574787E-01 -0.51037367704E-01  0.65530178148E-01  0.51100000000E-03 0.  1.
</event>
<event>
 8    1  0.1176534E+005  0.1043930E+01  0.7957747E-01            NaN
         13   -1    0    0    0    0  0.00000000000E+00  0.00000000000E+00  0.74505805969E-08  0.10566000000E+00  0.10566000000E+00 0. -1.
     999900   -1    0    0    0    0 -0.00000000000E+00 -0.00000000000E+00 -0.74505805969E-08  0.93827000000E+00  0.93827000000E+00 0.  1.
     999902    2    1    2    0    0 -0.32586852512E-02 -0.19206542323E-01  0.13309692098E-01  0.10203363949E+01  0.10200635767E+01 0.  0.
     999903    2    3    3    0    0 -0.60577951515E-01  0.60018386746E-01  0.97650612394E-01  0.13091215501E+00  0.18178428760E-01 0.  0.
         14    1    1    2    0    0  0.32586852512E-02  0.19206542323E-01 -0.13309692098E-01  0.23593605094E-01  0.00000000000E+00 0. -1.
     999901    1    3    3    0    0  0.57319266264E-01 -0.79224929069E-01 -0.84340920296E-01  0.88942423989E+00  0.88000000000E+00 0.  1.
        -11    1    4    4    0    0 -0.42557762224E-02  0.75622247322E-02  0.18858662910E-01  0.20765576368E-01  0.51100000000E-03 0. -1.
         11    1    4    4    0    0 -0.56322175293E-01  0.52456162014E-01  0.78791949484E-01  0.11014657865E+00  0.51100000000E-03 0.  1.
</event>
<event>
 8    1  0.1176534E+005  0.1043930E+01  0.7957747E-01            NaN
         13   -1    0    0    0    0  0.00000000000E+00  0.00000000000E+00  0.74505805969E-08  0.10566000000E+00  0.10566000000E+00 0. -1.
     999900   -1    0    0    0    0 -0.00000000000E+00 -0.00000000000E+00 -0.74505805969E-08  0.93827000000E+00  0.93827000000E+00 0.  1.
     999902    2    1    2    0    0  0.20846109976E-02  0.22313620418E-01 -0.81640476466E-02  0.10200784815E+01  0.10197995948E+01 0.  0.
     999903    2    3    3    0    0 -0.76138256152E-01 -0.81223750863E-01  0.59754499306E-01  0.12797325612E+00  0.20303259334E-01 0.  0.
         14    1    1    2    0    0 -0.20846109976E-02 -0.22313620418E-01  0.81640476466E-02  0.23851518466E-01  0.00000000000E+00 0.  1.
     999901    1    3    3    0    0  0.78222867150E-01  0.10353737128E+00 -0.67918546953E-01  0.89210522542E+00  0.88000000000E+00 0.  1.
        -11    1    4    4    0    0 -0.25714576905E-01 -0.34566497592E-01  0.32902964071E-01  0.54212068646E-01  0.51100000000E-03 0.  1.
         11    1    4    4    0    0 -0.50423679247E-01 -0.46657253271E-01  0.26851535235E-01  0.73761187470E-01  0.51100000000E-03 0. -1.
</event>
<event>
 8    1  0.1176534E+005  0.1043930E+01  0.7957747E-01            NaN
         13   -1    0    0    0    0  0.00000000000E+00  0.00000000000E+00  0.74505805969E-08  0.10566000000E+00  0.10566000000E+00 0.  1.
     999900   -1    0    0    0    0 -0.00000000000E+00 -0.00000000000E+00 -0.74505805969E-08  0.93827000000E+00  0.93827000000E+00 0.  1.
     999902    2    1    2    0    0  0.93390818675E-02  0.17117126901E-01  0.15288477436E-01  0.10191519447E+01  0.10188506928E+01 0.  0.
     999903    2    3    3    0    0 -0.99118681181E-01 -0.77717559032E-01  0.61739036587E-02  0.12738976815E+00  0.18041729464E-01 0.  0.
         14    1    1    2    0    0 -0.93390818675E-02 -0.17117126901E-01 -0.15288477436E-01  0.24778055327E-01  0.00000000000E+00 0. -1.
     999901    1    3    3    0    0  0.10845776305E+00  0.94834685933E-01  0.91145737775E-02  0.89176217652E+00  0.88000000000E+00 0. -1.
        -11    1    4    4    0    0 -0.70554715971E-01 -0.53480955829E-01  0.12441273880E-01  0.89404848855E-01  0.51100000000E-03 0. -1.
         11    1    4    4    0    0 -0.28563965210E-01 -0.24236603203E-01 -0.62673702215E-02  0.37984919295E-01  0.51100000000E-03 0.  1.
</event>
<event>
 8    1  0.1176534E+005  0.1043930E+01  0.7957747E-01            NaN
         13   -1    0    0    0    0  0.00000000000E+00  0.00000000000E+00  0.74505805969E-08  0.10566000000E+00  0.10566000000E+00 0.  1.
     999900   -1    0    0    0    0 -0.00000000000E+00 -0.00000000000E+00 -0.74505805969E-08  0.93827000000E+00  0.93827000000E+00 0. -1.
     999902    2    1    2    0    0 -0.21223981592E-01  0.74256044468E-02 -0.65124113664E-02  0.10205204187E+01  0.10202518887E+01 0.  0.
     999903    2    3    3    0    0 -0.87415269030E-01 -0.84667612276E-01  0.47190065182E-01  0.13161862259E+00  0.16927070978E-01 0.  0.
         14    1    1    2    0    0  0.21223981592E-01 -0.74256044468E-02  0.65124113664E-02  0.23409581325E-01  0.00000000000E+00 0.  1.
     999901    1    3    3    0    0  0.66191287438E-01  0.92093216723E-01 -0.53702476548E-01  0.88890179609E+00  0.88000000000E+00 0. -1.
        -11    1    4    4    0    0 -0.70587669714E-01 -0.59776063075E-01  0.31476028306E-01  0.97707718791E-01  0.51100000000E-03 0.  1.
         11    1    4    4    0    0 -0.16827599316E-01 -0.24891549202E-01  0.15714036876E-01  0.33910903797E-01  0.51100000000E-03 0. -1.
</event>
<event>
 8    1  0.1176534E+005  0.1043930E+01  0.7957747E-01            NaN
         13   -1    0    0    0    0  0.00000000000E+00  0.00000000000E+00  0.74505805969E-08  0.10566000000E+00  0.10566000000E+00 0.  1.
     999900   -1    0    0    0    0 -0.00000000000E+00 -0.00000000000E+00 -0.74505805969E-08  0.93827000000E+00  0.93827000000E+00 0.  1.
     999902    2    1    2    0    0  0.19899527228E-01  0.92118856377E-02  0.89410436231E-02  0.10202489468E+01  0.10199740786E+01 0.  0.
     999903    2    3    3    0    0 -0.20640074306E-01 -0.10664120363E+00  0.68577800923E-01  0.12973115335E+00  0.18135555990E-01 0.  0.
         14    1    1    2    0    0 -0.19899527228E-01 -0.92118856377E-02 -0.89410436231E-02  0.23681053228E-01  0.00000000000E+00 0. -1.
     999901    1    3    3    0    0  0.40539601534E-01  0.11585308927E+00 -0.59636757299E-01  0.89051779342E+00  0.88000000000E+00 0.  1.
        -11    1    4    4    0    0 -0.16957802264E-01 -0.43338026374E-01  0.25471495208E-01  0.53054780904E-01  0.51100000000E-03 0.  1.
         11    1    4    4    0    0 -0.36822720420E-02 -0.63303177253E-01  0.43106305715E-01  0.76676372444E-01  0.51100000000E-03 0. -1.
</event>
<event>
 8    1  0.1176534E+005  0.1043930E+01  0.7957747E-01            NaN
         13   -1    0    0    0    0  0.00000000000E+00  0.00000000000E+00  0.74505805969E-08  0.10566000000E+00  0.10566000000E+00 0.  1.
     999900   -1    0    0    0    0 -0.00000000000E+00 -0.00000000000E+00 -0.74505805969E-08  0.93827000000E+00  0.93827000000E+00 0. -1.
     999902    2    1    2    0    0 -0.64139863273E-02 -0.15246917714E-01 -0.16492995829E-01  0.10205713478E+01  0.10203039985E+01 0.  0.
     999903    2    3    3    0    0  0.73955137864E-01 -0.92599960470E-01 -0.56652213375E-01  0.13262120727E+00  0.18297438113E-01 0.  0.
         14    1    1    2    0    0  0.64139863273E-02  0.15246917714E-01  0.16492995829E-01  0.23358652183E-01  0.00000000000E+00 0.  1.
     999901    1    3    3    0    0 -0.80369124191E-01  0.77353042756E-01  0.40159217547E-01  0.88795014055E+00  0.88000000000E+00 0.  1.
        -11    1    4    4    0    0  0.17584005629E-01 -0.13984242700E-01 -0.16505147012E-01  0.27882562592E-01  0.51100000000E-03 0. -1.
         11    1    4    4    0    0  0.56371132235E-01 -0.78615717770E-01 -0.40147066364E-01  0.10473864468E+00  0.51100000000E-03 0.  1.
</event>
<event>
 8    1  0.1176534E+005  0.1043930E+01  0.7957747E-01            NaN
         13   -1    0    0    0    0  0.00000000000E+00  0.00000000000E+00  0.74505805969E-08  0.10566000000E+00  0.10566000000E+00 0.  1.
     999900   -1    0    0    0    0 -0.00000000000E+00 -0.00000000000E+00 -0.74505805969E-08  0.93827000000E+00  0.93827000000E+00 0.  1.
     999902    2    1    2    0    0  0.10172884107E-01  0.17379151036E-02 -0.20355349697E-01  0.10211079015E+01  0.10208528289E+01 0.  0.
     999903    2    3    3    0    0  0.84844860672E-01  0.42537020589E-01  0.86386150871E-01  0.13058321398E+00  0.24111412387E-01 0.  0.
         14    1    1    2    0    0 -0.10172884107E-01 -0.17379151036E-02  0.20355349697E-01  0.22822098529E-01  0.00000000000E+00 0.  1.
     999901    1    3    3    0    0 -0.74671976566E-01 -0.40799105485E-01 -0.10674150057E+00  0.89052468749E+00  0.88000000000E+00 0.  1.
        -11    1    4    4    0    0  0.33449344505E-01  0.43676839175E-02  0.26227316169E-01  0.42732523270E-01  0.51100000000E-03 0.  1.
         11    1    4    4    0    0  0.51395516167E-01  0.38169336672E-01  0.60158834702E-01  0.87850690708E-01  0.51100000000E-03 0. -1.
</event>
<event>
 8    1  0.1176534E+005  0.1043930E+01  0.7957747E-01            NaN
         13   -1    0    0    0    0  0.00000000000E+00  0.00000000000E+00  0.74505805969E-08  0.10566000000E+00  0.10566000000E+00 0.  1.
     999900   -1    0    0    0    0 -0.00000000000E+00 -0.00000000000E+00 -0.74505805969E-08  0.93827000000E+00  0.93827000000E+00 0. -1.
     999902    2    1    2    0    0 -0.11785332514E-01 -0.68073352364E-02 -0.19998668828E-01  0.10197394930E+01  0.10194525261E+01 0.  0.
     999903    2    3    3    0    0  0.41590843245E-01  0.81995783796E-01 -0.86883797969E-01  0.13114024101E+00  0.34581232765E-01 0.  0.
         14    1    1    2    0    0  0.11785332514E-01  0.68073352364E-02  0.19998668828E-01  0.24190507031E-01  0.00000000000E+00 0.  1.
     999901    1    3    3    0    0 -0.53376175759E-01 -0.88803119033E-01  0.66885129141E-01  0.88859925196E+00  0.88000000000E+00 0. -1.
        -11    1    4    4    0    0  0.30293124431E-01  0.22812563354E-01 -0.35599749440E-01  0.52016244730E-01  0.51100000000E-03 0.  1.
         11    1    4    4    0    0  0.11297718814E-01  0.59183220442E-01 -0.51284048529E-01  0.79123996277E-01  0.51100000000E-03 0. -1.
</event>
<event>
 8    1  0.1176534E+005  0.1043930E+01  0.7957747E-01            NaN
         13   -1    0    0    0    0  0.00000000000E+00  0.00000000000E+00  0.74505805969E-08  0.10566000000E+00  0.10566000000E+00 0.  1.
     999900   -1    0    0    0    0 -0.00000000000E+00 -0.00000000000E+00 -0.74505805969E-08  0.93827000000E+00  0.93827000000E+00 0. -1.
     999902    2    1    2    0    0 -0.17048526548E-01 -0.15426558271E-01 -0.65638386704E-02  0.10200194388E+01  0.10197391532E+01 0.  0.
     999903    2    3    3    0    0  0.10597832663E+00 -0.46509339240E-01 -0.55064946353E-01  0.12959588606E+00  0.19194296444E-01 0.  0.
         14    1    1    2    0    0  0.17048526548E-01  0.15426558271E-01  0.65638386704E-02  0.23910561174E-01  0.00000000000E+00 0.  1.
     999901    1    3    3    0    0 -0.12302685317E+00  0.31082780969E-01  0.48501107682E-01  0.89042355277E+00  0.88000000000E+00 0. -1.
        -11    1    4    4    0    0  0.19026954353E-01 -0.97281717284E-02 -0.18771664704E-01  0.28448178042E-01  0.51100000000E-03 0.  1.
         11    1    4    4    0    0  0.86951372272E-01 -0.36781167511E-01 -0.36293281649E-01  0.10114770802E+00  0.51100000000E-03 0. -1.
</event>
<event>
 8    1  0.1176534E+005  0.1043930E+01  0.7957747E-01            NaN
         13   -1    0    0    0    0  0.00000000000E+00  0.00000000000E+00  0.74505805969E-08  0.10566000000E+00  0.10566000000E+00 0. -1.
     999900   -1    0    0    0    0 -0.00000000000E+00 -0.00000000000E+00 -0.74505805969E-08  0.93827000000E+00  0.93827000000E+00 0.  1.
     999902    2    1    2    0    0 -0.10501914683E-02  0.14426911496E-01 -0.18330330391E-01  0.10205796319E+01  0.10203124744E+01 0.  0.
     999903    2    3    3    0    0  0.69100472617E-02  0.20849742161E-01  0.12533883241E+00  0.12887034830E+00  0.20378499910E-01 0.  0.
         14    1    1    2    0    0  0.10501914683E-02 -0.14426911496E-01  0.18330330391E-01  0.23350368085E-01  0.00000000000E+00 0. -1.
     999901    1    3    3    0    0 -0.79602387300E-02 -0.64228306644E-02 -0.14366916280E+00  0.89170928362E+00  0.88000000000E+00 0.  1.
        -11    1    4    4    0    0 -0.37347902031E-02  0.73040652993E-03  0.50480005174E-01  0.50625825375E-01  0.51100000000E-03 0.  1.
         11    1    4    4    0    0  0.10644837465E-01  0.20119335631E-01  0.74858827236E-01  0.78244522920E-01  0.51100000000E-03 0. -1.
</event>
<event>
 8    1  0.1176534E+005  0.1043930E+01  0.7957747E-01            NaN
         13   -1    0    0    0    0  0.00000000000E+00  0.00000000000E+00  0.74505805969E-08  0.10566000000E+00  0.10566000000E+00 0.  1.
     999900   -1    0    0    0    0 -0.00000000000E+00 -0.00000000000E+00 -0.74505805969E-08  0.93827000000E+00  0.93827000000E+00 0. -1.
     999902    2    1    2    0    0  0.12244131880E-01 -0.79370088265E-02 -0.21988332490E-01  0.10175405771E+01  0.10171983211E+01 0.  0.
     999903    2    3    3    0    0  0.11501585749E+00 -0.50461723996E-02 -0.58675041184E-01  0.13079580035E+00  0.20264984615E-01 0.  0.
         14    1    1    2    0    0 -0.12244131880E-01  0.79370088265E-02  0.21988332490E-01  0.26389422887E-01  0.00000000000E+00 0. -1.
     999901    1    3    3    0    0 -0.10277172561E+00 -0.28908364269E-02  0.36686708694E-01  0.88674477676E+00  0.88000000000E+00 0.  1.
        -11    1    4    4    0    0  0.76920927163E-01  0.53811502054E-02 -0.43084674426E-01  0.88330833261E-01  0.51100000000E-03 0.  1.
         11    1    4    4    0    0  0.38094930327E-01 -0.10427322605E-01 -0.15590366759E-01  0.42464967090E-01  0.51100000000E-03 0. -1.
</event>
<event>
 8    1  0.1176534E+005  0.1043930E+01  0.7957747E-01            NaN
         13   -1    0    0    0    0  0.00000000000E+00  0.00000000000E+00  0.74505805969E-08  0.10566000000E+00  0.10566000000E+00 0.  1.
     999900   -1    0    0    0    0 -0.00000000000E+00 -0.00000000000E+00 -0.74505805969E-08  0.93827000000E+00  0.93827000000E+00 0. -1.
     999902    2    1    2    0    0 -0.65030095572E-02  0.21539529810E-01  0.28078521660E-02  0.10212556861E+01  0.10210039431E+01 0.  0.
     999903    2    3    3    0    0 -0.84576113860E-01 -0.61621602867E-01  0.75723092659E-01  0.13090305038E+00  0.21243372199E-01 0.  0.
         14    1    1    2    0    0  0.65030095572E-02 -0.21539529810E-01 -0.28078521660E-02  0.22674313915E-01  0.00000000000E+00 0.  1.
     999901    1    3    3    0    0  0.78073104303E-01  0.83161132677E-01 -0.72915240493E-01  0.89035263570E+00  0.88000000000E+00 0. -1.
        -11    1    4    4    0    0 -0.58577956363E-01 -0.36936870298E-01  0.38561906372E-01  0.79265320936E-01  0.51100000000E-03 0.  1.
         11    1    4    4    0    0 -0.25998157497E-01 -0.24684732569E-01  0.37161186287E-01  0.51637729448E-01  0.51100000000E-03 0. -1.
</event>
<event>
 8    1  0.1176534E+005  0.1043930E+01  0.7957747E-01            NaN
         13   -1    0    0    0    0  0.00000000000E+00  0.00000000000E+00  0.74505805969E-08  0.10566000000E+00  0.10566000000E+00 0.  1.
     999900   -1    0    0    0    0 -0.00000000000E+00 -0.00000000000E+00 -0.74505805969E-08  0.93827000000E+00  0.93827000000E+00 0.  1.
     999902    2    1    2    0    0 -0.36137014724E-03  0.41275169648E-02  0.23843078027E-01  0.10197296001E+01  0.10194423956E+01 0.  0.
     999903    2    3    3    0    0  0.41086636318E-01 -0.11863793826E+00  0.31525776672E-01  0.13020820178E+00  0.14043829196E-01 0.  0.
         14    1    1    2    0    0  0.36137014724E-03 -0.41275169648E-02 -0.23843078027E-01  0.24200399883E-01  0.00000000000E+00 0. -1.
     999901    1    3    3    0    0 -0.41448006466E-01  0.12276545522E+00 -0.76826986448E-02  0.88952139833E+00  0.88000000000E+00 0. -1.
        -11    1    4    4    0    0  0.37835552448E-02 -0.93032497731E-02 -0.12269090145E-02  0.10130753840E-01  0.51100000000E-03 0. -1.
         11    1    4    4    0    0  0.37303081074E-01 -0.10933468849E+00  0.32752685687E-01  0.12007744794E+00  0.51100000000E-03 0.  1.
</event>
<event>
 8    1  0.1293001E+005  0.1043930E+01  0.7957747E-01            NaN
         13   -1    0    0    0    0  0.00000000000E+00  0.00000000000E+00  0.74505805969E-08  0.10566000000E+00  0.10566000000E+00 0.  1.
     999900   -1    0    0    0    0 -0.00000000000E+00 -0.00000000000E+00 -0.74505805969E-08  0.93827000000E+00  0.93827000000E+00 0.  1.
     999902    2    1    2    0    0  0.16836425074E-01  0.31799429664E-02 -0.17229539272E-01  0.10196311467E+01  0.10193415723E+01 0.  0.
     999903    2    3    3    0    0  0.29496749343E-01 -0.74247677804E-01  0.99212103948E-01  0.12850041752E+00  0.16927488072E-01 0.  0.
         14    1    1    2    0    0 -0.16836425074E-01 -0.31799429664E-02  0.17229539272E-01  0.24298853267E-01  0.00000000000E+00 0. -1.
     999901    1    3    3    0    0 -0.12660324268E-01  0.77427620771E-01 -0.11644164322E+00  0.89113072921E+00  0.88000000000E+00 0. -1.
        -11    1    4    4    0    0  0.22170534064E-01 -0.61019395922E-01  0.69188896616E-01  0.94880260304E-01  0.51100000000E-03 0.  1.
         11    1    4    4    0    0  0.73262152789E-02 -0.13228281882E-01  0.30023207333E-01  0.33620157219E-01  0.51100000000E-03 0. -1.
</event>
<event>
 8    1  0.1176534E+005  0.1043930E+01  0.7957747E-01            NaN
         13   -1    0    0    0    0  0.00000000000E+00  0.00000000000E+00  0.74505805969E-08  0.10566000000E+00  0.10566000000E+00 0.  1.
     999900   -1    0    0    0    0 -0.00000000000E+00 -0.00000000000E+00 -0.74505805969E-08  0.93827000000E+00  0.93827000000E+00 0.  1.
     999902    2    1    2    0    0  0.11979595308E-01 -0.11646997567E-01  0.16842969022E-01  0.10202055640E+01  0.10199296760E+01 0.  0.
     999903    2    3    3    0    0 -0.39086453396E-01  0.49396489802E-01 -0.10890570559E+00  0.12771087059E+00  0.21951075405E-01 0.  0.
         14    1    1    2    0    0 -0.11979595308E-01  0.11646997567E-01 -0.16842969022E-01  0.23724435958E-01  0.00000000000E+00 0. -1.
     999901    1    3    3    0    0  0.51066048705E-01 -0.61043487369E-01  0.12574867461E+00  0.89249469346E+00  0.88000000000E+00 0. -1.
        -11    1    4    4    0    0 -0.25402779778E-01  0.25919176322E-01 -0.42085973226E-01  0.55575130995E-01  0.51100000000E-03 0.  1.
         11    1    4    4    0    0 -0.13683673618E-01  0.23477313480E-01 -0.66819732366E-01  0.72135739591E-01  0.51100000000E-03 0. -1.
</event>
<event>
 8    1  0.1176534E+005  0.1043930E+01  0.7957747E-01            NaN
         13   -1    0    0    0    0  0.00000000000E+00  0.00000000000E+00  0.74505805969E-08  0.10566000000E+00  0.10566000000E+00 0. -1.
     999900   -1    0    0    0    0 -0.00000000000E+00 -0.00000000000E+00 -0.74505805969E-08  0.93827000000E+00  0.93827000000E+00 0. -1.
     999902    2    1    2    0    0  0.14144797296E-01 -0.14525368059E-04  0.16850077848E-01  0.10219299858E+01  0.10216931512E+01 0.  0.
     999903    2    3    3    0    0 -0.75621390401E-01  0.10481935904E+00  0.10597299414E-01  0.13115099580E+00  0.19559862731E-01 0.  0.
         14    1    1    2    0    0 -0.14144797296E-01  0.14525368059E-04 -0.16850077848E-01  0.22000014205E-01  0.00000000000E+00 0.  1.
     999901    1    3    3    0    0  0.89766187697E-01 -0.10483388441E+00  0.62527784339E-02  0.89077898999E+00  0.88000000000E+00 0. -1.
        -11    1    4    4    0    0 -0.28534637017E-01  0.42339398660E-01 -0.52340240846E-02  0.51327442150E-01  0.51100000000E-03 0. -1.
         11    1    4    4    0    0 -0.47086753384E-01  0.62479960378E-01  0.15831323499E-01  0.79823553653E-01  0.51100000000E-03 0.  1.
</event>
<event>
 8    1  0.1176534E+005  0.1043930E+01  0.7957747E-01            NaN
         13   -1    0    0    0    0  0.00000000000E+00  0.00000000000E+00  0.74505805969E-08  0.10566000000E+00  0.10566000000E+00 0.  1.
     999900   -1    0    0    0    0 -0.00000000000E+00 -0.00000000000E+00 -0.74505805969E-08  0.93827000000E+00  0.93827000000E+00 0.  1.
     999902    2    1    2    0    0 -0.21641350759E-01  0.40322400984E-02  0.74637122853E-02  0.10206853442E+01  0.10204206279E+01 0.  0.
     999903    2    3    3    0    0  0.18503999249E-01  0.10135305060E+00  0.79345801595E-01  0.13150031055E+00  0.19538080465E-01 0.  0.
         14    1    1    2    0    0  0.21641350759E-01 -0.40322400984E-02 -0.74637122853E-02  0.23244655815E-01  0.00000000000E+00 0. -1.
     999901    1    3    3    0    0 -0.40145350008E-01 -0.97320810504E-01 -0.71882089310E-01  0.88918503364E+00  0.88000000000E+00 0.  1.
        -11    1    4    4    0    0  0.47898795366E-02  0.74968598238E-01  0.56559474636E-01  0.94034403065E-01  0.51100000000E-03 0.  1.
         11    1    4    4    0    0  0.13714119712E-01  0.26384452364E-01  0.22786326959E-01  0.37465907480E-01  0.51100000000E-03 0. -1.
</event>
<event>
 8    1  0.1176534E+005  0.1043930E+01  0.7957747E-01            NaN
         13   -1    0    0    0    0  0.00000000000E+00  0.00000000000E+00  0.74505805969E-08  0.10566000000E+00  0.10566000000E+00 0. -1.
     999900   -1    0    0    0    0 -0.00000000000E+00 -0.00000000000E+00 -0.74505805969E-08  0.93827000000E+00  0.93827000000E+00 0. -1.
     999902    2    1    2    0    0  0.49314442144E-02  0.96496699151E-02 -0.20546843605E-01  0.10207005348E+01  0.10204361684E+01 0.  0.
     999903    2    3    3    0    0 -0.95647391244E-01 -0.29476916098E-01 -0.83476926862E-01  0.13187704993E+00  0.20145643328E-01 0.  0.
         14    1    1    2    0    0 -0.49314442144E-02 -0.96496699151E-02  0.20546843605E-01  0.23229465204E-01  0.00000000000E+00 0. -1.
     999901    1    3    3    0    0  0.10057883546E+00  0.39126586013E-01  0.62930083256E-01  0.88882348487E+00  0.88000000000E+00 0.  1.
        -11    1    4    4    0    0 -0.57677619377E-01 -0.79958203804E-02 -0.43275061518E-01  0.72550899312E-01  0.51100000000E-03 0. -1.
         11    1    4    4    0    0 -0.37969771866E-01 -0.21481095718E-01 -0.40201865343E-01  0.59326150616E-01  0.51100000000E-03 0.  1.
</event>
<event>
 8    1  0.1176534E+005  0.1043930E+01  0.7957747E-01            NaN
         13   -1    0    0    0    0  0.00000000000E+00  0.00000000000E+00  0.74505805969E-08  0.10566000000E+00  0.10566000000E+00 0.  1.
     999900   -1    0    0    0    0 -0.00000000000E+00 -0.00000000000E+00 -0.74505805969E-08  0.93827000000E+00  0.93827000000E+00 0.  1.
     999902    2    1    2    0    0  0.22863876059E-01  0.59721347401E-03 -0.22177044833E-02  0.10209510595E+01  0.10206924288E+01 0.  0.
     999903    2    3    3    0    0 -0.10959647753E+00  0.29391478882E-01  0.57993252696E-01  0.12853847873E+00  0.16842690894E-01 0.  0.
         14    1    1    2    0    0 -0.22863876059E-01 -0.59721347401E-03  0.22177044833E-02  0.22978940479E-01  0.00000000000E+00 0.  1.
     999901    1    3    3    0    0  0.13246035359E+00 -0.28794265408E-01 -0.60210957179E-01  0.89241258079E+00  0.88000000000E+00 0. -1.
        -11    1    4    4    0    0 -0.96602566251E-01  0.30867867566E-01  0.53758436047E-01  0.11478288906E+00  0.51100000000E-03 0.  1.
         11    1    4    4    0    0 -0.12993911282E-01 -0.14763886841E-02  0.42348166493E-02  0.13755589664E-01  0.51100000000E-03 0. -1.
</event>
<event>
 8    1  0.1176534E+005  0.1043930E+01  0.7957747E-01            NaN
         13   -1    0    0    0    0  0.00000000000E+00  0.00000000000E+00  0.74505805969E-08  0.10566000000E+00  0.10566000000E+00 0. -1.
     999900   -1    0    0    0    0 -0.00000000000E+00 -0.00000000000E+00 -0.74505805969E-08  0.93827000000E+00  0.93827000000E+00 0. -1.
     999902    2    1    2    0    0 -0.20809802555E-01 -0.14067150589E-02 -0.16209084548E-01  0.10175148310E+01  0.10171718981E+01 0.  0.
     999903    2    3    3    0    0 -0.83121497399E-01 -0.58954531117E-02 -0.99481732366E-01  0.13137870720E+00  0.20489263880E-01 0.  0.
         14    1    1    2    0    0  0.20809802555E-01  0.14067150589E-02  0.16209084548E-01  0.26415168966E-01  0.00000000000E+00 0. -1.
     999901    1    3    3    0    0  0.62311694844E-01  0.44887380527E-02  0.83272647818E-01  0.88613612383E+00  0.88000000000E+00 0.  1.
        -11    1    4    4    0    0 -0.48153310767E-01 -0.85548377651E-03 -0.71963587752E-01  0.86593835078E-01  0.51100000000E-03 0. -1.
         11    1    4    4    0    0 -0.34968186632E-01 -0.50399693351E-02 -0.27518144614E-01  0.44784872125E-01  0.51100000000E-03 0.  1.
</event>
<event>
 8    1  0.1176534E+005  0.1043930E+01  0.7957747E-01            NaN
         13   -1    0    0    0    0  0.00000000000E+00  0.00000000000E+00  0.74505805969E-08  0.10566000000E+00  0.10566000000E+00 0.  1.
     999900   -1    0    0    0    0 -0.00000000000E+00 -0.00000000000E+00 -0.74505805969E-08  0.93827000000E+00  0.93827000000E+00 0.  1.
     999902    2    1    2    0    0  0.17635318404E-01  0.14737307876E-01  0.60763055338E-03  0.10209395256E+01  0.10206806322E+01 0.  0.
     999903    2    3    3    0    0 -0.63651476225E-01  0.91155148173E-01 -0.67081258423E-01  0.13131656333E+00  0.19579915940E-01 0.  0.
         14    1    1    2    0    0 -0.17635318404E-01 -0.14737307876E-01 -0.60763055338E-03  0.22990474409E-01  0.00000000000E+00 0.  1.
     999901    1    3    3    0    0  0.81286794630E-01 -0.76417840298E-01  0.67688888977E-01  0.88962296226E+00  0.88000000000E+00 0. -1.
        -11    1    4    4    0    0 -0.52974342874E-01  0.64500017353E-01 -0.56108326081E-01  0.10057305115E+00  0.51100000000E-03 0.  1.
         11    1    4    4    0    0 -0.10677133351E-01  0.26655130820E-01 -0.10972932342E-01  0.30743512174E-01  0.51100000000E-03 0. -1.
</event>
<event>
 8    1  0.1176534E+005  0.1043930E+01  0.7957747E-01            NaN
         13   -1    0    0    0    0  0.00000000000E+00  0.00000000000E+00  0.74505805969E-08  0.10566000000E+00  0.10566000000E+00 0. -1.
     999900   -1    0    0    0    0 -0.00000000000E+00 -0.00000000000E+00 -0.74505805969E-08  0.93827000000E+00  0.93827000000E+00 0. -1.
     999902    2    1    2    0    0  0.58630604174E-02  0.16793894860E-01 -0.16769083916E-01  0.10194838846E+01  0.10191907468E+01 0.  0.
     999903    2    3    3    0    0  0.19158215804E-01  0.12198592097E+00 -0.44337879671E-01  0.13269069451E+00  0.19833574800E-01 0.  0.
         14    1    1    2    0    0 -0.58630604174E-02 -0.16793894860E-01  0.16769083916E-01  0.24446115385E-01  0.00000000000E+00 0. -1.
     999901    1    3    3    0    0 -0.13295155386E-01 -0.10519202611E+00  0.27568795755E-01  0.88679319010E+00  0.88000000000E+00 0.  1.
        -11    1    4    4    0    0 -0.29633783645E-03  0.38967010526E-01 -0.21074740654E-01  0.44304870388E-01  0.51100000000E-03 0.  1.
         11    1    4    4    0    0  0.19454553640E-01  0.83018910441E-01 -0.23263139017E-01  0.88385824124E-01  0.51100000000E-03 0. -1.
</event>
<event>
 8    1  0.1176534E+005  0.1043930E+01  0.7957747E-01            NaN
         13   -1    0    0    0    0  0.00000000000E+00  0.00000000000E+00  0.74505805969E-08  0.10566000000E+00  0.10566000000E+00 0. -1.
     999900   -1    0    0    0    0 -0.00000000000E+00 -0.00000000000E+00 -0.74505805969E-08  0.93827000000E+00  0.93827000000E+00 0. -1.
     999902    2    1    2    0    0  0.24106868941E-01 -0.35967611930E-02 -0.14555908237E-02  0.10195128633E+01  0.10192204285E+01 0.  0.
     999903    2    3    3    0    0  0.54454203435E-01  0.52663016453E-01 -0.10506245865E+00  0.13113202920E+00  0.20465465800E-01 0.  0.
         14    1    1    2    0    0 -0.24106868941E-01  0.35967611930E-02  0.14555908237E-02  0.24417136725E-01  0.00000000000E+00 0. -1.
     999901    1    3    3    0    0 -0.30347334495E-01 -0.56259777646E-01  0.10360686783E+00  0.88838083408E+00  0.88000000000E+00 0.  1.
        -11    1    4    4    0    0  0.25733032857E-02  0.83613351068E-02 -0.21754004131E-01  0.23452753171E-01  0.51100000000E-03 0. -1.
         11    1    4    4    0    0  0.51880900150E-01  0.44301681346E-01 -0.83308454520E-01  0.10767927603E+00  0.51100000000E-03 0.  1.
</event>
<event>
 8    1  0.1176534E+005  0.1043930E+01  0.7957747E-01            NaN
         13   -1    0    0    0    0  0.00000000000E+00  0.00000000000E+00  0.74505805969E-08  0.10566000000E+00  0.10566000000E+00 0.  1.
     999900   -1    0    0    0    0 -0.00000000000E+00 -0.00000000000E+00 -0.74505805969E-08  0.93827000000E+00  0.93827000000E+00 0.  1.
     999902    2    1    2    0    0  0.14244705040E-01 -0.20079377676E-01  0.68250990388E-02  0.10183824951E+01  0.10180619978E+01 0.  0.
     999903    2    3    3    0    0 -0.10087977014E+00 -0.14686571310E-01 -0.73638051947E-01  0.12722760070E+00  0.19284094141E-01 0.  0.
         14    1    1    2    0    0 -0.14244705040E-01  0.20079377676E-01 -0.68250990388E-02  0.25547504896E-01  0.00000000000E+00 0.  1.
     999901    1    3    3    0    0  0.11512447518E+00 -0.53928063652E-02  0.80463150986E-01  0.89115489440E+00  0.88000000000E+00 0. -1.
        -11    1    4    4    0    0 -0.73905630728E-01 -0.10868834080E-01 -0.42872450714E-01  0.86130609883E-01  0.51100000000E-03 0.  1.
         11    1    4    4    0    0 -0.26974139409E-01 -0.38177372306E-02 -0.30765601233E-01  0.41096990822E-01  0.51100000000E-03 0. -1.
</event>
<event>
 8    1  0.1176534E+005  0.1043930E+01  0.7957747E-01            NaN
         13   -1    0    0    0    0  0.00000000000E+00  0.00000000000E+00  0.74505805969E-08  0.10566000000E+00  0.10566000000E+00 0. -1.
     999900   -1    0    0    0    0 -0.00000000000E+00 -0.00000000000E+00 -0.74505805969E-08  0.93827000000E+00  0.93827000000E+00 0.  1.
     999902    2    1    2    0    0 -0.23009333589E-01 -0.14655839137E-02 -0.16160064781E-02  0.10208174743E+01  0.10205557932E+01 0.  0.
     999903    2    3    3    0    0 -0.90454411074E-01 -0.72599414360E-01 -0.64055557322E-01  0.13317590370E+00  0.13417580002E-01 0.  0.
         14    1    1    2    0    0  0.23009333589E-01  0.14655839137E-02  0.16160064781E-02  0.23112525725E-01  0.00000000000E+00 0. -1.
     999901    1    3    3    0    0  0.67445077485E-01  0.71133830447E-01  0.62439550844E-01  0.88764157058E+00  0.88000000000E+00 0. -1.
        -11    1    4    4    0    0 -0.52754391478E-01 -0.50595596437E-01 -0.40829942087E-01  0.83727447655E-01  0.51100000000E-03 0. -1.
         11    1    4    4    0    0 -0.37700019596E-01 -0.22003817924E-01 -0.23225615235E-01  0.49448456041E-01  0.51100000000E-03 0.  1.
</event>
<event>
 8    1  0.1176534E+005  0.1043930E+01  0.7957747E-01            NaN
         13   -1    0    0    0    0  0.00000000000E+00  0.00000000000E+00  0.74505805969E-08  0.10566000000E+00  0.10566000000E+00 0.  1.
     999900   -1    0    0    0    0 -0.00000000000E+00 -0.00000000000E+00 -0.74505805969E-08  0.93827000000E+00  0.93827000000E+00 0. -1.
     999902    2    1    2    0    0  0.18235661315E-02 -0.16514768974E-01 -0.16309642969E-01  0.10206476582E+01  0.10203820729E+01 0.  0.
     999903    2    3    3    0    0 -0.31550331816E-01 -0.12708427992E+00 -0.12149772899E-01  0.13309104682E+00  0.20488341147E-01 0.  0.
         14    1    1    2    0    0 -0.18235661315E-02  0.16514768974E-01  0.16309642969E-01  0.23282341838E-01  0.00000000000E+00 0.  1.
     999901    1    3    3    0    0  0.33373897947E-01  0.11056951094E+00 -0.41598700700E-02  0.88755661134E+00  0.88000000000E+00 0. -1.
        -11    1    4    4    0    0 -0.15576440195E-01 -0.98522305807E-01 -0.74384382943E-02  0.10002430563E+00  0.51100000000E-03 0.  1.
         11    1    4    4    0    0 -0.15973891621E-01 -0.28561974110E-01 -0.47113346050E-02  0.33066741196E-01  0.51100000000E-03 0. -1.
</event>
<event>
 8    1  0.1176534E+005  0.1043930E+01  0.7957747E-01            NaN
         13   -1    0    0    0    0  0.00000000000E+00  0.00000000000E+00  0.74505805969E-08  0.10566000000E+00  0.10566000000E+00 0. -1.
     999900   -1    0    0    0    0 -0.00000000000E+00 -0.00000000000E+00 -0.74505805969E-08  0.93827000000E+00  0.93827000000E+00 0.  1.
     999902    2    1    2    0    0  0.17466410598E-01 -0.14760038155E-01 -0.59170984520E-02  0.10203091135E+01  0.10200356566E+01 0.  0.
     999903    2    3    3    0    0  0.12752880837E-01  0.25220099734E-01 -0.12653259199E+00  0.13116979591E+00  0.19908016502E-01 0.  0.
         14    1    1    2    0    0 -0.17466410598E-01  0.14760038155E-01  0.59170984520E-02  0.23620886512E-01  0.00000000000E+00 0.  1.
     999901    1    3    3    0    0  0.47135297607E-02 -0.39980137890E-01  0.12061549354E+00  0.88913931758E+00  0.88000000000E+00 0. -1.
        -11    1    4    4    0    0  0.47471796408E-02  0.25587207780E-01 -0.86139568574E-01  0.89986261794E-01  0.51100000000E-03 0.  1.
         11    1    4    4    0    0  0.80057011960E-02 -0.36710804553E-03 -0.40393023420E-01  0.41183534112E-01  0.51100000000E-03 0. -1.
</event>
<event>
 8    1  0.1176534E+005  0.1043930E+01  0.7957747E-01            NaN
         13   -1    0    0    0    0  0.00000000000E+00  0.00000000000E+00  0.74505805969E-08  0.10566000000E+00  0.10566000000E+00 0. -1.
     999900   -1    0    0    0    0 -0.00000000000E+00 -0.00000000000E+00 -0.74505805969E-08  0.93827000000E+00  0.93827000000E+00 0.  1.
     999902    2    1    2    0    0  0.21539452588E-01 -0.50410248404E-02  0.27162408280E-02  0.10216423821E+01  0.10213992456E+01 0.  0.
     999903    2    3    3    0    0  0.10622949583E+00 -0.66026309671E-02  0.79160573582E-01  0.13427629185E+00  0.20866854664E-01 0.  0.
         14    1    1    2    0    0 -0.21539452588E-01  0.50410248404E-02 -0.27162408280E-02  0.22287617941E-01  0.00000000000E+00 0.  1.
     999901    1    3    3    0    0 -0.84690043243E-01  0.15616061267E-02 -0.76444332754E-01  0.88736609021E+00  0.88000000000E+00 0. -1.
        -11    1    4    4    0    0  0.89767069730E-01 -0.57888053846E-02  0.56414305572E-01  0.10618131695E+00  0.51100000000E-03 0. -1.
         11    1    4    4    0    0  0.16462426101E-01 -0.81382558246E-03  0.22746268010E-01  0.28094974899E-01  0.51100000000E-03 0.  1.
</event>
<event>
 8    1  0.1176534E+005  0.1043930E+01  0.7957747E-01            NaN
         13   -1    0    0    0    0  0.00000000000E+00  0.00000000000E+00  0.74505805969E-08  0.10566000000E+00  0.10566000000E+00 0.  1.
     999900   -1    0    0    0    0 -0.00000000000E+00 -0.00000000000E+00 -0.74505805969E-08  0.93827000000E+00  0.93827000000E+00 0.  1.
     999902    2    1    2    0    0  0.15487901553E-01 -0.11601945529E-01 -0.14293279477E-01  0.10198721931E+01  0.10195884033E+01 0.  0.
     999903    2    3    3    0    0 -0.86372135722E-01  0.15391062355E-01  0.90317055117E-01  0.12743316898E+00  0.19621709456E-01 0.  0.
         14    1    1    2    0    0 -0.15487901553E-01  0.11601945529E-01  0.14293279477E-01  0.24057806899E-01  0.00000000000E+00 0.  1.
     999901    1    3    3    0    0  0.10186003727E+00 -0.26993007884E-01 -0.10461033459E+00  0.89243902412E+00  0.88000000000E+00 0.  1.
        -11    1    4    4    0    0 -0.35703212192E-01 -0.62965350711E-03  0.27005892844E-01  0.44773822639E-01  0.51100000000E-03 0. -1.
         11    1    4    4    0    0 -0.50668923530E-01  0.16020715862E-01  0.63311162274E-01  0.82659346343E-01  0.51100000000E-03 0.  1.
</event>
<event>
 7    1  0.1387401E+005  0.1043930E+01  0.7957747E-01            NaN
         13   -1    0    0    0    0  0.00000000000E+00  0.00000000000E+00  0.74505805969E-08  0.10566000000E+00  0.10566000000E+00 0.  1.
     999900   -1    0    0    0    0 -0.00000000000E+00 -0.00000000000E+00 -0.74505805969E-08  0.93827000000E+00  0.93827000000E+00 0.  1.
     999902    2    1    2    0    0  0.19427287412E-01  0.12151780024E-01 -0.48167512429E-02  0.10205144849E+01  0.10202458172E+01 0.  0.
         14    1    1    2    0    0 -0.19427287412E-01 -0.12151780024E-01  0.48167512429E-02  0.23415515080E-01  0.00000000000E+00 0. -1.
     999901    1    3    3    0    0 -0.65494576247E-02  0.75817118741E-01 -0.11480428851E+00  0.89071384605E+00  0.88000000000E+00 0.  1.
        -11    1    3    3    0    0  0.19972627045E-01 -0.43979407734E-01  0.78984140966E-01  0.92584284740E-01  0.51100000000E-03 0.  1.
         11    1    3    3    0    0  0.60041179917E-02 -0.19685930983E-01  0.31003396299E-01  0.37216354128E-01  0.51100000000E-03 0. -1.
</event>
<event>
 8    1  0.1176534E+005  0.1043930E+01  0.7957747E-01            NaN
         13   -1    0    0    0    0  0.00000000000E+00  0.00000000000E+00  0.74505805969E-08  0.10566000000E+00  0.10566000000E+00 0.  1.
     999900   -1    0    0    0    0 -0.00000000000E+00 -0.00000000000E+00 -0.74505805969E-08  0.93827000000E+00  0.93827000000E+00 0. -1.
     999902    2    1    2    0    0 -0.20433718437E-01 -0.23409299450E-02 -0.13422687744E-01  0.10193701680E+01  0.10190742633E+01 0.  0.
     999903    2    3    3    0    0 -0.35688461776E-02  0.61922519601E-01  0.11035651663E+00  0.12822735884E+00  0.20409794107E-01 0.  0.
         14    1    1    2    0    0  0.20433718437E-01  0.23409299450E-02  0.13422687744E-01  0.24559832012E-01  0.00000000000E+00 0.  1.
     999901    1    3    3    0    0 -0.16864872260E-01 -0.64263449546E-01 -0.12377920437E+00  0.89114280915E+00  0.88000000000E+00 0. -1.
        -11    1    4    4    0    0  0.68407733648E-02  0.43619055925E-01  0.77619197375E-01  0.89299603259E-01  0.51100000000E-03 0.  1.
         11    1    4    4    0    0 -0.10409619542E-01  0.18303463676E-01  0.32737319253E-01  0.38927755579E-01  0.51100000000E-03 0. -1.
</event>
<event>
 8    1  0.1176534E+005  0.1043930E+01  0.7957747E-01            NaN
         13   -1    0    0    0    0  0.00000000000E+00  0.00000000000E+00  0.74505805969E-08  0.10566000000E+00  0.10566000000E+00 0.  1.
     999900   -1    0    0    0    0 -0.00000000000E+00 -0.00000000000E+00 -0.74505805969E-08  0.93827000000E+00  0.93827000000E+00 0. -1.
     999902    2    1    2    0    0 -0.21284644497E-01 -0.75762493564E-02  0.59844373577E-02  0.10205580267E+01  0.10202903688E+01 0.  0.
     999903    2    3    3    0    0 -0.20839583740E-02  0.11505962932E+00  0.57875004499E-01  0.13033285516E+00  0.19851342675E-01 0.  0.
         14    1    1    2    0    0  0.21284644497E-01  0.75762493564E-02 -0.59844373577E-02  0.23371973305E-01  0.00000000000E+00 0.  1.
     999901    1    3    3    0    0 -0.19200686123E-01 -0.12263587867E+00 -0.51890567141E-01  0.89022517154E+00  0.88000000000E+00 0. -1.
        -11    1    4    4    0    0 -0.10336690903E-01  0.77838701652E-01  0.36095203491E-01  0.86422424693E-01  0.51100000000E-03 0. -1.
         11    1    4    4    0    0  0.82527325290E-02  0.37220927665E-01  0.21779801008E-01  0.43910430462E-01  0.51100000000E-03 0.  1.
</event>
<event>
 8    1  0.1176534E+005  0.1043930E+01  0.7957747E-01            NaN
         13   -1    0    0    0    0  0.00000000000E+00  0.00000000000E+00  0.74505805969E-08  0.10566000000E+00  0.10566000000E+00 0.  1.
     999900   -1    0    0    0    0 -0.00000000000E+00 -0.00000000000E+00 -0.74505805969E-08  0.93827000000E+00  0.93827000000E+00 0. -1.
     999902    2    1    2    0    0  0.61413670663E-02 -0.23135652242E-01  0.24745940486E-02  0.10198655364E+01  0.10195815876E+01 0.  0.
     999903    2    3    3    0    0  0.79667439195E-01 -0.94133521825E-01  0.44747525960E-01  0.13294176200E+00  0.21520924829E-01 0.  0.
         14    1    1    2    0    0 -0.61413670663E-02  0.23135652242E-01 -0.24745940486E-02  0.24064463630E-01  0.00000000000E+00 0.  1.
     999901    1    3    3    0    0 -0.73526072129E-01  0.70997869583E-01 -0.42272931912E-01  0.88692377437E+00  0.88000000000E+00 0. -1.
        -11    1    4    4    0    0  0.45421545509E-01 -0.52651185619E-01  0.36447875886E-01  0.78510973253E-01  0.51100000000E-03 0. -1.
         11    1    4    4    0    0  0.34245893686E-01 -0.41482336206E-01  0.82996500742E-02  0.54430788748E-01  0.51100000000E-03 0.  1.
</event>
<event>
 8    1  0.1176534E+005  0.1043930E+01  0.7957747E-01            NaN
         13   -1    0    0    0    0  0.00000000000E+00  0.00000000000E+00  0.74505805969E-08  0.10566000000E+00  0.10566000000E+00 0.  1.
     999900   -1    0    0    0    0 -0.00000000000E+00 -0.00000000000E+00 -0.74505805969E-08  0.93827000000E+00  0.93827000000E+00 0.  1.
     999902    2    1    2    0    0 -0.73368398005E-02  0.10801338782E-01  0.19563944101E-01  0.10204088171E+01  0.10201376907E+01 0.  0.
     999903    2    3    3    0    0 -0.46098067293E-01  0.62052343924E-01  0.10716993141E+00  0.13372741583E+00  0.20545129629E-01 0.  0.
         14    1    1    2    0    0  0.73368398005E-02 -0.10801338782E-01 -0.19563944101E-01  0.23521182932E-01  0.00000000000E+00 0. -1.
     999901    1    3    3    0    0  0.38761227493E-01 -0.51251005142E-01 -0.87605987312E-01  0.88668140124E+00  0.88000000000E+00 0.  1.
        -11    1    4    4    0    0 -0.38642216159E-01  0.37606832814E-01  0.65492555645E-01  0.84835315228E-01  0.51100000000E-03 0.  1.
         11    1    4    4    0    0 -0.74558511344E-02  0.24445511110E-01  0.41677375768E-01  0.48892100604E-01  0.51100000000E-03 0. -1.
</event>
<event>
 8    1  0.1176534E+005  0.1043930E+01  0.7957747E-01            NaN
         13   -1    0    0    0    0  0.00000000000E+00  0.00000000000E+00  0.74505805969E-08  0.10566000000E+00  0.10566000000E+00 0. -1.
     999900   -1    0    0    0    0 -0.00000000000E+00 -0.00000000000E+00 -0.74505805969E-08  0.93827000000E+00  0.93827000000E+00 0.  1.
     999902    2    1    2    0    0 -0.11165173739E-01  0.16526350866E-01  0.12638809112E-01  0.10203181201E+01  0.10200448742E+01 0.  0.
     999903    2    3    3    0    0  0.36983325061E-01 -0.27755439430E-01  0.12124139365E+00  0.13123225457E+00  0.19603529125E-01 0.  0.
         14    1    1    2    0    0  0.11165173739E-01 -0.16526350866E-01 -0.12638809112E-01  0.23611879920E-01  0.00000000000E+00 0.  1.
     999901    1    3    3    0    0 -0.48148498800E-01  0.44281790296E-01 -0.10860258454E+00  0.88908586551E+00  0.88000000000E+00 0.  1.
        -11    1    4    4    0    0  0.27351529882E-01 -0.28531632507E-01  0.10649928549E+00  0.11359805971E+00  0.51100000000E-03 0.  1.
         11    1    4    4    0    0  0.96317951793E-02  0.77619307685E-03  0.14742108164E-01  0.17634194855E-01  0.51100000000E-03 0. -1.
</event>
<event>
 8    1  0.1176534E+005  0.1043930E+01  0.7957747E-01            NaN
         13   -1    0    0    0    0  0.00000000000E+00  0.00000000000E+00  0.74505805969E-08  0.10566000000E+00  0.10566000000E+00 0.  1.
     999900   -1    0    0    0    0 -0.00000000000E+00 -0.00000000000E+00 -0.74505805969E-08  0.93827000000E+00  0.93827000000E+00 0. -1.
     999902    2    1    2    0    0 -0.11333204373E-01  0.70536805505E-02 -0.19811518751E-01  0.10200408350E+01  0.10197610567E+01 0.  0.
     999903    2    3    3    0    0 -0.51960868875E-01 -0.11164516713E+00 -0.39655746863E-01  0.13092114845E+00  0.20079681615E-01 0.  0.
         14    1    1    2    0    0  0.11333204373E-01 -0.70536805505E-02  0.19811518751E-01  0.23889165031E-01  0.00000000000E+00 0.  1.
     999901    1    3    3    0    0  0.40627664502E-01  0.11869884768E+00  0.19844228112E-01  0.88911968652E+00  0.88000000000E+00 0. -1.
        -11    1    4    4    0    0 -0.48552993902E-01 -0.10903243821E+00 -0.41293712331E-01  0.12629686298E+00  0.51100000000E-03 0. -1.
         11    1    4    4    0    0 -0.34078749726E-02 -0.26127289229E-02  0.16379654679E-02  0.46242854722E-02  0.51100000000E-03 0.  1.
</event>
<event>
 8    1  0.1176534E+005  0.1043930E+01  0.7957747E-01            NaN
         13   -1    0    0    0    0  0.00000000000E+00  0.00000000000E+00  0.74505805969E-08  0.10566000000E+00  0.10566000000E+00 0. -1.
     999900   -1    0    0    0    0 -0.00000000000E+00 -0.00000000000E+00 -0.74505805969E-08  0.93827000000E+00  0.93827000000E+00 0. -1.
     999902    2    1    2    0    0  0.28799337041E-02 -0.16175011598E-01 -0.18368727119E-01  0.10192858292E+01  0.10189878637E+01 0.  0.
     999903    2    3    3    0    0 -0.71359824643E-02  0.29267109564E-01 -0.12645029171E+00  0.13145311435E+00  0.19564228899E-01 0.  0.
         14    1    1    2    0    0 -0.28799337041E-02  0.16175011598E-01  0.18368727119E-01  0.24644170797E-01  0.00000000000E+00 0. -1.
     999901    1    3    3    0    0  0.10015916168E-01 -0.45442121162E-01  0.10808156459E+00  0.88783271485E+00  0.88000000000E+00 0.  1.
        -11    1    4    4    0    0 -0.65692130004E-02  0.79422189616E-02 -0.75687139479E-01  0.76387417845E-01  0.51100000000E-03 0. -1.
         11    1    4    4    0    0 -0.56676946391E-03  0.21324890603E-01 -0.50763152228E-01  0.55065696509E-01  0.51100000000E-03 0.  1.
</event>
<event>
 8    1  0.1176534E+005  0.1043930E+01  0.7957747E-01            NaN
         13   -1    0    0    0    0  0.00000000000E+00  0.00000000000E+00  0.74505805969E-08  0.10566000000E+00  0.10566000000E+00 0.  1.
     999900   -1    0    0    0    0 -0.00000000000E+00 -0.00000000000E+00 -0.74505805969E-08  0.93827000000E+00  0.93827000000E+00 0. -1.
     999902    2    1    2    0    0  0.45955014532E-02 -0.16867964155E-01 -0.14512167902E-01  0.10212088674E+01  0.10209560720E+01 0.  0.
     999903    2    3    3    0    0 -0.12305956728E+00  0.15894945329E-01 -0.37712454936E-01  0.13109231431E+00  0.19148347906E-01 0.  0.
         14    1    1    2    0    0 -0.45955014532E-02  0.16867964155E-01  0.14512167902E-01  0.22721132577E-01  0.00000000000E+00 0.  1.
     999901    1    3    3    0    0  0.12765506873E+00 -0.32762909484E-01  0.23200287033E-01  0.89011655311E+00  0.88000000000E+00 0. -1.
        -11    1    4    4    0    0 -0.89580701462E-01  0.19246627053E-01 -0.31384608128E-01  0.96852410789E-01  0.51100000000E-03 0. -1.
         11    1    4    4    0    0 -0.33478865817E-01 -0.33516817242E-02 -0.63278468079E-02  0.34239903519E-01  0.51100000000E-03 0.  1.
</event>
<event>
 8    1  0.1176534E+005  0.1043930E+01  0.7957747E-01            NaN
         13   -1    0    0    0    0  0.00000000000E+00  0.00000000000E+00  0.74505805969E-08  0.10566000000E+00  0.10566000000E+00 0. -1.
     999900   -1    0    0    0    0 -0.00000000000E+00 -0.00000000000E+00 -0.74505805969E-08  0.93827000000E+00  0.93827000000E+00 0. -1.
     999902    2    1    2    0    0 -0.22809850586E-01 -0.29150950833E-02 -0.45856096294E-02  0.10204818683E+01  0.10202124429E+01 0.  0.
     999903    2    3    3    0    0 -0.28523622691E-01 -0.91537733027E-01  0.87215814523E-01  0.13126079311E+00  0.20737499478E-01 0.  0.
         14    1    1    2    0    0  0.22809850586E-01  0.29150950833E-02  0.45856096294E-02  0.23448131669E-01  0.00000000000E+00 0. -1.
     999901    1    3    3    0    0  0.57137721052E-02  0.88622637944E-01 -0.91801424152E-01  0.88922107522E+00  0.88000000000E+00 0. -1.
        -11    1    4    4    0    0 -0.23729040139E-01 -0.59047212907E-01  0.68317336073E-01  0.93365733687E-01  0.51100000000E-03 0.  1.
         11    1    4    4    0    0 -0.47945825528E-02 -0.32490520121E-01  0.18898478450E-01  0.37895059418E-01  0.51100000000E-03 0. -1.
</event>
<event>
 8    1  0.1176534E+005  0.1043930E+01  0.7957747E-01            NaN
         13   -1    0    0    0    0  0.00000000000E+00  0.00000000000E+00  0.74505805969E-08  0.10566000000E+00  0.10566000000E+00 0.  1.
     999900   -1    0    0    0    0 -0.00000000000E+00 -0.00000000000E+00 -0.74505805969E-08  0.93827000000E+00  0.93827000000E+00 0.  1.
     999902    2    1    2    0    0 -0.11757872627E-01 -0.12825388702E-01 -0.12322994752E-01  0.10226087814E+01  0.10223864853E+01 0.  0.
     999903    2    3    3    0    0 -0.43949916465E-01 -0.11556726361E+00  0.47520214685E-01  0.13402933627E+00  0.20452496182E-01 0.  0.
         14    1    1    2    0    0  0.11757872627E-01  0.12825388702E-01  0.12322994752E-01  0.21321218627E-01  0.00000000000E+00 0.  1.
     999901    1    3    3    0    0  0.32192043838E-01  0.10274187491E+00 -0.59843209438E-01  0.88857944510E+00  0.88000000000E+00 0. -1.
        -11    1    4    4    0    0 -0.36584334351E-01 -0.69617316092E-01  0.32865231930E-01  0.85237132815E-01  0.51100000000E-03 0.  1.
         11    1    4    4    0    0 -0.73655821137E-02 -0.45949947523E-01  0.14654982756E-01  0.48792203453E-01  0.51100000000E-03 0. -1.
</event>
<event>
 8    1  0.1176534E+005  0.1043930E+01  0.7957747E-01            NaN
         13   -1    0    0    0    0  0.00000000000E+00  0.00000000000E+00  0.74505805969E-08  0.10566000000E+00  0.10566000000E+00 0. -1.
     999900   -1    0    0    0    0 -0.00000000000E+00 -0.00000000000E+00 -0.74505805969E-08  0.93827000000E+00  0.93827000000E+00 0.  1.
     999902    2    1    2    0    0 -0.10848136748E-01  0.11650291982E-01 -0.16015614823E-01  0.10213487845E+01  0.10210991276E+01 0.  0.
     999903    2    3    3    0    0 -0.54218869444E-01  0.36810111027E-01 -0.11558348123E+00  0.13431564142E+00  0.19659102695E-01 0.  0.
         14    1    1    2    0    0  0.10848136748E-01 -0.11650291982E-01  0.16015614823E-01  0.22581215475E-01  0.00000000000E+00 0. -1.
     999901    1    3    3    0    0  0.43370732696E-01 -0.25159819045E-01  0.99567866407E-01  0.88703314311E+00  0.88000000000E+00 0. -1.
        -11    1    4    4    0    0 -0.15031142648E-01  0.70529965204E-02 -0.47425585990E-01  0.50250645137E-01  0.51100000000E-03 0.  1.
         11    1    4    4    0    0 -0.39187726796E-01  0.29757114507E-01 -0.68157895240E-01  0.84064996281E-01  0.51100000000E-03 0. -1.
</event>
<event>
 8    1  0.1176534E+005  0.1043930E+01  0.7957747E-01            NaN
         13   -1    0    0    0    0  0.00000000000E+00  0.00000000000E+00  0.74505805969E-08  0.10566000000E+00  0.10566000000E+00 0.  1.
     999900   -1    0    0    0    0 -0.00000000000E+00 -0.00000000000E+00 -0.74505805969E-08  0.93827000000E+00  0.93827000000E+00 0. -1.
     999902    2    1    2    0    0 -0.65456184207E-02 -0.16544603695E-01 -0.15231485230E-01  0.10205084891E+01  0.10202396822E+01 0.  0.
     999903    2    3    3    0    0  0.98966179809E-01  0.78915094261E-01 -0.14765748271E-01  0.12907957412E+00  0.20533199568E-01 0.  0.
         14    1    1    2    0    0  0.65456184207E-02  0.16544603695E-01  0.15231485230E-01  0.23421510930E-01  0.00000000000E+00 0. -1.
     999901    1    3    3    0    0 -0.10551179823E+00 -0.95459697956E-01 -0.46573695962E-03  0.89142891495E+00  0.88000000000E+00 0. -1.
        -11    1    4    4    0    0  0.37951673026E-01  0.40038130637E-01 -0.13136960480E-01  0.56711746950E-01  0.51100000000E-03 0. -1.
         11    1    4    4    0    0  0.61014506783E-01  0.38876963624E-01 -0.16287877909E-02  0.72367827170E-01  0.51100000000E-03 0.  1.
</event>
<event>
 8    1  0.1176534E+005  0.1043930E+01  0.7957747E-01            NaN
         13   -1    0    0    0    0  0.00000000000E+00  0.00000000000E+00  0.74505805969E-08  0.10566000000E+00  0.10566000000E+00 0. -1.
     999900   -1    0    0    0    0 -0.00000000000E+00 -0.00000000000E+00 -0.74505805969E-08  0.93827000000E+00  0.93827000000E+00 0. -1.
     999902    2    1    2    0    0 -0.22496948577E-01 -0.68675205906E-02 -0.75690166656E-02  0.10192203754E+01  0.10189208056E+01 0.  0.
     999903    2    3    3    0    0  0.80119701753E-01 -0.43754633398E-01  0.86792715761E-01  0.12748332192E+00  0.19631283843E-01 0.  0.
         14    1    1    2    0    0  0.22496948577E-01  0.68675205906E-02  0.75690166656E-02  0.24709624595E-01  0.00000000000E+00 0.  1.
     999901    1    3    3    0    0 -0.10261665033E+00  0.36887112807E-01 -0.94361732426E-01  0.89173705349E+00  0.88000000000E+00 0. -1.
        -11    1    4    4    0    0  0.71402764783E-01 -0.35214323343E-01  0.82196571701E-01  0.11443312854E+00  0.51100000000E-03 0.  1.
         11    1    4    4    0    0  0.87169369697E-02 -0.85403100547E-02  0.45961440598E-02  0.13050193377E-01  0.51100000000E-03 0. -1.
</event>
<event>
 8    1  0.1176534E+005  0.1043930E+01  0.7957747E-01            NaN
         13   -1    0    0    0    0  0.00000000000E+00  0.00000000000E+00  0.74505805969E-08  0.10566000000E+00  0.10566000000E+00 0.  1.
     999900   -1    0    0    0    0 -0.00000000000E+00 -0.00000000000E+00 -0.74505805969E-08  0.93827000000E+00  0.93827000000E+00 0. -1.
     999902    2    1    2    0    0  0.19565033128E-01 -0.73159109780E-02 -0.76453820438E-02  0.10216866877E+01  0.10214445276E+01 0.  0.
     999903    2    3    3    0    0 -0.57248034536E-01 -0.10028787645E+00  0.58505499474E-01  0.13100157341E+00  0.20087885555E-01 0.  0.
         14    1    1    2    0    0 -0.19565033128E-01  0.73159109780E-02  0.76453820438E-02  0.22243312283E-01  0.00000000000E+00 0. -1.
     999901    1    3    3    0    0  0.76813067664E-01  0.92971965468E-01 -0.66150881518E-01  0.89068511431E+00  0.88000000000E+00 0. -1.
        -11    1    4    4    0    0 -0.34931229657E-01 -0.78913557890E-01  0.43614611017E-01  0.96695583350E-01  0.51100000000E-03 0.  1.
         11    1    4    4    0    0 -0.22316804880E-01 -0.21374318556E-01  0.14890888456E-01  0.34305990057E-01  0.51100000000E-03 0. -1.
</event>
<event>
 8    1  0.1176534E+005  0.1043930E+01  0.7957747E-01            NaN
         13   -1    0    0    0    0  0.00000000000E+00  0.00000000000E+00  0.74505805969E-08  0.10566000000E+00  0.10566000000E+00 0. -1.
     999900   -1    0    0    0    0 -0.00000000000E+00 -0.00000000000E+00 -0.74505805969E-08  0.93827000000E+00  0.93827000000E+00 0.  1.
     999902    2    1    2    0    0  0.42156863387E-02  0.18877519085E-01 -0.12885161308E-01  0.10206886549E+01  0.10204240149E+01 0.  0.
     999903    2    3    3    0    0 -0.99915748453E-01 -0.67311513933E-01 -0.45674010012E-01  0.12976384682E+00  0.15444871478E-01 0.  0.
         14    1    1    2    0    0 -0.42156863387E-02 -0.18877519085E-01  0.12885161308E-01  0.23241345056E-01  0.00000000000E+00 0. -1.
     999901    1    3    3    0    0  0.10413143479E+00  0.86189033018E-01  0.32788848705E-01  0.89092480812E+00  0.88000000000E+00 0. -1.
        -11    1    4    4    0    0 -0.20527821614E-01 -0.20160931484E-01 -0.67424652592E-02  0.29556328887E-01  0.51100000000E-03 0. -1.
         11    1    4    4    0    0 -0.79387926840E-01 -0.47150582448E-01 -0.38931544753E-01  0.10020751794E+00  0.51100000000E-03 0.  1.
</event>
<event>
 8    1  0.1176534E+005  0.1043930E+01  0.7957747E-01            NaN
         13   -1    0    0    0    0  0.00000000000E+00  0.00000000000E+00  0.74505805969E-08  0.10566000000E+00  0.10566000000E+00 0.  1.
     999900   -1    0    0    0    0 -0.00000000000E+00 -0.00000000000E+00 -0.74505805969E-08  0.93827000000E+00  0.93827000000E+00 0. -1.
     999902    2    1    2    0    0  0.18143675863E-02  0.19397540249E-01  0.93498611024E-02  0.10223203633E+01  0.10220919473E+01 0.  0.
     999903    2    3    3    0    0  0.17612137648E-01  0.12732473953E+00 -0.34355506398E-01  0.13450956752E+00  0.19767302426E-01 0.  0.
         14    1    1    2    0    0 -0.18143675863E-02 -0.19397540249E-01 -0.93498611024E-02  0.21609636741E-01  0.00000000000E+00 0. -1.
     999901    1    3    3    0    0 -0.15797770062E-01 -0.10792719928E+00  0.43705367500E-01  0.88781079574E+00  0.88000000000E+00 0. -1.
        -11    1    4    4    0    0  0.11120505340E-01  0.11050617391E+00 -0.23713733561E-01  0.11356884428E+00  0.51100000000E-03 0. -1.
         11    1    4    4    0    0  0.64916323086E-02  0.16818565621E-01 -0.10641772836E-01  0.20940723237E-01  0.51100000000E-03 0.  1.
</event>
<event>
 8    1  0.1176534E+005  0.1043930E+01  0.7957747E-01            NaN
         13   -1    0    0    0    0  0.00000000000E+00  0.00000000000E+00  0.74505805969E-08  0.10566000000E+00  0.10566000000E+00 0.  1.
     999900   -1    0    0    0    0 -0.00000000000E+00 -0.00000000000E+00 -0.74505805969E-08  0.93827000000E+00  0.93827000000E+00 0. -1.
     999902    2    1    2    0    0  0.60624575738E-02  0.17643030408E-03  0.23081477504E-01  0.10200649812E+01  0.10197857749E+01 0.  0.
     999903    2    3    3    0    0 -0.11112556481E-01  0.29938513107E-01  0.12779054863E+00  0.13319139816E+00  0.19741346145E-01 0.  0.
         14    1    1    2    0    0 -0.60624575738E-02 -0.17643030408E-03 -0.23081477504E-01  0.23865018820E-01  0.00000000000E+00 0. -1.
     999901    1    3    3    0    0  0.17175014054E-01 -0.29762082803E-01 -0.10470907112E+00  0.88687358302E+00  0.88000000000E+00 0. -1.
        -11    1    4    4    0    0  0.47733866151E-03  0.73609959427E-03  0.38850736969E-01  0.38864001066E-01  0.51100000000E-03 0. -1.
         11    1    4    4    0    0 -0.11589895142E-01  0.29202413512E-01  0.88939811657E-01  0.94327397097E-01  0.51100000000E-03 0.  1.
</event>
<event>
 8    1  0.1176534E+005  0.1043930E+01  0.7957747E-01            NaN
         13   -1    0    0    0    0  0.00000000000E+00  0.00000000000E+00  0.74505805969E-08  0.10566000000E+00  0.10566000000E+00 0. -1.
     999900   -1    0    0    0    0 -0.00000000000E+00 -0.00000000000E+00 -0.74505805969E-08  0.93827000000E+00  0.93827000000E+00 0. -1.
     999902    2    1    2    0    0 -0.10847570554E-01  0.20182497369E-01  0.23982764090E-02  0.10208918856E+01  0.10206319059E+01 0.  0.
     999903    2    3    3    0    0  0.10079760574E+00  0.62877535641E-01  0.52338935812E-01  0.13140800086E+00  0.20370485453E-01 0.  0.
         14    1    1    2    0    0  0.10847570554E-01 -0.20182497369E-01 -0.23982764090E-02  0.23038114435E-01  0.00000000000E+00 0. -1.
     999901    1    3    3    0    0 -0.11164517630E+00 -0.42695038272E-01 -0.49940659403E-01  0.88948388470E+00  0.88000000000E+00 0.  1.
        -11    1    4    4    0    0  0.63847647764E-01  0.31038394013E-01  0.38216754844E-01  0.80626828660E-01  0.51100000000E-03 0.  1.
         11    1    4    4    0    0  0.36949957977E-01  0.31839141627E-01  0.14122180968E-01  0.50781172203E-01  0.51100000000E-03 0. -1.
</event>
<event>
 8    1  0.1176534E+005  0.1043930E+01  0.7957747E-01            NaN
         13   -1    0    0    0    0  0.00000000000E+00  0.00000000000E+00  0.74505805969E-08  0.10566000000E+00  0.10566000000E+00 0. -1.
     999900   -1    0    0    0    0 -0.00000000000E+00 -0.00000000000E+00 -0.74505805969E-08  0.93827000000E+00  0.93827000000E+00 0.  1.
     999902    2    1    2    0    0 -0.25819083178E-02  0.22331568108E-01 -0.72315643836E-02  0.10203151592E+01  0.10200418439E+01 0.  0.
     999903    2    3    3    0    0 -0.12688049356E+00 -0.19166540443E-01 -0.14718127854E-01  0.13058020989E+00  0.19197708432E-01 0.  0.
         14    1    1    2    0    0  0.25819083178E-02 -0.22331568108E-01  0.72315643836E-02  0.23614840846E-01  0.00000000000E+00 0. -1.
     999901    1    3    3    0    0  0.12429858524E+00  0.41498108552E-01  0.74865634705E-02  0.88973494926E+00  0.88000000000E+00 0.  1.
        -11    1    4    4    0    0 -0.10256106520E+00 -0.23032532094E-01 -0.11699250993E-01  0.10576579421E+00  0.51100000000E-03 0. -1.
         11    1    4    4    0    0 -0.24319428357E-01  0.38659916502E-02 -0.30188768611E-02  0.24814415680E-01  0.51100000000E-03 0.  1.
</event>
<event>
 8    1  0.1176534E+005  0.1043930E+01  0.7957747E-01            NaN
         13   -1    0    0    0    0  0.00000000000E+00  0.00000000000E+00  0.74505805969E-08  0.10566000000E+00  0.10566000000E+00 0. -1.
     999900   -1    0    0    0    0 -0.00000000000E+00 -0.00000000000E+00 -0.74505805969E-08  0.93827000000E+00  0.93827000000E+00 0. -1.
     999902    2    1    2    0    0 -0.14126663871E-01  0.18935099120E-01 -0.25131970302E-02  0.10201725429E+01  0.10198958772E+01 0.  0.
     999903    2    3    3    0    0 -0.26439611524E-01  0.12541584517E+00  0.29602367497E-01  0.13308677054E+00  0.20189132037E-01 0.  0.
         14    1    1    2    0    0  0.14126663871E-01 -0.18935099120E-01  0.25131970302E-02  0.23757457148E-01  0.00000000000E+00 0.  1.
     999901    1    3    3    0    0  0.12312947653E-01 -0.10648074605E+00 -0.32115564528E-01  0.88708577232E+00  0.88000000000E+00 0.  1.
        -11    1    4    4    0    0 -0.20970253352E-01  0.69290583362E-01  0.24644529863E-01  0.76475816056E-01  0.51100000000E-03 0. -1.
         11    1    4    4    0    0 -0.54693581717E-02  0.56125261811E-01  0.49578376347E-02  0.56610954481E-01  0.51100000000E-03 0.  1.
</event>
<event>
 8    1  0.1176534E+005  0.1043930E+01  0.7957747E-01            NaN
         13   -1    0    0    0    0  0.00000000000E+00  0.00000000000E+00  0.74505805969E-08  0.10566000000E+00  0.10566000000E+00 0.  1.
     999900   -1    0    0    0    0 -0.00000000000E+00 -0.00000000000E+00 -0.74505805969E-08  0.93827000000E+00  0.93827000000E+00 0.  1.
     999902    2    1    2    0    0 -0.11559807607E-01 -0.20749652164E-01  0.28969495048E-02  0.10200015748E+01  0.10197208653E+01 0.  0.
     999903    2    3    3    0    0  0.12586406911E+00 -0.23103755225E-01  0.56751478022E-02  0.12932846860E+00  0.17835304614E-01 0.  0.
         14    1    1    2    0    0  0.11559807607E-01  0.20749652164E-01 -0.28969495048E-02  0.23928425215E-01  0.00000000000E+00 0. -1.
     999901    1    3    3    0    0 -0.13742387671E+00  0.23541030613E-02 -0.27781982974E-02  0.89067310618E+00  0.88000000000E+00 0.  1.
        -11    1    4    4    0    0  0.10014571160E+00 -0.17299431565E-01 -0.26824859055E-02  0.10166558285E+00  0.51100000000E-03 0.  1.
         11    1    4    4    0    0  0.25718357508E-01 -0.58043236594E-02  0.83576337077E-02  0.27662885754E-01  0.51100000000E-03 0. -1.
</event>
<event>
 7    1  0.1176534E+005  0.1043930E+01  0.7957747E-01            NaN
         13   -1    0    0    0    0  0.00000000000E+00  0.00000000000E+00  0.74505805969E-08  0.10566000000E+00  0.10566000000E+00 0. -1.
     999900   -1    0    0    0    0 -0.00000000000E+00 -0.00000000000E+00 -0.74505805969E-08  0.93827000000E+00  0.93827000000E+00 0.  1.
     999903    2    1    2    0    0  0.25941740125E-01 -0.90535639276E-01 -0.58604431204E-01  0.11262551450E+00  0.19502597252E-01 0.  0.
         14    1    1    2    0    0 -0.40194531526E-01  0.22875264800E-01 -0.37019273331E-02  0.46395930536E-01  0.00000000000E+00 0.  1.
     999901    1    1    2    0    0  0.14252791401E-01  0.67660374477E-01  0.62306358537E-01  0.88490855497E+00  0.88000000000E+00 0.  1.
        -11    1    3    3    0    0  0.28729544171E-01 -0.78377088223E-01 -0.48348960076E-01  0.96468843302E-01  0.51100000000E-03 0. -1.
         11    1    3    3    0    0 -0.27878040459E-02 -0.12158551054E-01 -0.10255471128E-01  0.16156671197E-01  0.51100000000E-03 0.  1.
</event>
<event>
 8    1  0.1176534E+005  0.1043930E+01  0.7957747E-01            NaN
         13   -1    0    0    0    0  0.00000000000E+00  0.00000000000E+00  0.74505805969E-08  0.10566000000E+00  0.10566000000E+00 0.  1.
     999900   -1    0    0    0    0 -0.00000000000E+00 -0.00000000000E+00 -0.74505805969E-08  0.93827000000E+00  0.93827000000E+00 0. -1.
     999902    2    1    2    0    0 -0.33994148235E-03 -0.20458821122E-01  0.30641921654E-03  0.10234660606E+01  0.10232614546E+01 0.  0.
     999903    2    3    3    0    0 -0.70664402723E-01  0.10907053526E+00 -0.13160371522E-02  0.13120712042E+00  0.17992693572E-01 0.  0.
         14    1    1    2    0    0  0.33994148235E-03  0.20458821122E-01 -0.30641921654E-03  0.20463939373E-01  0.00000000000E+00 0. -1.
     999901    1    3    3    0    0  0.70324461241E-01 -0.12952935638E+00  0.16224563688E-02  0.89225894021E+00  0.88000000000E+00 0.  1.
        -11    1    4    4    0    0 -0.23030171642E-01  0.51468862080E-01 -0.25938266515E-02  0.56448397916E-01  0.51100000000E-03 0. -1.
         11    1    4    4    0    0 -0.47634231082E-01  0.57601673177E-01  0.12777894993E-02  0.74758722505E-01  0.51100000000E-03 0.  1.
</event>
<event>
 8    1  0.1176534E+005  0.1043930E+01  0.7957747E-01            NaN
         13   -1    0    0    0    0  0.00000000000E+00  0.00000000000E+00  0.74505805969E-08  0.10566000000E+00  0.10566000000E+00 0.  1.
     999900   -1    0    0    0    0 -0.00000000000E+00 -0.00000000000E+00 -0.74505805969E-08  0.93827000000E+00  0.93827000000E+00 0.  1.
     999902    2    1    2    0    0  0.87684528607E-02  0.16730074697E-01 -0.14609576716E-01  0.10200507015E+01  0.10197711570E+01 0.  0.
     999903    2    3    3    0    0 -0.40850306519E-01  0.28614564820E-01  0.11725341786E+00  0.12876448949E+00  0.18557717786E-01 0.  0.
         14    1    1    2    0    0 -0.87684528607E-02 -0.16730074697E-01  0.14609576716E-01  0.23879298498E-01  0.00000000000E+00 0.  1.
     999901    1    3    3    0    0  0.49618759379E-01 -0.11884490123E-01 -0.13186299458E+00  0.89128621201E+00  0.88000000000E+00 0.  1.
        -11    1    4    4    0    0 -0.17566041606E-01  0.11755850300E-01  0.28608264313E-01  0.35573300971E-01  0.51100000000E-03 0. -1.
         11    1    4    4    0    0 -0.23284264912E-01  0.16858714520E-01  0.88645153552E-01  0.93191188516E-01  0.51100000000E-03 0.  1.
</event>
<event>
 8    1  0.1176534E+005  0.1043930E+01  0.7957747E-01            NaN
         13   -1    0    0    0    0  0.00000000000E+00  0.00000000000E+00  0.74505805969E-08  0.10566000000E+00  0.10566000000E+00 0. -1.
     999900   -1    0    0    0    0 -0.00000000000E+00 -0.00000000000E+00 -0.74505805969E-08  0.93827000000E+00  0.93827000000E+00 0. -1.
     999902    2    1    2    0    0  0.94887321212E-02 -0.40158000253E-02 -0.21544200262E-01  0.10200487259E+01  0.10197691346E+01 0.  0.
     999903    2    3    3    0    0 -0.76584604722E-01 -0.64855790507E-02  0.99755406484E-01  0.12756437663E+00  0.20353492209E-01 0.  0.
         14    1    1    2    0    0 -0.94887321212E-02  0.40158000253E-02  0.21544200262E-01  0.23881274088E-01  0.00000000000E+00 0. -1.
     999901    1    3    3    0    0  0.86073336843E-01  0.24697790254E-02 -0.12129960675E+00  0.89248434929E+00  0.88000000000E+00 0. -1.
        -11    1    4    4    0    0 -0.73492161737E-01 -0.94838354374E-02  0.98051931291E-01  0.12290436657E+00  0.51100000000E-03 0.  1.
         11    1    4    4    0    0 -0.30924429854E-02  0.29982563866E-02  0.17034751930E-02  0.46600100549E-02  0.51100000000E-03 0. -1.
</event>
<event>
 8    1  0.1176534E+005  0.1043930E+01  0.7957747E-01            NaN
         13   -1    0    0    0    0  0.00000000000E+00  0.00000000000E+00  0.74505805969E-08  0.10566000000E+00  0.10566000000E+00 0. -1.
     999900   -1    0    0    0    0 -0.00000000000E+00 -0.00000000000E+00 -0.74505805969E-08  0.93827000000E+00  0.93827000000E+00 0.  1.
     999902    2    1    2    0    0 -0.33759442064E-02 -0.15958642267E-01 -0.12366897081E-01  0.10234601342E+01  0.10232554084E+01 0.  0.
     999903    2    3    3    0    0  0.10520074405E+00 -0.35289630618E-02 -0.80663667335E-01  0.13407391721E+00  0.19736715010E-01 0.  0.
         14    1    1    2    0    0  0.33759442064E-02  0.15958642267E-01  0.12366897081E-01  0.20469865796E-01  0.00000000000E+00 0. -1.
     999901    1    3    3    0    0 -0.10857668825E+00 -0.12429679205E-01  0.68296770253E-01  0.88938621700E+00  0.88000000000E+00 0. -1.
        -11    1    4    4    0    0  0.62160350720E-01  0.37026442022E-02 -0.37517311568E-01  0.72700952979E-01  0.51100000000E-03 0. -1.
         11    1    4    4    0    0  0.43040393325E-01 -0.72316072640E-02 -0.43146355767E-01  0.61372964228E-01  0.51100000000E-03 0.  1.
</event>
<event>
 8    1  0.1176534E+005  0.1043930E+01  0.7957747E-01            NaN
         13   -1    0    0    0    0  0.00000000000E+00  0.00000000000E+00  0.74505805969E-08  0.10566000000E+00  0.10566000000E+00 0.  1.
     999900   -1    0    0    0    0 -0.00000000000E+00 -0.00000000000E+00 -0.74505805969E-08  0.93827000000E+00  0.93827000000E+00 0. -1.
     999902    2    1    2    0    0  0.13489726674E-01 -0.43643490183E-03  0.19398429703E-01  0.10202981935E+01  0.10200244808E+01 0.  0.
     999903    2    3    3    0    0 -0.52736860511E-01  0.37266210460E-01 -0.10849525167E+00  0.12779371510E+00  0.19750116083E-01 0.  0.
         14    1    1    2    0    0 -0.13489726674E-01  0.43643490183E-03 -0.19398429703E-01  0.23631806450E-01  0.00000000000E+00 0. -1.
     999901    1    3    3    0    0  0.66226587186E-01 -0.37702645362E-01  0.12789368137E+00  0.89250447845E+00  0.88000000000E+00 0.  1.
        -11    1    4    4    0    0 -0.75658903478E-02  0.47030992066E-02 -0.31707265917E-01  0.32938938535E-01  0.51100000000E-03 0. -1.
         11    1    4    4    0    0 -0.45170970163E-01  0.32563111254E-01 -0.76787985754E-01  0.94854776565E-01  0.51100000000E-03 0.  1.
</event>
<event>
 7    1  0.1176534E+005  0.1043930E+01  0.7957747E-01            NaN
         13   -1    0    0    0    0  0.00000000000E+00  0.00000000000E+00  0.74505805969E-08  0.10566000000E+00  0.10566000000E+00 0.  1.
     999900   -1    0    0    0    0 -0.00000000000E+00 -0.00000000000E+00 -0.74505805969E-08  0.93827000000E+00  0.93827000000E+00 0. -1.
     999903    2    1    2    0    0 -0.93436619013E-01  0.47124541023E-01  0.10566466771E-01  0.10736070356E+00  0.21530125613E-01 0.  0.
         14    1    1    2    0    0  0.66416017515E-02 -0.51504970427E-01 -0.59981975490E-02  0.52276679565E-01  0.00000000000E+00 0. -1.
     999901    1    1    2    0    0  0.86795017261E-01  0.43804294039E-02 -0.45682692218E-02  0.88429261688E+00  0.88000000000E+00 0.  1.
        -11    1    3    3    0    0 -0.12195291397E-01  0.11056505747E-01 -0.47967468231E-02  0.17153464742E-01  0.51100000000E-03 0.  1.
         11    1    3    3    0    0 -0.81241327616E-01  0.36068035276E-01  0.15363213594E-01  0.90207238814E-01  0.51100000000E-03 0. -1.
</event>
<event>
 8    1  0.1176534E+005  0.1043930E+01  0.7957747E-01            NaN
         13   -1    0    0    0    0  0.00000000000E+00  0.00000000000E+00  0.74505805969E-08  0.10566000000E+00  0.10566000000E+00 0. -1.
     999900   -1    0    0    0    0 -0.00000000000E+00 -0.00000000000E+00 -0.74505805969E-08  0.93827000000E+00  0.93827000000E+00 0.  1.
     999902    2    1    2    0    0  0.34893340939E-02  0.23698700461E-01 -0.53424899355E-02  0.10193872607E+01  0.10190917727E+01 0.  0.
     999903    2    3    3    0    0  0.60565911029E-02 -0.10933803648E+00 -0.62251292282E-01  0.12756666436E+00  0.20162885404E-01 0.  0.
         14    1    1    2    0    0 -0.34893340939E-02 -0.23698700461E-01  0.53424899355E-02  0.24542739347E-01  0.00000000000E+00 0. -1.
     999901    1    3    3    0    0 -0.25672570089E-02  0.13303673694E+00  0.56908802347E-01  0.89182059629E+00  0.88000000000E+00 0. -1.
        -11    1    4    4    0    0  0.13297953027E-01 -0.66629847640E-01 -0.40360105366E-01  0.79028927472E-01  0.51100000000E-03 0.  1.
         11    1    4    4    0    0 -0.72413619239E-02 -0.42708188842E-01 -0.21891186916E-01  0.48537736889E-01  0.51100000000E-03 0. -1.
</event>
<event>
 8    1  0.1176534E+005  0.1043930E+01  0.7957747E-01            NaN
         13   -1    0    0    0    0  0.00000000000E+00  0.00000000000E+00  0.74505805969E-08  0.10566000000E+00  0.10566000000E+00 0. -1.
     999900   -1    0    0    0    0 -0.00000000000E+00 -0.00000000000E+00 -0.74505805969E-08  0.93827000000E+00  0.93827000000E+00 0.  1.
     999902    2    1    2    0    0  0.62503579116E-02  0.12314742572E-01  0.18477914298E-01  0.10208615546E+01  0.10206008820E+01 0.  0.
     999903    2    3    3    0    0  0.51103339854E-01 -0.10248610363E+00 -0.55831588332E-01  0.12917050578E+00  0.21281459685E-01 0.  0.
         14    1    1    2    0    0 -0.62503579116E-02 -0.12314742572E-01 -0.18477914298E-01  0.23068445449E-01  0.00000000000E+00 0.  1.
     999901    1    3    3    0    0 -0.44852981942E-01  0.11480084620E+00  0.74309502629E-01  0.89169104877E+00  0.88000000000E+00 0.  1.
        -11    1    4    4    0    0  0.41133775681E-01 -0.59420412453E-01 -0.34189691051E-01  0.79949790575E-01  0.51100000000E-03 0. -1.
         11    1    4    4    0    0  0.99695641729E-02 -0.43065691177E-01 -0.21641897280E-01  0.49220715205E-01  0.51100000000E-03 0.  1.
</event>
<event>
 8    1  0.1176534E+005  0.1043930E+01  0.7957747E-01            NaN
         13   -1    0    0    0    0  0.00000000000E+00  0.00000000000E+00  0.74505805969E-08  0.10566000000E+00  0.10566000000E+00 0.  1.
     999900   -1    0    0    0    0 -0.00000000000E+00 -0.00000000000E+00 -0.74505805969E-08  0.93827000000E+00  0.93827000000E+00 0.  1.
     999902    2    1    2    0    0  0.22304340004E-01  0.46469282336E-02  0.60750270432E-02  0.10203506981E+01  0.10200782145E+01 0.  0.
     999903    2    3    3    0    0 -0.19935024476E-01 -0.81776568549E-01 -0.95490585314E-01  0.12930145236E+00  0.22706856529E-01 0.  0.
         14    1    1    2    0    0 -0.22304340004E-01 -0.46469282336E-02 -0.60750270432E-02  0.23579301910E-01  0.00000000000E+00 0. -1.
     999901    1    3    3    0    0  0.42239364479E-01  0.86423496783E-01  0.10156561236E+00  0.89104924573E+00  0.88000000000E+00 0. -1.
        -11    1    4    4    0    0  0.32557567389E-04 -0.37632656574E-01 -0.31775536732E-01  0.49256103748E-01  0.51100000000E-03 0.  1.
         11    1    4    4    0    0 -0.19967582043E-01 -0.44143911976E-01 -0.63715048582E-01  0.80045348609E-01  0.51100000000E-03 0. -1.
</event>
<event>
 8    1  0.1176534E+005  0.1043930E+01  0.7957747E-01            NaN
         13   -1    0    0    0    0  0.00000000000E+00  0.00000000000E+00  0.74505805969E-08  0.10566000000E+00  0.10566000000E+00 0. -1.
     999900   -1    0    0    0    0 -0.00000000000E+00 -0.00000000000E+00 -0.74505805969E-08  0.93827000000E+00  0.93827000000E+00 0.  1.
     999902    2    1    2    0    0 -0.11648645599E-01  0.19732330113E-01  0.15151401515E-01  0.10164596384E+01  0.10160883701E+01 0.  0.
     999903    2    3    3    0    0 -0.76543396577E-02  0.12729238075E+00 -0.10830223668E-01  0.12952099129E+00  0.19911160868E-01 0.  0.
         14    1    1    2    0    0  0.11648645599E-01 -0.19732330113E-01 -0.15151401515E-01  0.27470361553E-01  0.00000000000E+00 0.  1.
     999901    1    3    3    0    0 -0.39943059413E-02 -0.10756005064E+00  0.25981625183E-01  0.88693864716E+00  0.88000000000E+00 0.  1.
        -11    1    4    4    0    0  0.64753651289E-02  0.47205489710E-01 -0.63597068053E-02  0.48072815644E-01  0.51100000000E-03 0.  1.
         11    1    4    4    0    0 -0.14129704787E-01  0.80086891042E-01 -0.44705168628E-02  0.81448175646E-01  0.51100000000E-03 0. -1.
</event>
<event>
 7    1  0.1176534E+005  0.1043930E+01  0.7957747E-01            NaN
         13   -1    0    0    0    0  0.00000000000E+00  0.00000000000E+00  0.74505805969E-08  0.10566000000E+00  0.10566000000E+00 0.  1.
     999900   -1    0    0    0    0 -0.00000000000E+00 -0.00000000000E+00 -0.74505805969E-08  0.93827000000E+00  0.93827000000E+00 0.  1.
     999903    2    1    2    0    0  0.85116050002E-01  0.13529904122E-01  0.44486602978E-01  0.99052391413E-01  0.20112635991E-01 0.  0.
         14    1    1    2    0    0  0.35329261242E-01 -0.40753709334E-01 -0.14048564290E-01  0.55734941312E-01  0.00000000000E+00 0. -1.
     999901    1    1    2    0    0 -0.12044531124E+00  0.27223805212E-01 -0.30438038688E-01  0.88914266728E+00  0.88000000000E+00 0.  1.
        -11    1    3    3    0    0  0.17059512623E-01 -0.52469556719E-02  0.10243063757E-01  0.20584921445E-01  0.51100000000E-03 0. -1.
         11    1    3    3    0    0  0.68056537380E-01  0.18776859794E-01  0.34243539220E-01  0.78467469968E-01  0.51100000000E-03 0.  1.
</event>
<event>
 8    1  0.1176534E+005  0.1043930E+01  0.7957747E-01            NaN
         13   -1    0    0    0    0  0.00000000000E+00  0.00000000000E+00  0.74505805969E-08  0.10566000000E+00  0.10566000000E+00 0. -1.
     999900   -1    0    0    0    0 -0.00000000000E+00 -0.00000000000E+00 -0.74505805969E-08  0.93827000000E+00  0.93827000000E+00 0. -1.
     999902    2    1    2    0    0  0.22658237468E-01  0.52754891741E-02  0.29621792576E-03  0.10206638388E+01  0.10203986268E+01 0.  0.
     999903    2    3    3    0    0  0.30211351930E-01  0.10931743572E+00 -0.64726171794E-01  0.13212026231E+00  0.20081306278E-01 0.  0.
         14    1    1    2    0    0 -0.22658237468E-01 -0.52754891741E-02 -0.29621792576E-03  0.23266161184E-01  0.00000000000E+00 0. -1.
     999901    1    3    3    0    0 -0.75531144614E-02 -0.10404194654E+00  0.65022389720E-01  0.88854357650E+00  0.88000000000E+00 0.  1.
        -11    1    4    4    0    0  0.11839130983E-01  0.47111591667E-01 -0.16544731023E-01  0.51319161504E-01  0.51100000000E-03 0. -1.
         11    1    4    4    0    0  0.18372220947E-01  0.62205844048E-01 -0.48181440771E-01  0.80801100809E-01  0.51100000000E-03 0.  1.
</event>
<event>
 8    1  0.1176534E+005  0.1043930E+01  0.7957747E-01            NaN
         13   -1    0    0    0    0  0.00000000000E+00  0.00000000000E+00  0.74505805969E-08  0.10566000000E+00  0.10566000000E+00 0. -1.
     999900   -1    0    0    0    0 -0.00000000000E+00 -0.00000000000E+00 -0.74505805969E-08  0.93827000000E+00  0.93827000000E+00 0. -1.
     999902    2    1    2    0    0  0.21232512122E-01  0.11449769705E-01 -0.50109631329E-02  0.10192920912E+01  0.10189942790E+01 0.  0.
     999903    2    3    3    0    0 -0.72772870833E-01 -0.62197014380E-02 -0.10388219064E+00  0.12860429976E+00  0.20321933233E-01 0.  0.
         14    1    1    2    0    0 -0.21232512122E-01 -0.11449769705E-01  0.50109631329E-02  0.24637908775E-01  0.00000000000E+00 0. -1.
     999901    1    3    3    0    0  0.94005382954E-01  0.17669471143E-01  0.98871227504E-01  0.89068779146E+00  0.88000000000E+00 0.  1.
        -11    1    4    4    0    0 -0.42897359426E-01  0.36878327289E-02 -0.71343637476E-01  0.83330422327E-01  0.51100000000E-03 0. -1.
         11    1    4    4    0    0 -0.29875511407E-01 -0.99075341669E-02 -0.32538553161E-01  0.45273877434E-01  0.51100000000E-03 0.  1.
</event>
<event>
 8    1  0.1176534E+005  0.1043930E+01  0.7957747E-01            NaN
         13   -1    0    0    0    0  0.00000000000E+00  0.00000000000E+00  0.74505805969E-08  0.10566000000E+00  0.10566000000E+00 0. -1.
     999900   -1    0    0    0    0 -0.00000000000E+00 -0.00000000000E+00 -0.74505805969E-08  0.93827000000E+00  0.93827000000E+00 0. -1.
     999902    2    1    2    0    0 -0.12525222507E-03  0.22976004327E-01  0.60303934398E-02  0.10201754613E+01  0.10198988645E+01 0.  0.
     999903    2    3    3    0    0 -0.40516264219E-01  0.12253371446E+00 -0.25377558571E-01  0.13308491862E+00  0.20285370060E-01 0.  0.
         14    1    1    2    0    0  0.12525222507E-03 -0.22976004327E-01 -0.60303934398E-02  0.23754538682E-01  0.00000000000E+00 0.  1.
     999901    1    3    3    0    0  0.40391011994E-01 -0.99557710136E-01  0.31407952011E-01  0.88709054270E+00  0.88000000000E+00 0.  1.
        -11    1    4    4    0    0 -0.16363828572E-01  0.52404067994E-01 -0.67615157979E-03  0.54906097383E-01  0.51100000000E-03 0. -1.
         11    1    4    4    0    0 -0.24152435647E-01  0.70129646469E-01 -0.24701406991E-01  0.78178821236E-01  0.51100000000E-03 0.  1.
</event>
<event>
 8    1  0.1176534E+005  0.1043930E+01  0.7957747E-01            NaN
         13   -1    0    0    0    0  0.00000000000E+00  0.00000000000E+00  0.74505805969E-08  0.10566000000E+00  0.10566000000E+00 0.  1.
     999900   -1    0    0    0    0 -0.00000000000E+00 -0.00000000000E+00 -0.74505805969E-08  0.93827000000E+00  0.93827000000E+00 0.  1.
     999902    2    1    2    0    0  0.54004508589E-02 -0.14716179843E-01 -0.16326806884E-01  0.10212960555E+01  0.10210452182E+01 0.  0.
     999903    2    3    3    0    0 -0.11665953680E+00 -0.33522556669E-01  0.43849997287E-01  0.13063699161E+00  0.20248258765E-01 0.  0.
         14    1    1    2    0    0 -0.54004508589E-02  0.14716179843E-01  0.16326806884E-01  0.22633944457E-01  0.00000000000E+00 0.  1.
     999901    1    3    3    0    0  0.12205998766E+00  0.18806376826E-01 -0.60176804171E-01  0.89065906393E+00  0.88000000000E+00 0.  1.
        -11    1    4    4    0    0 -0.36149020413E-01 -0.19733484445E-01  0.11333867365E-01  0.42718611349E-01  0.51100000000E-03 0. -1.
         11    1    4    4    0    0 -0.80510516391E-01 -0.13789072224E-01  0.32516129922E-01  0.87918380266E-01  0.51100000000E-03 0.  1.
</event>
<event>
 8    1  0.1176534E+005  0.1043930E+01  0.7957747E-01            NaN
         13   -1    0    0    0    0  0.00000000000E+00  0.00000000000E+00  0.74505805969E-08  0.10566000000E+00  0.10566000000E+00 0. -1.
     999900   -1    0    0    0    0 -0.00000000000E+00 -0.00000000000E+00 -0.74505805969E-08  0.93827000000E+00  0.93827000000E+00 0. -1.
     999902    2    1    2    0    0 -0.17452577077E-01 -0.11743871057E-01 -0.10268618539E-01  0.10205215511E+01  0.10202530474E+01 0.  0.
     999903    2    3    3    0    0 -0.70077979400E-01 -0.52275192526E-01 -0.99065205533E-01  0.13356210734E+00  0.19526971559E-01 0.  0.
         14    1    1    2    0    0  0.17452577077E-01  0.11743871057E-01  0.10268618539E-01  0.23408448918E-01  0.00000000000E+00 0. -1.
     999901    1    3    3    0    0  0.52625402324E-01  0.40531321469E-01  0.88796586993E-01  0.88695944375E+00  0.88000000000E+00 0.  1.
        -11    1    4    4    0    0 -0.40935412744E-01 -0.38837318077E-01 -0.72671330867E-01  0.92007764580E-01  0.51100000000E-03 0.  1.
         11    1    4    4    0    0 -0.29142566656E-01 -0.13437874449E-01 -0.26393874665E-01  0.41554342756E-01  0.51100000000E-03 0. -1.
</event>
<event>
 8    1  0.1176534E+005  0.1043930E+01  0.7957747E-01            NaN
         13   -1    0    0    0    0  0.00000000000E+00  0.00000000000E+00  0.74505805969E-08  0.10566000000E+00  0.10566000000E+00 0. -1.
     999900   -1    0    0    0    0 -0.00000000000E+00 -0.00000000000E+00 -0.74505805969E-08  0.93827000000E+00  0.93827000000E+00 0.  1.
     999902    2    1    2    0    0  0.20864355729E-01  0.70729306143E-02 -0.86256179055E-02  0.10202709854E+01  0.10199966346E+01 0.  0.
     999903    2    3    3    0    0 -0.85852250898E-02 -0.88431482021E-01 -0.93676673753E-01  0.13053953561E+00  0.19272209278E-01 0.  0.
         14    1    1    2    0    0 -0.20864355729E-01 -0.70729306143E-02  0.86256179055E-02  0.23659014597E-01  0.00000000000E+00 0. -1.
     999901    1    3    3    0    0  0.29449580819E-01  0.95504412635E-01  0.85051055848E-01  0.88973144979E+00  0.88000000000E+00 0. -1.
        -11    1    4    4    0    0 -0.91084035377E-03 -0.66555392804E-01 -0.59761344164E-01  0.89454621561E-01  0.51100000000E-03 0.  1.
         11    1    4    4    0    0 -0.76743847360E-02 -0.21876089217E-01 -0.33915329589E-01  0.41084914052E-01  0.51100000000E-03 0. -1.
</event>
<event>
 8    1  0.1176534E+005  0.1043930E+01  0.7957747E-01            NaN
         13   -1    0    0    0    0  0.00000000000E+00  0.00000000000E+00  0.74505805969E-08  0.10566000000E+00  0.10566000000E+00 0. -1.
     999900   -1    0    0    0    0 -0.00000000000E+00 -0.00000000000E+00 -0.74505805969E-08  0.93827000000E+00  0.93827000000E+00 0.  1.
     999902    2    1    2    0    0 -0.11772738124E-01 -0.10395217951E-01  0.14988095762E-01  0.10222205335E+01  0.10219899795E+01 0.  0.
     999903    2    3    3    0    0 -0.33035585784E-02  0.11921536746E+00  0.52711833820E-01  0.13188705037E+00  0.19810080546E-01 0.  0.
         14    1    1    2    0    0  0.11772738124E-01  0.10395217951E-01 -0.14988095762E-01  0.21709466455E-01  0.00000000000E+00 0.  1.
     999901    1    3    3    0    0 -0.84691795461E-02 -0.12961058541E+00 -0.37723738057E-01  0.89033348318E+00  0.88000000000E+00 0.  1.
        -11    1    4    4    0    0  0.51711023203E-02  0.71407756937E-01  0.24181993368E-01  0.75570086504E-01  0.51100000000E-03 0.  1.
         11    1    4    4    0    0 -0.84746608986E-02  0.47807610527E-01  0.28529840451E-01  0.56316963863E-01  0.51100000000E-03 0. -1.
</event>
<event>
 8    1  0.1176534E+005  0.1043930E+01  0.7957747E-01            NaN
         13   -1    0    0    0    0  0.00000000000E+00  0.00000000000E+00  0.74505805969E-08  0.10566000000E+00  0.10566000000E+00 0.  1.
     999900   -1    0    0    0    0 -0.00000000000E+00 -0.00000000000E+00 -0.74505805969E-08  0.93827000000E+00  0.93827000000E+00 0.  1.
     999902    2    1    2    0    0  0.15006876853E-01 -0.19843828499E-01 -0.23383330333E-02  0.10189409687E+01  0.10186345007E+01 0.  0.
     999903    2    3    3    0    0 -0.26628913437E-01  0.35928020481E-01  0.11792995286E+00  0.12803777603E+00  0.22051680726E-01 0.  0.
         14    1    1    2    0    0 -0.15006876853E-01  0.19843828499E-01  0.23383330333E-02  0.24989031269E-01  0.00000000000E+00 0. -1.
     999901    1    3    3    0    0  0.41635790291E-01 -0.55771848980E-01 -0.12026828589E+00  0.89090319270E+00  0.88000000000E+00 0.  1.
        -11    1    4    4    0    0 -0.13252523818E-01  0.30745712030E-02  0.23427651153E-01  0.27096094463E-01  0.51100000000E-03 0.  1.
         11    1    4    4    0    0 -0.13376389619E-01  0.32853449278E-01  0.94502301707E-01  0.10094168157E+00  0.51100000000E-03 0. -1.
</event>
<event>
 7    1  0.1377242E+005  0.1043930E+01  0.7957747E-01            NaN
         13   -1    0    0    0    0  0.00000000000E+00  0.00000000000E+00  0.74505805969E-08  0.10566000000E+00  0.10566000000E+00 0. -1.
     999900   -1    0    0    0    0 -0.00000000000E+00 -0.00000000000E+00 -0.74505805969E-08  0.93827000000E+00  0.93827000000E+00 0. -1.
     999903    2    1    2    0    0  0.91226142720E-02  0.53356606665E-01  0.72382323160E-01  0.92492944046E-01  0.19636558414E-01 0.  0.
         14    1    1    2    0    0 -0.49028263355E-01 -0.37657272077E-01 -0.31649727905E-01  0.69451753213E-01  0.00000000000E+00 0.  1.
     999901    1    1    2    0    0  0.39905649083E-01 -0.15699334588E-01 -0.40732595255E-01  0.88198530274E+00  0.88000000000E+00 0.  1.
        -11    1    3    3    0    0  0.11738610795E-01  0.14779278450E-01  0.25218353101E-01  0.31503150779E-01  0.51100000000E-03 0.  1.
         11    1    3    3    0    0 -0.26159965229E-02  0.38577328215E-01  0.47163970059E-01  0.60989793267E-01  0.51100000000E-03 0. -1.
</event>
<event>
 7    1  0.1176534E+005  0.1043930E+01  0.7957747E-01            NaN
         13   -1    0    0    0    0  0.00000000000E+00  0.00000000000E+00  0.74505805969E-08  0.10566000000E+00  0.10566000000E+00 0.  1.
     999900   -1    0    0    0    0 -0.00000000000E+00 -0.00000000000E+00 -0.74505805969E-08  0.93827000000E+00  0.93827000000E+00 0. -1.
     999902    2    1    2    0    0 -0.15395145071E-02  0.17076444880E-01  0.16271801047E-01  0.10202921790E+01  0.10200183252E+01 0.  0.
         14    1    1    2    0    0  0.15395145071E-02 -0.17076444880E-01 -0.16271801047E-01  0.23637821050E-01  0.00000000000E+00 0. -1.
     999901    1    3    3    0    0  0.82147276706E-01  0.94447494255E-01  0.64380746915E-01  0.89118650395E+00  0.88000000000E+00 0.  1.
        -11    1    3    3    0    0 -0.39005909071E-01 -0.32832726536E-01 -0.21164468760E-02  0.51031258485E-01  0.51100000000E-03 0.  1.
         11    1    3    3    0    0 -0.44680882142E-01 -0.44538322840E-01 -0.45992498992E-01  0.78074416520E-01  0.51100000000E-03 0. -1.
</event>
<event>
 8    1  0.1176534E+005  0.1043930E+01  0.7957747E-01            NaN
         13   -1    0    0    0    0  0.00000000000E+00  0.00000000000E+00  0.74505805969E-08  0.10566000000E+00  0.10566000000E+00 0.  1.
     999900   -1    0    0    0    0 -0.00000000000E+00 -0.00000000000E+00 -0.74505805969E-08  0.93827000000E+00  0.93827000000E+00 0. -1.
     999902    2    1    2    0    0  0.17479105312E-01 -0.88443805744E-02  0.13253040694E-01  0.10202786728E+01  0.10200045024E+01 0.  0.
     999903    2    3    3    0    0 -0.15266270390E-01 -0.12207173342E+00  0.43510133552E-01  0.13190477364E+00  0.19265785065E-01 0.  0.
         14    1    1    2    0    0 -0.17479105312E-01  0.88443805744E-02 -0.13253040694E-01  0.23651327190E-01  0.00000000000E+00 0. -1.
     999901    1    3    3    0    0  0.32745375701E-01  0.11322735285E+00 -0.30257092858E-01  0.88837389917E+00  0.88000000000E+00 0. -1.
        -11    1    4    4    0    0 -0.27286915631E-02 -0.88068042558E-01  0.33892184584E-01  0.94405334460E-01  0.51100000000E-03 0. -1.
         11    1    4    4    0    0 -0.12537578827E-01 -0.34003690865E-01  0.96179489675E-02  0.37499439177E-01  0.51100000000E-03 0.  1.
</event>
<event>
 8    1  0.1176534E+005  0.1043930E+01  0.7957747E-01            NaN
         13   -1    0    0    0    0  0.00000000000E+00  0.00000000000E+00  0.74505805969E-08  0.10566000000E+00  0.10566000000E+00 0. -1.
     999900   -1    0    0    0    0 -0.00000000000E+00 -0.00000000000E+00 -0.74505805969E-08  0.93827000000E+00  0.93827000000E+00 0.  1.
     999902    2    1    2    0    0 -0.65368136035E-02  0.91359509612E-02  0.21024510785E-01  0.10200925172E+01  0.10198139625E+01 0.  0.
     999903    2    3    3    0    0 -0.76791615279E-01  0.97009628763E-01 -0.38412993139E-01  0.13094104683E+00  0.19031012915E-01 0.  0.
         14    1    1    2    0    0  0.65368136035E-02 -0.91359509612E-02 -0.21024510785E-01  0.23837482791E-01  0.00000000000E+00 0.  1.
     999901    1    3    3    0    0  0.70254801676E-01 -0.87873677802E-01  0.59437503924E-01  0.88915147038E+00  0.88000000000E+00 0.  1.
        -11    1    4    4    0    0 -0.99037935309E-02  0.25002373964E-01 -0.80504887778E-02  0.28076241214E-01  0.51100000000E-03 0.  1.
         11    1    4    4    0    0 -0.66887821748E-01  0.72007254799E-01 -0.30362504361E-01  0.10286480561E+00  0.51100000000E-03 0. -1.
</event>
<event>
 8    1  0.1176534E+005  0.1043930E+01  0.7957747E-01            NaN
         13   -1    0    0    0    0  0.00000000000E+00  0.00000000000E+00  0.74505805969E-08  0.10566000000E+00  0.10566000000E+00 0. -1.
     999900   -1    0    0    0    0 -0.00000000000E+00 -0.00000000000E+00 -0.74505805969E-08  0.93827000000E+00  0.93827000000E+00 0. -1.
     999902    2    1    2    0    0 -0.27657298010E-01  0.32301580670E-02 -0.20209461439E-01  0.10095238612E+01  0.10089373836E+01 0.  0.
     999903    2    3    3    0    0  0.10633508018E+00  0.18818896130E-01 -0.47618585609E-01  0.11882288656E+00  0.13785809601E-01 0.  0.
         14    1    1    2    0    0  0.27657298010E-01 -0.32301580670E-02  0.20209461439E-01  0.34406138784E-01  0.00000000000E+00 0. -1.
     999901    1    3    3    0    0 -0.13399237819E+00 -0.15588738063E-01  0.27409124171E-01  0.89070097466E+00  0.88000000000E+00 0.  1.
        -11    1    4    4    0    0  0.56912920493E-01  0.92186454431E-02 -0.17965782221E-01  0.60391178120E-01  0.51100000000E-03 0. -1.
         11    1    4    4    0    0  0.49422159687E-01  0.96002506873E-02 -0.29652803388E-01  0.58431708439E-01  0.51100000000E-03 0.  1.
</event>
<event>
 8    1  0.1176534E+005  0.1043930E+01  0.7957747E-01            NaN
         13   -1    0    0    0    0  0.00000000000E+00  0.00000000000E+00  0.74505805969E-08  0.10566000000E+00  0.10566000000E+00 0.  1.
     999900   -1    0    0    0    0 -0.00000000000E+00 -0.00000000000E+00 -0.74505805969E-08  0.93827000000E+00  0.93827000000E+00 0.  1.
     999902    2    1    2    0    0 -0.22730827093E-01 -0.39162364446E-02  0.41344927416E-03  0.10208605755E+01  0.10205998806E+01 0.  0.
     999903    2    3    3    0    0 -0.52933666762E-02 -0.12910046489E+00  0.16739210483E-01  0.13168023011E+00  0.19092722963E-01 0.  0.
         14    1    1    2    0    0  0.22730827093E-01  0.39162364446E-02 -0.41344927416E-03  0.23069424538E-01  0.00000000000E+00 0.  1.
     999901    1    3    3    0    0 -0.17437460416E-01  0.12518422844E+00 -0.16325761209E-01  0.88918034535E+00  0.88000000000E+00 0.  1.
        -11    1    4    4    0    0  0.47867723053E-02 -0.89285055086E-01  0.88165457991E-02  0.89848354752E-01  0.51100000000E-03 0.  1.
         11    1    4    4    0    0 -0.10080138982E-01 -0.39815409801E-01  0.79226646837E-02  0.41831875361E-01  0.51100000000E-03 0. -1.
</event>
<event>
 8    1  0.1176534E+005  0.1043930E+01  0.7957747E-01            NaN
         13   -1    0    0    0    0  0.00000000000E+00  0.00000000000E+00  0.74505805969E-08  0.10566000000E+00  0.10566000000E+00 0. -1.
     999900   -1    0    0    0    0 -0.00000000000E+00 -0.00000000000E+00 -0.74505805969E-08  0.93827000000E+00  0.93827000000E+00 0. -1.
     999902    2    1    2    0    0  0.17842458595E-01 -0.67006418291E-02  0.15544779334E-01  0.10193354458E+01  0.10190386936E+01 0.  0.
     999903    2    3    3    0    0  0.97006934263E-01 -0.21538304726E-01 -0.81837951103E-01  0.13030756853E+00  0.20208124866E-01 0.  0.
         14    1    1    2    0    0 -0.17842458595E-01  0.67006418291E-02 -0.15544779334E-01  0.24594554157E-01  0.00000000000E+00 0.  1.
     999901    1    3    3    0    0 -0.79164475668E-01  0.14837662897E-01  0.97382730437E-01  0.88902787731E+00  0.88000000000E+00 0.  1.
        -11    1    4    4    0    0  0.69547367698E-01 -0.22712176231E-01 -0.52151574514E-01  0.89848356402E-01  0.51100000000E-03 0.  1.
         11    1    4    4    0    0  0.27459566565E-01  0.11738715049E-02 -0.29686376589E-01  0.40459212130E-01  0.51100000000E-03 0. -1.
</event>
<event>
 8    1  0.1176534E+005  0.1043930E+01  0.7957747E-01            NaN
         13   -1    0    0    0    0  0.00000000000E+00  0.00000000000E+00  0.74505805969E-08  0.10566000000E+00  0.10566000000E+00 0.  1.
     999900   -1    0    0    0    0 -0.00000000000E+00 -0.00000000000E+00 -0.74505805969E-08  0.93827000000E+00  0.93827000000E+00 0.  1.
     999902    2    1    2    0    0  0.22622377496E-01  0.31095124718E-02 -0.53715957971E-02  0.10204716311E+01  0.10202019676E+01 0.  0.
     999903    2    3    3    0    0  0.29280116096E-01 -0.53783176083E-01  0.11072314417E+00  0.13100038806E+00  0.33934227391E-01 0.  0.
         14    1    1    2    0    0 -0.22622377496E-01 -0.31095124718E-02  0.53715957971E-02  0.23458368929E-01  0.00000000000E+00 0.  1.
     999901    1    3    3    0    0 -0.66577386004E-02  0.56892688555E-01 -0.11609473997E+00  0.88947124301E+00  0.88000000000E+00 0.  1.
        -11    1    4    4    0    0  0.21207134054E-01 -0.43595786112E-01  0.53002936944E-01  0.71832496457E-01  0.51100000000E-03 0.  1.
         11    1    4    4    0    0  0.80729820418E-02 -0.10187389971E-01  0.57720207228E-01  0.59167891604E-01  0.51100000000E-03 0. -1.
</event>
<event>
 8    1  0.1176534E+005  0.1043930E+01  0.7957747E-01            NaN
         13   -1    0    0    0    0  0.00000000000E+00  0.00000000000E+00  0.74505805969E-08  0.10566000000E+00  0.10566000000E+00 0. -1.
     999900   -1    0    0    0    0 -0.00000000000E+00 -0.00000000000E+00 -0.74505805969E-08  0.93827000000E+00  0.93827000000E+00 0.  1.
     999902    2    1    2    0    0  0.12232390962E-01  0.14560041505E-01 -0.14401983050E-01  0.10200753712E+01  0.10197964109E+01 0.  0.
     999903    2    3    3    0    0  0.39541351353E-02  0.56742702022E-01  0.11470147889E+00  0.12961728113E+00  0.20219814326E-01 0.  0.
         14    1    1    2    0    0 -0.12232390962E-01 -0.14560041505E-01  0.14401983050E-01  0.23854628755E-01  0.00000000000E+00 0.  1.
     999901    1    3    3    0    0  0.82782558263E-02 -0.42182660516E-01 -0.12910346194E+00  0.89045809012E+00  0.88000000000E+00 0.  1.
        -11    1    4    4    0    0  0.65527082420E-02  0.45908780263E-02  0.12541604666E-01  0.14885130666E-01  0.51100000000E-03 0. -1.
         11    1    4    4    0    0 -0.25985731067E-02  0.52151823995E-01  0.10215987422E+00  0.11473215046E+00  0.51100000000E-03 0.  1.
</event>
<event>
 8    1  0.1176534E+005  0.1043930E+01  0.7957747E-01            NaN
         13   -1    0    0    0    0  0.00000000000E+00  0.00000000000E+00  0.74505805969E-08  0.10566000000E+00  0.10566000000E+00 0.  1.
     999900   -1    0    0    0    0 -0.00000000000E+00 -0.00000000000E+00 -0.74505805969E-08  0.93827000000E+00  0.93827000000E+00 0. -1.
     999902    2    1    2    0    0 -0.19470329664E-01  0.10762549284E-01  0.82051894112E-02  0.10202181604E+01  0.10199425687E+01 0.  0.
     999903    2    3    3    0    0  0.11822674063E+00 -0.18956413553E-01  0.42269393955E-01  0.12836387299E+00  0.18806233255E-01 0.  0.
         14    1    1    2    0    0  0.19470329664E-01 -0.10762549284E-01 -0.82051894112E-02  0.23711839608E-01  0.00000000000E+00 0.  1.
     999901    1    3    3    0    0 -0.13769707030E+00  0.29718962837E-01 -0.34064204544E-01  0.89185428740E+00  0.88000000000E+00 0. -1.
        -11    1    4    4    0    0  0.83610114468E-01 -0.13485011465E-01  0.38754780057E-01  0.93138020560E-01  0.51100000000E-03 0. -1.
         11    1    4    4    0    0  0.34616626164E-01 -0.54714020881E-02  0.35146138977E-02  0.35225852433E-01  0.51100000000E-03 0.  1.
</event>
<event>
 8    1  0.1176534E+005  0.1043930E+01  0.7957747E-01            NaN
         13   -1    0    0    0    0  0.00000000000E+00  0.00000000000E+00  0.74505805969E-08  0.10566000000E+00  0.10566000000E+00 0. -1.
     999900   -1    0    0    0    0 -0.00000000000E+00 -0.00000000000E+00 -0.74505805969E-08  0.93827000000E+00  0.93827000000E+00 0. -1.
     999902    2    1    2    0    0  0.31475861300E-02 -0.17238243183E-01  0.12856754981E-01  0.10221961445E+01  0.10219650666E+01 0.  0.
     999903    2    3    3    0    0  0.11648496837E+00 -0.45502720251E-01  0.43557467864E-01  0.13394686831E+00  0.20131197584E-01 0.  0.
         14    1    1    2    0    0 -0.31475861300E-02  0.17238243183E-01 -0.12856754981E-01  0.21733855506E-01  0.00000000000E+00 0.  1.
     999901    1    3    3    0    0 -0.11333738224E+00  0.28264477068E-01 -0.30700712883E-01  0.88824927619E+00  0.88000000000E+00 0. -1.
        -11    1    4    4    0    0  0.43518530527E-01 -0.73851270077E-02  0.11647841303E-01  0.45654528014E-01  0.51100000000E-03 0.  1.
         11    1    4    4    0    0  0.72966437842E-01 -0.38117593244E-01  0.31909626562E-01  0.88292340292E-01  0.51100000000E-03 0. -1.
</event>
<event>
 8    1  0.1443932E+005  0.1043930E+01  0.7957747E-01            NaN
         13   -1    0    0    0    0  0.00000000000E+00  0.00000000000E+00  0.74505805969E-08  0.10566000000E+00  0.10566000000E+00 0. -1.
     999900   -1    0    0    0    0 -0.00000000000E+00 -0.00000000000E+00 -0.74505805969E-08  0.93827000000E+00  0.93827000000E+00 0.  1.
     999902    2    1    2    0    0 -0.19476137591E-01 -0.11874058195E-01 -0.71096395982E-02  0.10200373198E+01  0.10197574582E+01 0.  0.
     999903    2    3    3    0    0  0.21631110816E-01 -0.20447453632E-01 -0.12683131918E+00  0.13093856848E+00  0.13142369424E-01 0.  0.
         14    1    1    2    0    0  0.19476137591E-01  0.11874058195E-01  0.71096395982E-02  0.23892680233E-01  0.00000000000E+00 0.  1.
     999901    1    3    3    0    0 -0.41107248408E-01  0.85733954368E-02  0.11972167959E+00  0.88909875129E+00  0.88000000000E+00 0. -1.
        -11    1    4    4    0    0  0.30871616430E-02 -0.58812441795E-02 -0.53357282573E-01  0.53771556837E-01  0.51100000000E-03 0.  1.
         11    1    4    4    0    0  0.18543949173E-01 -0.14566209452E-01 -0.73474036611E-01  0.77167011641E-01  0.51100000000E-03 0. -1.
</event>
<event>
 8    1  0.1176534E+005  0.1043930E+01  0.7957747E-01            NaN
         13   -1    0    0    0    0  0.00000000000E+00  0.00000000000E+00  0.74505805969E-08  0.10566000000E+00  0.10566000000E+00 0.  1.
     999900   -1    0    0    0    0 -0.00000000000E+00 -0.00000000000E+00 -0.74505805969E-08  0.93827000000E+00  0.93827000000E+00 0.  1.
     999902    2    1    2    0    0 -0.81456315092E-02 -0.98662994945E-02 -0.19710321477E-01  0.10204312351E+01  0.10201606313E+01 0.  0.
     999903    2    3    3    0    0  0.90991629135E-01  0.81307305802E-01  0.34925106936E-01  0.12850867525E+00  0.20108753610E-01 0.  0.
         14    1    1    2    0    0  0.81456315092E-02  0.98662994945E-02  0.19710321477E-01  0.23498764885E-01  0.00000000000E+00 0.  1.
     999901    1    3    3    0    0 -0.99137260644E-01 -0.91173605297E-01 -0.54635428413E-01  0.89192255986E+00  0.88000000000E+00 0.  1.
        -11    1    4    4    0    0  0.55524049624E-01  0.59737212826E-01  0.17113424019E-01  0.83334177175E-01  0.51100000000E-03 0.  1.
         11    1    4    4    0    0  0.35467579510E-01  0.21570092977E-01  0.17811682917E-01  0.45174498079E-01  0.51100000000E-03 0. -1.
</event>
<event>
 8    1  0.1176534E+005  0.1043930E+01  0.7957747E-01            NaN
         13   -1    0    0    0    0  0.00000000000E+00  0.00000000000E+00  0.74505805969E-08  0.10566000000E+00  0.10566000000E+00 0.  1.
     999900   -1    0    0    0    0 -0.00000000000E+00 -0.00000000000E+00 -0.74505805969E-08  0.93827000000E+00  0.93827000000E+00 0. -1.
     999902    2    1    2    0    0 -0.18034082811E-02  0.10339731414E-01 -0.21421467837E-01  0.10200754069E+01  0.10197964474E+01 0.  0.
     999903    2    3    3    0    0 -0.43951094718E-01  0.11675607771E+00 -0.39881145264E-01  0.13247097592E+00  0.19858834379E-01 0.  0.
         14    1    1    2    0    0  0.18034082811E-02 -0.10339731414E-01  0.21421467837E-01  0.23854593088E-01  0.00000000000E+00 0.  1.
     999901    1    3    3    0    0  0.42147686437E-01 -0.10641634630E+00  0.18459677427E-01  0.88760443100E+00  0.88000000000E+00 0.  1.
        -11    1    4    4    0    0 -0.22738858892E-01  0.58370263637E-01 -0.96507711692E-02  0.63384082276E-01  0.51100000000E-03 0.  1.
         11    1    4    4    0    0 -0.21212235826E-01  0.58385814076E-01 -0.30230374095E-01  0.69086893641E-01  0.51100000000E-03 0. -1.
</event>
<event>
 8    1  0.1176534E+005  0.1043930E+01  0.7957747E-01            NaN
         13   -1    0    0    0    0  0.00000000000E+00  0.00000000000E+00  0.74505805969E-08  0.10566000000E+00  0.10566000000E+00 0.  1.
     999900   -1    0    0    0    0 -0.00000000000E+00 -0.00000000000E+00 -0.74505805969E-08  0.93827000000E+00  0.93827000000E+00 0.  1.
     999902    2    1    2    0    0 -0.16574932762E-01 -0.11385922579E-01 -0.13137911105E-01  0.10199097515E+01  0.10196268577E+01 0.  0.
     999903    2    3    3    0    0 -0.91237386913E-02 -0.45025379295E-01  0.11924116207E+00  0.12934175728E+00  0.20007699958E-01 0.  0.
         14    1    1    2    0    0  0.16574932762E-01  0.11385922579E-01  0.13137911105E-01  0.24020248484E-01  0.00000000000E+00 0.  1.
     999901    1    3    3    0    0 -0.74511940704E-02  0.33639456715E-01 -0.13237907317E+00  0.89056799423E+00  0.88000000000E+00 0.  1.
        -11    1    4    4    0    0  0.16915558660E-02 -0.60415091251E-02  0.38708191595E-01  0.39216659869E-01  0.51100000000E-03 0. -1.
         11    1    4    4    0    0 -0.10815294557E-01 -0.38983870169E-01  0.80532970470E-01  0.90125097412E-01  0.51100000000E-03 0.  1.
</event>
<event>
 8    1  0.1176534E+005  0.1043930E+01  0.7957747E-01            NaN
         13   -1    0    0    0    0  0.00000000000E+00  0.00000000000E+00  0.74505805969E-08  0.10566000000E+00  0.10566000000E+00 0. -1.
     999900   -1    0    0    0    0 -0.00000000000E+00 -0.00000000000E+00 -0.74505805969E-08  0.93827000000E+00  0.93827000000E+00 0. -1.
     999902    2    1    2    0    0 -0.11781152011E-01  0.35259250697E-02 -0.27372986036E-01  0.10139215336E+01  0.10134773645E+01 0.  0.
     999903    2    3    3    0    0  0.11309462205E+00  0.31547902289E-01  0.29659454639E-01  0.12283686343E+00  0.20580284057E-01 0.  0.
         14    1    1    2    0    0  0.11781152011E-01 -0.35259250697E-02  0.27372986036E-01  0.30008466386E-01  0.00000000000E+00 0. -1.
     999901    1    3    3    0    0 -0.12487577406E+00 -0.28021977219E-01 -0.57032440674E-01  0.89108467019E+00  0.88000000000E+00 0. -1.
        -11    1    4    4    0    0  0.86751584987E-01  0.27710942692E-01  0.30930833198E-01  0.96180618661E-01  0.51100000000E-03 0.  1.
         11    1    4    4    0    0  0.26343037061E-01  0.38369595968E-02 -0.12713785591E-02  0.26656244766E-01  0.51100000000E-03 0. -1.
</event>
<event>
 8    1  0.1176534E+005  0.1043930E+01  0.7957747E-01            NaN
         13   -1    0    0    0    0  0.00000000000E+00  0.00000000000E+00  0.74505805969E-08  0.10566000000E+00  0.10566000000E+00 0. -1.
     999900   -1    0    0    0    0 -0.00000000000E+00 -0.00000000000E+00 -0.74505805969E-08  0.93827000000E+00  0.93827000000E+00 0. -1.
     999902    2    1    2    0    0  0.98946775365E-02  0.57499634645E-02 -0.21136760330E-01  0.10198939987E+01  0.10196107292E+01 0.  0.
     999903    2    3    3    0    0 -0.39602015284E-01  0.10807772156E+00 -0.60493720073E-01  0.13171053621E+00  0.20953798430E-01 0.  0.
         14    1    1    2    0    0 -0.98946775365E-02 -0.57499634645E-02  0.21136760330E-01  0.24036001345E-01  0.00000000000E+00 0. -1.
     999901    1    3    3    0    0  0.49496692821E-01 -0.10232775810E+00  0.39356959743E-01  0.88818346244E+00  0.88000000000E+00 0.  1.
        -11    1    4    4    0    0 -0.13795570384E-01  0.57116588908E-01 -0.39715714929E-01  0.70924055327E-01  0.51100000000E-03 0.  1.
         11    1    4    4    0    0 -0.25806444900E-01  0.50961132653E-01 -0.20778005144E-01  0.60786480885E-01  0.51100000000E-03 0. -1.
</event>
<event>
 8    1  0.1176534E+005  0.1043930E+01  0.7957747E-01            NaN
         13   -1    0    0    0    0  0.00000000000E+00  0.00000000000E+00  0.74505805969E-08  0.10566000000E+00  0.10566000000E+00 0. -1.
     999900   -1    0    0    0    0 -0.00000000000E+00 -0.00000000000E+00 -0.74505805969E-08  0.93827000000E+00  0.93827000000E+00 0. -1.
     999902    2    1    2    0    0 -0.15276300898E-01 -0.28903563855E-02 -0.11555248891E-01  0.10245588022E+01  0.10243756614E+01 0.  0.
     999903    2    3    3    0    0 -0.81460989147E-01 -0.59871620263E-01 -0.89921681995E-01  0.13677021514E+00  0.19991978165E-01 0.  0.
         14    1    1    2    0    0  0.15276300898E-01  0.28903563855E-02  0.11555248891E-01  0.19371197848E-01  0.00000000000E+00 0.  1.
     999901    1    3    3    0    0  0.66184688249E-01  0.56981263877E-01  0.78366433104E-01  0.88778858701E+00  0.88000000000E+00 0.  1.
        -11    1    4    4    0    0 -0.58945123774E-01 -0.37797323127E-01 -0.72272390055E-01  0.10063162891E+00  0.51100000000E-03 0. -1.
         11    1    4    4    0    0 -0.22515865372E-01 -0.22074297136E-01 -0.17649291940E-01  0.36138586227E-01  0.51100000000E-03 0.  1.
</event>
<event>
 8    1  0.1176534E+005  0.1043930E+01  0.7957747E-01            NaN
         13   -1    0    0    0    0  0.00000000000E+00  0.00000000000E+00  0.74505805969E-08  0.10566000000E+00  0.10566000000E+00 0.  1.
     999900   -1    0    0    0    0 -0.00000000000E+00 -0.00000000000E+00 -0.74505805969E-08  0.93827000000E+00  0.93827000000E+00 0.  1.
     999902    2    1    2    0    0  0.66293983789E-02 -0.17422212460E-01  0.14802782225E-01  0.10201265387E+01  0.10198487879E+01 0.  0.
     999903    2    3    3    0    0  0.83827472778E-01 -0.22818317326E-01  0.98469213342E-01  0.13277726564E+00  0.19644223008E-01 0.  0.
         14    1    1    2    0    0 -0.66293983789E-02  0.17422212460E-01 -0.14802782225E-01  0.23803461334E-01  0.00000000000E+00 0. -1.
     999901    1    3    3    0    0 -0.77198074399E-01  0.53961048659E-02 -0.83666431116E-01  0.88734927302E+00  0.88000000000E+00 0.  1.
        -11    1    4    4    0    0  0.39018126880E-01 -0.53278490260E-02  0.32099891283E-01  0.50808112953E-01  0.51100000000E-03 0.  1.
         11    1    4    4    0    0  0.44809345897E-01 -0.17490468300E-01  0.66369322059E-01  0.81969152690E-01  0.51100000000E-03 0. -1.
</event>
<event>
 8    1  0.1176534E+005  0.1043930E+01  0.7957747E-01            NaN
         13   -1    0    0    0    0  0.00000000000E+00  0.00000000000E+00  0.74505805969E-08  0.10566000000E+00  0.10566000000E+00 0.  1.
     999900   -1    0    0    0    0 -0.00000000000E+00 -0.00000000000E+00 -0.74505805969E-08  0.93827000000E+00  0.93827000000E+00 0.  1.
     999902    2    1    2    0    0 -0.14423265924E-01 -0.15740164747E-01 -0.25111702162E-02  0.10224337361E+01  0.10222077359E+01 0.  0.
     999903    2    3    3    0    0  0.10982814715E+00  0.14720994855E-01 -0.66269807026E-01  0.13090052882E+00  0.21548353211E-01 0.  0.
         14    1    1    2    0    0  0.14423265924E-01  0.15740164747E-01  0.25111702162E-02  0.21496263908E-01  0.00000000000E+00 0. -1.
     999901    1    3    3    0    0 -0.12425141308E+00 -0.30461159602E-01  0.63758636810E-01  0.89153320727E+00  0.88000000000E+00 0.  1.
        -11    1    4    4    0    0  0.74546501596E-01  0.11443234795E-01 -0.33112509309E-01  0.82370066872E-01  0.51100000000E-03 0.  1.
         11    1    4    4    0    0  0.35281645557E-01  0.32777600598E-02 -0.33157297717E-01  0.48530461950E-01  0.51100000000E-03 0. -1.
</event>
<event>
 8    1  0.1176534E+005  0.1043930E+01  0.7957747E-01            NaN
         13   -1    0    0    0    0  0.00000000000E+00  0.00000000000E+00  0.74505805969E-08  0.10566000000E+00  0.10566000000E+00 0. -1.
     999900   -1    0    0    0    0 -0.00000000000E+00 -0.00000000000E+00 -0.74505805969E-08  0.93827000000E+00  0.93827000000E+00 0. -1.
     999902    2    1    2    0    0 -0.16355087919E-01  0.11090237733E-01 -0.11729294487E-01  0.10209504738E+01  0.10206918298E+01 0.  0.
     999903    2    3    3    0    0  0.37186512526E-03  0.26013196727E-01 -0.12862655989E+00  0.13293726654E+00  0.21229701812E-01 0.  0.
         14    1    1    2    0    0  0.16355087919E-01 -0.11090237733E-01  0.11729294487E-01  0.22979526170E-01  0.00000000000E+00 0.  1.
     999901    1    3    3    0    0 -0.16726953045E-01 -0.14922958994E-01  0.11689726540E+00  0.88801320729E+00  0.88000000000E+00 0.  1.
        -11    1    4    4    0    0 -0.63909148256E-02  0.38898178662E-02 -0.61048140258E-01  0.61506999807E-01  0.51100000000E-03 0.  1.
         11    1    4    4    0    0  0.67627799509E-02  0.22123378861E-01 -0.67578419630E-01  0.71430266733E-01  0.51100000000E-03 0. -1.
</event>
<event>
 8    1  0.1205132E+005  0.1043930E+01  0.7957747E-01            NaN
         13   -1    0    0    0    0  0.00000000000E+00  0.00000000000E+00  0.74505805969E-08  0.10566000000E+00  0.10566000000E+00 0. -1.
     999900   -1    0    0    0    0 -0.00000000000E+00 -0.00000000000E+00 -0.74505805969E-08  0.93827000000E+00  0.93827000000E+00 0.  1.
     999902    2    1    2    0    0  0.75209104283E-02 -0.22562863989E-01  0.38307071336E-03  0.10201435823E+01  0.10198662338E+01 0.  0.
     999903    2    3    3    0    0  0.15424194130E-01 -0.21313856536E-02 -0.12831174979E+00  0.13051317361E+00  0.18092395691E-01 0.  0.
         14    1    1    2    0    0 -0.75209104283E-02  0.22562863989E-01 -0.38307071336E-03  0.23786417726E-01  0.00000000000E+00 0.  1.
     999901    1    3    3    0    0 -0.79032837018E-02 -0.20431478335E-01  0.12869482050E+00  0.88963040867E+00  0.88000000000E+00 0. -1.
        -11    1    4    4    0    0  0.14147433338E-01 -0.67793606064E-02 -0.59650964000E-01  0.61681506365E-01  0.51100000000E-03 0. -1.
         11    1    4    4    0    0  0.12767607925E-02  0.46479749528E-02 -0.68660785789E-01  0.68831667243E-01  0.51100000000E-03 0.  1.
</event>
<event>
 8    1  0.1176534E+005  0.1043930E+01  0.7957747E-01            NaN
         13   -1    0    0    0    0  0.00000000000E+00  0.00000000000E+00  0.74505805969E-08  0.10566000000E+00  0.10566000000E+00 0. -1.
     999900   -1    0    0    0    0 -0.00000000000E+00 -0.00000000000E+00 -0.74505805969E-08  0.93827000000E+00  0.93827000000E+00 0.  1.
     999902    2    1    2    0    0  0.12292146385E-01  0.68203662845E-02 -0.19669326993E-01  0.10197536338E+01  0.10194670063E+01 0.  0.
     999903    2    3    3    0    0 -0.74532795895E-01  0.95426928885E-01  0.39847192447E-01  0.12906181861E+00  0.20192024566E-01 0.  0.
         14    1    1    2    0    0 -0.12292146385E-01 -0.68203662845E-02  0.19669326993E-01  0.24176366215E-01  0.00000000000E+00 0. -1.
     999901    1    3    3    0    0  0.86824942281E-01 -0.88606562600E-01 -0.59516519439E-01  0.89069181518E+00  0.88000000000E+00 0.  1.
        -11    1    4    4    0    0 -0.27821023878E-01  0.32039029916E-01  0.42509098589E-02  0.42647862352E-01  0.51100000000E-03 0.  1.
         11    1    4    4    0    0 -0.46711772018E-01  0.63387898969E-01  0.35596282588E-01  0.86413956256E-01  0.51100000000E-03 0. -1.
</event>
<event>
 8    1  0.1176534E+005  0.1043930E+01  0.7957747E-01            NaN
         13   -1    0    0    0    0  0.00000000000E+00  0.00000000000E+00  0.74505805969E-08  0.10566000000E+00  0.10566000000E+00 0.  1.
     999900   -1    0    0    0    0 -0.00000000000E+00 -0.00000000000E+00 -0.74505805969E-08  0.93827000000E+00  0.93827000000E+00 0.  1.
     999902    2    1    2    0    0  0.53283253444E-02 -0.72236083526E-02 -0.21402956819E-01  0.10207209903E+01  0.10204570946E+01 0.  0.
     999903    2    3    3    0    0  0.10664746833E+00 -0.72590904853E-01  0.17300722118E-01  0.13165607317E+00  0.19770802940E-01 0.  0.
         14    1    1    2    0    0 -0.53283253444E-02  0.72236083526E-02  0.21402956819E-01  0.23209009655E-01  0.00000000000E+00 0.  1.
     999901    1    3    3    0    0 -0.10131914298E+00  0.65367296500E-01 -0.38703678937E-01  0.88906491717E+00  0.88000000000E+00 0.  1.
        -11    1    4    4    0    0  0.31423284664E-01 -0.17440715541E-01 -0.34235099846E-02  0.36105164717E-01  0.51100000000E-03 0. -1.
         11    1    4    4    0    0  0.75224183663E-01 -0.55150189312E-01  0.20724232103E-01  0.95550908453E-01  0.51100000000E-03 0.  1.
</event>
<event>
 8    1  0.1176534E+005  0.1043930E+01  0.7957747E-01            NaN
         13   -1    0    0    0    0  0.00000000000E+00  0.00000000000E+00  0.74505805969E-08  0.10566000000E+00  0.10566000000E+00 0.  1.
     999900   -1    0    0    0    0 -0.00000000000E+00 -0.00000000000E+00 -0.74505805969E-08  0.93827000000E+00  0.93827000000E+00 0.  1.
     999902    2    1    2    0    0 -0.17648918926E-01 -0.10921966568E-01  0.11108085230E-01  0.10203893277E+01  0.10201177466E+01 0.  0.
     999903    2    3    3    0    0 -0.12705804138E+00 -0.34805449212E-01 -0.24740090151E-02  0.13318853305E+00  0.19439635787E-01 0.  0.
         14    1    1    2    0    0  0.17648918926E-01  0.10921966568E-01 -0.11108085230E-01  0.23540672260E-01  0.00000000000E+00 0.  1.
     999901    1    3    3    0    0  0.10940912246E+00  0.23883482644E-01  0.13582094245E-01  0.88720079469E+00  0.88000000000E+00 0.  1.
        -11    1    4    4    0    0 -0.63615470663E-01 -0.11888882378E-01  0.68920910408E-02  0.65084834423E-01  0.51100000000E-03 0.  1.
         11    1    4    4    0    0 -0.63442570720E-01 -0.22916566834E-01 -0.93661000559E-02  0.68103698624E-01  0.51100000000E-03 0. -1.
</event>
<event>
 8    1  0.1176534E+005  0.1043930E+01  0.7957747E-01            NaN
         13   -1    0    0    0    0  0.00000000000E+00  0.00000000000E+00  0.74505805969E-08  0.10566000000E+00  0.10566000000E+00 0.  1.
     999900   -1    0    0    0    0 -0.00000000000E+00 -0.00000000000E+00 -0.74505805969E-08  0.93827000000E+00  0.93827000000E+00 0. -1.
     999902    2    1    2    0    0 -0.70931383460E-02  0.66437359365E-02 -0.21086744885E-01  0.10207114159E+01  0.10204472999E+01 0.  0.
     999903    2    3    3    0    0 -0.64364543496E-01  0.95086370298E-01  0.59558419151E-01  0.13076436357E+00  0.19180751119E-01 0.  0.
         14    1    1    2    0    0  0.70931383460E-02 -0.66437359365E-02  0.21086744885E-01  0.23218584122E-01  0.00000000000E+00 0.  1.
     999901    1    3    3    0    0  0.57271405150E-01 -0.88442634362E-01 -0.80645164036E-01  0.88994705230E+00  0.88000000000E+00 0. -1.
        -11    1    4    4    0    0 -0.23787187747E-01  0.52018222880E-01  0.27614625089E-01  0.63518142702E-01  0.51100000000E-03 0.  1.
         11    1    4    4    0    0 -0.40577355750E-01  0.43068147418E-01  0.31943794062E-01  0.67246220873E-01  0.51100000000E-03 0. -1.
</event>
<event>
 8    1  0.1176534E+005  0.1043930E+01  0.7957747E-01            NaN
         13   -1    0    0    0    0  0.00000000000E+00  0.00000000000E+00  0.74505805969E-08  0.10566000000E+00  0.10566000000E+00 0. -1.
     999900   -1    0    0    0    0 -0.00000000000E+00 -0.00000000000E+00 -0.74505805969E-08  0.93827000000E+00  0.93827000000E+00 0.  1.
     999902    2    1    2    0    0 -0.15715384266E-01  0.19962585216E-01 -0.55836027011E-02  0.10179174121E+01  0.10175849857E+01 0.  0.
     999903    2    3    3    0    0 -0.79512760425E-01 -0.83797569283E-02  0.99195332970E-01  0.12895620993E+00  0.19937166321E-01 0.  0.
         14    1    1    2    0    0  0.15715384266E-01 -0.19962585216E-01  0.55836027011E-02  0.26012587919E-01  0.00000000000E+00 0. -1.
     999901    1    3    3    0    0  0.63797376158E-01  0.28342342144E-01 -0.10477893567E+00  0.88896120215E+00  0.88000000000E+00 0.  1.
        -11    1    4    4    0    0 -0.51673272704E-01 -0.89492743126E-02  0.50197743146E-01  0.72596771006E-01  0.51100000000E-03 0.  1.
         11    1    4    4    0    0 -0.27839487721E-01  0.56951738429E-03  0.48997589824E-01  0.56359438927E-01  0.51100000000E-03 0. -1.
</event>
<event>
 8    1  0.1176534E+005  0.1043930E+01  0.7957747E-01            NaN
         13   -1    0    0    0    0  0.00000000000E+00  0.00000000000E+00  0.74505805969E-08  0.10566000000E+00  0.10566000000E+00 0. -1.
     999900   -1    0    0    0    0 -0.00000000000E+00 -0.00000000000E+00 -0.74505805969E-08  0.93827000000E+00  0.93827000000E+00 0. -1.
     999902    2    1    2    0    0  0.12902252506E-01 -0.18685801143E-01 -0.78588224453E-02  0.10199010929E+01  0.10196179927E+01 0.  0.
     999903    2    3    3    0    0  0.13150726022E-01 -0.10365046384E+00 -0.79794582577E-01  0.13288710814E+00  0.19376476799E-01 0.  0.
         14    1    1    2    0    0 -0.12902252506E-01  0.18685801143E-01  0.78588224453E-02  0.24028907056E-01  0.00000000000E+00 0. -1.
     999901    1    3    3    0    0 -0.24847351665E-03  0.84964662697E-01  0.71935760131E-01  0.88701398480E+00  0.88000000000E+00 0.  1.
        -11    1    4    4    0    0  0.84255573729E-02 -0.14323698173E-01 -0.15446707846E-01  0.22694057607E-01  0.51100000000E-03 0. -1.
         11    1    4    4    0    0  0.47251686492E-02 -0.89326765666E-01 -0.64347874730E-01  0.11019305054E+00  0.51100000000E-03 0.  1.
</event>
<event>
 8    1  0.1176534E+005  0.1043930E+01  0.7957747E-01            NaN
         13   -1    0    0    0    0  0.00000000000E+00  0.00000000000E+00  0.74505805969E-08  0.10566000000E+00  0.10566000000E+00 0.  1.
     999900   -1    0    0    0    0 -0.00000000000E+00 -0.00000000000E+00 -0.74505805969E-08  0.93827000000E+00  0.93827000000E+00 0.  1.
     999902    2    1    2    0    0 -0.21548503155E-01 -0.10274012411E-02 -0.91039719879E-02  0.10205147091E+01  0.10202460466E+01 0.  0.
     999903    2    3    3    0    0  0.77392108523E-01  0.31106749299E-01 -0.98644605828E-01  0.12987484172E+00  0.13399549996E-01 0.  0.
         14    1    1    2    0    0  0.21548503155E-01  0.10274012411E-02  0.91039719879E-02  0.23415290890E-01  0.00000000000E+00 0.  1.
     999901    1    3    3    0    0 -0.98940611677E-01 -0.32134150540E-01  0.89540633840E-01  0.89063986739E+00  0.88000000000E+00 0. -1.
        -11    1    4    4    0    0  0.33100580793E-01  0.92008565135E-02 -0.32370640733E-01  0.47206182984E-01  0.51100000000E-03 0.  1.
         11    1    4    4    0    0  0.44291527730E-01  0.21905892785E-01 -0.66273965095E-01  0.82668658739E-01  0.51100000000E-03 0. -1.
</event>
<event>
 8    1  0.1176534E+005  0.1043930E+01  0.7957747E-01            NaN
         13   -1    0    0    0    0  0.00000000000E+00  0.00000000000E+00  0.74505805969E-08  0.10566000000E+00  0.10566000000E+00 0.  1.
     999900   -1    0    0    0    0 -0.00000000000E+00 -0.00000000000E+00 -0.74505805969E-08  0.93827000000E+00  0.93827000000E+00 0.  1.
     999902    2    1    2    0    0 -0.18283616756E-01 -0.57579165014E-02 -0.12020483083E-01  0.10213039916E+01  0.10210533321E+01 0.  0.
     999903    2    3    3    0    0  0.10551628259E+00  0.62684006544E-01 -0.37401687728E-01  0.12964547091E+00  0.18603529658E-01 0.  0.
         14    1    1    2    0    0  0.18283616756E-01  0.57579165014E-02  0.12020483083E-01  0.22626008434E-01  0.00000000000E+00 0.  1.
     999901    1    3    3    0    0 -0.12379989934E+00 -0.68441923045E-01  0.25381204645E-01  0.89165852065E+00  0.88000000000E+00 0. -1.
        -11    1    4    4    0    0  0.84698211989E-01  0.41816874979E-01 -0.31552551676E-01  0.99590475375E-01  0.51100000000E-03 0. -1.
         11    1    4    4    0    0  0.20818070596E-01  0.20867131565E-01 -0.58491360521E-02  0.30054995536E-01  0.51100000000E-03 0.  1.
</event>
<event>
 8    1  0.1176534E+005  0.1043930E+01  0.7957747E-01            NaN
         13   -1    0    0    0    0  0.00000000000E+00  0.00000000000E+00  0.74505805969E-08  0.10566000000E+00  0.10566000000E+00 0. -1.
     999900   -1    0    0    0    0 -0.00000000000E+00 -0.00000000000E+00 -0.74505805969E-08  0.93827000000E+00  0.93827000000E+00 0.  1.
     999902    2    1    2    0    0 -0.93129069070E-02  0.17578272258E-01 -0.10921559794E-01  0.10212362485E+01  0.10209840688E+01 0.  0.
     999903    2    3    3    0    0 -0.19914906448E-01  0.83616342204E-01  0.97985862514E-01  0.13200385155E+00  0.20868430449E-01 0.  0.
         14    1    1    2    0    0  0.93129069070E-02 -0.17578272258E-01  0.10921559794E-01  0.22693751541E-01  0.00000000000E+00 0.  1.
     999901    1    3    3    0    0  0.10601999541E-01 -0.66038069946E-01 -0.10890742231E+00  0.88923239691E+00  0.88000000000E+00 0.  1.
        -11    1    4    4    0    0 -0.52855512196E-02  0.32836199386E-01  0.23720754366E-01  0.40854477729E-01  0.51100000000E-03 0. -1.
         11    1    4    4    0    0 -0.14629355228E-01  0.50780142818E-01  0.74265108148E-01  0.91149373823E-01  0.51100000000E-03 0.  1.
</event>
<event>
 8    1  0.1176534E+005  0.1043930E+01  0.7957747E-01            NaN
         13   -1    0    0    0    0  0.00000000000E+00  0.00000000000E+00  0.74505805969E-08  0.10566000000E+00  0.10566000000E+00 0.  1.
     999900   -1    0    0    0    0 -0.00000000000E+00 -0.00000000000E+00 -0.74505805969E-08  0.93827000000E+00  0.93827000000E+00 0.  1.
     999902    2    1    2    0    0 -0.19141327414E-01 -0.12219688577E-01  0.16204142640E-02  0.10211629856E+01  0.10209091567E+01 0.  0.
     999903    2    3    3    0    0 -0.11653072541E+00  0.60174947538E-01  0.49733227592E-02  0.13282919684E+00  0.20455496073E-01 0.  0.
         14    1    1    2    0    0  0.19141327414E-01  0.12219688577E-01 -0.16204142640E-02  0.22767014439E-01  0.00000000000E+00 0.  1.
     999901    1    3    3    0    0  0.97389397995E-01 -0.72394636115E-01 -0.33529084952E-02  0.88833378872E+00  0.88000000000E+00 0.  1.
        -11    1    4    4    0    0 -0.39690675673E-01  0.30407806527E-01 -0.26415619209E-02  0.50072181933E-01  0.51100000000E-03 0.  1.
         11    1    4    4    0    0 -0.76840049736E-01  0.29767141012E-01  0.76148846802E-02  0.82757014912E-01  0.51100000000E-03 0. -1.
</event>
<event>
 8    1  0.1176534E+005  0.1043930E+01  0.7957747E-01            NaN
         13   -1    0    0    0    0  0.00000000000E+00  0.00000000000E+00  0.74505805969E-08  0.10566000000E+00  0.10566000000E+00 0.  1.
     999900   -1    0    0    0    0 -0.00000000000E+00 -0.00000000000E+00 -0.74505805969E-08  0.93827000000E+00  0.93827000000E+00 0.  1.
     999902    2    1    2    0    0 -0.17589370777E-01 -0.10731121587E-01  0.11656437413E-01  0.10202569041E+01  0.10199822229E+01 0.  0.
     999903    2    3    3    0    0 -0.79724336811E-01 -0.31146501515E-01 -0.97293646290E-01  0.13112943156E+00  0.20069872355E-01 0.  0.
         14    1    1    2    0    0  0.17589370777E-01  0.10731121587E-01 -0.11656437413E-01  0.23673095869E-01  0.00000000000E+00 0. -1.
     999901    1    3    3    0    0  0.62134966034E-01  0.20415379928E-01  0.10895008370E+00  0.88912747257E+00  0.88000000000E+00 0. -1.
        -11    1    4    4    0    0 -0.22693669922E-01 -0.14397764802E-01 -0.42493839599E-01  0.50282062514E-01  0.51100000000E-03 0. -1.
         11    1    4    4    0    0 -0.57030666889E-01 -0.16748736713E-01 -0.54799806691E-01  0.80847369046E-01  0.51100000000E-03 0.  1.
</event>
<event>
 8    1  0.1176534E+005  0.1043930E+01  0.7957747E-01            NaN
         13   -1    0    0    0    0  0.00000000000E+00  0.00000000000E+00  0.74505805969E-08  0.10566000000E+00  0.10566000000E+00 0.  1.
     999900   -1    0    0    0    0 -0.00000000000E+00 -0.00000000000E+00 -0.74505805969E-08  0.93827000000E+00  0.93827000000E+00 0. -1.
     999902    2    1    2    0    0  0.16286887936E-01 -0.10208286454E-01  0.14290242843E-01  0.10199783222E+01  0.10196970603E+01 0.  0.
     999903    2    3    3    0    0 -0.30711487185E-01  0.11366802727E+00  0.49677882582E-01  0.12935692481E+00  0.20042607357E-01 0.  0.
         14    1    1    2    0    0 -0.16286887936E-01  0.10208286454E-01 -0.14290242843E-01  0.23951677843E-01  0.00000000000E+00 0. -1.
     999901    1    3    3    0    0  0.46998375121E-01 -0.12387631372E+00 -0.35387639739E-01  0.89062139735E+00  0.88000000000E+00 0. -1.
        -11    1    4    4    0    0 -0.13040319142E-01  0.71910949428E-01  0.22408195756E-01  0.76443593119E-01  0.51100000000E-03 0. -1.
         11    1    4    4    0    0 -0.17671168044E-01  0.41757077842E-01  0.27269686827E-01  0.52913331690E-01  0.51100000000E-03 0.  1.
</event>
<event>
 8    1  0.1176534E+005  0.1043930E+01  0.7957747E-01            NaN
         13   -1    0    0    0    0  0.00000000000E+00  0.00000000000E+00  0.74505805969E-08  0.10566000000E+00  0.10566000000E+00 0. -1.
     999900   -1    0    0    0    0 -0.00000000000E+00 -0.00000000000E+00 -0.74505805969E-08  0.93827000000E+00  0.93827000000E+00 0.  1.
     999902    2    1    2    0    0 -0.14431845667E-01 -0.16282974820E-01 -0.90598304773E-02  0.10203610805E+01  0.10200888396E+01 0.  0.
     999903    2    3    3    0    0 -0.11212034362E+00  0.64593739175E-01 -0.77003843208E-02  0.13126832178E+00  0.20706370785E-01 0.  0.
         14    1    1    2    0    0  0.14431845667E-01  0.16282974820E-01  0.90598304773E-02  0.23568919505E-01  0.00000000000E+00 0. -1.
     999901    1    3    3    0    0  0.97688497954E-01 -0.80876713995E-01 -0.13594461564E-02  0.88909275871E+00  0.88000000000E+00 0. -1.
        -11    1    4    4    0    0 -0.23406602919E-01  0.20997681787E-01  0.41122425984E-02  0.31716610173E-01  0.51100000000E-03 0. -1.
         11    1    4    4    0    0 -0.88713740702E-01  0.43596057387E-01 -0.11812626919E-01  0.99551711611E-01  0.51100000000E-03 0.  1.
</event>
<event>
 8    1  0.1176534E+005  0.1043930E+01  0.7957747E-01            NaN
         13   -1    0    0    0    0  0.00000000000E+00  0.00000000000E+00  0.74505805969E-08  0.10566000000E+00  0.10566000000E+00 0.  1.
     999900   -1    0    0    0    0 -0.00000000000E+00 -0.00000000000E+00 -0.74505805969E-08  0.93827000000E+00  0.93827000000E+00 0. -1.
     999902    2    1    2    0    0 -0.15500732791E-01 -0.17551824139E-01  0.51561117885E-02  0.10199524118E+01  0.10196705338E+01 0.  0.
     999903    2    3    3    0    0  0.92213127356E-01  0.37832622428E-02 -0.86749040937E-01  0.12837851206E+00  0.20930177388E-01 0.  0.
         14    1    1    2    0    0  0.15500732791E-01  0.17551824139E-01 -0.51561117885E-02  0.23977588211E-01  0.00000000000E+00 0.  1.
     999901    1    3    3    0    0 -0.10771386015E+00 -0.21335086382E-01  0.91905152726E-01  0.89157389973E+00  0.88000000000E+00 0.  1.
        -11    1    4    4    0    0  0.27013251068E-01  0.33042907438E-02 -0.39006634165E-01  0.47564826295E-01  0.51100000000E-03 0.  1.
         11    1    4    4    0    0  0.65199876288E-01  0.47897149895E-03 -0.47742406772E-01  0.80813685766E-01  0.51100000000E-03 0. -1.
</event>
<event>
 8    1  0.1176534E+005  0.1043930E+01  0.7957747E-01            NaN
         13   -1    0    0    0    0  0.00000000000E+00  0.00000000000E+00  0.74505805969E-08  0.10566000000E+00  0.10566000000E+00 0. -1.
     999900   -1    0    0    0    0 -0.00000000000E+00 -0.00000000000E+00 -0.74505805969E-08  0.93827000000E+00  0.93827000000E+00 0. -1.
     999902    2    1    2    0    0  0.14504473962E-01  0.78521138204E-02 -0.16384529649E-01  0.10206815964E+01  0.10204167938E+01 0.  0.
     999903    2    3    3    0    0  0.79367508906E-01  0.76775920374E-01 -0.73271056412E-01  0.13378037232E+00  0.18297455880E-01 0.  0.
         14    1    1    2    0    0 -0.14504473962E-01 -0.78521138204E-02  0.16384529649E-01  0.23248403562E-01  0.00000000000E+00 0. -1.
     999901    1    3    3    0    0 -0.64863034943E-01 -0.68923806553E-01  0.56886526763E-01  0.88690122412E+00  0.88000000000E+00 0. -1.
        -11    1    4    4    0    0  0.40431182124E-01  0.32357122460E-01 -0.25053892250E-01  0.57529318610E-01  0.51100000000E-03 0. -1.
         11    1    4    4    0    0  0.38936326782E-01  0.44418797914E-01 -0.48217164162E-01  0.76251053712E-01  0.51100000000E-03 0.  1.
</event>
<event>
 8    1  0.1176534E+005  0.1043930E+01  0.7957747E-01            NaN
         13   -1    0    0    0    0  0.00000000000E+00  0.00000000000E+00  0.74505805969E-08  0.10566000000E+00  0.10566000000E+00 0.  1.
     999900   -1    0    0    0    0 -0.00000000000E+00 -0.00000000000E+00 -0.74505805969E-08  0.93827000000E+00  0.93827000000E+00 0. -1.
     999902    2    1    2    0    0  0.77793850118E-02 -0.46702600899E-02 -0.22661304706E-01  0.10195196561E+01  0.10192273859E+01 0.  0.
     999903    2    3    3    0    0 -0.51153850981E-01  0.32651204424E-01 -0.11529927380E+00  0.13191174074E+00  0.20590463478E-01 0.  0.
         14    1    1    2    0    0 -0.77793850118E-02  0.46702600899E-02  0.22661304706E-01  0.24410343944E-01  0.00000000000E+00 0. -1.
     999901    1    3    3    0    0  0.58933235992E-01 -0.37321464514E-01  0.92637969089E-01  0.88760791532E+00  0.88000000000E+00 0.  1.
        -11    1    4    4    0    0 -0.43405500747E-02  0.58094345431E-02 -0.30830403346E-01  0.31675934021E-01  0.51100000000E-03 0.  1.
         11    1    4    4    0    0 -0.46813300906E-01  0.26841769881E-01 -0.84468870450E-01  0.10023580672E+00  0.51100000000E-03 0. -1.
</event>
<event>
 8    1  0.1176534E+005  0.1043930E+01  0.7957747E-01            NaN
         13   -1    0    0    0    0  0.00000000000E+00  0.00000000000E+00  0.74505805969E-08  0.10566000000E+00  0.10566000000E+00 0. -1.
     999900   -1    0    0    0    0 -0.00000000000E+00 -0.00000000000E+00 -0.74505805969E-08  0.93827000000E+00  0.93827000000E+00 0. -1.
     999902    2    1    2    0    0  0.40512866080E-02  0.79663044341E-02 -0.21967530031E-01  0.10202140285E+01  0.10199383396E+01 0.  0.
     999903    2    3    3    0    0 -0.49868575142E-01  0.11266050412E+00 -0.43133893331E-01  0.13211705074E+00  0.20374453759E-01 0.  0.
         14    1    1    2    0    0 -0.40512866080E-02 -0.79663044341E-02  0.21967530031E-01  0.23715971521E-01  0.00000000000E+00 0. -1.
     999901    1    3    3    0    0  0.53919861750E-01 -0.10469419969E+00  0.21166363300E-01  0.88809697774E+00  0.88000000000E+00 0.  1.
        -11    1    4    4    0    0 -0.68090256013E-02  0.35561271036E-01 -0.80619487247E-02  0.37097479234E-01  0.51100000000E-03 0. -1.
         11    1    4    4    0    0 -0.43059549541E-01  0.77099233085E-01 -0.35071944606E-01  0.95019571502E-01  0.51100000000E-03 0.  1.
</event>
<event>
 8    1  0.1176534E+005  0.1043930E+01  0.7957747E-01            NaN
         13   -1    0    0    0    0  0.00000000000E+00  0.00000000000E+00  0.74505805969E-08  0.10566000000E+00  0.10566000000E+00 0.  1.
     999900   -1    0    0    0    0 -0.00000000000E+00 -0.00000000000E+00 -0.74505805969E-08  0.93827000000E+00  0.93827000000E+00 0. -1.
     999902    2    1    2    0    0  0.19726213770E-01 -0.12159430274E-01  0.52477910841E-02  0.10201704847E+01  0.10198937706E+01 0.  0.
     999903    2    3    3    0    0  0.83879091940E-01 -0.14025523686E-01 -0.98575930839E-01  0.13174578938E+00  0.20182207502E-01 0.  0.
         14    1    1    2    0    0 -0.19726213770E-01  0.12159430274E-01 -0.52477910841E-02  0.23759515263E-01  0.00000000000E+00 0.  1.
     999901    1    3    3    0    0 -0.64152878171E-01  0.18660934114E-02  0.10382372192E+00  0.88842469535E+00  0.88000000000E+00 0.  1.
        -11    1    4    4    0    0  0.20772726484E-01 -0.70780948407E-02 -0.38609885193E-01  0.44413848603E-01  0.51100000000E-03 0. -1.
         11    1    4    4    0    0  0.63106365457E-01 -0.69474288451E-02 -0.59966045646E-01  0.87331940778E-01  0.51100000000E-03 0.  1.
</event>
<event>
 8    1  0.1176534E+005  0.1043930E+01  0.7957747E-01            NaN
         13   -1    0    0    0    0  0.00000000000E+00  0.00000000000E+00  0.74505805969E-08  0.10566000000E+00  0.10566000000E+00 0.  1.
     999900   -1    0    0    0    0 -0.00000000000E+00 -0.00000000000E+00 -0.74505805969E-08  0.93827000000E+00  0.93827000000E+00 0. -1.
     999902    2    1    2    0    0 -0.32562456624E-02 -0.18634394936E-01  0.15437875340E-01  0.10195133703E+01  0.10192209478E+01 0.  0.
     999903    2    3    3    0    0 -0.83675662338E-01  0.94053845447E-01 -0.13969793418E-01  0.12820493151E+00  0.19839531831E-01 0.  0.
         14    1    1    2    0    0  0.32562456624E-02  0.18634394936E-01 -0.15437875340E-01  0.24416629691E-01  0.00000000000E+00 0.  1.
     999901    1    3    3    0    0  0.80419416676E-01 -0.11268824038E+00  0.29407668759E-01  0.89130843880E+00  0.88000000000E+00 0.  1.
        -11    1    4    4    0    0 -0.39144118490E-01  0.43102469564E-01  0.34468166059E-02  0.58328608423E-01  0.51100000000E-03 0. -1.
         11    1    4    4    0    0 -0.44531543849E-01  0.50951375884E-01 -0.17416610024E-01  0.69876323084E-01  0.51100000000E-03 0.  1.
</event>
<event>
 8    1  0.1176534E+005  0.1043930E+01  0.7957747E-01            NaN
         13   -1    0    0    0    0  0.00000000000E+00  0.00000000000E+00  0.74505805969E-08  0.10566000000E+00  0.10566000000E+00 0. -1.
     999900   -1    0    0    0    0 -0.00000000000E+00 -0.00000000000E+00 -0.74505805969E-08  0.93827000000E+00  0.93827000000E+00 0. -1.
     999902    2    1    2    0    0  0.23108149162E-01 -0.74860069942E-02 -0.39404917078E-02  0.10193219864E+01  0.10190249053E+01 0.  0.
     999903    2    3    3    0    0  0.31146870433E-01  0.12347095594E+00  0.12342648778E-01  0.12944587826E+00  0.19715220552E-01 0.  0.
         14    1    1    2    0    0 -0.23108149162E-01  0.74860069942E-02  0.39404917078E-02  0.24608013600E-01  0.00000000000E+00 0. -1.
     999901    1    3    3    0    0 -0.80387212701E-02 -0.13095696293E+00 -0.16283140486E-01  0.88987610814E+00  0.88000000000E+00 0. -1.
        -11    1    4    4    0    0  0.21983524635E-01  0.11209836045E+00  0.10498745770E-01  0.11471618262E+00  0.51100000000E-03 0.  1.
         11    1    4    4    0    0  0.91633457979E-02  0.11372595488E-01  0.18439030082E-02  0.14729695640E-01  0.51100000000E-03 0. -1.
</event>
<event>
 8    1  0.1176534E+005  0.1043930E+01  0.7957747E-01            NaN
         13   -1    0    0    0    0  0.00000000000E+00  0.00000000000E+00  0.74505805969E-08  0.10566000000E+00  0.10566000000E+00 0. -1.
     999900   -1    0    0    0    0 -0.00000000000E+00 -0.00000000000E+00 -0.74505805969E-08  0.93827000000E+00  0.93827000000E+00 0.  1.
     999902    2    1    2    0    0  0.10824893152E-03  0.23280265271E-01 -0.23257741191E-02  0.10205335966E+01  0.10202653723E+01 0.  0.
     999903    2    3    3    0    0  0.87531120370E-01 -0.89571821586E-01  0.22331080765E-01  0.12868926459E+00  0.19427851094E-01 0.  0.
         14    1    1    2    0    0 -0.10824893152E-03 -0.23280265271E-01  0.23257741191E-02  0.23396403445E-01  0.00000000000E+00 0.  1.
     999901    1    3    3    0    0 -0.87422871439E-01  0.11285208686E+00 -0.24656854884E-01  0.89184433196E+00  0.88000000000E+00 0.  1.
        -11    1    4    4    0    0  0.11461907373E-01 -0.19617057794E-01  0.91785069809E-02  0.24509393883E-01  0.51100000000E-03 0.  1.
         11    1    4    4    0    0  0.76069212997E-01 -0.69954763792E-01  0.13152573784E-01  0.10417987071E+00  0.51100000000E-03 0. -1.
</event>
<event>
 8    1  0.1176534E+005  0.1043930E+01  0.7957747E-01            NaN
         13   -1    0    0    0    0  0.00000000000E+00  0.00000000000E+00  0.74505805969E-08  0.10566000000E+00  0.10566000000E+00 0. -1.
     999900   -1    0    0    0    0 -0.00000000000E+00 -0.00000000000E+00 -0.74505805969E-08  0.93827000000E+00  0.93827000000E+00 0. -1.
     999902    2    1    2    0    0  0.13823076380E-01  0.13968032549E-01 -0.13820753371E-01  0.10199050838E+01  0.10196220787E+01 0.  0.
     999903    2    3    3    0    0  0.12006983479E+00  0.34216568287E-01 -0.41043574411E-01  0.13286536720E+00  0.19521578542E-01 0.  0.
         14    1    1    2    0    0 -0.13823076380E-01 -0.13968032549E-01  0.13820753371E-01  0.24024916184E-01  0.00000000000E+00 0. -1.
     999901    1    3    3    0    0 -0.10624675841E+00 -0.20248535739E-01  0.27222821040E-01  0.88703971662E+00  0.88000000000E+00 0.  1.
        -11    1    4    4    0    0  0.10325131491E+00  0.27715347383E-01 -0.27729113615E-01  0.11044518720E+00  0.51100000000E-03 0. -1.
         11    1    4    4    0    0  0.16818519875E-01  0.65012209042E-02 -0.13314460796E-01  0.22420180002E-01  0.51100000000E-03 0.  1.
</event>
<event>
 8    1  0.1176534E+005  0.1043930E+01  0.7957747E-01            NaN
         13   -1    0    0    0    0  0.00000000000E+00  0.00000000000E+00  0.74505805969E-08  0.10566000000E+00  0.10566000000E+00 0.  1.
     999900   -1    0    0    0    0 -0.00000000000E+00 -0.00000000000E+00 -0.74505805969E-08  0.93827000000E+00  0.93827000000E+00 0. -1.
     999902    2    1    2    0    0 -0.20296987126E-01 -0.12817002468E-01  0.37372277038E-02  0.10196357597E+01  0.10193462966E+01 0.  0.
     999903    2    3    3    0    0  0.11358064701E-01 -0.12795894648E+00 -0.52009012212E-02  0.13152563159E+00  0.27738867558E-01 0.  0.
         14    1    1    2    0    0  0.20296987126E-01  0.12817002468E-01 -0.37372277038E-02  0.24294240255E-01  0.00000000000E+00 0. -1.
     999901    1    3    3    0    0 -0.31655051827E-01  0.11514194402E+00  0.89381289250E-02  0.88811012815E+00  0.88000000000E+00 0. -1.
        -11    1    4    4    0    0 -0.81046851611E-02 -0.18837625934E-01  0.68455004178E-03  0.20524906873E-01  0.51100000000E-03 0.  1.
         11    1    4    4    0    0  0.19462749862E-01 -0.10912132055E+00 -0.58854512630E-02  0.11100072472E+00  0.51100000000E-03 0. -1.
</event>
<event>
 8    1  0.1176534E+005  0.1043930E+01  0.7957747E-01            NaN
         13   -1    0    0    0    0  0.00000000000E+00  0.00000000000E+00  0.74505805969E-08  0.10566000000E+00  0.10566000000E+00 0.  1.
     999900   -1    0    0    0    0 -0.00000000000E+00 -0.00000000000E+00 -0.74505805969E-08  0.93827000000E+00  0.93827000000E+00 0. -1.
     999902    2    1    2    0    0 -0.62746159514E-02  0.22794093980E-01 -0.96885145526E-03  0.10202682123E+01  0.10199937964E+01 0.  0.
     999903    2    3    3    0    0  0.10185134970E+00 -0.53480429728E-01 -0.54218917750E-01  0.12878372167E+00  0.20290444190E-01 0.  0.
         14    1    1    2    0    0  0.62746159514E-02 -0.22794093980E-01  0.96885145526E-03  0.23661787736E-01  0.00000000000E+00 0. -1.
     999901    1    3    3    0    0 -0.10812596565E+00  0.76274523708E-01  0.53250066294E-01  0.89148449060E+00  0.88000000000E+00 0. -1.
        -11    1    4    4    0    0  0.33787276116E-02 -0.48915461382E-02  0.69878265594E-03  0.60076985690E-02  0.51100000000E-03 0.  1.
         11    1    4    4    0    0  0.98472622086E-01 -0.48588883590E-01 -0.54917700406E-01  0.12277602310E+00  0.51100000000E-03 0. -1.
</event>
<event>
 8    1  0.1176534E+005  0.1043930E+01  0.7957747E-01            NaN
         13   -1    0    0    0    0  0.00000000000E+00  0.00000000000E+00  0.74505805969E-08  0.10566000000E+00  0.10566000000E+00 0. -1.
     999900   -1    0    0    0    0 -0.00000000000E+00 -0.00000000000E+00 -0.74505805969E-08  0.93827000000E+00  0.93827000000E+00 0.  1.
     999902    2    1    2    0    0 -0.10653774343E-01  0.21066393468E-01  0.47647568292E-04  0.10203228377E+01  0.10200497022E+01 0.  0.
     999903    2    3    3    0    0 -0.36319374321E-01  0.12653937333E+00 -0.89957275126E-02  0.13360695585E+00  0.20942434980E-01 0.  0.
         14    1    1    2    0    0  0.10653774343E-01 -0.21066393468E-01 -0.47647568292E-04  0.23607162299E-01  0.00000000000E+00 0.  1.
     999901    1    3    3    0    0  0.25665599978E-01 -0.10547297986E+00  0.90433750809E-02  0.88671588186E+00  0.88000000000E+00 0.  1.
        -11    1    4    4    0    0 -0.13594738881E-01  0.26702575710E-01  0.45900920238E-02  0.30317891427E-01  0.51100000000E-03 0.  1.
         11    1    4    4    0    0 -0.22724635440E-01  0.99836797620E-01 -0.13585819536E-01  0.10328906442E+00  0.51100000000E-03 0. -1.
</event>
<event>
 8    1  0.1176534E+005  0.1043930E+01  0.7957747E-01            NaN
         13   -1    0    0    0    0  0.00000000000E+00  0.00000000000E+00  0.74505805969E-08  0.10566000000E+00  0.10566000000E+00 0. -1.
     999900   -1    0    0    0    0 -0.00000000000E+00 -0.00000000000E+00 -0.74505805969E-08  0.93827000000E+00  0.93827000000E+00 0. -1.
     999902    2    1    2    0    0  0.23788761179E-01  0.95364446842E-02  0.16958319878E-02  0.10182448918E+01  0.10179208884E+01 0.  0.
     999903    2    3    3    0    0  0.31294611492E-01  0.12005314919E+00 -0.31938871569E-01  0.13066302347E+00  0.25702584419E-01 0.  0.
         14    1    1    2    0    0 -0.23788761179E-01 -0.95364446842E-02 -0.16958319878E-02  0.25685108172E-01  0.00000000000E+00 0. -1.
     999901    1    3    3    0    0 -0.75058503125E-02 -0.11051670450E+00  0.33634703557E-01  0.88758186836E+00  0.88000000000E+00 0. -1.
        -11    1    4    4    0    0  0.49540632365E-02  0.67610213463E-01 -0.20930950787E-01  0.70951036137E-01  0.51100000000E-03 0. -1.
         11    1    4    4    0    0  0.26340548255E-01  0.52442935724E-01 -0.11007920783E-01  0.59711987329E-01  0.51100000000E-03 0.  1.
</event>
<event>
 8    1  0.1176534E+005  0.1043930E+01  0.7957747E-01            NaN
         13   -1    0    0    0    0  0.00000000000E+00  0.00000000000E+00  0.74505805969E-08  0.10566000000E+00  0.10566000000E+00 0.  1.
     999900   -1    0    0    0    0 -0.00000000000E+00 -0.00000000000E+00 -0.74505805969E-08  0.93827000000E+00  0.93827000000E+00 0. -1.
     999902    2    1    2    0    0 -0.22736390492E-01 -0.45519246038E-02  0.81162487608E-03  0.10207282284E+01  0.10204644992E+01 0.  0.
     999903    2    3    3    0    0  0.16065703192E-01 -0.91513636359E-01 -0.89599555038E-01  0.13098549973E+00  0.22277082769E-01 0.  0.
         14    1    1    2    0    0  0.22736390492E-01  0.45519246038E-02 -0.81162487608E-03  0.23201771594E-01  0.00000000000E+00 0. -1.
     999901    1    3    3    0    0 -0.38802093684E-01  0.86961711755E-01  0.90411179914E-01  0.88974272868E+00  0.88000000000E+00 0.  1.
        -11    1    4    4    0    0  0.23508128769E-02 -0.58748414080E-01 -0.45432570895E-01  0.74305330208E-01  0.51100000000E-03 0.  1.
         11    1    4    4    0    0  0.13714890315E-01 -0.32765222279E-01 -0.44166984143E-01  0.56680169518E-01  0.51100000000E-03 0. -1.
</event>
<event>
 8    1  0.1176534E+005  0.1043930E+01  0.7957747E-01            NaN
         13   -1    0    0    0    0  0.00000000000E+00  0.00000000000E+00  0.74505805969E-08  0.10566000000E+00  0.10566000000E+00 0. -1.
     999900   -1    0    0    0    0 -0.00000000000E+00 -0.00000000000E+00 -0.74505805969E-08  0.93827000000E+00  0.93827000000E+00 0. -1.
     999902    2    1    2    0    0 -0.57531331930E-02  0.23155419552E-01 -0.16850283103E-02  0.10200111514E+01  0.10197306692E+01 0.  0.
     999903    2    3    3    0    0  0.11642795328E+00  0.45327765948E-02 -0.53900587622E-01  0.12984179375E+00  0.19432027460E-01 0.  0.
         14    1    1    2    0    0  0.57531331930E-02 -0.23155419552E-01  0.16850283103E-02  0.23918848563E-01  0.00000000000E+00 0.  1.
     999901    1    3    3    0    0 -0.12218108647E+00  0.18622642957E-01  0.52215559312E-01  0.89016935768E+00  0.88000000000E+00 0. -1.
        -11    1    4    4    0    0  0.46819129199E-01  0.25399370606E-02 -0.32265332285E-01  0.56919196478E-01  0.51100000000E-03 0.  1.
         11    1    4    4    0    0  0.69608824079E-01  0.19928395342E-02 -0.21635255338E-01  0.72922597277E-01  0.51100000000E-03 0. -1.
</event>
<event>
 8    1  0.1176534E+005  0.1043930E+01  0.7957747E-01            NaN
         13   -1    0    0    0    0  0.00000000000E+00  0.00000000000E+00  0.74505805969E-08  0.10566000000E+00  0.10566000000E+00 0. -1.
     999900   -1    0    0    0    0 -0.00000000000E+00 -0.00000000000E+00 -0.74505805969E-08  0.93827000000E+00  0.93827000000E+00 0.  1.
     999902    2    1    2    0    0 -0.88840033006E-02  0.33788796285E-02 -0.17276755150E-01  0.10242112624E+01  0.10240214263E+01 0.  0.
     999903    2    3    3    0    0 -0.11395267690E+00 -0.61058882154E-01  0.32074641330E-01  0.13425215572E+00  0.16776740885E-01 0.  0.
         14    1    1    2    0    0  0.88840033006E-02 -0.33788796285E-02  0.17276755150E-01  0.19718737554E-01  0.00000000000E+00 0. -1.
     999901    1    3    3    0    0  0.10506867360E+00  0.64437761782E-01 -0.49351396480E-01  0.88995910673E+00  0.88000000000E+00 0.  1.
        -11    1    4    4    0    0 -0.49411803890E-01 -0.31043410539E-01  0.69573901825E-02  0.58769771998E-01  0.51100000000E-03 0.  1.
         11    1    4    4    0    0 -0.64540873014E-01 -0.30015471615E-01  0.25117251147E-01  0.75482383718E-01  0.51100000000E-03 0. -1.
</event>
<event>
 8    1  0.1176534E+005  0.1043930E+01  0.7957747E-01            NaN
         13   -1    0    0    0    0  0.00000000000E+00  0.00000000000E+00  0.74505805969E-08  0.10566000000E+00  0.10566000000E+00 0. -1.
     999900   -1    0    0    0    0 -0.00000000000E+00 -0.00000000000E+00 -0.74505805969E-08  0.93827000000E+00  0.93827000000E+00 0.  1.
     999902    2    1    2    0    0 -0.15764106259E-01 -0.26195277788E-02 -0.17329228672E-01  0.10203573222E+01  0.10200849934E+01 0.  0.
     999903    2    3    3    0    0 -0.12688755693E+00  0.23361131152E-01  0.20033375883E-01  0.13220227935E+00  0.20734318533E-01 0.  0.
         14    1    1    2    0    0  0.15764106259E-01  0.26195277788E-02  0.17329228672E-01  0.23572677792E-01  0.00000000000E+00 0. -1.
     999901    1    3    3    0    0  0.11112345067E+00 -0.25980658931E-01 -0.37362604554E-01  0.88815504285E+00  0.88000000000E+00 0.  1.
        -11    1    4    4    0    0 -0.57925654081E-01  0.47757144047E-02  0.17623270319E-01  0.60737382447E-01  0.51100000000E-03 0. -1.
         11    1    4    4    0    0 -0.68961902848E-01  0.18585416747E-01  0.24101055639E-02  0.71464896907E-01  0.51100000000E-03 0.  1.
</event>
<event>
 8    1  0.1176534E+005  0.1043930E+01  0.7957747E-01            NaN
         13   -1    0    0    0    0  0.00000000000E+00  0.00000000000E+00  0.74505805969E-08  0.10566000000E+00  0.10566000000E+00 0.  1.
     999900   -1    0    0    0    0 -0.00000000000E+00 -0.00000000000E+00 -0.74505805969E-08  0.93827000000E+00  0.93827000000E+00 0. -1.
     999902    2    1    2    0    0  0.63684401316E-02 -0.11777676688E-01  0.19949233303E-01  0.10199041263E+01  0.10196210984E+01 0.  0.
     999903    2    3    3    0    0 -0.68477105644E-01  0.18197671728E-01 -0.10414370731E+00  0.12754801176E+00  0.20057773523E-01 0.  0.
         14    1    1    2    0    0 -0.63684401316E-02  0.11777676688E-01 -0.19949233303E-01  0.24025873705E-01  0.00000000000E+00 0. -1.
     999901    1    3    3    0    0  0.74845545776E-01 -0.29975348416E-01  0.12409294061E+00  0.89235611453E+00  0.88000000000E+00 0.  1.
        -11    1    4    4    0    0 -0.18905682546E-01  0.80290088650E-02 -0.46531644121E-01  0.50865949726E-01  0.51100000000E-03 0.  1.
         11    1    4    4    0    0 -0.49571423098E-01  0.10168662863E-01 -0.57612063187E-01  0.76682062036E-01  0.51100000000E-03 0. -1.
</event>
<event>
 8    1  0.1176534E+005  0.1043930E+01  0.7957747E-01            NaN
         13   -1    0    0    0    0  0.00000000000E+00  0.00000000000E+00  0.74505805969E-08  0.10566000000E+00  0.10566000000E+00 0.  1.
     999900   -1    0    0    0    0 -0.00000000000E+00 -0.00000000000E+00 -0.74505805969E-08  0.93827000000E+00  0.93827000000E+00 0. -1.
     999902    2    1    2    0    0 -0.96285697635E-02 -0.14344880430E-01 -0.16293473445E-01  0.10201821111E+01  0.10199056709E+01 0.  0.
     999903    2    3    3    0    0 -0.38029218811E-01  0.20608170430E-01  0.11941014129E+00  0.12864199216E+00  0.20471007133E-01 0.  0.
         14    1    1    2    0    0  0.96285697635E-02  0.14344880430E-01  0.16293473445E-01  0.23747888899E-01  0.00000000000E+00 0. -1.
     999901    1    3    3    0    0  0.28400649048E-01 -0.34953050860E-01 -0.13570361473E+00  0.89154011894E+00  0.88000000000E+00 0. -1.
        -11    1    4    4    0    0 -0.79247914034E-02 -0.11743180854E-03  0.45491177774E-01  0.46179264668E-01  0.51100000000E-03 0. -1.
         11    1    4    4    0    0 -0.30104427408E-01  0.20725602239E-01  0.73918963512E-01  0.82462727492E-01  0.51100000000E-03 0.  1.
</event>
<event>
 8    1  0.1176534E+005  0.1043930E+01  0.7957747E-01            NaN
         13   -1    0    0    0    0  0.00000000000E+00  0.00000000000E+00  0.74505805969E-08  0.10566000000E+00  0.10566000000E+00 0.  1.
     999900   -1    0    0    0    0 -0.00000000000E+00 -0.00000000000E+00 -0.74505805969E-08  0.93827000000E+00  0.93827000000E+00 0.  1.
     999902    2    1    2    0    0  0.52419066589E-02 -0.13076234667E-01  0.18968589024E-01  0.10203022014E+01  0.10200285826E+01 0.  0.
     999903    2    3    3    0    0  0.23295143075E-02 -0.68390730650E-01  0.11314126638E+00  0.13354593911E+00  0.18731070934E-01 0.  0.
         14    1    1    2    0    0 -0.52419066589E-02  0.13076234667E-01 -0.18968589024E-01  0.23627798629E-01  0.00000000000E+00 0. -1.
     999901    1    3    3    0    0  0.29123923514E-02  0.55314495983E-01 -0.94172677361E-01  0.88675626226E+00  0.88000000000E+00 0.  1.
        -11    1    4    4    0    0 -0.68026665666E-02 -0.20993978351E-01  0.27793516074E-01  0.35493155061E-01  0.51100000000E-03 0. -1.
         11    1    4    4    0    0  0.91321808740E-02 -0.47396752299E-01  0.85347750311E-01  0.98052784051E-01  0.51100000000E-03 0.  1.
</event>
<event>
 8    1  0.1176534E+005  0.1043930E+01  0.7957747E-01            NaN
         13   -1    0    0    0    0  0.00000000000E+00  0.00000000000E+00  0.74505805969E-08  0.10566000000E+00  0.10566000000E+00 0. -1.
     999900   -1    0    0    0    0 -0.00000000000E+00 -0.00000000000E+00 -0.74505805969E-08  0.93827000000E+00  0.93827000000E+00 0.  1.
     999902    2    1    2    0    0 -0.95915815810E-02 -0.17789020752E-01 -0.10271459336E-01  0.10212595220E+01  0.10210078651E+01 0.  0.
     999903    2    3    3    0    0  0.10345524510E+00 -0.68051215493E-01  0.38816398621E-01  0.13125081920E+00  0.19649658262E-01 0.  0.
         14    1    1    2    0    0  0.95915815810E-02  0.17789020752E-01  0.10271459336E-01  0.22670478015E-01  0.00000000000E+00 0. -1.
     999901    1    3    3    0    0 -0.11304682668E+00  0.50262194741E-01 -0.49087857957E-01  0.89000870279E+00  0.88000000000E+00 0. -1.
        -11    1    4    4    0    0  0.34177165674E-01 -0.21467873952E-01  0.22416386931E-01  0.46170377836E-01  0.51100000000E-03 0. -1.
         11    1    4    4    0    0  0.69278079421E-01 -0.46583341541E-01  0.16400011691E-01  0.85080441359E-01  0.51100000000E-03 0.  1.
</event>
<event>
 8    1  0.1176534E+005  0.1043930E+01  0.7957747E-01            NaN
         13   -1    0    0    0    0  0.00000000000E+00  0.00000000000E+00  0.74505805969E-08  0.10566000000E+00  0.10566000000E+00 0. -1.
     999900   -1    0    0    0    0 -0.00000000000E+00 -0.00000000000E+00 -0.74505805969E-08  0.93827000000E+00  0.93827000000E+00 0.  1.
     999902    2    1    2    0    0  0.54838017825E-02 -0.15999340299E-01  0.16506801432E-01  0.10202968566E+01  0.10200231126E+01 0.  0.
     999903    2    3    3    0    0  0.45337437899E-01  0.95080242246E-01  0.74160370074E-01  0.13054918456E+00  0.21156402345E-01 0.  0.
         14    1    1    2    0    0 -0.54838017825E-02  0.15999340299E-01 -0.16506801432E-01  0.23633143369E-01  0.00000000000E+00 0. -1.
     999901    1    3    3    0    0 -0.39853636116E-01 -0.11107958255E+00 -0.57653568642E-01  0.88974767207E+00  0.88000000000E+00 0.  1.
        -11    1    4    4    0    0  0.32692690978E-01  0.46193105477E-01  0.33940698784E-01  0.65991266027E-01  0.51100000000E-03 0. -1.
         11    1    4    4    0    0  0.12644746921E-01  0.48887136768E-01  0.40219671290E-01  0.64557918537E-01  0.51100000000E-03 0.  1.
</event>
<event>
 8    1  0.1176534E+005  0.1043930E+01  0.7957747E-01            NaN
         13   -1    0    0    0    0  0.00000000000E+00  0.00000000000E+00  0.74505805969E-08  0.10566000000E+00  0.10566000000E+00 0. -1.
     999900   -1    0    0    0    0 -0.00000000000E+00 -0.00000000000E+00 -0.74505805969E-08  0.93827000000E+00  0.93827000000E+00 0. -1.
     999902    2    1    2    0    0 -0.10317616799E-01  0.18739412078E-01  0.84403343996E-02  0.10209330866E+01  0.10206740465E+01 0.  0.
     999903    2    3    3    0    0  0.96966391632E-01  0.75192180068E-01  0.43940367564E-01  0.13191282483E+00  0.20344345710E-01 0.  0.
         14    1    1    2    0    0  0.10317616799E-01 -0.18739412078E-01 -0.84403343996E-02  0.22996913406E-01  0.00000000000E+00 0. -1.
     999901    1    3    3    0    0 -0.10728400843E+00 -0.56452767990E-01 -0.35500033164E-01  0.88902026177E+00  0.88000000000E+00 0. -1.
        -11    1    4    4    0    0  0.89308304347E-01  0.69621393703E-01  0.45968131483E-01  0.12221473692E+00  0.51100000000E-03 0.  1.
         11    1    4    4    0    0  0.76580872852E-02  0.55707863651E-02 -0.20277639190E-02  0.96980879097E-02  0.51100000000E-03 0. -1.
</event>
<event>
 8    1  0.1176534E+005  0.1043930E+01  0.7957747E-01            NaN
         13   -1    0    0    0    0  0.00000000000E+00  0.00000000000E+00  0.74505805969E-08  0.10566000000E+00  0.10566000000E+00 0. -1.
     999900   -1    0    0    0    0 -0.00000000000E+00 -0.00000000000E+00 -0.74505805969E-08  0.93827000000E+00  0.93827000000E+00 0.  1.
     999902    2    1    2    0    0 -0.31519137727E-02 -0.18427492220E-01 -0.14795992376E-01  0.10200882631E+01  0.10198096077E+01 0.  0.
     999903    2    3    3    0    0  0.87251315787E-01 -0.80851382508E-01 -0.54256915722E-01  0.13237961127E+00  0.20755973014E-01 0.  0.
         14    1    1    2    0    0  0.31519137727E-02  0.18427492220E-01  0.14795992376E-01  0.23841736940E-01  0.00000000000E+00 0. -1.
     999901    1    3    3    0    0 -0.90403229560E-01  0.62423890288E-01  0.39460923346E-01  0.88770865179E+00  0.88000000000E+00 0. -1.
        -11    1    4    4    0    0  0.62895525765E-01 -0.63652799416E-01 -0.31502551241E-01  0.94869372773E-01  0.51100000000E-03 0. -1.
         11    1    4    4    0    0  0.24355790022E-01 -0.17198583093E-01 -0.22754364481E-01  0.37510238495E-01  0.51100000000E-03 0.  1.
</event>
<event>
 8    1  0.1176534E+005  0.1043930E+01  0.7957747E-01            NaN
         13   -1    0    0    0    0  0.00000000000E+00  0.00000000000E+00  0.74505805969E-08  0.10566000000E+00  0.10566000000E+00 0. -1.
     999900   -1    0    0    0    0 -0.00000000000E+00 -0.00000000000E+00 -0.74505805969E-08  0.93827000000E+00  0.93827000000E+00 0. -1.
     999902    2    1    2    0    0  0.11091964729E-01 -0.19879557772E-01 -0.10729575816E-02  0.10211400957E+01  0.10208857504E+01 0.  0.
     999903    2    3    3    0    0  0.39997190084E-01 -0.84570020671E-01 -0.93114048172E-01  0.13350732797E+00  0.20052856243E-01 0.  0.
         14    1    1    2    0    0 -0.11091964729E-01  0.19879557772E-01  0.10729575816E-02  0.22789904272E-01  0.00000000000E+00 0.  1.
     999901    1    3    3    0    0 -0.28905225355E-01  0.64690462899E-01  0.92041090590E-01  0.88763276776E+00  0.88000000000E+00 0.  1.
        -11    1    4    4    0    0  0.12487328284E-01 -0.49743118702E-01 -0.49387450970E-01  0.71201774277E-01  0.51100000000E-03 0.  1.
         11    1    4    4    0    0  0.27509861799E-01 -0.34826901969E-01 -0.43726597202E-01  0.62305553692E-01  0.51100000000E-03 0. -1.
</event>
<event>
 8    1  0.1176534E+005  0.1043930E+01  0.7957747E-01            NaN
         13   -1    0    0    0    0  0.00000000000E+00  0.00000000000E+00  0.74505805969E-08  0.10566000000E+00  0.10566000000E+00 0. -1.
     999900   -1    0    0    0    0 -0.00000000000E+00 -0.00000000000E+00 -0.74505805969E-08  0.93827000000E+00  0.93827000000E+00 0. -1.
     999902    2    1    2    0    0 -0.15036575715E-01 -0.13028974132E-01  0.11615166596E-01  0.10208916652E+01  0.10206316805E+01 0.  0.
     999903    2    3    3    0    0 -0.44630559717E-01  0.72585937567E-01  0.98608919025E-01  0.13197455433E+00  0.20807664151E-01 0.  0.
         14    1    1    2    0    0  0.15036575715E-01  0.13028974132E-01 -0.11615166596E-01  0.23038334819E-01  0.00000000000E+00 0.  1.
     999901    1    3    3    0    0  0.29593984003E-01 -0.85614911699E-01 -0.86993752429E-01  0.88891711085E+00  0.88000000000E+00 0. -1.
        -11    1    4    4    0    0 -0.43823612721E-02  0.17297675034E-01  0.31217180871E-01  0.35960925384E-01  0.51100000000E-03 0.  1.
         11    1    4    4    0    0 -0.40248198445E-01  0.55288262532E-01  0.67391738154E-01  0.96013628951E-01  0.51100000000E-03 0. -1.
</event>
<event>
 8    1  0.1176534E+005  0.1043930E+01  0.7957747E-01            NaN
         13   -1    0    0    0    0  0.00000000000E+00  0.00000000000E+00  0.74505805969E-08  0.10566000000E+00  0.10566000000E+00 0.  1.
     999900   -1    0    0    0    0 -0.00000000000E+00 -0.00000000000E+00 -0.74505805969E-08  0.93827000000E+00  0.93827000000E+00 0. -1.
     999902    2    1    2    0    0  0.19978084690E-01  0.98117438145E-02 -0.95648342310E-02  0.10197043888E+01  0.10194165784E+01 0.  0.
     999903    2    3    3    0    0  0.90185145520E-01  0.35036192755E-01 -0.89043123265E-01  0.13297889427E+00  0.19844728368E-01 0.  0.
         14    1    1    2    0    0 -0.19978084690E-01 -0.98117438145E-02  0.95648342310E-02  0.24225611209E-01  0.00000000000E+00 0. -1.
     999901    1    3    3    0    0 -0.70207060830E-01 -0.25224448941E-01  0.79478289034E-01  0.88672549453E+00  0.88000000000E+00 0. -1.
        -11    1    4    4    0    0  0.50391507392E-01  0.18706672056E-01 -0.62481376013E-01  0.82422248611E-01  0.51100000000E-03 0.  1.
         11    1    4    4    0    0  0.39793638128E-01  0.16329520699E-01 -0.26561747252E-01  0.50556645654E-01  0.51100000000E-03 0. -1.
</event>
<event>
 8    1  0.1176534E+005  0.1043930E+01  0.7957747E-01            NaN
         13   -1    0    0    0    0  0.00000000000E+00  0.00000000000E+00  0.74505805969E-08  0.10566000000E+00  0.10566000000E+00 0.  1.
     999900   -1    0    0    0    0 -0.00000000000E+00 -0.00000000000E+00 -0.74505805969E-08  0.93827000000E+00  0.93827000000E+00 0. -1.
     999902    2    1    2    0    0 -0.13295001709E-01  0.98711608358E-02 -0.16766978746E-01  0.10203645918E+01  0.10200924330E+01 0.  0.
     999903    2    3    3    0    0  0.69396913036E-01 -0.85132170219E-01 -0.66379260018E-01  0.13001355760E+00  0.20830291734E-01 0.  0.
         14    1    1    2    0    0  0.13295001709E-01 -0.98711608358E-02  0.16766978746E-01  0.23565408186E-01  0.00000000000E+00 0. -1.
     999901    1    3    3    0    0 -0.82691914746E-01  0.95003331054E-01  0.49612281272E-01  0.89035103422E+00  0.88000000000E+00 0. -1.
        -11    1    4    4    0    0  0.34484477525E-01 -0.38272917476E-01 -0.42875539598E-01  0.67026624704E-01  0.51100000000E-03 0.  1.
         11    1    4    4    0    0  0.34912435511E-01 -0.46859252743E-01 -0.23503720420E-01  0.62986932895E-01  0.51100000000E-03 0. -1.
</event>
<event>
 8    1  0.1176534E+005  0.1043930E+01  0.7957747E-01            NaN
         13   -1    0    0    0    0  0.00000000000E+00  0.00000000000E+00  0.74505805969E-08  0.10566000000E+00  0.10566000000E+00 0.  1.
     999900   -1    0    0    0    0 -0.00000000000E+00 -0.00000000000E+00 -0.74505805969E-08  0.93827000000E+00  0.93827000000E+00 0. -1.
     999902    2    1    2    0    0 -0.21942072368E-01  0.58686459949E-02  0.82334534066E-02  0.10197704201E+01  0.10194841953E+01 0.  0.
     999903    2    3    3    0    0 -0.74562754881E-01  0.41002523557E-01  0.99905100781E-01  0.13274899054E+00  0.20011346121E-01 0.  0.
         14    1    1    2    0    0  0.21942072368E-01 -0.58686459949E-02 -0.82334534066E-02  0.24159579893E-01  0.00000000000E+00 0. -1.
     999901    1    3    3    0    0  0.52620682513E-01 -0.35133877562E-01 -0.91671647374E-01  0.88702142957E+00  0.88000000000E+00 0. -1.
        -11    1    4    4    0    0 -0.63931041305E-01  0.33393523981E-01  0.71928439261E-01  0.10186396312E+00  0.51100000000E-03 0.  1.
         11    1    4    4    0    0 -0.10631713577E-01  0.76089995753E-02  0.27976661520E-01  0.30885027423E-01  0.51100000000E-03 0. -1.
</event>
<event>
 8    1  0.1176534E+005  0.1043930E+01  0.7957747E-01            NaN
         13   -1    0    0    0    0  0.00000000000E+00  0.00000000000E+00  0.74505805969E-08  0.10566000000E+00  0.10566000000E+00 0. -1.
     999900   -1    0    0    0    0 -0.00000000000E+00 -0.00000000000E+00 -0.74505805969E-08  0.93827000000E+00  0.93827000000E+00 0. -1.
     999902    2    1    2    0    0 -0.15076089258E-01 -0.10506386470E-01 -0.14816875937E-01  0.10203246524E+01  0.10200515594E+01 0.  0.
     999903    2    3    3    0    0 -0.70636187562E-01  0.10476058534E+00 -0.28037546291E-01  0.13097197462E+00  0.20082402735E-01 0.  0.
         14    1    1    2    0    0  0.15076089258E-01  0.10506386470E-01  0.14816875937E-01  0.23605347625E-01  0.00000000000E+00 0. -1.
     999901    1    3    3    0    0  0.55560098304E-01 -0.11526697180E+00  0.13220670354E-01  0.88935267776E+00  0.88000000000E+00 0. -1.
        -11    1    4    4    0    0 -0.21154953157E-01  0.31256349330E-01 -0.17931622703E-01  0.41788702185E-01  0.51100000000E-03 0. -1.
         11    1    4    4    0    0 -0.49481234405E-01  0.73504236005E-01 -0.10105923588E-01  0.89183272431E-01  0.51100000000E-03 0.  1.
</event>
<event>
 8    1  0.1176534E+005  0.1043930E+01  0.7957747E-01            NaN
         13   -1    0    0    0    0  0.00000000000E+00  0.00000000000E+00  0.74505805969E-08  0.10566000000E+00  0.10566000000E+00 0. -1.
     999900   -1    0    0    0    0 -0.00000000000E+00 -0.00000000000E+00 -0.74505805969E-08  0.93827000000E+00  0.93827000000E+00 0. -1.
     999902    2    1    2    0    0 -0.12093274938E-01  0.19662054292E-01  0.39908016939E-02  0.10205041558E+01  0.10202352483E+01 0.  0.
     999903    2    3    3    0    0  0.51776734354E-01 -0.11470930402E+00  0.17916939246E-01  0.12790739505E+00  0.14150277295E-01 0.  0.
         14    1    1    2    0    0  0.12093274938E-01 -0.19662054292E-01 -0.39908016939E-02  0.23425844187E-01  0.00000000000E+00 0. -1.
     999901    1    3    3    0    0 -0.63870009291E-01  0.13437135831E+00 -0.13926137553E-01  0.89259676076E+00  0.88000000000E+00 0.  1.
        -11    1    4    4    0    0  0.33682569464E-01 -0.68357248840E-01  0.43549035422E-02  0.76331220746E-01  0.51100000000E-03 0.  1.
         11    1    4    4    0    0  0.18094164890E-01 -0.46352055178E-01  0.13562035704E-01  0.51576174303E-01  0.51100000000E-03 0. -1.
</event>
<event>
 8    1  0.1176534E+005  0.1043930E+01  0.7957747E-01            NaN
         13   -1    0    0    0    0  0.00000000000E+00  0.00000000000E+00  0.74505805969E-08  0.10566000000E+00  0.10566000000E+00 0. -1.
     999900   -1    0    0    0    0 -0.00000000000E+00 -0.00000000000E+00 -0.74505805969E-08  0.93827000000E+00  0.93827000000E+00 0.  1.
     999902    2    1    2    0    0  0.15338027342E-01  0.49311590199E-02  0.17413892009E-01  0.10202062767E+01  0.10199304055E+01 0.  0.
     999903    2    3    3    0    0 -0.18290842181E-01  0.28372322553E-01 -0.12213553467E+00  0.12826769614E+00  0.19898981102E-01 0.  0.
         14    1    1    2    0    0 -0.15338027342E-01 -0.49311590199E-02 -0.17413892009E-01  0.23723723294E-01  0.00000000000E+00 0.  1.
     999901    1    3    3    0    0  0.33628869523E-01 -0.23441163533E-01  0.13954942668E+00  0.89193858056E+00  0.88000000000E+00 0. -1.
        -11    1    4    4    0    0  0.89927379915E-03  0.18410508431E-02 -0.36857835069E-01  0.36918278516E-01  0.51100000000E-03 0. -1.
         11    1    4    4    0    0 -0.19190115980E-01  0.26531271710E-01 -0.85277699603E-01  0.91349417625E-01  0.51100000000E-03 0.  1.
</event>
<event>
 8    1  0.1176534E+005  0.1043930E+01  0.7957747E-01            NaN
         13   -1    0    0    0    0  0.00000000000E+00  0.00000000000E+00  0.74505805969E-08  0.10566000000E+00  0.10566000000E+00 0. -1.
     999900   -1    0    0    0    0 -0.00000000000E+00 -0.00000000000E+00 -0.74505805969E-08  0.93827000000E+00  0.93827000000E+00 0.  1.
     999902    2    1    2    0    0  0.20643207050E-01 -0.51201281874E-02 -0.23460732619E-01  0.10122635559E+01  0.10117681270E+01 0.  0.
     999903    2    3    3    0    0 -0.80498257606E-01  0.40833583379E-01 -0.81721648213E-01  0.12336779494E+00  0.19845252151E-01 0.  0.
         14    1    1    2    0    0 -0.20643207050E-01  0.51201281874E-02  0.23460732619E-01  0.31666444148E-01  0.00000000000E+00 0. -1.
     999901    1    3    3    0    0  0.10114146466E+00 -0.45953711566E-01  0.58260915594E-01  0.88889576091E+00  0.88000000000E+00 0. -1.
        -11    1    4    4    0    0 -0.52063426914E-01  0.19290821771E-01 -0.59261711368E-01  0.81209283841E-01  0.51100000000E-03 0.  1.
         11    1    4    4    0    0 -0.28434830691E-01  0.21542761608E-01 -0.22459936845E-01  0.42158511101E-01  0.51100000000E-03 0. -1.
</event>
<event>
 8    1  0.1176534E+005  0.1043930E+01  0.7957747E-01            NaN
         13   -1    0    0    0    0  0.00000000000E+00  0.00000000000E+00  0.74505805969E-08  0.10566000000E+00  0.10566000000E+00 0.  1.
     999900   -1    0    0    0    0 -0.00000000000E+00 -0.00000000000E+00 -0.74505805969E-08  0.93827000000E+00  0.93827000000E+00 0. -1.
     999902    2    1    2    0    0  0.62838386212E-02  0.20609457683E-01 -0.10602679195E-01  0.10199163959E+01  0.10196336605E+01 0.  0.
     999903    2    3    3    0    0 -0.81614390991E-01 -0.76538740606E-01  0.57920075936E-01  0.12758280408E+00  0.20088530781E-01 0.  0.
         14    1    1    2    0    0 -0.62838386212E-02 -0.20609457683E-01  0.10602679195E-01  0.24013604059E-01  0.00000000000E+00 0.  1.
     999901    1    3    3    0    0  0.87898229613E-01  0.97148198289E-01 -0.68522755131E-01  0.89233359186E+00  0.88000000000E+00 0.  1.
        -11    1    4    4    0    0 -0.34121854775E-01 -0.24370725899E-01  0.12824477509E-01  0.43851586043E-01  0.51100000000E-03 0. -1.
         11    1    4    4    0    0 -0.47492536217E-01 -0.52168014707E-01  0.45095598427E-01  0.83731218033E-01  0.51100000000E-03 0.  1.
</event>
<event>
 8    1  0.1176534E+005  0.1043930E+01  0.7957747E-01            NaN
         13   -1    0    0    0    0  0.00000000000E+00  0.00000000000E+00  0.74505805969E-08  0.10566000000E+00  0.10566000000E+00 0. -1.
     999900   -1    0    0    0    0 -0.00000000000E+00 -0.00000000000E+00 -0.74505805969E-08  0.93827000000E+00  0.93827000000E+00 0.  1.
     999902    2    1    2    0    0  0.12502688768E-01  0.17177934045E-01  0.93390501858E-02  0.10207218871E+01  0.10204580121E+01 0.  0.
     999903    2    3    3    0    0  0.10840493637E-01 -0.12345184167E+00 -0.28513637220E-01  0.12875085473E+00  0.20146502694E-01 0.  0.
         14    1    1    2    0    0 -0.12502688768E-01 -0.17177934045E-01 -0.93390501858E-02  0.23208112867E-01  0.00000000000E+00 0.  1.
     999901    1    3    3    0    0  0.16621951313E-02  0.14062977572E+00  0.37852687406E-01  0.89197103241E+00  0.88000000000E+00 0. -1.
        -11    1    4    4    0    0  0.79812653981E-02 -0.83838040591E-01 -0.28868783224E-01  0.89029126770E-01  0.51100000000E-03 0. -1.
         11    1    4    4    0    0  0.28592282390E-02 -0.39613801080E-01  0.35514600448E-03  0.39721727956E-01  0.51100000000E-03 0.  1.
</event>
<event>
 8    1  0.1176534E+005  0.1043930E+01  0.7957747E-01            NaN
         13   -1    0    0    0    0  0.00000000000E+00  0.00000000000E+00  0.74505805969E-08  0.10566000000E+00  0.10566000000E+00 0. -1.
     999900   -1    0    0    0    0 -0.00000000000E+00 -0.00000000000E+00 -0.74505805969E-08  0.93827000000E+00  0.93827000000E+00 0. -1.
     999902    2    1    2    0    0  0.20914466508E-02 -0.16050957313E-01 -0.16691180492E-01  0.10206791315E+01  0.10204142720E+01 0.  0.
     999903    2    3    3    0    0  0.85100318397E-01 -0.74830719163E-01  0.63134146666E-01  0.13123120382E+00  0.19849626200E-01 0.  0.
         14    1    1    2    0    0 -0.20914466508E-02  0.16050957313E-01  0.16691180492E-01  0.23250868500E-01  0.00000000000E+00 0. -1.
     999901    1    3    3    0    0 -0.83008871746E-01  0.58779761849E-01 -0.79825327158E-01  0.88944792768E+00  0.88000000000E+00 0. -1.
        -11    1    4    4    0    0  0.23981026531E-01 -0.12655125950E-01  0.21524383670E-01  0.34623721054E-01  0.51100000000E-03 0.  1.
         11    1    4    4    0    0  0.61119291866E-01 -0.62175593212E-01  0.41609762996E-01  0.96607482770E-01  0.51100000000E-03 0. -1.
</event>
<event>
 8    1  0.1176534E+005  0.1043930E+01  0.7957747E-01            NaN
         13   -1    0    0    0    0  0.00000000000E+00  0.00000000000E+00  0.74505805969E-08  0.10566000000E+00  0.10566000000E+00 0.  1.
     999900   -1    0    0    0    0 -0.00000000000E+00 -0.00000000000E+00 -0.74505805969E-08  0.93827000000E+00  0.93827000000E+00 0.  1.
     999902    2    1    2    0    0 -0.73690077139E-02 -0.13875611050E-01 -0.17568049741E-01  0.10203615629E+01  0.10200893332E+01 0.  0.
     999903    2    3    3    0    0 -0.95249385857E-01 -0.88114226040E-01 -0.20028525421E-01  0.13287049996E+00  0.20417286607E-01 0.  0.
         14    1    1    2    0    0  0.73690077139E-02  0.13875611050E-01  0.17568049741E-01  0.23568437123E-01  0.00000000000E+00 0.  1.
     999901    1    3    3    0    0  0.87880378143E-01  0.74238614990E-01  0.24604756795E-02  0.88749106292E+00  0.88000000000E+00 0. -1.
        -11    1    4    4    0    0 -0.52494037993E-01 -0.47764840650E-01 -0.67986686385E-03  0.70977653999E-01  0.51100000000E-03 0. -1.
         11    1    4    4    0    0 -0.42755347863E-01 -0.40349385389E-01 -0.19348658557E-01  0.61892845961E-01  0.51100000000E-03 0.  1.
</event>
<event>
 8    1  0.1176534E+005  0.1043930E+01  0.7957747E-01            NaN
         13   -1    0    0    0    0  0.00000000000E+00  0.00000000000E+00  0.74505805969E-08  0.10566000000E+00  0.10566000000E+00 0. -1.
     999900   -1    0    0    0    0 -0.00000000000E+00 -0.00000000000E+00 -0.74505805969E-08  0.93827000000E+00  0.93827000000E+00 0.  1.
     999902    2    1    2    0    0 -0.22105751017E-01 -0.90701873288E-02  0.64212978662E-02  0.10191880196E+01  0.10188876551E+01 0.  0.
     999903    2    3    3    0    0 -0.34787004911E-01  0.39206278357E-01 -0.11641106858E+00  0.12925587526E+00  0.20205851315E-01 0.  0.
         14    1    1    2    0    0  0.22105751017E-01  0.90701873288E-02 -0.64212978662E-02  0.24741980367E-01  0.00000000000E+00 0.  1.
     999901    1    3    3    0    0  0.12681253894E-01 -0.48276465686E-01  0.12283236645E+00  0.88993214437E+00  0.88000000000E+00 0. -1.
        -11    1    4    4    0    0 -0.19460105101E-01  0.24628398047E-01 -0.45675142560E-01  0.55423221215E-01  0.51100000000E-03 0. -1.
         11    1    4    4    0    0 -0.15326899810E-01  0.14577880310E-01 -0.70735926023E-01  0.73832654046E-01  0.51100000000E-03 0.  1.
</event>
<event>
 8    1  0.1176534E+005  0.1043930E+01  0.7957747E-01            NaN
         13   -1    0    0    0    0  0.00000000000E+00  0.00000000000E+00  0.74505805969E-08  0.10566000000E+00  0.10566000000E+00 0. -1.
     999900   -1    0    0    0    0 -0.00000000000E+00 -0.00000000000E+00 -0.74505805969E-08  0.93827000000E+00  0.93827000000E+00 0.  1.
     999902    2    1    2    0    0  0.15378165058E-01  0.54764721763E-02  0.18808899195E-01  0.10190250929E+01  0.10187207103E+01 0.  0.
     999903    2    3    3    0    0  0.53791724036E-01 -0.91939870510E-01 -0.68781501211E-01  0.12849849388E+00  0.20844151644E-01 0.  0.
         14    1    1    2    0    0 -0.15378165058E-01 -0.54764721763E-02 -0.18808899195E-01  0.24904907086E-01  0.00000000000E+00 0. -1.
     999901    1    3    3    0    0 -0.38413558978E-01  0.97416342686E-01  0.87590400405E-01  0.89052659903E+00  0.88000000000E+00 0. -1.
        -11    1    4    4    0    0  0.43374730076E-01 -0.70974526876E-01 -0.42884536211E-01  0.93584695552E-01  0.51100000000E-03 0. -1.
         11    1    4    4    0    0  0.10416993960E-01 -0.20965343633E-01 -0.25896965000E-01  0.34913798333E-01  0.51100000000E-03 0.  1.
</event>
<event>
 8    1  0.1176534E+005  0.1043930E+01  0.7957747E-01            NaN
         13   -1    0    0    0    0  0.00000000000E+00  0.00000000000E+00  0.74505805969E-08  0.10566000000E+00  0.10566000000E+00 0.  1.
     999900   -1    0    0    0    0 -0.00000000000E+00 -0.00000000000E+00 -0.74505805969E-08  0.93827000000E+00  0.93827000000E+00 0. -1.
     999902    2    1    2    0    0 -0.16487447096E-01  0.16476469318E-01 -0.20258075510E-02  0.10205331231E+01  0.10202648879E+01 0.  0.
     999903    2    3    3    0    0  0.38499634715E-01 -0.62840563968E-01 -0.10434283817E+00  0.12936336054E+00  0.20403255102E-01 0.  0.
         14    1    1    2    0    0  0.16487447096E-01 -0.16476469318E-01  0.20258075510E-02  0.23396876911E-01  0.00000000000E+00 0.  1.
     999901    1    3    3    0    0 -0.54987081811E-01  0.79317033287E-01  0.10231703062E+00  0.89116976255E+00  0.88000000000E+00 0.  1.
        -11    1    4    4    0    0  0.13533155536E-01 -0.68831795218E-02 -0.20907643034E-01  0.25844053810E-01  0.51100000000E-03 0.  1.
         11    1    4    4    0    0  0.24966479179E-01 -0.55957384446E-01 -0.83435195136E-01  0.10351930673E+00  0.51100000000E-03 0. -1.
</event>
<event>
 8    1  0.1176534E+005  0.1043930E+01  0.7957747E-01            NaN
         13   -1    0    0    0    0  0.00000000000E+00  0.00000000000E+00  0.74505805969E-08  0.10566000000E+00  0.10566000000E+00 0.  1.
     999900   -1    0    0    0    0 -0.00000000000E+00 -0.00000000000E+00 -0.74505805969E-08  0.93827000000E+00  0.93827000000E+00 0.  1.
     999902    2    1    2    0    0  0.61776983268E-02  0.81826283020E-02  0.22911802755E-01  0.10188288035E+01  0.10185195436E+01 0.  0.
     999903    2    3    3    0    0 -0.46711707446E-01  0.11791281839E+00 -0.17283535542E-01  0.12952926501E+00  0.19841712132E-01 0.  0.
         14    1    1    2    0    0 -0.61776983268E-02 -0.81826283020E-02 -0.22911802755E-01  0.25101196546E-01  0.00000000000E+00 0. -1.
     999901    1    3    3    0    0  0.52889405773E-01 -0.10973019008E+00  0.40195338298E-01  0.88929953845E+00  0.88000000000E+00 0.  1.
        -11    1    4    4    0    0 -0.27996468966E-01  0.47904349678E-01 -0.23472232491E-02  0.55537370938E-01  0.51100000000E-03 0. -1.
         11    1    4    4    0    0 -0.18715238480E-01  0.70008468708E-01 -0.14936312293E-01  0.73991894070E-01  0.51100000000E-03 0.  1.
</event>
<event>
 8    1  0.1176534E+005  0.1043930E+01  0.7957747E-01            NaN
         13   -1    0    0    0    0  0.00000000000E+00  0.00000000000E+00  0.74505805969E-08  0.10566000000E+00  0.10566000000E+00 0. -1.
     999900   -1    0    0    0    0 -0.00000000000E+00 -0.00000000000E+00 -0.74505805969E-08  0.93827000000E+00  0.93827000000E+00 0. -1.
     999902    2    1    2    0    0 -0.16053089515E-01 -0.25178686731E-02 -0.17562301966E-01  0.10200035336E+01  0.10197228705E+01 0.  0.
     999903    2    3    3    0    0 -0.50127337748E-01 -0.73987482574E-01 -0.96066673869E-01  0.13296807965E+00  0.21559378689E-01 0.  0.
         14    1    1    2    0    0  0.16053089515E-01  0.25178686731E-02  0.17562301966E-01  0.23926466433E-01  0.00000000000E+00 0. -1.
     999901    1    3    3    0    0  0.34074248233E-01  0.71469613901E-01  0.78504371903E-01  0.88703545392E+00  0.88000000000E+00 0.  1.
        -11    1    4    4    0    0 -0.11782009020E-01 -0.18336932000E-01 -0.11298217128E-01  0.24555440192E-01  0.51100000000E-03 0.  1.
         11    1    4    4    0    0 -0.38345328728E-01 -0.55650550573E-01 -0.84768456741E-01  0.10841263946E+00  0.51100000000E-03 0. -1.
</event>
<event>
 8    1  0.1176534E+005  0.1043930E+01  0.7957747E-01            NaN
         13   -1    0    0    0    0  0.00000000000E+00  0.00000000000E+00  0.74505805969E-08  0.10566000000E+00  0.10566000000E+00 0. -1.
     999900   -1    0    0    0    0 -0.00000000000E+00 -0.00000000000E+00 -0.74505805969E-08  0.93827000000E+00  0.93827000000E+00 0. -1.
     999902    2    1    2    0    0  0.37041817250E-03  0.22298436442E-01 -0.69192645509E-02  0.10205797602E+01  0.10203126056E+01 0.  0.
     999903    2    3    3    0    0 -0.10824404398E+00  0.12817166237E-01  0.69271560957E-01  0.13058423336E+00  0.19303886616E-01 0.  0.
         14    1    1    2    0    0 -0.37041817250E-03 -0.22298436442E-01  0.69192645509E-02  0.23350239813E-01  0.00000000000E+00 0. -1.
     999901    1    3    3    0    0  0.10861446215E+00  0.94812702057E-02 -0.76190825508E-01  0.88999552682E+00  0.88000000000E+00 0.  1.
        -11    1    4    4    0    0 -0.36614064716E-01  0.88208086638E-02  0.14647822997E-01  0.40413070164E-01  0.51100000000E-03 0.  1.
         11    1    4    4    0    0 -0.71629979263E-01  0.39963575730E-02  0.54623737960E-01  0.90171163200E-01  0.51100000000E-03 0. -1.
</event>
<event>
 8    1  0.1176534E+005  0.1043930E+01  0.7957747E-01            NaN
         13   -1    0    0    0    0  0.00000000000E+00  0.00000000000E+00  0.74505805969E-08  0.10566000000E+00  0.10566000000E+00 0. -1.
     999900   -1    0    0    0    0 -0.00000000000E+00 -0.00000000000E+00 -0.74505805969E-08  0.93827000000E+00  0.93827000000E+00 0.  1.
     999902    2    1    2    0    0  0.14373605899E-01  0.12178367302E-01 -0.15218948116E-01  0.10197116277E+01  0.10194239913E+01 0.  0.
     999903    2    3    3    0    0 -0.47691451144E-01 -0.97473402283E-01  0.63931490088E-01  0.12722052197E+00  0.17952356973E-01 0.  0.
         14    1    1    2    0    0 -0.14373605899E-01 -0.12178367302E-01  0.15218948116E-01  0.24218372333E-01  0.00000000000E+00 0. -1.
     999901    1    3    3    0    0  0.62065057043E-01  0.10965176959E+00 -0.79150438204E-01  0.89249110570E+00  0.88000000000E+00 0.  1.
        -11    1    4    4    0    0 -0.39743417928E-01 -0.80741178487E-01  0.60323738437E-01  0.10834155118E+00  0.51100000000E-03 0. -1.
         11    1    4    4    0    0 -0.79480332154E-02 -0.16732223795E-01  0.36077516509E-02  0.18878970790E-01  0.51100000000E-03 0.  1.
</event>
<event>
 8    1  0.1176534E+005  0.1043930E+01  0.7957747E-01            NaN
         13   -1    0    0    0    0  0.00000000000E+00  0.00000000000E+00  0.74505805969E-08  0.10566000000E+00  0.10566000000E+00 0. -1.
     999900   -1    0    0    0    0 -0.00000000000E+00 -0.00000000000E+00 -0.74505805969E-08  0.93827000000E+00  0.93827000000E+00 0.  1.
     999902    2    1    2    0    0 -0.12098566680E-01  0.15915457700E-01 -0.12968971336E-01  0.10200999491E+01  0.10198215701E+01 0.  0.
     999903    2    3    3    0    0 -0.18760262904E-01  0.47142079275E-01  0.11792152269E+00  0.12984616418E+00  0.19499172747E-01 0.  0.
         14    1    1    2    0    0  0.12098566680E-01 -0.15915457700E-01  0.12968971336E-01  0.23830050924E-01  0.00000000000E+00 0.  1.
     999901    1    3    3    0    0  0.66616962239E-02 -0.31226621576E-01 -0.13089049402E+00  0.89025378489E+00  0.88000000000E+00 0.  1.
        -11    1    4    4    0    0 -0.10194834808E-02  0.28808019675E-01  0.61458087868E-01  0.67884453519E-01  0.51100000000E-03 0. -1.
         11    1    4    4    0    0 -0.17740779424E-01  0.18334059600E-01  0.56463434818E-01  0.61961710664E-01  0.51100000000E-03 0.  1.
</event>
<event>
 8    1  0.1176534E+005  0.1043930E+01  0.7957747E-01            NaN
         13   -1    0    0    0    0  0.00000000000E+00  0.00000000000E+00  0.74505805969E-08  0.10566000000E+00  0.10566000000E+00 0. -1.
     999900   -1    0    0    0    0 -0.00000000000E+00 -0.00000000000E+00 -0.74505805969E-08  0.93827000000E+00  0.93827000000E+00 0. -1.
     999902    2    1    2    0    0  0.25746701145E-02 -0.23082698285E-01  0.32213206863E-02  0.10204818275E+01  0.10202124012E+01 0.  0.
     999903    2    3    3    0    0  0.44605413764E-01  0.10609158721E+00 -0.52743076936E-01  0.12830214087E+00  0.20845608011E-01 0.  0.
         14    1    1    2    0    0 -0.25746701145E-02  0.23082698285E-01 -0.32213206863E-02  0.23448172493E-01  0.00000000000E+00 0.  1.
     999901    1    3    3    0    0 -0.42030743649E-01 -0.12917428550E+00  0.55964397622E-01  0.89217968664E+00  0.88000000000E+00 0.  1.
        -11    1    4    4    0    0  0.17424347164E-01  0.66777949328E-01 -0.34304458058E-01  0.77071131783E-01  0.51100000000E-03 0. -1.
         11    1    4    4    0    0  0.27181066600E-01  0.39313637883E-01 -0.18438618878E-01  0.51231009088E-01  0.51100000000E-03 0.  1.
</event>
<event>
 8    1  0.1176534E+005  0.1043930E+01  0.7957747E-01            NaN
         13   -1    0    0    0    0  0.00000000000E+00  0.00000000000E+00  0.74505805969E-08  0.10566000000E+00  0.10566000000E+00 0.  1.
     999900   -1    0    0    0    0 -0.00000000000E+00 -0.00000000000E+00 -0.74505805969E-08  0.93827000000E+00  0.93827000000E+00 0. -1.
     999902    2    1    2    0    0 -0.18811246084E-01 -0.45076167808E-02  0.13918439210E-01  0.10200992522E+01  0.10198208568E+01 0.  0.
     999903    2    3    3    0    0 -0.10650923009E+00 -0.29716493080E-01  0.71980819003E-01  0.13347776380E+00  0.20193787872E-01 0.  0.
         14    1    1    2    0    0  0.18811246084E-01  0.45076167808E-02 -0.13918439210E-01  0.23830747750E-01  0.00000000000E+00 0. -1.
     999901    1    3    3    0    0  0.87697984003E-01  0.25208876299E-01 -0.58062379793E-01  0.88662148845E+00  0.88000000000E+00 0.  1.
        -11    1    4    4    0    0 -0.48744579161E-01 -0.84100332492E-02  0.21843950724E-01  0.54075705830E-01  0.51100000000E-03 0.  1.
         11    1    4    4    0    0 -0.57764650926E-01 -0.21306459831E-01  0.50136868280E-01  0.79402057965E-01  0.51100000000E-03 0. -1.
</event>
<event>
 8    1  0.1176534E+005  0.1043930E+01  0.7957747E-01            NaN
         13   -1    0    0    0    0  0.00000000000E+00  0.00000000000E+00  0.74505805969E-08  0.10566000000E+00  0.10566000000E+00 0.  1.
     999900   -1    0    0    0    0 -0.00000000000E+00 -0.00000000000E+00 -0.74505805969E-08  0.93827000000E+00  0.93827000000E+00 0. -1.
     999902    2    1    2    0    0  0.46836815729E-02 -0.21678916059E-01  0.10445996652E-01  0.10194140639E+01  0.10191192289E+01 0.  0.
     999903    2    3    3    0    0  0.89812215793E-01  0.76090269510E-01  0.49507603443E-01  0.12905936490E+00  0.18691004526E-01 0.  0.
         14    1    1    2    0    0 -0.46836815729E-02  0.21678916059E-01 -0.10445996652E-01  0.24515936055E-01  0.00000000000E+00 0.  1.
     999901    1    3    3    0    0 -0.85128534220E-01 -0.97769185570E-01 -0.39061606790E-01  0.89035469904E+00  0.88000000000E+00 0.  1.
        -11    1    4    4    0    0  0.61207734352E-01  0.44283869537E-01  0.24085171987E-01  0.79295677538E-01  0.51100000000E-03 0. -1.
         11    1    4    4    0    0  0.28604481441E-01  0.31806399974E-01  0.25422431456E-01  0.49763687363E-01  0.51100000000E-03 0.  1.
</event>
<event>
 8    1  0.1176534E+005  0.1043930E+01  0.7957747E-01            NaN
         13   -1    0    0    0    0  0.00000000000E+00  0.00000000000E+00  0.74505805969E-08  0.10566000000E+00  0.10566000000E+00 0. -1.
     999900   -1    0    0    0    0 -0.00000000000E+00 -0.00000000000E+00 -0.74505805969E-08  0.93827000000E+00  0.93827000000E+00 0. -1.
     999902    2    1    2    0    0 -0.21908034409E-01  0.59222680934E-02 -0.71649899860E-02  0.10201314220E+01  0.10198537865E+01 0.  0.
     999903    2    3    3    0    0  0.12072450748E+00  0.37947655290E-01  0.88656860952E-03  0.12803585821E+00  0.19441289416E-01 0.  0.
         14    1    1    2    0    0  0.21908034409E-01 -0.59222680934E-02  0.71649899860E-02  0.23798577952E-01  0.00000000000E+00 0. -1.
     999901    1    3    3    0    0 -0.14263254189E+00 -0.32025387196E-01 -0.80515585956E-02  0.89209556384E+00  0.88000000000E+00 0.  1.
        -11    1    4    4    0    0  0.88229344154E-01  0.35665284717E-01 -0.30772377819E-02  0.95216386285E-01  0.51100000000E-03 0. -1.
         11    1    4    4    0    0  0.32495163327E-01  0.22823705728E-02  0.39638063915E-02  0.32819471921E-01  0.51100000000E-03 0.  1.
</event>
<event>
 8    1  0.1176534E+005  0.1043930E+01  0.7957747E-01            NaN
         13   -1    0    0    0    0  0.00000000000E+00  0.00000000000E+00  0.74505805969E-08  0.10566000000E+00  0.10566000000E+00 0. -1.
     999900   -1    0    0    0    0 -0.00000000000E+00 -0.00000000000E+00 -0.74505805969E-08  0.93827000000E+00  0.93827000000E+00 0. -1.
     999902    2    1    2    0    0 -0.20778340598E-01 -0.89425927170E-02 -0.60880554284E-02  0.10205040780E+01  0.10202351687E+01 0.  0.
     999903    2    3    3    0    0  0.11354557716E+00  0.20181097172E-01  0.51649043116E-01  0.12796574452E+00  0.20192407930E-01 0.  0.
         14    1    1    2    0    0  0.20778340598E-01  0.89425927170E-02  0.60880554284E-02  0.23425921997E-01  0.00000000000E+00 0. -1.
     999901    1    3    3    0    0 -0.13432391776E+00 -0.29123689889E-01 -0.57737098545E-01  0.89253833349E+00  0.88000000000E+00 0. -1.
        -11    1    4    4    0    0  0.68244136288E-01  0.13989384536E-01  0.20428988346E-01  0.72598689404E-01  0.51100000000E-03 0.  1.
         11    1    4    4    0    0  0.45301440876E-01  0.61917126357E-02  0.31220054771E-01  0.55367055111E-01  0.51100000000E-03 0. -1.
</event>
<event>
 8    1  0.1176534E+005  0.1043930E+01  0.7957747E-01            NaN
         13   -1    0    0    0    0  0.00000000000E+00  0.00000000000E+00  0.74505805969E-08  0.10566000000E+00  0.10566000000E+00 0. -1.
     999900   -1    0    0    0    0 -0.00000000000E+00 -0.00000000000E+00 -0.74505805969E-08  0.93827000000E+00  0.93827000000E+00 0. -1.
     999902    2    1    2    0    0  0.15815207237E-01 -0.16053856559E-01 -0.67383678221E-02  0.10204086758E+01  0.10201375461E+01 0.  0.
     999903    2    3    3    0    0  0.19274817070E-01  0.65431903998E-01 -0.10972335163E+00  0.13065713468E+00  0.19473579909E-01 0.  0.
         14    1    1    2    0    0 -0.15815207237E-01  0.16053856559E-01  0.67383678221E-02  0.23521324182E-01  0.00000000000E+00 0. -1.
     999901    1    3    3    0    0 -0.34596098331E-02 -0.81485760558E-01  0.10298498381E+00  0.88975154114E+00  0.88000000000E+00 0.  1.
        -11    1    4    4    0    0 -0.25400112458E-02  0.53481085151E-02 -0.17212747006E-01  0.18209714504E-01  0.51100000000E-03 0.  1.
         11    1    4    4    0    0  0.21814828316E-01  0.60083795483E-01 -0.92510604625E-01  0.11244742017E+00  0.51100000000E-03 0. -1.
</event>
<event>
 8    1  0.1538461E+005  0.1043930E+01  0.7957747E-01            NaN
         13   -1    0    0    0    0  0.00000000000E+00  0.00000000000E+00  0.74505805969E-08  0.10566000000E+00  0.10566000000E+00 0.  1.
     999900   -1    0    0    0    0 -0.00000000000E+00 -0.00000000000E+00 -0.74505805969E-08  0.93827000000E+00  0.93827000000E+00 0. -1.
     999902    2    1    2    0    0  0.11093561500E-01 -0.22308040370E-01  0.74061711822E-02  0.10179383255E+01  0.10176064403E+01 0.  0.
     999903    2    3    3    0    0 -0.71852739383E-01 -0.89951061712E-02 -0.10318519705E+00  0.12704676432E+00  0.15810355555E-01 0.  0.
         14    1    1    2    0    0 -0.11093561500E-01  0.22308040370E-01 -0.74061711822E-02  0.25991674503E-01  0.00000000000E+00 0.  1.
     999901    1    3    3    0    0  0.82946300884E-01 -0.13312934199E-01  0.11059136823E+00  0.89089156118E+00  0.88000000000E+00 0.  1.
        -11    1    4    4    0    0 -0.46910935605E-01 -0.11091653921E-01 -0.58274310606E-01  0.75629472189E-01  0.51100000000E-03 0. -1.
         11    1    4    4    0    0 -0.24941803779E-01  0.20965477499E-02 -0.44910886442E-01  0.51417292132E-01  0.51100000000E-03 0.  1.
</event>
<event>
 8    1  0.1176534E+005  0.1043930E+01  0.7957747E-01            NaN
         13   -1    0    0    0    0  0.00000000000E+00  0.00000000000E+00  0.74505805969E-08  0.10566000000E+00  0.10566000000E+00 0.  1.
     999900   -1    0    0    0    0 -0.00000000000E+00 -0.00000000000E+00 -0.74505805969E-08  0.93827000000E+00  0.93827000000E+00 0. -1.
     999902    2    1    2    0    0  0.19073850969E-01 -0.12844620010E-01  0.13193611889E-02  0.10208966162E+01  0.10206367445E+01 0.  0.
     999903    2    3    3    0    0  0.13132301261E+00  0.11981027569E-01  0.16430255232E-02  0.13341912816E+00  0.20215973002E-01 0.  0.
         14    1    1    2    0    0 -0.19073850969E-01  0.12844620010E-01 -0.13193611889E-02  0.23033383771E-01  0.00000000000E+00 0. -1.
     999901    1    3    3    0    0 -0.11224916164E+00 -0.24825647580E-01 -0.32366433438E-03  0.88747748807E+00  0.88000000000E+00 0.  1.
        -11    1    4    4    0    0  0.42594468926E-01 -0.32083036612E-02  0.67756568648E-02  0.43252198122E-01  0.51100000000E-03 0. -1.
         11    1    4    4    0    0  0.88728543683E-01  0.15189331231E-01 -0.51326313416E-02  0.90166930040E-01  0.51100000000E-03 0.  1.
</event>
<event>
 8    1  0.1176534E+005  0.1043930E+01  0.7957747E-01            NaN
         13   -1    0    0    0    0  0.00000000000E+00  0.00000000000E+00  0.74505805969E-08  0.10566000000E+00  0.10566000000E+00 0. -1.
     999900   -1    0    0    0    0 -0.00000000000E+00 -0.00000000000E+00 -0.74505805969E-08  0.93827000000E+00  0.93827000000E+00 0.  1.
     999902    2    1    2    0    0 -0.21942600776E-01 -0.19405569292E-02 -0.96910111243E-02  0.10198642736E+01  0.10195802947E+01 0.  0.
     999903    2    3    3    0    0 -0.61286651526E-02  0.12831497735E+00 -0.35965393383E-02  0.13011502390E+00  0.20363948583E-01 0.  0.
         14    1    1    2    0    0  0.21942600776E-01  0.19405569292E-02  0.96910111243E-02  0.24065726389E-01  0.00000000000E+00 0. -1.
     999901    1    3    3    0    0 -0.15813935624E-01 -0.13025553428E+00 -0.60944717861E-02  0.88974924971E+00  0.88000000000E+00 0.  1.
        -11    1    4    4    0    0 -0.10958097290E-01  0.42584582212E-01  0.23819493971E-02  0.44039315870E-01  0.51100000000E-03 0. -1.
         11    1    4    4    0    0  0.48294321371E-02  0.85730395135E-01 -0.59784887353E-02  0.86075708033E-01  0.51100000000E-03 0.  1.
</event>
<event>
 8    1  0.1176534E+005  0.1043930E+01  0.7957747E-01            NaN
         13   -1    0    0    0    0  0.00000000000E+00  0.00000000000E+00  0.74505805969E-08  0.10566000000E+00  0.10566000000E+00 0.  1.
     999900   -1    0    0    0    0 -0.00000000000E+00 -0.00000000000E+00 -0.74505805969E-08  0.93827000000E+00  0.93827000000E+00 0. -1.
     999902    2    1    2    0    0  0.23783708401E-01 -0.23294784521E-02  0.35130309375E-02  0.10197756496E+01  0.10194895502E+01 0.  0.
     999903    2    3    3    0    0 -0.25858647461E-01  0.41623508940E-01 -0.11769366884E+00  0.12899661269E+00  0.19675880023E-01 0.  0.
         14    1    1    2    0    0 -0.23783708401E-01  0.23294784521E-02 -0.35130309375E-02  0.24154350364E-01  0.00000000000E+00 0.  1.
     999901    1    3    3    0    0  0.49642355862E-01 -0.43952987393E-01  0.12120669978E+00  0.89077903695E+00  0.88000000000E+00 0.  1.
        -11    1    4    4    0    0 -0.15168012349E-01  0.18898107704E-01 -0.35009135810E-01  0.42580603384E-01  0.51100000000E-03 0. -1.
         11    1    4    4    0    0 -0.10690635113E-01  0.22725401237E-01 -0.82684533030E-01  0.86416009303E-01  0.51100000000E-03 0.  1.
</event>
<event>
 8    1  0.1176534E+005  0.1043930E+01  0.7957747E-01            NaN
         13   -1    0    0    0    0  0.00000000000E+00  0.00000000000E+00  0.74505805969E-08  0.10566000000E+00  0.10566000000E+00 0. -1.
     999900   -1    0    0    0    0 -0.00000000000E+00 -0.00000000000E+00 -0.74505805969E-08  0.93827000000E+00  0.93827000000E+00 0.  1.
     999902    2    1    2    0    0  0.14313189741E-01  0.18242970738E-01  0.37801842683E-02  0.10204361035E+01  0.10201656131E+01 0.  0.
     999903    2    3    3    0    0  0.92392169566E-01 -0.38556905716E-02  0.92402165241E-01  0.13227027804E+00  0.20151599542E-01 0.  0.
         14    1    1    2    0    0 -0.14313189741E-01 -0.18242970738E-01 -0.37801842683E-02  0.23493896548E-01  0.00000000000E+00 0. -1.
     999901    1    3    3    0    0 -0.78078979826E-01  0.22098661309E-01 -0.88621980973E-01  0.88816582541E+00  0.88000000000E+00 0. -1.
        -11    1    4    4    0    0  0.29599064779E-01  0.73952424707E-02  0.24810880607E-01  0.39327282699E-01  0.51100000000E-03 0.  1.
         11    1    4    4    0    0  0.62793104787E-01 -0.11250933042E-01  0.67591284634E-01  0.92942995339E-01  0.51100000000E-03 0. -1.
</event>
<event>
 8    1  0.1176534E+005  0.1043930E+01  0.7957747E-01            NaN
         13   -1    0    0    0    0  0.00000000000E+00  0.00000000000E+00  0.74505805969E-08  0.10566000000E+00  0.10566000000E+00 0. -1.
     999900   -1    0    0    0    0 -0.00000000000E+00 -0.00000000000E+00 -0.74505805969E-08  0.93827000000E+00  0.93827000000E+00 0. -1.
     999902    2    1    2    0    0 -0.13312514032E-01  0.19388545851E-01  0.22359105903E-02  0.10203050548E+01  0.10200315028E+01 0.  0.
     999903    2    3    3    0    0 -0.50805723373E-01  0.92460241856E-01 -0.78230812227E-01  0.13282541728E+00  0.19809433200E-01 0.  0.
         14    1    1    2    0    0  0.13312514032E-01 -0.19388545851E-01 -0.22359105903E-02  0.23624945211E-01  0.00000000000E+00 0. -1.
     999901    1    3    3    0    0  0.37493209341E-01 -0.73071696005E-01  0.80466722817E-01  0.88747963750E+00  0.88000000000E+00 0.  1.
        -11    1    4    4    0    0 -0.40962600643E-01  0.63076104491E-01 -0.46268071005E-01  0.88303596330E-01  0.51100000000E-03 0. -1.
         11    1    4    4    0    0 -0.98431227294E-02  0.29384137365E-01 -0.31962741221E-01  0.44521820955E-01  0.51100000000E-03 0.  1.
</event>
<event>
 8    1  0.1176534E+005  0.1043930E+01  0.7957747E-01            NaN
         13   -1    0    0    0    0  0.00000000000E+00  0.00000000000E+00  0.74505805969E-08  0.10566000000E+00  0.10566000000E+00 0. -1.
     999900   -1    0    0    0    0 -0.00000000000E+00 -0.00000000000E+00 -0.74505805969E-08  0.93827000000E+00  0.93827000000E+00 0.  1.
     999902    2    1    2    0    0  0.16448530186E-01  0.11706951518E-01  0.12202121869E-01  0.10203397767E+01  0.10200670376E+01 0.  0.
     999903    2    3    3    0    0  0.12868023189E+00  0.19912125467E-01 -0.16653132608E-01  0.13270476977E+00  0.19445674941E-01 0.  0.
         14    1    1    2    0    0 -0.16448530186E-01 -0.11706951518E-01 -0.12202121869E-01  0.23590223340E-01  0.00000000000E+00 0. -1.
     999901    1    3    3    0    0 -0.11223170170E+00 -0.82051739487E-02  0.28855254477E-01  0.88763500689E+00  0.88000000000E+00 0.  1.
        -11    1    4    4    0    0  0.42805168073E-01 -0.23673430076E-02 -0.35117268440E-02  0.43017206710E-01  0.51100000000E-03 0. -1.
         11    1    4    4    0    0  0.85875063817E-01  0.22279468474E-01 -0.13141405764E-01  0.89687563060E-01  0.51100000000E-03 0.  1.
</event>
<event>
 8    1  0.1176534E+005  0.1043930E+01  0.7957747E-01            NaN
         13   -1    0    0    0    0  0.00000000000E+00  0.00000000000E+00  0.74505805969E-08  0.10566000000E+00  0.10566000000E+00 0.  1.
     999900   -1    0    0    0    0 -0.00000000000E+00 -0.00000000000E+00 -0.74505805969E-08  0.93827000000E+00  0.93827000000E+00 0. -1.
     999902    2    1    2    0    0 -0.76120230071E-02 -0.14082853833E-01 -0.16587935015E-01  0.10208772506E+01  0.10206169367E+01 0.  0.
     999903    2    3    3    0    0  0.87325024932E-01 -0.19026430646E-01  0.91167288144E-01  0.12922223316E+00  0.19981142945E-01 0.  0.
         14    1    1    2    0    0  0.76120230071E-02  0.14082853833E-01  0.16587935015E-01  0.23052749389E-01  0.00000000000E+00 0.  1.
     999901    1    3    3    0    0 -0.94937047939E-01  0.49435768134E-02 -0.10775522316E+00  0.89165501745E+00  0.88000000000E+00 0. -1.
        -11    1    4    4    0    0  0.52232618895E-01 -0.21278174894E-01  0.55267933193E-01  0.78967162568E-01  0.51100000000E-03 0. -1.
         11    1    4    4    0    0  0.35092406037E-01  0.22517442480E-02  0.35899354950E-01  0.50255070595E-01  0.51100000000E-03 0.  1.
</event>
<event>
 8    1  0.1176534E+005  0.1043930E+01  0.7957747E-01            NaN
         13   -1    0    0    0    0  0.00000000000E+00  0.00000000000E+00  0.74505805969E-08  0.10566000000E+00  0.10566000000E+00 0. -1.
     999900   -1    0    0    0    0 -0.00000000000E+00 -0.00000000000E+00 -0.74505805969E-08  0.93827000000E+00  0.93827000000E+00 0.  1.
     999902    2    1    2    0    0 -0.13462203584E-01 -0.19459493832E-01 -0.31819311960E-02  0.10200547511E+01  0.10197753025E+01 0.  0.
     999903    2    3    3    0    0 -0.63716242806E-01 -0.56664633207E-02 -0.11326624667E+00  0.13166616905E+00  0.20368334089E-01 0.  0.
         14    1    1    2    0    0  0.13462203584E-01  0.19459493832E-01  0.31819311960E-02  0.23875248934E-01  0.00000000000E+00 0. -1.
     999901    1    3    3    0    0  0.50254039222E-01 -0.13793030511E-01  0.11008431547E+00  0.88838858202E+00  0.88000000000E+00 0. -1.
        -11    1    4    4    0    0 -0.34622446081E-01  0.34089102038E-02 -0.75519998153E-01  0.83149658348E-01  0.51100000000E-03 0.  1.
         11    1    4    4    0    0 -0.29093796725E-01 -0.90753735245E-02 -0.37746248515E-01  0.48516510699E-01  0.51100000000E-03 0. -1.
</event>
<event>
 8    1  0.1176534E+005  0.1043930E+01  0.7957747E-01            NaN
         13   -1    0    0    0    0  0.00000000000E+00  0.00000000000E+00  0.74505805969E-08  0.10566000000E+00  0.10566000000E+00 0. -1.
     999900   -1    0    0    0    0 -0.00000000000E+00 -0.00000000000E+00 -0.74505805969E-08  0.93827000000E+00  0.93827000000E+00 0. -1.
     999902    2    1    2    0    0 -0.47544250559E-02 -0.10048522084E-01 -0.19663273154E-01  0.10213419132E+01  0.10210921026E+01 0.  0.
     999903    2    3    3    0    0  0.92745278129E-01 -0.71063344663E-01 -0.60163683067E-01  0.13293362650E+00  0.19999868096E-01 0.  0.
         14    1    1    2    0    0  0.47544250559E-02  0.10048522084E-01  0.19663273154E-01  0.22588086789E-01  0.00000000000E+00 0. -1.
     999901    1    3    3    0    0 -0.97499703185E-01  0.61014822579E-01  0.40500409914E-01  0.88840828671E+00  0.88000000000E+00 0.  1.
        -11    1    4    4    0    0  0.68408942333E-01 -0.46418432341E-01 -0.33420875154E-01  0.89172138413E-01  0.51100000000E-03 0. -1.
         11    1    4    4    0    0  0.24336335796E-01 -0.24644912322E-01 -0.26742807914E-01  0.43761488086E-01  0.51100000000E-03 0.  1.
</event>
<event>
 8    1  0.1176534E+005  0.1043930E+01  0.7957747E-01            NaN
         13   -1    0    0    0    0  0.00000000000E+00  0.00000000000E+00  0.74505805969E-08  0.10566000000E+00  0.10566000000E+00 0. -1.
     999900   -1    0    0    0    0 -0.00000000000E+00 -0.00000000000E+00 -0.74505805969E-08  0.93827000000E+00  0.93827000000E+00 0.  1.
     999902    2    1    2    0    0 -0.91874512932E-02 -0.11982438910E-01  0.17558514193E-01  0.10207720743E+01  0.10205093523E+01 0.  0.
     999903    2    3    3    0    0  0.12360485098E+00  0.12265333679E-01  0.34087048157E-01  0.13032558938E+00  0.19855346844E-01 0.  0.
         14    1    1    2    0    0  0.91874512932E-02  0.11982438910E-01 -0.17558514193E-01  0.23157925731E-01  0.00000000000E+00 0.  1.
     999901    1    3    3    0    0 -0.13279230228E+00 -0.24247772589E-01 -0.16528533963E-01  0.89044648489E+00  0.88000000000E+00 0. -1.
        -11    1    4    4    0    0  0.10497866347E+00  0.33501899267E-02  0.26546542064E-01  0.10833616004E+00  0.51100000000E-03 0. -1.
         11    1    4    4    0    0  0.18626187517E-01  0.89151437525E-02  0.75405060926E-02  0.21989429339E-01  0.51100000000E-03 0.  1.
</event>
<event>
 8    1  0.1176534E+005  0.1043930E+01  0.7957747E-01            NaN
         13   -1    0    0    0    0  0.00000000000E+00  0.00000000000E+00  0.74505805969E-08  0.10566000000E+00  0.10566000000E+00 0. -1.
     999900   -1    0    0    0    0 -0.00000000000E+00 -0.00000000000E+00 -0.74505805969E-08  0.93827000000E+00  0.93827000000E+00 0.  1.
     999902    2    1    2    0    0  0.13051261425E-01 -0.11090684881E-01 -0.18301936594E-01  0.10188640949E+01  0.10185557149E+01 0.  0.
     999903    2    3    3    0    0 -0.10406684517E+00  0.38761530138E-01  0.57376560339E-01  0.12649134254E+00  0.19381062386E-01 0.  0.
         14    1    1    2    0    0 -0.13051261425E-01  0.11090684881E-01  0.18301936594E-01  0.25065905110E-01  0.00000000000E+00 0. -1.
     999901    1    3    3    0    0  0.11711810660E+00 -0.49852215019E-01 -0.75678496933E-01  0.89237275235E+00  0.88000000000E+00 0.  1.
        -11    1    4    4    0    0 -0.73029551927E-01  0.30067134186E-01  0.31019756115E-01  0.84851837948E-01  0.51100000000E-03 0.  1.
         11    1    4    4    0    0 -0.31037293244E-01  0.86943959523E-02  0.26356804223E-01  0.41639504593E-01  0.51100000000E-03 0. -1.
</event>
<event>
 8    1  0.1176534E+005  0.1043930E+01  0.7957747E-01            NaN
         13   -1    0    0    0    0  0.00000000000E+00  0.00000000000E+00  0.74505805969E-08  0.10566000000E+00  0.10566000000E+00 0. -1.
     999900   -1    0    0    0    0 -0.00000000000E+00 -0.00000000000E+00 -0.74505805969E-08  0.93827000000E+00  0.93827000000E+00 0.  1.
     999902    2    1    2    0    0 -0.27061860224E-02  0.24028345905E-01  0.57262915840E-04  0.10197496748E+01  0.10194629523E+01 0.  0.
     999903    2    3    3    0    0  0.88997117535E-01  0.88302384270E-01 -0.36332506900E-01  0.13190686027E+00  0.19015013319E-01 0.  0.
         14    1    1    2    0    0  0.27061860224E-02 -0.24028345905E-01 -0.57262915840E-04  0.24180325241E-01  0.00000000000E+00 0. -1.
     999901    1    3    3    0    0 -0.91703303557E-01 -0.64274038364E-01  0.36389769816E-01  0.88784281449E+00  0.88000000000E+00 0.  1.
        -11    1    4    4    0    0  0.70955525609E-01  0.58654287798E-01 -0.27730569180E-01  0.96147062772E-01  0.51100000000E-03 0.  1.
         11    1    4    4    0    0  0.18041591926E-01  0.29648096472E-01 -0.86019377201E-02  0.35759797499E-01  0.51100000000E-03 0. -1.
</event>
<event>
 8    1  0.1176534E+005  0.1043930E+01  0.7957747E-01            NaN
         13   -1    0    0    0    0  0.00000000000E+00  0.00000000000E+00  0.74505805969E-08  0.10566000000E+00  0.10566000000E+00 0. -1.
     999900   -1    0    0    0    0 -0.00000000000E+00 -0.00000000000E+00 -0.74505805969E-08  0.93827000000E+00  0.93827000000E+00 0. -1.
     999902    2    1    2    0    0 -0.12702577598E-01  0.20835714217E-01 -0.21065653445E-02  0.10194367339E+01  0.10191424505E+01 0.  0.
     999903    2    3    3    0    0 -0.54374024109E-01 -0.10570210603E+00 -0.44053271382E-01  0.12842166361E+00  0.20541744035E-01 0.  0.
         14    1    1    2    0    0  0.12702577598E-01 -0.20835714217E-01  0.21065653445E-02  0.24493266057E-01  0.00000000000E+00 0.  1.
     999901    1    3    3    0    0  0.41671446512E-01  0.12653782025E+00  0.41946706038E-01  0.89101507033E+00  0.88000000000E+00 0. -1.
        -11    1    4    4    0    0 -0.25688007395E-01 -0.29471029043E-01 -0.16482775342E-01  0.42430629040E-01  0.51100000000E-03 0. -1.
         11    1    4    4    0    0 -0.28686016715E-01 -0.76231076990E-01 -0.27570496040E-01  0.85991034573E-01  0.51100000000E-03 0.  1.
</event>
<event>
 8    1  0.1176534E+005  0.1043930E+01  0.7957747E-01            NaN
         13   -1    0    0    0    0  0.00000000000E+00  0.00000000000E+00  0.74505805969E-08  0.10566000000E+00  0.10566000000E+00 0. -1.
     999900   -1    0    0    0    0 -0.00000000000E+00 -0.00000000000E+00 -0.74505805969E-08  0.93827000000E+00  0.93827000000E+00 0. -1.
     999902    2    1    2    0    0 -0.20969295786E-01 -0.79677974879E-02  0.37785658745E-02  0.10211819293E+01  0.10209285273E+01 0.  0.
     999903    2    3    3    0    0 -0.10833919801E+00  0.49691725977E-01 -0.55831268033E-01  0.13297505428E+00  0.18936343743E-01 0.  0.
         14    1    1    2    0    0  0.20969295786E-01  0.79677974879E-02 -0.37785658745E-02  0.22748070745E-01  0.00000000000E+00 0.  1.
     999901    1    3    3    0    0  0.87369902220E-01 -0.57659523465E-01  0.59609833908E-01  0.88820687498E+00  0.88000000000E+00 0.  1.
        -11    1    4    4    0    0 -0.75883456691E-01  0.25225332747E-01 -0.39157755598E-01  0.89040481558E-01  0.51100000000E-03 0. -1.
         11    1    4    4    0    0 -0.32455741316E-01  0.24466393231E-01 -0.16673512435E-01  0.43934572719E-01  0.51100000000E-03 0.  1.
</event>
<event>
 8    1  0.1176534E+005  0.1043930E+01  0.7957747E-01            NaN
         13   -1    0    0    0    0  0.00000000000E+00  0.00000000000E+00  0.74505805969E-08  0.10566000000E+00  0.10566000000E+00 0.  1.
     999900   -1    0    0    0    0 -0.00000000000E+00 -0.00000000000E+00 -0.74505805969E-08  0.93827000000E+00  0.93827000000E+00 0.  1.
     999902    2    1    2    0    0 -0.30481275927E-02 -0.20536089120E-01  0.11493843777E-01  0.10201996295E+01  0.10199236018E+01 0.  0.
     999903    2    3    3    0    0 -0.30564862321E-01  0.29697938258E-01 -0.11978512095E+00  0.12861968651E+00  0.19451740610E-01 0.  0.
         14    1    1    2    0    0  0.30481275927E-02  0.20536089120E-01 -0.11493843777E-01  0.23730370476E-01  0.00000000000E+00 0. -1.
     999901    1    3    3    0    0  0.27516734728E-01 -0.50234027377E-01  0.13127896473E+00  0.89157994301E+00  0.88000000000E+00 0. -1.
        -11    1    4    4    0    0 -0.19313565114E-01  0.29776239706E-01 -0.87447234932E-01  0.94376470937E-01  0.51100000000E-03 0.  1.
         11    1    4    4    0    0 -0.11251297207E-01 -0.78301447762E-04 -0.32337886018E-01  0.34243215577E-01  0.51100000000E-03 0. -1.
</event>
<event>
 8    1  0.1176534E+005  0.1043930E+01  0.7957747E-01            NaN
         13   -1    0    0    0    0  0.00000000000E+00  0.00000000000E+00  0.74505805969E-08  0.10566000000E+00  0.10566000000E+00 0. -1.
     999900   -1    0    0    0    0 -0.00000000000E+00 -0.00000000000E+00 -0.74505805969E-08  0.93827000000E+00  0.93827000000E+00 0. -1.
     999902    2    1    2    0    0 -0.15111576347E-01  0.14293193616E-01  0.11616704501E-01  0.10201055809E+01  0.10198273350E+01 0.  0.
     999903    2    3    3    0    0 -0.94361659791E-01 -0.67802118871E-01  0.58443920041E-01  0.13150386797E+00  0.19399106646E-01 0.  0.
         14    1    1    2    0    0  0.15111576347E-01 -0.14293193616E-01 -0.11616704501E-01  0.23824419130E-01  0.00000000000E+00 0.  1.
     999901    1    3    3    0    0  0.79250083443E-01  0.82095312487E-01 -0.46827215540E-01  0.88860171290E+00  0.88000000000E+00 0. -1.
        -11    1    4    4    0    0 -0.18050017494E-01 -0.23234052802E-01  0.14210198294E-01  0.32677441725E-01  0.51100000000E-03 0.  1.
         11    1    4    4    0    0 -0.76311642297E-01 -0.44568066069E-01  0.44233721747E-01  0.98826426242E-01  0.51100000000E-03 0. -1.
</event>
<event>
 8    1  0.1176534E+005  0.1043930E+01  0.7957747E-01            NaN
         13   -1    0    0    0    0  0.00000000000E+00  0.00000000000E+00  0.74505805969E-08  0.10566000000E+00  0.10566000000E+00 0.  1.
     999900   -1    0    0    0    0 -0.00000000000E+00 -0.00000000000E+00 -0.74505805969E-08  0.93827000000E+00  0.93827000000E+00 0. -1.
     999902    2    1    2    0    0 -0.72204428547E-02  0.58986298219E-02  0.19035930242E-01  0.10227334137E+01  0.10225137360E+01 0.  0.
     999903    2    3    3    0    0  0.11105518168E+00  0.53140380996E-01  0.45865756912E-01  0.13316006319E+00  0.21697495282E-01 0.  0.
         14    1    1    2    0    0  0.72204428547E-02 -0.58986298219E-02 -0.19035930242E-01  0.21196586258E-01  0.00000000000E+00 0. -1.
     999901    1    3    3    0    0 -0.11827562453E+00 -0.47241751174E-01 -0.26829826669E-01  0.88957335055E+00  0.88000000000E+00 0. -1.
        -11    1    4    4    0    0  0.60131480872E-01  0.37497762090E-01  0.33901626295E-01  0.78558631226E-01  0.51100000000E-03 0. -1.
         11    1    4    4    0    0  0.50923700807E-01  0.15642618906E-01  0.11964130616E-01  0.54601431964E-01  0.51100000000E-03 0.  1.
</event>
<event>
 8    1  0.1176534E+005  0.1043930E+01  0.7957747E-01            NaN
         13   -1    0    0    0    0  0.00000000000E+00  0.00000000000E+00  0.74505805969E-08  0.10566000000E+00  0.10566000000E+00 0. -1.
     999900   -1    0    0    0    0 -0.00000000000E+00 -0.00000000000E+00 -0.74505805969E-08  0.93827000000E+00  0.93827000000E+00 0.  1.
     999902    2    1    2    0    0 -0.22619730429E-01 -0.24071792467E-02 -0.19063731108E-02  0.10211028019E+01  0.10208476140E+01 0.  0.
     999903    2    3    3    0    0  0.71723868459E-01  0.71938123426E-01  0.77653430701E-01  0.12938664687E+00  0.19784897783E-01 0.  0.
         14    1    1    2    0    0  0.22619730429E-01  0.24071792467E-02  0.19063731108E-02  0.22827198142E-01  0.00000000000E+00 0. -1.
     999901    1    3    3    0    0 -0.94343598887E-01 -0.74345302673E-01 -0.79559803812E-01  0.89171615499E+00  0.88000000000E+00 0.  1.
        -11    1    4    4    0    0  0.19906447193E-01  0.28644034866E-01  0.35564251330E-01  0.49817913113E-01  0.51100000000E-03 0.  1.
         11    1    4    4    0    0  0.51817421265E-01  0.43294088560E-01  0.42089179372E-01  0.79568733759E-01  0.51100000000E-03 0. -1.
</event>
<event>
 8    1  0.1176534E+005  0.1043930E+01  0.7957747E-01            NaN
         13   -1    0    0    0    0  0.00000000000E+00  0.00000000000E+00  0.74505805969E-08  0.10566000000E+00  0.10566000000E+00 0. -1.
     999900   -1    0    0    0    0 -0.00000000000E+00 -0.00000000000E+00 -0.74505805969E-08  0.93827000000E+00  0.93827000000E+00 0.  1.
     999902    2    1    2    0    0 -0.20145148997E-01  0.88893842465E-02  0.77915655420E-02  0.10205728453E+01  0.10203055307E+01 0.  0.
     999903    2    3    3    0    0  0.86069082463E-01 -0.52812501524E-02 -0.93057676843E-01  0.12835491258E+00  0.19480087387E-01 0.  0.
         14    1    1    2    0    0  0.20145148997E-01 -0.88893842465E-02 -0.77915655420E-02  0.23357154664E-01  0.00000000000E+00 0.  1.
     999901    1    3    3    0    0 -0.10621423146E+00  0.14170634399E-01  0.10084924238E+00  0.89221793276E+00  0.88000000000E+00 0. -1.
        -11    1    4    4    0    0  0.53095351377E-01 -0.26114153185E-02 -0.70557841147E-01  0.88343680568E-01  0.51100000000E-03 0. -1.
         11    1    4    4    0    0  0.32973731086E-01 -0.26698348339E-02 -0.22499835695E-01  0.40011232012E-01  0.51100000000E-03 0.  1.
</event>
<event>
 8    1  0.1176534E+005  0.1043930E+01  0.7957747E-01            NaN
         13   -1    0    0    0    0  0.00000000000E+00  0.00000000000E+00  0.74505805969E-08  0.10566000000E+00  0.10566000000E+00 0. -1.
     999900   -1    0    0    0    0 -0.00000000000E+00 -0.00000000000E+00 -0.74505805969E-08  0.93827000000E+00  0.93827000000E+00 0. -1.
     999902    2    1    2    0    0 -0.16748778148E-01 -0.19304554813E-01  0.61596504881E-02  0.10176406733E+01  0.10173010426E+01 0.  0.
     999903    2    3    3    0    0 -0.10840793737E+00 -0.20777213472E-02 -0.68317606885E-01  0.12958379045E+00  0.19185033897E-01 0.  0.
         14    1    1    2    0    0  0.16748778148E-01  0.19304554813E-01 -0.61596504881E-02  0.26289326734E-01  0.00000000000E+00 0.  1.
     999901    1    3    3    0    0  0.91659159218E-01 -0.17226833466E-01  0.74477257373E-01  0.88805688282E+00  0.88000000000E+00 0. -1.
        -11    1    4    4    0    0 -0.39465337588E-01 -0.96358779717E-02 -0.22257731759E-01  0.46325271282E-01  0.51100000000E-03 0. -1.
         11    1    4    4    0    0 -0.68942599778E-01  0.75581566244E-02 -0.46059875125E-01  0.83258519164E-01  0.51100000000E-03 0.  1.
</event>
<event>
 8    1  0.1176534E+005  0.1043930E+01  0.7957747E-01            NaN
         13   -1    0    0    0    0  0.00000000000E+00  0.00000000000E+00  0.74505805969E-08  0.10566000000E+00  0.10566000000E+00 0.  1.
     999900   -1    0    0    0    0 -0.00000000000E+00 -0.00000000000E+00 -0.74505805969E-08  0.93827000000E+00  0.93827000000E+00 0. -1.
     999902    2    1    2    0    0  0.20047865682E-01 -0.97147111974E-02  0.80187895882E-02  0.10202531438E+01  0.10199783743E+01 0.  0.
     999903    2    3    3    0    0  0.77379416342E-01 -0.26098230151E-02  0.10679062822E+00  0.13284497266E+00  0.15784905322E-01 0.  0.
         14    1    1    2    0    0 -0.20047865682E-01  0.97147111974E-02 -0.80187895882E-02  0.23676856179E-01  0.00000000000E+00 0. -1.
     999901    1    3    3    0    0 -0.57331550660E-01 -0.71048881823E-02 -0.98771838631E-01  0.88740817116E+00  0.88000000000E+00 0. -1.
        -11    1    4    4    0    0  0.33078632429E-01 -0.74049790486E-02  0.38472146705E-01  0.51277644555E-01  0.51100000000E-03 0. -1.
         11    1    4    4    0    0  0.44300783913E-01  0.47951560335E-02  0.68318481515E-01  0.81567328105E-01  0.51100000000E-03 0.  1.
</event>
<event>
 8    1  0.1176534E+005  0.1043930E+01  0.7957747E-01            NaN
         13   -1    0    0    0    0  0.00000000000E+00  0.00000000000E+00  0.74505805969E-08  0.10566000000E+00  0.10566000000E+00 0. -1.
     999900   -1    0    0    0    0 -0.00000000000E+00 -0.00000000000E+00 -0.74505805969E-08  0.93827000000E+00  0.93827000000E+00 0. -1.
     999902    2    1    2    0    0  0.12960484989E-01 -0.22444550785E-02  0.19286210738E-01  0.10205854145E+01  0.10203183908E+01 0.  0.
     999903    2    3    3    0    0 -0.91738681851E-01 -0.34506120371E-01  0.85072257425E-01  0.13135510991E+00  0.20253834805E-01 0.  0.
         14    1    1    2    0    0 -0.12960484989E-01  0.22444550785E-02 -0.19286210738E-01  0.23344585547E-01  0.00000000000E+00 0. -1.
     999901    1    3    3    0    0  0.10469916684E+00  0.32261665293E-01 -0.65786046688E-01  0.88923030455E+00  0.88000000000E+00 0. -1.
        -11    1    4    4    0    0 -0.44745029446E-01 -0.73909115036E-02  0.45118560087E-01  0.63974126163E-01  0.51100000000E-03 0. -1.
         11    1    4    4    0    0 -0.46993652405E-01 -0.27115208867E-01  0.39953697339E-01  0.67380983744E-01  0.51100000000E-03 0.  1.
</event>
<event>
 8    1  0.1176534E+005  0.1043930E+01  0.7957747E-01            NaN
         13   -1    0    0    0    0  0.00000000000E+00  0.00000000000E+00  0.74505805969E-08  0.10566000000E+00  0.10566000000E+00 0. -1.
     999900   -1    0    0    0    0 -0.00000000000E+00 -0.00000000000E+00 -0.74505805969E-08  0.93827000000E+00  0.93827000000E+00 0.  1.
     999902    2    1    2    0    0 -0.19461840972E-02 -0.14762123095E-01  0.19688398230E-01  0.10192451679E+01  0.10189462063E+01 0.  0.
     999903    2    3    3    0    0 -0.43064761882E-01  0.96981226391E-01  0.72062950765E-01  0.12968324912E+00  0.19098278493E-01 0.  0.
         14    1    1    2    0    0  0.19461840972E-02  0.14762123095E-01 -0.19688398230E-01  0.24684832097E-01  0.00000000000E+00 0.  1.
     999901    1    3    3    0    0  0.41118577785E-01 -0.11174334949E+00 -0.52374552535E-01  0.88956191878E+00  0.88000000000E+00 0.  1.
        -11    1    4    4    0    0 -0.41661485038E-02  0.23721180386E-01  0.23026766519E-01  0.33324829926E-01  0.51100000000E-03 0.  1.
         11    1    4    4    0    0 -0.38898613378E-01  0.73260046006E-01  0.49036184246E-01  0.96358419195E-01  0.51100000000E-03 0. -1.
</event>
<event>
 8    1  0.1176534E+005  0.1043930E+01  0.7957747E-01            NaN
         13   -1    0    0    0    0  0.00000000000E+00  0.00000000000E+00  0.74505805969E-08  0.10566000000E+00  0.10566000000E+00 0.  1.
     999900   -1    0    0    0    0 -0.00000000000E+00 -0.00000000000E+00 -0.74505805969E-08  0.93827000000E+00  0.93827000000E+00 0. -1.
     999902    2    1    2    0    0 -0.11825343774E-02  0.18258401083E-01  0.14618842303E-01  0.10205103897E+01  0.10202416269E+01 0.  0.
     999903    2    3    3    0    0  0.37932026464E-01 -0.99810873146E-01  0.72438660148E-01  0.12988508477E+00  0.14890491366E-01 0.  0.
         14    1    1    2    0    0  0.11825343774E-02 -0.18258401083E-01 -0.14618842303E-01  0.23419610329E-01  0.00000000000E+00 0. -1.
     999901    1    3    3    0    0 -0.39114560841E-01  0.11806927423E+00 -0.57819817845E-01  0.89062530490E+00  0.88000000000E+00 0.  1.
        -11    1    4    4    0    0  0.10517098209E-01 -0.39201886258E-01  0.20418655745E-01  0.45437648095E-01  0.51100000000E-03 0.  1.
         11    1    4    4    0    0  0.27414928255E-01 -0.60608986888E-01  0.52020004402E-01  0.84447436680E-01  0.51100000000E-03 0. -1.
</event>
<event>
 8    1  0.1176534E+005  0.1043930E+01  0.7957747E-01            NaN
         13   -1    0    0    0    0  0.00000000000E+00  0.00000000000E+00  0.74505805969E-08  0.10566000000E+00  0.10566000000E+00 0. -1.
     999900   -1    0    0    0    0 -0.00000000000E+00 -0.00000000000E+00 -0.74505805969E-08  0.93827000000E+00  0.93827000000E+00 0. -1.
     999902    2    1    2    0    0  0.52071141403E-02 -0.18639075255E-01 -0.13083832366E-02  0.10245330665E+01  0.10243494341E+01 0.  0.
     999903    2    3    3    0    0  0.11970785978E+00  0.45068638850E-01  0.34543256366E-01  0.13410932820E+00  0.20758647616E-01 0.  0.
         14    1    1    2    0    0 -0.52071141403E-02  0.18639075255E-01  0.13083832366E-02  0.19396933539E-01  0.00000000000E+00 0. -1.
     999901    1    3    3    0    0 -0.11450074564E+00 -0.63707714105E-01 -0.35851639603E-01  0.89042373826E+00  0.88000000000E+00 0. -1.
        -11    1    4    4    0    0  0.88153124684E-01  0.24267995230E-01  0.19898244864E-01  0.93574089650E-01  0.51100000000E-03 0.  1.
         11    1    4    4    0    0  0.31554735093E-01  0.20800643621E-01  0.14645011502E-01  0.40535238555E-01  0.51100000000E-03 0. -1.
</event>
<event>
 8    1  0.1176534E+005  0.1043930E+01  0.7957747E-01            NaN
         13   -1    0    0    0    0  0.00000000000E+00  0.00000000000E+00  0.74505805969E-08  0.10566000000E+00  0.10566000000E+00 0.  1.
     999900   -1    0    0    0    0 -0.00000000000E+00 -0.00000000000E+00 -0.74505805969E-08  0.93827000000E+00  0.93827000000E+00 0.  1.
     999902    2    1    2    0    0 -0.17034399382E-01 -0.67691095063E-02  0.14978792309E-01  0.10202581639E+01  0.10199835122E+01 0.  0.
     999903    2    3    3    0    0 -0.31683656125E-01  0.47342984284E-01  0.11786968549E+00  0.13249172202E+00  0.20385814125E-01 0.  0.
         14    1    1    2    0    0  0.17034399382E-01  0.67691095063E-02 -0.14978792309E-01  0.23671836111E-01  0.00000000000E+00 0. -1.
     999901    1    3    3    0    0  0.14649256743E-01 -0.54112093791E-01 -0.10289089319E+00  0.88776644187E+00  0.88000000000E+00 0.  1.
        -11    1    4    4    0    0 -0.13242291638E-01  0.32104034711E-01  0.85108105797E-01  0.91922130774E-01  0.51100000000E-03 0.  1.
         11    1    4    4    0    0 -0.18441364487E-01  0.15238949573E-01  0.32761579697E-01  0.40569591242E-01  0.51100000000E-03 0. -1.
</event>
<event>
 8    1  0.1176534E+005  0.1043930E+01  0.7957747E-01            NaN
         13   -1    0    0    0    0  0.00000000000E+00  0.00000000000E+00  0.74505805969E-08  0.10566000000E+00  0.10566000000E+00 0. -1.
     999900   -1    0    0    0    0 -0.00000000000E+00 -0.00000000000E+00 -0.74505805969E-08  0.93827000000E+00  0.93827000000E+00 0. -1.
     999902    2    1    2    0    0  0.42745849224E-02 -0.23315939182E-01  0.19118302794E-02  0.10201484906E+01  0.10198712579E+01 0.  0.
     999903    2    3    3    0    0 -0.63249226014E-01 -0.91763834754E-01  0.69001223924E-01  0.13237286227E+00  0.18448300781E-01 0.  0.
         14    1    1    2    0    0 -0.42745849224E-02  0.23315939182E-01 -0.19118302794E-02  0.23781509440E-01  0.00000000000E+00 0.  1.
     999901    1    3    3    0    0  0.67523810936E-01  0.68447895572E-01 -0.67089393645E-01  0.88777562829E+00  0.88000000000E+00 0. -1.
        -11    1    4    4    0    0 -0.48178789785E-01 -0.67429233472E-01  0.41536031873E-01  0.92700595341E-01  0.51100000000E-03 0. -1.
         11    1    4    4    0    0 -0.15070436229E-01 -0.24334601282E-01  0.27465192051E-01  0.39672266927E-01  0.51100000000E-03 0.  1.
</event>
<event>
 8    1  0.1176534E+005  0.1043930E+01  0.7957747E-01            NaN
         13   -1    0    0    0    0  0.00000000000E+00  0.00000000000E+00  0.74505805969E-08  0.10566000000E+00  0.10566000000E+00 0. -1.
     999900   -1    0    0    0    0 -0.00000000000E+00 -0.00000000000E+00 -0.74505805969E-08  0.93827000000E+00  0.93827000000E+00 0.  1.
     999902    2    1    2    0    0 -0.22533313769E-01 -0.71879242289E-02 -0.79810812539E-03  0.10202645513E+01  0.10199900496E+01 0.  0.
     999903    2    3    3    0    0 -0.29832153280E-01  0.12096755397E+00 -0.33046172598E-01  0.13036734529E+00  0.19506119881E-01 0.  0.
         14    1    1    2    0    0  0.22533313769E-01  0.71879242289E-02  0.79810812539E-03  0.23665448669E-01  0.00000000000E+00 0.  1.
     999901    1    3    3    0    0  0.72988395114E-02 -0.12815547820E+00  0.32248064472E-01  0.88989720604E+00  0.88000000000E+00 0. -1.
        -11    1    4    4    0    0 -0.13944570999E-02  0.30863071778E-01 -0.22174307230E-02  0.30978247694E-01  0.51100000000E-03 0. -1.
         11    1    4    4    0    0 -0.28437696180E-01  0.90104482191E-01 -0.30828741875E-01  0.99389097599E-01  0.51100000000E-03 0.  1.
</event>
<event>
 8    1  0.1176534E+005  0.1043930E+01  0.7957747E-01            NaN
         13   -1    0    0    0    0  0.00000000000E+00  0.00000000000E+00  0.74505805969E-08  0.10566000000E+00  0.10566000000E+00 0. -1.
     999900   -1    0    0    0    0 -0.00000000000E+00 -0.00000000000E+00 -0.74505805969E-08  0.93827000000E+00  0.93827000000E+00 0. -1.
     999902    2    1    2    0    0  0.70530457474E-02  0.11039030673E-01 -0.19824972123E-01  0.10201679468E+01  0.10198911729E+01 0.  0.
     999903    2    3    3    0    0  0.29674023822E-01 -0.39191588795E-01 -0.12142441646E+00  0.13261103546E+00  0.20622063214E-01 0.  0.
         14    1    1    2    0    0 -0.70530457474E-02 -0.11039030673E-01  0.19824972123E-01  0.23762053199E-01  0.00000000000E+00 0. -1.
     999901    1    3    3    0    0 -0.22620978075E-01  0.50230619468E-01  0.10159944434E+00  0.88755691134E+00  0.88000000000E+00 0.  1.
        -11    1    4    4    0    0  0.15176151091E-01 -0.57509742112E-02 -0.28631361785E-01  0.32915122132E-01  0.51100000000E-03 0. -1.
         11    1    4    4    0    0  0.14497872731E-01 -0.33440614584E-01 -0.92793054675E-01  0.99695913328E-01  0.51100000000E-03 0.  1.
</event>
<event>
 8    1  0.1176534E+005  0.1043930E+01  0.7957747E-01            NaN
         13   -1    0    0    0    0  0.00000000000E+00  0.00000000000E+00  0.74505805969E-08  0.10566000000E+00  0.10566000000E+00 0. -1.
     999900   -1    0    0    0    0 -0.00000000000E+00 -0.00000000000E+00 -0.74505805969E-08  0.93827000000E+00  0.93827000000E+00 0.  1.
     999902    2    1    2    0    0  0.97186854539E-02  0.89646621050E-02 -0.19315706892E-01  0.10205224254E+01  0.10202539421E+01 0.  0.
     999903    2    3    3    0    0 -0.53994677190E-01  0.91652746676E-01  0.71497674576E-01  0.12971168115E+00  0.19938696509E-01 0.  0.
         14    1    1    2    0    0 -0.97186854539E-02 -0.89646621050E-02  0.19315706892E-01  0.23407574550E-01  0.00000000000E+00 0. -1.
     999901    1    3    3    0    0  0.63713362644E-01 -0.82688084571E-01 -0.90813381468E-01  0.89081074430E+00  0.88000000000E+00 0.  1.
        -11    1    4    4    0    0 -0.45771156642E-01  0.59774100151E-01  0.50694881853E-01  0.90764387268E-01  0.51100000000E-03 0.  1.
         11    1    4    4    0    0 -0.82235205481E-02  0.31878646525E-01  0.20802792724E-01  0.38947293880E-01  0.51100000000E-03 0. -1.
</event>
<event>
 8    1  0.1176534E+005  0.1043930E+01  0.7957747E-01            NaN
         13   -1    0    0    0    0  0.00000000000E+00  0.00000000000E+00  0.74505805969E-08  0.10566000000E+00  0.10566000000E+00 0. -1.
     999900   -1    0    0    0    0 -0.00000000000E+00 -0.00000000000E+00 -0.74505805969E-08  0.93827000000E+00  0.93827000000E+00 0.  1.
     999902    2    1    2    0    0 -0.96456889444E-02 -0.64154960442E-02 -0.20799274567E-01  0.10201222759E+01  0.10198444244E+01 0.  0.
     999903    2    3    3    0    0 -0.59194327635E-01 -0.11464066566E+00  0.14981282950E-01  0.13138834314E+00  0.19799172378E-01 0.  0.
         14    1    1    2    0    0  0.96456889444E-02  0.64154960442E-02  0.20799274567E-01  0.23807724108E-01  0.00000000000E+00 0. -1.
     999901    1    3    3    0    0  0.49548638690E-01  0.10822516961E+00 -0.35780557517E-01  0.88873393275E+00  0.88000000000E+00 0.  1.
        -11    1    4    4    0    0 -0.81758956796E-02 -0.25959725455E-01 -0.34219534026E-02  0.27435806931E-01  0.51100000000E-03 0.  1.
         11    1    4    4    0    0 -0.51018431955E-01 -0.88680940203E-01  0.18403236352E-01  0.10395253621E+00  0.51100000000E-03 0. -1.
</event>
<event>
 8    1  0.1176534E+005  0.1043930E+01  0.7957747E-01            NaN
         13   -1    0    0    0    0  0.00000000000E+00  0.00000000000E+00  0.74505805969E-08  0.10566000000E+00  0.10566000000E+00 0. -1.
     999900   -1    0    0    0    0 -0.00000000000E+00 -0.00000000000E+00 -0.74505805969E-08  0.93827000000E+00  0.93827000000E+00 0.  1.
     999902    2    1    2    0    0  0.24243214126E-01 -0.36059551344E-03  0.14235541417E-02  0.10196423495E+01  0.10193530453E+01 0.  0.
     999903    2    3    3    0    0  0.68202704199E-01  0.79377569225E-01 -0.77075321179E-01  0.13146855733E+00  0.19772937930E-01 0.  0.
         14    1    1    2    0    0 -0.24243214126E-01  0.36059551344E-03 -0.14235541417E-02  0.24287650497E-01  0.00000000000E+00 0. -1.
     999901    1    3    3    0    0 -0.43959490073E-01 -0.79738164738E-01  0.78498875321E-01  0.88817379218E+00  0.88000000000E+00 0. -1.
        -11    1    4    4    0    0  0.45078543650E-01  0.49926229800E-01 -0.60664717488E-01  0.90582407721E-01  0.51100000000E-03 0. -1.
         11    1    4    4    0    0  0.23124160549E-01  0.29451339424E-01 -0.16410603691E-01  0.40886149605E-01  0.51100000000E-03 0.  1.
</event>
<event>
 8    1  0.1176534E+005  0.1043930E+01  0.7957747E-01            NaN
         13   -1    0    0    0    0  0.00000000000E+00  0.00000000000E+00  0.74505805969E-08  0.10566000000E+00  0.10566000000E+00 0. -1.
     999900   -1    0    0    0    0 -0.00000000000E+00 -0.00000000000E+00 -0.74505805969E-08  0.93827000000E+00  0.93827000000E+00 0.  1.
     999902    2    1    2    0    0 -0.64058129995E-02 -0.80763276907E-02  0.25016537120E-01  0.10168728634E+01  0.10165128291E+01 0.  0.
     999903    2    3    3    0    0 -0.11277970621E+00  0.16002027504E-01 -0.51842536619E-01  0.12681528690E+00  0.20472942396E-01 0.  0.
         14    1    1    2    0    0  0.64058129995E-02  0.80763276907E-02 -0.25016537120E-01  0.27057136557E-01  0.00000000000E+00 0.  1.
     999901    1    3    3    0    0  0.10637389322E+00 -0.24078355195E-01  0.76859073739E-01  0.89005757654E+00  0.88000000000E+00 0.  1.
        -11    1    4    4    0    0 -0.78570819620E-01  0.10303480821E-01 -0.25450405475E-01  0.83231722754E-01  0.51100000000E-03 0. -1.
         11    1    4    4    0    0 -0.34208886595E-01  0.56985466828E-02 -0.26392131143E-01  0.43583564146E-01  0.51100000000E-03 0.  1.
</event>
<event>
 8    1  0.1176534E+005  0.1043930E+01  0.7957747E-01            NaN
         13   -1    0    0    0    0  0.00000000000E+00  0.00000000000E+00  0.74505805969E-08  0.10566000000E+00  0.10566000000E+00 0. -1.
     999900   -1    0    0    0    0 -0.00000000000E+00 -0.00000000000E+00 -0.74505805969E-08  0.93827000000E+00  0.93827000000E+00 0.  1.
     999902    2    1    2    0    0  0.12556020651E-02  0.10457598864E-01  0.22116357883E-01  0.10194336493E+01  0.10191392909E+01 0.  0.
     999903    2    3    3    0    0  0.11849160911E+00 -0.48146631613E-01 -0.22527935432E-02  0.12939286783E+00  0.19469966648E-01 0.  0.
         14    1    1    2    0    0 -0.12556020651E-02 -0.10457598864E-01 -0.22116357883E-01  0.24496350678E-01  0.00000000000E+00 0.  1.
     999901    1    3    3    0    0 -0.11723600705E+00  0.58604230476E-01  0.24369151426E-01  0.89004078149E+00  0.88000000000E+00 0. -1.
        -11    1    4    4    0    0  0.54268122845E-01 -0.25982915717E-01 -0.10054893263E-01  0.61004123351E-01  0.51100000000E-03 0.  1.
         11    1    4    4    0    0  0.64223486266E-01 -0.22163715896E-01  0.78020997199E-02  0.68388744479E-01  0.51100000000E-03 0. -1.
</event>
<event>
 8    1  0.1176534E+005  0.1043930E+01  0.7957747E-01            NaN
         13   -1    0    0    0    0  0.00000000000E+00  0.00000000000E+00  0.74505805969E-08  0.10566000000E+00  0.10566000000E+00 0. -1.
     999900   -1    0    0    0    0 -0.00000000000E+00 -0.00000000000E+00 -0.74505805969E-08  0.93827000000E+00  0.93827000000E+00 0.  1.
     999902    2    1    2    0    0  0.12121264299E-01  0.27194015595E-02  0.20228939430E-01  0.10201912093E+01  0.10199149834E+01 0.  0.
     999903    2    3    3    0    0  0.47996592733E-01 -0.12701897987E-01  0.12228358824E+00  0.13343306471E+00  0.19649317532E-01 0.  0.
         14    1    1    2    0    0 -0.12121264299E-01 -0.27194015595E-02 -0.20228939430E-01  0.23738790692E-01  0.00000000000E+00 0.  1.
     999901    1    3    3    0    0 -0.35875328434E-01  0.15421299547E-01 -0.10205464881E+00  0.88675814460E+00  0.88000000000E+00 0.  1.
        -11    1    4    4    0    0  0.40868798555E-01 -0.56777530937E-02  0.11056641048E+00  0.11801562533E+00  0.51100000000E-03 0.  1.
         11    1    4    4    0    0  0.71277941786E-02 -0.70241448937E-02  0.11717177755E-01  0.15417439375E-01  0.51100000000E-03 0. -1.
</event>
<event>
 8    1  0.1176534E+005  0.1043930E+01  0.7957747E-01            NaN
         13   -1    0    0    0    0  0.00000000000E+00  0.00000000000E+00  0.74505805969E-08  0.10566000000E+00  0.10566000000E+00 0. -1.
     999900   -1    0    0    0    0 -0.00000000000E+00 -0.00000000000E+00 -0.74505805969E-08  0.93827000000E+00  0.93827000000E+00 0.  1.
     999902    2    1    2    0    0 -0.16138623636E-01 -0.35530673927E-02 -0.16809331254E-01  0.10203581295E+01  0.10200858196E+01 0.  0.
     999903    2    3    3    0    0  0.76710969851E-01  0.33840597798E-01 -0.98457916821E-01  0.13092807340E+00  0.20455807587E-01 0.  0.
         14    1    1    2    0    0  0.16138623636E-01  0.35530673927E-02  0.16809331254E-01  0.23571870481E-01  0.00000000000E+00 0. -1.
     999901    1    3    3    0    0 -0.92849593487E-01 -0.37393665190E-01  0.81648585568E-01  0.88943005612E+00  0.88000000000E+00 0.  1.
        -11    1    4    4    0    0  0.52986113906E-01  0.31900624956E-01 -0.63605122350E-01  0.88718943015E-01  0.51100000000E-03 0. -1.
         11    1    4    4    0    0  0.23724855945E-01  0.19399728415E-02 -0.34852794472E-01  0.42209130383E-01  0.51100000000E-03 0.  1.
</event>
<event>
 8    1  0.1176534E+005  0.1043930E+01  0.7957747E-01            NaN
         13   -1    0    0    0    0  0.00000000000E+00  0.00000000000E+00  0.74505805969E-08  0.10566000000E+00  0.10566000000E+00 0. -1.
     999900   -1    0    0    0    0 -0.00000000000E+00 -0.00000000000E+00 -0.74505805969E-08  0.93827000000E+00  0.93827000000E+00 0. -1.
     999902    2    1    2    0    0 -0.19230293900E-01 -0.27196953841E-03 -0.13761405729E-01  0.10202814386E+01  0.10200073330E+01 0.  0.
     999903    2    3    3    0    0 -0.89308657247E-02 -0.55443842854E-01  0.11476278262E+00  0.12917623667E+00  0.19032177316E-01 0.  0.
         14    1    1    2    0    0  0.19230293900E-01  0.27196953841E-03  0.13761405729E-01  0.23648561448E-01  0.00000000000E+00 0. -1.
     999901    1    3    3    0    0 -0.10299428175E-01  0.55171873315E-01 -0.12852418835E+00  0.89110520188E+00  0.88000000000E+00 0. -1.
        -11    1    4    4    0    0 -0.43644873366E-02 -0.20612178460E-01  0.64467579768E-01  0.67825073628E-01  0.51100000000E-03 0.  1.
         11    1    4    4    0    0 -0.45663783881E-02 -0.34831664393E-01  0.50295202852E-01  0.61351163045E-01  0.51100000000E-03 0. -1.
</event>
<event>
 8    1  0.1176534E+005  0.1043930E+01  0.7957747E-01            NaN
         13   -1    0    0    0    0  0.00000000000E+00  0.00000000000E+00  0.74505805969E-08  0.10566000000E+00  0.10566000000E+00 0. -1.
     999900   -1    0    0    0    0 -0.00000000000E+00 -0.00000000000E+00 -0.74505805969E-08  0.93827000000E+00  0.93827000000E+00 0.  1.
     999902    2    1    2    0    0 -0.13992062920E-01 -0.20530117807E-02  0.19147110812E-01  0.10201265436E+01  0.10198487930E+01 0.  0.
     999903    2    3    3    0    0 -0.46009210840E-02 -0.23659958513E-01  0.12920183256E+00  0.13295852378E+00  0.20097099239E-01 0.  0.
         14    1    1    2    0    0  0.13992062920E-01  0.20530117807E-02 -0.19147110812E-01  0.23803456358E-01  0.00000000000E+00 0.  1.
     999901    1    3    3    0    0 -0.93911418364E-02  0.21606946732E-01 -0.11005472174E+00  0.88716801986E+00  0.88000000000E+00 0.  1.
        -11    1    4    4    0    0  0.63901978781E-02 -0.11213287948E-01  0.79791121439E-01  0.80829800427E-01  0.51100000000E-03 0.  1.
         11    1    4    4    0    0 -0.10991118962E-01 -0.12446670564E-01  0.49410711116E-01  0.52128723350E-01  0.51100000000E-03 0. -1.
</event>
<event>
 8    1  0.1176534E+005  0.1043930E+01  0.7957747E-01            NaN
         13   -1    0    0    0    0  0.00000000000E+00  0.00000000000E+00  0.74505805969E-08  0.10566000000E+00  0.10566000000E+00 0.  1.
     999900   -1    0    0    0    0 -0.00000000000E+00 -0.00000000000E+00 -0.74505805969E-08  0.93827000000E+00  0.93827000000E+00 0.  1.
     999902    2    1    2    0    0  0.67487340147E-02 -0.20583237585E-01  0.81264154908E-02  0.10207944492E+01  0.10205322405E+01 0.  0.
     999903    2    3    3    0    0  0.15669162775E-02 -0.39114377337E-01  0.12543371225E+00  0.13280162480E+00  0.19242287861E-01 0.  0.
         14    1    1    2    0    0 -0.67487340147E-02  0.20583237585E-01 -0.81264154908E-02  0.23135550760E-01  0.00000000000E+00 0.  1.
     999901    1    3    3    0    0  0.51818177373E-02  0.18531139753E-01 -0.11730729675E+00  0.88799282443E+00  0.88000000000E+00 0.  1.
        -11    1    4    4    0    0 -0.36702931534E-02 -0.86427792638E-02  0.12096585789E-01  0.15321788211E-01  0.51100000000E-03 0.  1.
         11    1    4    4    0    0  0.52372094309E-02 -0.30471598073E-01  0.11333712646E+00  0.11747983659E+00  0.51100000000E-03 0. -1.
</event>
<event>
 8    1  0.1176534E+005  0.1043930E+01  0.7957747E-01            NaN
         13   -1    0    0    0    0  0.00000000000E+00  0.00000000000E+00  0.74505805969E-08  0.10566000000E+00  0.10566000000E+00 0.  1.
     999900   -1    0    0    0    0 -0.00000000000E+00 -0.00000000000E+00 -0.74505805969E-08  0.93827000000E+00  0.93827000000E+00 0.  1.
     999902    2    1    2    0    0  0.17858647046E-01 -0.14715775712E-01 -0.12943977387E-01  0.10174152517E+01  0.10170696940E+01 0.  0.
     999903    2    3    3    0    0  0.11310108455E+00 -0.33646107829E-01  0.50152046791E-01  0.12982830513E+00  0.20402086126E-01 0.  0.
         14    1    1    2    0    0 -0.17858647046E-01  0.14715775712E-01  0.12943977387E-01  0.26514748343E-01  0.00000000000E+00 0.  1.
     999901    1    3    3    0    0 -0.95242437500E-01  0.18930332117E-01 -0.63096024178E-01  0.88758694653E+00  0.88000000000E+00 0.  1.
        -11    1    4    4    0    0  0.60700815425E-01 -0.86067972164E-02  0.30797115148E-01  0.68610417387E-01  0.51100000000E-03 0. -1.
         11    1    4    4    0    0  0.52400269121E-01 -0.25039310613E-01  0.19354931643E-01  0.61217887744E-01  0.51100000000E-03 0.  1.
</event>
<event>
 8    1  0.1176534E+005  0.1043930E+01  0.7957747E-01            NaN
         13   -1    0    0    0    0  0.00000000000E+00  0.00000000000E+00  0.74505805969E-08  0.10566000000E+00  0.10566000000E+00 0.  1.
     999900   -1    0    0    0    0 -0.00000000000E+00 -0.00000000000E+00 -0.74505805969E-08  0.93827000000E+00  0.93827000000E+00 0. -1.
     999902    2    1    2    0    0 -0.17813446476E-01  0.15304389634E-01  0.35348758669E-02  0.10201805039E+01  0.10199040259E+01 0.  0.
     999903    2    3    3    0    0 -0.76628219605E-02 -0.78150810016E-01 -0.10077811818E+00  0.12904745534E+00  0.18186497177E-01 0.  0.
         14    1    1    2    0    0  0.17813446476E-01 -0.15304389634E-01 -0.35348758669E-02  0.23749496096E-01  0.00000000000E+00 0.  1.
     999901    1    3    3    0    0 -0.10150624516E-01  0.93455199651E-01  0.10431299404E+00  0.89113304857E+00  0.88000000000E+00 0.  1.
        -11    1    4    4    0    0  0.82522619465E-03 -0.38274450680E-01 -0.36300373025E-01  0.52759764744E-01  0.51100000000E-03 0.  1.
         11    1    4    4    0    0 -0.84880481551E-02 -0.39876359336E-01 -0.64477745151E-01  0.76287690594E-01  0.51100000000E-03 0. -1.
</event>
<event>
 8    1  0.1176534E+005  0.1043930E+01  0.7957747E-01            NaN
         13   -1    0    0    0    0  0.00000000000E+00  0.00000000000E+00  0.74505805969E-08  0.10566000000E+00  0.10566000000E+00 0. -1.
     999900   -1    0    0    0    0 -0.00000000000E+00 -0.00000000000E+00 -0.74505805969E-08  0.93827000000E+00  0.93827000000E+00 0. -1.
     999902    2    1    2    0    0 -0.22259138444E-01 -0.54104614920E-02  0.34061097234E-02  0.10207708998E+01  0.10205081509E+01 0.  0.
     999903    2    3    3    0    0  0.50382522304E-01 -0.96799596059E-02 -0.11725247696E+00  0.12956187045E+00  0.20150303934E-01 0.  0.
         14    1    1    2    0    0  0.22259138444E-01  0.54104614920E-02 -0.34061097234E-02  0.23159100183E-01  0.00000000000E+00 0. -1.
     999901    1    3    3    0    0 -0.72641660749E-01  0.42694981140E-02  0.12065858668E+00  0.89120902937E+00  0.88000000000E+00 0.  1.
        -11    1    4    4    0    0  0.28612204098E-01  0.47214294510E-02 -0.62809319864E-01  0.69182525989E-01  0.51100000000E-03 0. -1.
         11    1    4    4    0    0  0.21770318207E-01 -0.14401389057E-01 -0.54443157096E-01  0.60379344458E-01  0.51100000000E-03 0.  1.
</event>
<event>
 8    1  0.1176534E+005  0.1043930E+01  0.7957747E-01            NaN
         13   -1    0    0    0    0  0.00000000000E+00  0.00000000000E+00  0.74505805969E-08  0.10566000000E+00  0.10566000000E+00 0.  1.
     999900   -1    0    0    0    0 -0.00000000000E+00 -0.00000000000E+00 -0.74505805969E-08  0.93827000000E+00  0.93827000000E+00 0. -1.
     999902    2    1    2    0    0 -0.86439523259E-03  0.23214017111E-02 -0.23659949598E-01  0.10201407314E+01  0.10198633156E+01 0.  0.
     999903    2    3    3    0    0  0.55194154815E-01 -0.36325873043E-01  0.10729524309E+00  0.12784849488E+00  0.21610290976E-01 0.  0.
         14    1    1    2    0    0  0.86439523259E-03 -0.23214017111E-02  0.23659949598E-01  0.23789268589E-01  0.00000000000E+00 0.  1.
     999901    1    3    3    0    0 -0.56058550047E-01  0.38647274754E-01 -0.13095519269E+00  0.89229223653E+00  0.88000000000E+00 0. -1.
        -11    1    4    4    0    0  0.81755393664E-02 -0.68358601503E-02  0.35689977378E-01  0.37250557501E-01  0.51100000000E-03 0. -1.
         11    1    4    4    0    0  0.47018615449E-01 -0.29490012892E-01  0.71605265710E-01  0.90597937380E-01  0.51100000000E-03 0.  1.
</event>
<event>
 8    1  0.1176534E+005  0.1043930E+01  0.7957747E-01            NaN
         13   -1    0    0    0    0  0.00000000000E+00  0.00000000000E+00  0.74505805969E-08  0.10566000000E+00  0.10566000000E+00 0.  1.
     999900   -1    0    0    0    0 -0.00000000000E+00 -0.00000000000E+00 -0.74505805969E-08  0.93827000000E+00  0.93827000000E+00 0. -1.
     999902    2    1    2    0    0 -0.29024481420E-02  0.15751109091E-01 -0.20722738718E-01  0.10177392852E+01  0.10174022307E+01 0.  0.
     999903    2    3    3    0    0 -0.11444219953E+00  0.38635663583E-01 -0.43956296051E-01  0.13009937105E+00  0.20098727605E-01 0.  0.
         14    1    1    2    0    0  0.29024481420E-02 -0.15751109091E-01  0.20722738718E-01  0.26190714820E-01  0.00000000000E+00 0.  1.
     999901    1    3    3    0    0  0.11153975139E+00 -0.22884554492E-01  0.23233557333E-01  0.88763991413E+00  0.88000000000E+00 0.  1.
        -11    1    4    4    0    0 -0.58404994960E-01  0.22835958671E-01 -0.32957189638E-01  0.70845337987E-01  0.51100000000E-03 0. -1.
         11    1    4    4    0    0 -0.56037204568E-01  0.15799704912E-01 -0.10999106413E-01  0.59254033061E-01  0.51100000000E-03 0.  1.
</event>
<event>
 8    1  0.1176534E+005  0.1043930E+01  0.7957747E-01            NaN
         13   -1    0    0    0    0  0.00000000000E+00  0.00000000000E+00  0.74505805969E-08  0.10566000000E+00  0.10566000000E+00 0. -1.
     999900   -1    0    0    0    0 -0.00000000000E+00 -0.00000000000E+00 -0.74505805969E-08  0.93827000000E+00  0.93827000000E+00 0.  1.
     999902    2    1    2    0    0  0.22545499431E-01 -0.90695574098E-02  0.34192053752E-02  0.10193892710E+01  0.10190938320E+01 0.  0.
     999903    2    3    3    0    0  0.10652218459E+00 -0.76350113207E-01  0.90005531509E-02  0.13281727260E+00  0.19573000444E-01 0.  0.
         14    1    1    2    0    0 -0.22545499431E-01  0.90695574098E-02 -0.34192053752E-02  0.24540729036E-01  0.00000000000E+00 0. -1.
     999901    1    3    3    0    0 -0.83976685163E-01  0.67280555797E-01 -0.55813477757E-02  0.88657199836E+00  0.88000000000E+00 0. -1.
        -11    1    4    4    0    0  0.19694180785E-01 -0.23855320414E-01  0.43841289450E-02  0.31247700338E-01  0.51100000000E-03 0.  1.
         11    1    4    4    0    0  0.86828003810E-01 -0.52494792794E-01  0.46164242059E-02  0.10156957226E+00  0.51100000000E-03 0. -1.
</event>
<event>
 7    1  0.1176534E+005  0.1043930E+01  0.7957747E-01            NaN
         13   -1    0    0    0    0  0.00000000000E+00  0.00000000000E+00  0.74505805969E-08  0.10566000000E+00  0.10566000000E+00 0. -1.
     999900   -1    0    0    0    0 -0.00000000000E+00 -0.00000000000E+00 -0.74505805969E-08  0.93827000000E+00  0.93827000000E+00 0.  1.
     999903    2    1    2    0    0 -0.56813629232E-01  0.62308116143E-01  0.32799394840E-01  0.92895228079E-01  0.21062604163E-01 0.  0.
         14    1    1    2    0    0  0.41633704884E-02 -0.63068039303E-01 -0.28785857369E-01  0.69451686947E-01  0.00000000000E+00 0.  1.
     999901    1    1    2    0    0  0.52650258744E-01  0.75992315992E-03 -0.40135374711E-02  0.88158308497E+00  0.88000000000E+00 0.  1.
        -11    1    3    3    0    0 -0.47526490722E-01  0.48265331583E-01  0.17087393927E-01  0.69860931180E-01  0.51100000000E-03 0. -1.
         11    1    3    3    0    0 -0.92871385095E-02  0.14042784561E-01  0.15712000913E-01  0.23034296898E-01  0.51100000000E-03 0.  1.
</event>
<event>
 8    1  0.1176534E+005  0.1043930E+01  0.7957747E-01            NaN
         13   -1    0    0    0    0  0.00000000000E+00  0.00000000000E+00  0.74505805969E-08  0.10566000000E+00  0.10566000000E+00 0. -1.
     999900   -1    0    0    0    0 -0.00000000000E+00 -0.00000000000E+00 -0.74505805969E-08  0.93827000000E+00  0.93827000000E+00 0. -1.
     999902    2    1    2    0    0  0.20856786322E-01 -0.37474256705E-02  0.12106604644E-01  0.10195247012E+01  0.10192325533E+01 0.  0.
     999903    2    3    3    0    0  0.35549332541E-01  0.74698989762E-01 -0.97276463055E-01  0.12916838682E+00  0.19443964969E-01 0.  0.
         14    1    1    2    0    0 -0.20856786322E-01  0.37474256705E-02 -0.12106604644E-01  0.24405298827E-01  0.00000000000E+00 0.  1.
     999901    1    3    3    0    0 -0.14692546220E-01 -0.78446415433E-01  0.10938306770E+00  0.89035631435E+00  0.88000000000E+00 0.  1.
        -11    1    4    4    0    0  0.17702341062E-01  0.25264469789E-01 -0.24505379461E-01  0.39401028620E-01  0.51100000000E-03 0.  1.
         11    1    4    4    0    0  0.17846991479E-01  0.49434519974E-01 -0.72771083594E-01  0.89767358200E-01  0.51100000000E-03 0. -1.
</event>
<event>
 8    1  0.1176534E+005  0.1043930E+01  0.7957747E-01            NaN
         13   -1    0    0    0    0  0.00000000000E+00  0.00000000000E+00  0.74505805969E-08  0.10566000000E+00  0.10566000000E+00 0.  1.
     999900   -1    0    0    0    0 -0.00000000000E+00 -0.00000000000E+00 -0.74505805969E-08  0.93827000000E+00  0.93827000000E+00 0. -1.
     999902    2    1    2    0    0 -0.13995135788E-01 -0.18719341024E-01 -0.16066301000E-02  0.10205022640E+01  0.10202333125E+01 0.  0.
     999903    2    3    3    0    0  0.10889294835E+00 -0.40980446066E-01 -0.54553114428E-01  0.13010888564E+00  0.20376669693E-01 0.  0.
         14    1    1    2    0    0  0.13995135788E-01  0.18719341024E-01  0.16066301000E-02  0.23427736006E-01  0.00000000000E+00 0.  1.
     999901    1    3    3    0    0 -0.12288808414E+00  0.22261105043E-01  0.52946484328E-01  0.89039337836E+00  0.88000000000E+00 0.  1.
        -11    1    4    4    0    0  0.95008549870E-01 -0.30147232179E-01 -0.40578223072E-01  0.10762125006E+00  0.51100000000E-03 0.  1.
         11    1    4    4    0    0  0.13884398479E-01 -0.10833213888E-01 -0.13974891357E-01  0.22487635574E-01  0.51100000000E-03 0. -1.
</event>
<event>
 8    1  0.1176534E+005  0.1043930E+01  0.7957747E-01            NaN
         13   -1    0    0    0    0  0.00000000000E+00  0.00000000000E+00  0.74505805969E-08  0.10566000000E+00  0.10566000000E+00 0.  1.
     999900   -1    0    0    0    0 -0.00000000000E+00 -0.00000000000E+00 -0.74505805969E-08  0.93827000000E+00  0.93827000000E+00 0.  1.
     999902    2    1    2    0    0  0.92868329325E-02  0.17768440527E-01 -0.53246014100E-02  0.10231859858E+01  0.10229756827E+01 0.  0.
     999903    2    3    3    0    0 -0.41471657550E-01  0.12540277713E+00  0.18430920334E-01  0.13485840007E+00  0.20033331069E-01 0.  0.
         14    1    1    2    0    0 -0.92868329325E-02 -0.17768440527E-01  0.53246014100E-02  0.20744014193E-01  0.00000000000E+00 0.  1.
     999901    1    3    3    0    0  0.50758490482E-01 -0.10763433660E+00 -0.23755521744E-01  0.88832758574E+00  0.88000000000E+00 0.  1.
        -11    1    4    4    0    0 -0.14331058999E-01  0.67446749626E-01  0.16145553935E-01  0.70819371079E-01  0.51100000000E-03 0.  1.
         11    1    4    4    0    0 -0.27140598551E-01  0.57956027500E-01  0.22853663990E-02  0.64039028989E-01  0.51100000000E-03 0. -1.
</event>
<event>
 8    1  0.1176534E+005  0.1043930E+01  0.7957747E-01            NaN
         13   -1    0    0    0    0  0.00000000000E+00  0.00000000000E+00  0.74505805969E-08  0.10566000000E+00  0.10566000000E+00 0.  1.
     999900   -1    0    0    0    0 -0.00000000000E+00 -0.00000000000E+00 -0.74505805969E-08  0.93827000000E+00  0.93827000000E+00 0.  1.
     999902    2    1    2    0    0  0.70566318081E-02  0.18659160792E-01 -0.13774722268E-01  0.10196874072E+01  0.10193991883E+01 0.  0.
     999903    2    3    3    0    0  0.51542495481E-01 -0.54870422705E-01  0.10164369747E+00  0.12799967969E+00  0.19623573495E-01 0.  0.
         14    1    1    2    0    0 -0.70566318081E-02 -0.18659160792E-01  0.13774722268E-01  0.24242592837E-01  0.00000000000E+00 0.  1.
     999901    1    3    3    0    0 -0.44485863673E-01  0.73529583496E-01 -0.11541841974E+00  0.89168772748E+00  0.88000000000E+00 0.  1.
        -11    1    4    4    0    0  0.39484826291E-01 -0.31433059713E-01  0.75927102727E-01  0.91171677617E-01  0.51100000000E-03 0. -1.
         11    1    4    4    0    0  0.12057669191E-01 -0.23437362992E-01  0.25716594742E-01  0.36828002070E-01  0.51100000000E-03 0.  1.
</event>
<event>
 8    1  0.1176534E+005  0.1043930E+01  0.7957747E-01            NaN
         13   -1    0    0    0    0  0.00000000000E+00  0.00000000000E+00  0.74505805969E-08  0.10566000000E+00  0.10566000000E+00 0. -1.
     999900   -1    0    0    0    0 -0.00000000000E+00 -0.00000000000E+00 -0.74505805969E-08  0.93827000000E+00  0.93827000000E+00 0.  1.
     999902    2    1    2    0    0 -0.12073580374E-01  0.20841077255E-01  0.87230072582E-04  0.10198441234E+01  0.10195596630E+01 0.  0.
     999903    2    3    3    0    0  0.84861598015E-01 -0.42904763364E-01  0.83706454927E-01  0.12829932036E+00  0.20288801602E-01 0.  0.
         14    1    1    2    0    0  0.12073580374E-01 -0.20841077255E-01 -0.87230072582E-04  0.24085876635E-01  0.00000000000E+00 0. -1.
     999901    1    3    3    0    0 -0.96935178389E-01  0.63745840620E-01 -0.83619224854E-01  0.89154480301E+00  0.88000000000E+00 0.  1.
        -11    1    4    4    0    0  0.65794544935E-01 -0.40773591481E-01  0.60894807178E-01  0.98487799080E-01  0.51100000000E-03 0.  1.
         11    1    4    4    0    0  0.19067053080E-01 -0.21311718831E-02  0.22811647749E-01  0.29811521276E-01  0.51100000000E-03 0. -1.
</event>
<event>
 8    1  0.1176534E+005  0.1043930E+01  0.7957747E-01            NaN
         13   -1    0    0    0    0  0.00000000000E+00  0.00000000000E+00  0.74505805969E-08  0.10566000000E+00  0.10566000000E+00 0. -1.
     999900   -1    0    0    0    0 -0.00000000000E+00 -0.00000000000E+00 -0.74505805969E-08  0.93827000000E+00  0.93827000000E+00 0.  1.
     999902    2    1    2    0    0  0.13575500567E-01 -0.16187533299E-01 -0.19259652553E-02  0.10227158587E+01  0.10224958131E+01 0.  0.
     999903    2    3    3    0    0 -0.52619705583E-01  0.73318256858E-01  0.92627085818E-01  0.13067697429E+00  0.18769506606E-01 0.  0.
         14    1    1    2    0    0 -0.13575500567E-01  0.16187533299E-01  0.19259652553E-02  0.21214141324E-01  0.00000000000E+00 0. -1.
     999901    1    3    3    0    0  0.66195206150E-01 -0.89505790158E-01 -0.94553051073E-01  0.89203888439E+00  0.88000000000E+00 0.  1.
        -11    1    4    4    0    0 -0.36870051325E-02  0.13803623830E-01  0.21480570054E-01  0.25803295304E-01  0.51100000000E-03 0. -1.
         11    1    4    4    0    0 -0.48932700451E-01  0.59514633028E-01  0.71146515763E-01  0.10487367899E+00  0.51100000000E-03 0.  1.
</event>
<event>
 8    1  0.1176534E+005  0.1043930E+01  0.7957747E-01            NaN
         13   -1    0    0    0    0  0.00000000000E+00  0.00000000000E+00  0.74505805969E-08  0.10566000000E+00  0.10566000000E+00 0. -1.
     999900   -1    0    0    0    0 -0.00000000000E+00 -0.00000000000E+00 -0.74505805969E-08  0.93827000000E+00  0.93827000000E+00 0. -1.
     999902    2    1    2    0    0 -0.11450437196E-01 -0.61767003187E-02 -0.19623477481E-01  0.10203854676E+01  0.10201137963E+01 0.  0.
     999903    2    3    3    0    0  0.11561108708E+00  0.54429841692E-01  0.37610328273E-02  0.12888974733E+00  0.16428343715E-01 0.  0.
         14    1    1    2    0    0  0.11450437196E-01  0.61767003187E-02  0.19623477481E-01  0.23544532427E-01  0.00000000000E+00 0. -1.
     999901    1    3    3    0    0 -0.12706152427E+00 -0.60606542010E-01 -0.23384510308E-01  0.89149572024E+00  0.88000000000E+00 0.  1.
        -11    1    4    4    0    0  0.43036752408E-01  0.25706178012E-01 -0.48331240930E-02  0.50364569445E-01  0.51100000000E-03 0.  1.
         11    1    4    4    0    0  0.72574334670E-01  0.28723663679E-01  0.85941569202E-02  0.78525177887E-01  0.51100000000E-03 0. -1.
</event>
<event>
 8    1  0.1176534E+005  0.1043930E+01  0.7957747E-01            NaN
         13   -1    0    0    0    0  0.00000000000E+00  0.00000000000E+00  0.74505805969E-08  0.10566000000E+00  0.10566000000E+00 0. -1.
     999900   -1    0    0    0    0 -0.00000000000E+00 -0.00000000000E+00 -0.74505805969E-08  0.93827000000E+00  0.93827000000E+00 0. -1.
     999902    2    1    2    0    0 -0.24116652279E-01 -0.13974994054E-01 -0.17974071465E-02  0.10159989412E+01  0.10156149390E+01 0.  0.
     999903    2    3    3    0    0  0.60764600911E-01  0.64740846989E-01  0.84547788173E-01  0.12422738771E+00  0.20010031967E-01 0.  0.
         14    1    1    2    0    0  0.24116652279E-01  0.13974994054E-01  0.17974071465E-02  0.27931058849E-01  0.00000000000E+00 0. -1.
     999901    1    3    3    0    0 -0.84881253190E-01 -0.78715841043E-01 -0.86345195319E-01  0.89177155344E+00  0.88000000000E+00 0. -1.
        -11    1    4    4    0    0  0.50387184004E-01  0.45989631897E-01  0.72849277523E-01  0.99805775937E-01  0.51100000000E-03 0.  1.
         11    1    4    4    0    0  0.10377416907E-01  0.18751215092E-01  0.11698510650E-01  0.24421611771E-01  0.51100000000E-03 0. -1.
</event>
<event>
 8    1  0.1176534E+005  0.1043930E+01  0.7957747E-01            NaN
         13   -1    0    0    0    0  0.00000000000E+00  0.00000000000E+00  0.74505805969E-08  0.10566000000E+00  0.10566000000E+00 0. -1.
     999900   -1    0    0    0    0 -0.00000000000E+00 -0.00000000000E+00 -0.74505805969E-08  0.93827000000E+00  0.93827000000E+00 0.  1.
     999902    2    1    2    0    0  0.22273808433E-01  0.80627369204E-02 -0.17566901491E-02  0.10201767638E+01  0.10199001977E+01 0.  0.
     999903    2    3    3    0    0 -0.39033951478E-01 -0.11261046495E+00  0.43908116359E-01  0.12865787023E+00  0.20497773194E-01 0.  0.
         14    1    1    2    0    0 -0.22273808433E-01 -0.80627369204E-02  0.17566901491E-02  0.23753236180E-01  0.00000000000E+00 0. -1.
     999901    1    3    3    0    0  0.61307759910E-01  0.12067320187E+00 -0.45664806509E-01  0.89151889359E+00  0.88000000000E+00 0.  1.
        -11    1    4    4    0    0 -0.16034040221E-01 -0.29490935181E-01  0.20333339869E-01  0.39249350757E-01  0.51100000000E-03 0. -1.
         11    1    4    4    0    0 -0.22999911257E-01 -0.83119529768E-01  0.23574776490E-01  0.89408519473E-01  0.51100000000E-03 0.  1.
</event>
<event>
 8    1  0.1176534E+005  0.1043930E+01  0.7957747E-01            NaN
         13   -1    0    0    0    0  0.00000000000E+00  0.00000000000E+00  0.74505805969E-08  0.10566000000E+00  0.10566000000E+00 0. -1.
     999900   -1    0    0    0    0 -0.00000000000E+00 -0.00000000000E+00 -0.74505805969E-08  0.93827000000E+00  0.93827000000E+00 0. -1.
     999902    2    1    2    0    0 -0.21526363495E-01  0.59090285969E-02  0.13670855331E-01  0.10177538041E+01  0.10174171281E+01 0.  0.
     999903    2    3    3    0    0  0.54543696508E-02  0.11805676502E+00  0.48977034726E-01  0.12952432869E+00  0.20264547281E-01 0.  0.
         14    1    1    2    0    0  0.21526363495E-01 -0.59090285969E-02 -0.13670855331E-01  0.26176195861E-01  0.00000000000E+00 0.  1.
     999901    1    3    3    0    0 -0.26980733146E-01 -0.11214773643E+00 -0.35306179394E-01  0.88822947545E+00  0.88000000000E+00 0. -1.
        -11    1    4    4    0    0  0.71850597375E-02  0.36154252713E-01  0.71878357803E-02  0.37559035888E-01  0.51100000000E-03 0. -1.
         11    1    4    4    0    0 -0.17306900866E-02  0.81902512312E-01  0.41789198945E-01  0.91965292805E-01  0.51100000000E-03 0.  1.
</event>
<event>
 8    1  0.1176534E+005  0.1043930E+01  0.7957747E-01            NaN
         13   -1    0    0    0    0  0.00000000000E+00  0.00000000000E+00  0.74505805969E-08  0.10566000000E+00  0.10566000000E+00 0.  1.
     999900   -1    0    0    0    0 -0.00000000000E+00 -0.00000000000E+00 -0.74505805969E-08  0.93827000000E+00  0.93827000000E+00 0.  1.
     999902    2    1    2    0    0 -0.21858037370E-02 -0.81635345452E-02  0.21705355344E-01  0.10206374371E+01  0.10203716159E+01 0.  0.
     999903    2    3    3    0    0  0.53256963995E-01 -0.52101146255E-01  0.10898029602E+00  0.13349521095E+00  0.19835139762E-01 0.  0.
         14    1    1    2    0    0  0.21858037370E-02  0.81635345452E-02 -0.21705355344E-01  0.23292562865E-01  0.00000000000E+00 0. -1.
     999901    1    3    3    0    0 -0.55442767732E-01  0.43937611710E-01 -0.87274940679E-01  0.88714222619E+00  0.88000000000E+00 0.  1.
        -11    1    4    4    0    0  0.39108129576E-01 -0.27408909868E-01  0.58256254777E-01  0.75330913182E-01  0.51100000000E-03 0.  1.
         11    1    4    4    0    0  0.14148834419E-01 -0.24692236387E-01  0.50724041245E-01  0.58164297764E-01  0.51100000000E-03 0. -1.
</event>
<event>
 8    1  0.1176534E+005  0.1043930E+01  0.7957747E-01            NaN
         13   -1    0    0    0    0  0.00000000000E+00  0.00000000000E+00  0.74505805969E-08  0.10566000000E+00  0.10566000000E+00 0. -1.
     999900   -1    0    0    0    0 -0.00000000000E+00 -0.00000000000E+00 -0.74505805969E-08  0.93827000000E+00  0.93827000000E+00 0. -1.
     999902    2    1    2    0    0 -0.21317970099E-01 -0.29168627040E-02 -0.10862162544E-01  0.10198270850E+01  0.10195422172E+01 0.  0.
     999903    2    3    3    0    0 -0.97325702159E-01  0.37100351954E-01 -0.80066273325E-01  0.13294052981E+00  0.20343252580E-01 0.  0.
         14    1    1    2    0    0  0.21317970099E-01  0.29168627040E-02  0.10862162544E-01  0.24102915017E-01  0.00000000000E+00 0. -1.
     999901    1    3    3    0    0  0.76007732060E-01 -0.40017214658E-01  0.69204110782E-01  0.88688655518E+00  0.88000000000E+00 0.  1.
        -11    1    4    4    0    0 -0.14986176952E-01  0.10923244438E-01 -0.22294698579E-01  0.29003749317E-01  0.51100000000E-03 0.  1.
         11    1    4    4    0    0 -0.82339525207E-01  0.26177107516E-01 -0.57771574746E-01  0.10393678049E+00  0.51100000000E-03 0. -1.
</event>
<event>
 8    1  0.1176534E+005  0.1043930E+01  0.7957747E-01            NaN
         13   -1    0    0    0    0  0.00000000000E+00  0.00000000000E+00  0.74505805969E-08  0.10566000000E+00  0.10566000000E+00 0. -1.
     999900   -1    0    0    0    0 -0.00000000000E+00 -0.00000000000E+00 -0.74505805969E-08  0.93827000000E+00  0.93827000000E+00 0.  1.
     999902    2    1    2    0    0 -0.86333534797E-03 -0.22256785050E-01  0.45353003611E-02  0.10211994308E+01  0.10209464230E+01 0.  0.
     999903    2    3    3    0    0 -0.23145574101E-01 -0.76776936981E-01  0.10488824909E+00  0.13353977782E+00  0.20022782331E-01 0.  0.
         14    1    1    2    0    0  0.86333534797E-03  0.22256785050E-01 -0.45353003611E-02  0.22730569242E-01  0.00000000000E+00 0.  1.
     999901    1    3    3    0    0  0.22282238753E-01  0.54520151931E-01 -0.10035294872E+00  0.88765965293E+00  0.88000000000E+00 0.  1.
        -11    1    4    4    0    0  0.33435851432E-02 -0.52508254421E-02  0.10072291195E-01  0.11851704534E-01  0.51100000000E-03 0. -1.
         11    1    4    4    0    0 -0.26489159244E-01 -0.71526111539E-01  0.94815957891E-01  0.12168807329E+00  0.51100000000E-03 0.  1.
</event>
<event>
 8    1  0.1176534E+005  0.1043930E+01  0.7957747E-01            NaN
         13   -1    0    0    0    0  0.00000000000E+00  0.00000000000E+00  0.74505805969E-08  0.10566000000E+00  0.10566000000E+00 0.  1.
     999900   -1    0    0    0    0 -0.00000000000E+00 -0.00000000000E+00 -0.74505805969E-08  0.93827000000E+00  0.93827000000E+00 0. -1.
     999902    2    1    2    0    0 -0.10517657529E-01  0.20162032157E-01  0.71162417594E-02  0.10201020845E+01  0.10198237560E+01 0.  0.
     999903    2    3    3    0    0  0.10785368511E+00  0.34484285598E-01 -0.59614536598E-01  0.12955736440E+00  0.20239425671E-01 0.  0.
         14    1    1    2    0    0  0.10517657529E-01 -0.20162032157E-01 -0.71162417594E-02  0.23827915506E-01  0.00000000000E+00 0. -1.
     999901    1    3    3    0    0 -0.11837134264E+00 -0.14322253441E-01  0.66730778358E-01  0.89054472009E+00  0.88000000000E+00 0.  1.
        -11    1    4    4    0    0  0.81881411846E-01  0.22651341668E-01 -0.35074870219E-01  0.91913853836E-01  0.51100000000E-03 0. -1.
         11    1    4    4    0    0  0.25972273267E-01  0.11832943930E-01 -0.24539666380E-01  0.37643510566E-01  0.51100000000E-03 0.  1.
</event>
<event>
 8    1  0.1176534E+005  0.1043930E+01  0.7957747E-01            NaN
         13   -1    0    0    0    0  0.00000000000E+00  0.00000000000E+00  0.74505805969E-08  0.10566000000E+00  0.10566000000E+00 0. -1.
     999900   -1    0    0    0    0 -0.00000000000E+00 -0.00000000000E+00 -0.74505805969E-08  0.93827000000E+00  0.93827000000E+00 0. -1.
     999902    2    1    2    0    0 -0.42290567162E-02 -0.23323030001E-02  0.23026014769E-01  0.10204029536E+01  0.10201316904E+01 0.  0.
     999903    2    3    3    0    0 -0.84675994097E-01 -0.82704348265E-01  0.55296080249E-01  0.13249939319E+00  0.22099762590E-01 0.  0.
         14    1    1    2    0    0  0.42290567162E-02  0.23323030001E-02 -0.23026014769E-01  0.23527046439E-01  0.00000000000E+00 0.  1.
     999901    1    3    3    0    0  0.80446937381E-01  0.80372045264E-01 -0.32270065480E-01  0.88790356037E+00  0.88000000000E+00 0. -1.
        -11    1    4    4    0    0 -0.34328399170E-01 -0.34544255402E-01  0.10980392803E-01  0.49925691963E-01  0.51100000000E-03 0.  1.
         11    1    4    4    0    0 -0.50347594927E-01 -0.48160092863E-01  0.44315687446E-01  0.82573701227E-01  0.51100000000E-03 0. -1.
</event>
<event>
 8    1  0.1176534E+005  0.1043930E+01  0.7957747E-01            NaN
         13   -1    0    0    0    0  0.00000000000E+00  0.00000000000E+00  0.74505805969E-08  0.10566000000E+00  0.10566000000E+00 0.  1.
     999900   -1    0    0    0    0 -0.00000000000E+00 -0.00000000000E+00 -0.74505805969E-08  0.93827000000E+00  0.93827000000E+00 0.  1.
     999902    2    1    2    0    0  0.47450824715E-02 -0.19830222202E-02  0.23429564317E-01  0.10199426561E+01  0.10196605460E+01 0.  0.
     999903    2    3    3    0    0 -0.85981826917E-03 -0.11899141819E+00 -0.47414192876E-01  0.12935789448E+00  0.18046115601E-01 0.  0.
         14    1    1    2    0    0 -0.47450824715E-02  0.19830222202E-02 -0.23429564317E-01  0.23987343931E-01  0.00000000000E+00 0. -1.
     999901    1    3    3    0    0  0.56049007406E-02  0.11700839597E+00  0.70843757192E-01  0.89058476159E+00  0.88000000000E+00 0. -1.
        -11    1    4    4    0    0  0.47966077316E-02 -0.29466633571E-01 -0.18421634218E-01  0.35084293751E-01  0.51100000000E-03 0. -1.
         11    1    4    4    0    0 -0.56564260007E-02 -0.89524784619E-01 -0.28992558657E-01  0.94273600730E-01  0.51100000000E-03 0.  1.
</event>
<event>
 8    1  0.1176534E+005  0.1043930E+01  0.7957747E-01            NaN
         13   -1    0    0    0    0  0.00000000000E+00  0.00000000000E+00  0.74505805969E-08  0.10566000000E+00  0.10566000000E+00 0.  1.
     999900   -1    0    0    0    0 -0.00000000000E+00 -0.00000000000E+00 -0.74505805969E-08  0.93827000000E+00  0.93827000000E+00 0. -1.
     999902    2    1    2    0    0  0.22594322199E-01 -0.58426580905E-02  0.19552109436E-03  0.10205916565E+01  0.10203247772E+01 0.  0.
     999903    2    3    3    0    0 -0.10665273943E+00  0.42838930465E-01  0.52585733944E-01  0.12828036865E+00  0.21922882494E-01 0.  0.
         14    1    1    2    0    0 -0.22594322199E-01  0.58426580905E-02 -0.19552109436E-03  0.23338343507E-01  0.00000000000E+00 0. -1.
     999901    1    3    3    0    0  0.12924706162E+00 -0.48681588555E-01 -0.52390212850E-01  0.89231128784E+00  0.88000000000E+00 0. -1.
        -11    1    4    4    0    0 -0.84828967164E-01  0.34371346320E-01  0.51079339226E-01  0.10481747533E+00  0.51100000000E-03 0.  1.
         11    1    4    4    0    0 -0.21823772262E-01  0.84675841454E-02  0.15063947179E-02  0.23462893322E-01  0.51100000000E-03 0. -1.
</event>
<event>
 8    1  0.1176534E+005  0.1043930E+01  0.7957747E-01            NaN
         13   -1    0    0    0    0  0.00000000000E+00  0.00000000000E+00  0.74505805969E-08  0.10566000000E+00  0.10566000000E+00 0. -1.
     999900   -1    0    0    0    0 -0.00000000000E+00 -0.00000000000E+00 -0.74505805969E-08  0.93827000000E+00  0.93827000000E+00 0.  1.
     999902    2    1    2    0    0  0.11096159190E-01 -0.13945003788E-01  0.14756529799E-01  0.10207925185E+01  0.10205302655E+01 0.  0.
     999903    2    3    3    0    0 -0.95560992551E-01  0.53839600229E-01 -0.63513160523E-01  0.12832591127E+00  0.20075161109E-01 0.  0.
         14    1    1    2    0    0 -0.11096159190E-01  0.13945003788E-01 -0.14756529799E-01  0.23137481521E-01  0.00000000000E+00 0.  1.
     999901    1    3    3    0    0  0.10665715174E+00 -0.67784604017E-01  0.78269690323E-01  0.89246660721E+00  0.88000000000E+00 0. -1.
        -11    1    4    4    0    0 -0.77893462566E-01  0.41943374271E-01 -0.41598467208E-01  0.97761606732E-01  0.51100000000E-03 0.  1.
         11    1    4    4    0    0 -0.17667529985E-01  0.11896225958E-01 -0.21914693315E-01  0.30564304538E-01  0.51100000000E-03 0. -1.
</event>
<event>
 8    1  0.1176534E+005  0.1043930E+01  0.7957747E-01            NaN
         13   -1    0    0    0    0  0.00000000000E+00  0.00000000000E+00  0.74505805969E-08  0.10566000000E+00  0.10566000000E+00 0. -1.
     999900   -1    0    0    0    0 -0.00000000000E+00 -0.00000000000E+00 -0.74505805969E-08  0.93827000000E+00  0.93827000000E+00 0. -1.
     999902    2    1    2    0    0 -0.46898396085E-02 -0.57783292229E-02 -0.21746807760E-01  0.10209450629E+01  0.10206862957E+01 0.  0.
     999903    2    3    3    0    0  0.19637689819E-01  0.99887603758E-01 -0.81993837411E-01  0.13224555092E+00  0.20067987381E-01 0.  0.
         14    1    1    2    0    0  0.46898396085E-02  0.57783292229E-02  0.21746807760E-01  0.22984937065E-01  0.00000000000E+00 0. -1.
     999901    1    3    3    0    0 -0.24327529428E-01 -0.10566593298E+00  0.60247029652E-01  0.88869951202E+00  0.88000000000E+00 0.  1.
        -11    1    4    4    0    0  0.19954177049E-01  0.56642364705E-01 -0.53698456805E-01  0.80562472935E-01  0.51100000000E-03 0. -1.
         11    1    4    4    0    0 -0.31648722992E-03  0.43245239054E-01 -0.28295380606E-01  0.51683077981E-01  0.51100000000E-03 0.  1.
</event>
<event>
 8    1  0.1176534E+005  0.1043930E+01  0.7957747E-01            NaN
         13   -1    0    0    0    0  0.00000000000E+00  0.00000000000E+00  0.74505805969E-08  0.10566000000E+00  0.10566000000E+00 0.  1.
     999900   -1    0    0    0    0 -0.00000000000E+00 -0.00000000000E+00 -0.74505805969E-08  0.93827000000E+00  0.93827000000E+00 0.  1.
     999902    2    1    2    0    0 -0.15140451550E-01 -0.17966975687E-01  0.58205034740E-02  0.10197241381E+01  0.10194368024E+01 0.  0.
     999903    2    3    3    0    0 -0.12391284550E+00 -0.42156338495E-01  0.11347921531E-01  0.13268010804E+00  0.18538759129E-01 0.  0.
         14    1    1    2    0    0  0.15140451550E-01  0.17966975687E-01 -0.58205034740E-02  0.24205861877E-01  0.00000000000E+00 0. -1.
     999901    1    3    3    0    0  0.10877239395E+00  0.24189362808E-01 -0.55274180566E-02  0.88704403009E+00  0.88000000000E+00 0.  1.
        -11    1    4    4    0    0 -0.66888023318E-01 -0.28928175915E-01 -0.84658671691E-03  0.72882267083E-01  0.51100000000E-03 0. -1.
         11    1    4    4    0    0 -0.57024822185E-01 -0.13228162581E-01  0.12194508247E-01  0.59797840955E-01  0.51100000000E-03 0.  1.
</event>
<event>
 8    1  0.1176534E+005  0.1043930E+01  0.7957747E-01            NaN
         13   -1    0    0    0    0  0.00000000000E+00  0.00000000000E+00  0.74505805969E-08  0.10566000000E+00  0.10566000000E+00 0.  1.
     999900   -1    0    0    0    0 -0.00000000000E+00 -0.00000000000E+00 -0.74505805969E-08  0.93827000000E+00  0.93827000000E+00 0.  1.
     999902    2    1    2    0    0 -0.20173696517E-01 -0.11866314381E-01  0.17522672802E-02  0.10204596381E+01  0.10201896956E+01 0.  0.
     999903    2    3    3    0    0 -0.87302857961E-01  0.84831095121E-01 -0.45291002616E-01  0.13137596228E+00  0.19755121880E-01 0.  0.
         14    1    1    2    0    0  0.20173696517E-01  0.11866314381E-01 -0.17522672802E-02  0.23470361922E-01  0.00000000000E+00 0. -1.
     999901    1    3    3    0    0  0.67129161444E-01 -0.96697409502E-01  0.47043269896E-01  0.88908367579E+00  0.88000000000E+00 0. -1.
        -11    1    4    4    0    0 -0.21748350681E-01  0.33465725494E-01 -0.11930429098E-01  0.41659834369E-01  0.51100000000E-03 0. -1.
         11    1    4    4    0    0 -0.65554507280E-01  0.51365369627E-01 -0.33360573518E-01  0.89716127915E-01  0.51100000000E-03 0.  1.
</event>
<event>
 8    1  0.1176534E+005  0.1043930E+01  0.7957747E-01            NaN
         13   -1    0    0    0    0  0.00000000000E+00  0.00000000000E+00  0.74505805969E-08  0.10566000000E+00  0.10566000000E+00 0. -1.
     999900   -1    0    0    0    0 -0.00000000000E+00 -0.00000000000E+00 -0.74505805969E-08  0.93827000000E+00  0.93827000000E+00 0. -1.
     999902    2    1    2    0    0 -0.19420917097E-01 -0.83187143330E-02  0.10641414297E-01  0.10202738649E+01  0.10199995817E+01 0.  0.
     999903    2    3    3    0    0  0.85159302744E-01  0.91180320122E-01  0.24743926129E-01  0.12840169858E+00  0.17572043033E-01 0.  0.
         14    1    1    2    0    0  0.19420917097E-01  0.83187143330E-02 -0.10641414297E-01  0.23656135088E-01  0.00000000000E+00 0.  1.
     999901    1    3    3    0    0 -0.10458021984E+00 -0.99499034455E-01 -0.14102511832E-01  0.89187216633E+00  0.88000000000E+00 0. -1.
        -11    1    4    4    0    0  0.66450011244E-01  0.77100035480E-01  0.25633506901E-01  0.10496359970E+00  0.51100000000E-03 0.  1.
         11    1    4    4    0    0  0.18709291501E-01  0.14080284642E-01 -0.88958077181E-03  0.23438098878E-01  0.51100000000E-03 0. -1.
</event>
<event>
 7    1  0.1176534E+005  0.1043930E+01  0.7957747E-01            NaN
         13   -1    0    0    0    0  0.00000000000E+00  0.00000000000E+00  0.74505805969E-08  0.10566000000E+00  0.10566000000E+00 0. -1.
     999900   -1    0    0    0    0 -0.00000000000E+00 -0.00000000000E+00 -0.74505805969E-08  0.93827000000E+00  0.93827000000E+00 0.  1.
     999902    2    1    2    0    0 -0.57681536069E-02  0.14041398192E-01  0.17831894034E-01  0.10205118680E+01  0.10202431396E+01 0.  0.
         14    1    1    2    0    0  0.57681536069E-02 -0.14041398192E-01 -0.17831894034E-01  0.23418131951E-01  0.00000000000E+00 0.  1.
     999901    1    3    3    0    0  0.11730761249E-01 -0.70847982446E-01 -0.67353278363E-01  0.88549054850E+00  0.88000000000E+00 0.  1.
        -11    1    3    3    0    0 -0.82935129951E-02  0.57572294118E-01  0.16397228135E-01  0.60435764406E-01  0.51100000000E-03 0.  1.
         11    1    3    3    0    0 -0.92054018611E-02  0.27317086519E-01  0.68787944262E-01  0.74585555144E-01  0.51100000000E-03 0. -1.
</event>
<event>
 8    1  0.1176534E+005  0.1043930E+01  0.7957747E-01            NaN
         13   -1    0    0    0    0  0.00000000000E+00  0.00000000000E+00  0.74505805969E-08  0.10566000000E+00  0.10566000000E+00 0.  1.
     999900   -1    0    0    0    0 -0.00000000000E+00 -0.00000000000E+00 -0.74505805969E-08  0.93827000000E+00  0.93827000000E+00 0.  1.
     999902    2    1    2    0    0  0.88134080932E-02 -0.23139314169E-02 -0.22170250087E-01  0.10199602184E+01  0.10196785262E+01 0.  0.
     999903    2    3    3    0    0 -0.93445392857E-01 -0.47576659843E-01  0.70355622574E-01  0.12807086761E+00  0.21369452343E-01 0.  0.
         14    1    1    2    0    0 -0.88134080932E-02  0.23139314169E-02  0.22170250087E-01  0.23969781596E-01  0.00000000000E+00 0.  1.
     999901    1    3    3    0    0  0.10225880095E+00  0.45262728426E-01 -0.92525872661E-01  0.89188935080E+00  0.88000000000E+00 0. -1.
        -11    1    4    4    0    0 -0.56918536430E-01 -0.26950258632E-01  0.29621071739E-01  0.69596732981E-01  0.51100000000E-03 0. -1.
         11    1    4    4    0    0 -0.36526856427E-01 -0.20626401212E-01  0.40734550835E-01  0.58474134625E-01  0.51100000000E-03 0.  1.
</event>
<event>
 8    1  0.1176534E+005  0.1043930E+01  0.7957747E-01            NaN
         13   -1    0    0    0    0  0.00000000000E+00  0.00000000000E+00  0.74505805969E-08  0.10566000000E+00  0.10566000000E+00 0.  1.
     999900   -1    0    0    0    0 -0.00000000000E+00 -0.00000000000E+00 -0.74505805969E-08  0.93827000000E+00  0.93827000000E+00 0. -1.
     999902    2    1    2    0    0 -0.15015982944E-01  0.96100790852E-04 -0.18234153643E-01  0.10203085407E+01  0.10200350704E+01 0.  0.
     999903    2    3    3    0    0  0.84945948227E-02  0.92994949585E-01  0.86521239530E-01  0.12892947671E+00  0.20412405161E-01 0.  0.
         14    1    1    2    0    0  0.15015982944E-01 -0.96100790852E-04  0.18234153643E-01  0.23621459273E-01  0.00000000000E+00 0.  1.
     999901    1    3    3    0    0 -0.23510577766E-01 -0.92898848794E-01 -0.10475539317E+00  0.89137906402E+00  0.88000000000E+00 0. -1.
        -11    1    4    4    0    0 -0.17005509596E-02  0.61383307919E-01  0.64594934295E-01  0.89126702072E-01  0.51100000000E-03 0.  1.
         11    1    4    4    0    0  0.10195145782E-01  0.31611641666E-01  0.21926305235E-01  0.39802774634E-01  0.51100000000E-03 0. -1.
</event>
<event>
 8    1  0.1176534E+005  0.1043930E+01  0.7957747E-01            NaN
         13   -1    0    0    0    0  0.00000000000E+00  0.00000000000E+00  0.74505805969E-08  0.10566000000E+00  0.10566000000E+00 0. -1.
     999900   -1    0    0    0    0 -0.00000000000E+00 -0.00000000000E+00 -0.74505805969E-08  0.93827000000E+00  0.93827000000E+00 0. -1.
     999902    2    1    2    0    0 -0.90733051482E-02 -0.17880410407E-01  0.86713169364E-02  0.10220845044E+01  0.10218510206E+01 0.  0.
     999903    2    3    3    0    0  0.48467826618E-01  0.91322377095E-01 -0.75481896133E-01  0.12949389612E+00  0.19551105135E-01 0.  0.
         14    1    1    2    0    0  0.90733051482E-02  0.17880410407E-01 -0.86713169364E-02  0.21845495647E-01  0.00000000000E+00 0.  1.
     999901    1    3    3    0    0 -0.57541131767E-01 -0.10920278750E+00  0.84153213070E-01  0.89259060824E+00  0.88000000000E+00 0. -1.
        -11    1    4    4    0    0  0.37585083817E-01  0.64339731018E-01 -0.43619237864E-01  0.86343144174E-01  0.51100000000E-03 0. -1.
         11    1    4    4    0    0  0.10882742802E-01  0.26982646078E-01 -0.31862658269E-01  0.43150751943E-01  0.51100000000E-03 0.  1.
</event>
<event>
 8    1  0.1186831E+005  0.1043930E+01  0.7957747E-01            NaN
         13   -1    0    0    0    0  0.00000000000E+00  0.00000000000E+00  0.74505805969E-08  0.10566000000E+00  0.10566000000E+00 0. -1.
     999900   -1    0    0    0    0 -0.00000000000E+00 -0.00000000000E+00 -0.74505805969E-08  0.93827000000E+00  0.93827000000E+00 0. -1.
     999902    2    1    2    0    0 -0.81827710640E-02 -0.21693814810E-01 -0.67518570266E-02  0.10197811508E+01  0.10194951832E+01 0.  0.
     999903    2    3    3    0    0 -0.78571772386E-01 -0.67638383804E-01  0.79518940742E-01  0.13157612636E+00  0.15509374989E-01 0.  0.
         14    1    1    2    0    0  0.81827710640E-02  0.21693814810E-01  0.67518570266E-02  0.24148849177E-01  0.00000000000E+00 0. -1.
     999901    1    3    3    0    0  0.70389001322E-01  0.45944568995E-01 -0.86270797769E-01  0.88820502446E+00  0.88000000000E+00 0. -1.
        -11    1    4    4    0    0 -0.47289462094E-01 -0.41066477180E-01  0.57354176887E-01  0.84926506466E-01  0.51100000000E-03 0. -1.
         11    1    4    4    0    0 -0.31282310292E-01 -0.26571906624E-01  0.22164763856E-01  0.46649619898E-01  0.51100000000E-03 0.  1.
</event>
<event>
 8    1  0.1176534E+005  0.1043930E+01  0.7957747E-01            NaN
         13   -1    0    0    0    0  0.00000000000E+00  0.00000000000E+00  0.74505805969E-08  0.10566000000E+00  0.10566000000E+00 0. -1.
     999900   -1    0    0    0    0 -0.00000000000E+00 -0.00000000000E+00 -0.74505805969E-08  0.93827000000E+00  0.93827000000E+00 0. -1.
     999902    2    1    2    0    0  0.13461302794E-01 -0.13930871017E-01  0.92219339095E-02  0.10224749329E+01  0.10222498073E+01 0.  0.
     999903    2    3    3    0    0  0.11328153868E+00  0.57701334685E-01  0.35828254299E-01  0.13354121844E+00  0.19683551140E-01 0.  0.
         14    1    1    2    0    0 -0.13461302794E-01  0.13930871017E-01 -0.92219339095E-02  0.21455067123E-01  0.00000000000E+00 0.  1.
     999901    1    3    3    0    0 -0.99820235883E-01 -0.71632205702E-01 -0.26606320390E-01  0.88893371444E+00  0.88000000000E+00 0. -1.
        -11    1    4    4    0    0  0.49668460076E-01  0.24993956008E-01  0.25842356735E-01  0.61316737404E-01  0.51100000000E-03 0. -1.
         11    1    4    4    0    0  0.63613078602E-01  0.32707378676E-01  0.99858975640E-02  0.72224481031E-01  0.51100000000E-03 0.  1.
</event>
<event>
 8    1  0.1176534E+005  0.1043930E+01  0.7957747E-01            NaN
         13   -1    0    0    0    0  0.00000000000E+00  0.00000000000E+00  0.74505805969E-08  0.10566000000E+00  0.10566000000E+00 0.  1.
     999900   -1    0    0    0    0 -0.00000000000E+00 -0.00000000000E+00 -0.74505805969E-08  0.93827000000E+00  0.93827000000E+00 0. -1.
     999902    2    1    2    0    0 -0.21671132586E-01 -0.13855434414E-02 -0.38021722117E-02  0.10218842695E+01  0.10216464389E+01 0.  0.
     999903    2    3    3    0    0 -0.58472535364E-01  0.11756962343E+00  0.10073456648E-01  0.13301014569E+00  0.18670045008E-01 0.  0.
         14    1    1    2    0    0  0.21671132586E-01  0.13855434414E-02  0.38021722117E-02  0.22045730464E-01  0.00000000000E+00 0. -1.
     999901    1    3    3    0    0  0.36801402779E-01 -0.11895516687E+00 -0.13875628860E-01  0.88887412385E+00  0.88000000000E+00 0. -1.
        -11    1    4    4    0    0 -0.52776953837E-01  0.88848443571E-01  0.80028941901E-02  0.10365211150E+00  0.51100000000E-03 0.  1.
         11    1    4    4    0    0 -0.56955815276E-02  0.28721179862E-01  0.20705624584E-02  0.29358034190E-01  0.51100000000E-03 0. -1.
</event>
<event>
 8    1  0.1176534E+005  0.1043930E+01  0.7957747E-01            NaN
         13   -1    0    0    0    0  0.00000000000E+00  0.00000000000E+00  0.74505805969E-08  0.10566000000E+00  0.10566000000E+00 0.  1.
     999900   -1    0    0    0    0 -0.00000000000E+00 -0.00000000000E+00 -0.74505805969E-08  0.93827000000E+00  0.93827000000E+00 0.  1.
     999902    2    1    2    0    0 -0.18116132162E-01 -0.28990915358E-02 -0.15863689889E-01  0.10196760182E+01  0.10193875252E+01 0.  0.
     999903    2    3    3    0    0  0.59990837440E-01 -0.10541589159E+00  0.40377386107E-01  0.12851191905E+00  0.13174568378E-01 0.  0.
         14    1    1    2    0    0  0.18116132162E-01  0.28990915358E-02  0.15863689889E-01  0.24253981799E-01  0.00000000000E+00 0.  1.
     999901    1    3    3    0    0 -0.78106969602E-01  0.10251680005E+00 -0.56241075996E-01  0.89116409915E+00  0.88000000000E+00 0. -1.
        -11    1    4    4    0    0  0.30585003469E-02 -0.33200070581E-02  0.40861921241E-02  0.61102339000E-02  0.51100000000E-03 0. -1.
         11    1    4    4    0    0  0.56932337093E-01 -0.10209588453E+00  0.36291193983E-01  0.12240168515E+00  0.51100000000E-03 0.  1.
</event>
<event>
 8    1  0.1176534E+005  0.1043930E+01  0.7957747E-01            NaN
         13   -1    0    0    0    0  0.00000000000E+00  0.00000000000E+00  0.74505805969E-08  0.10566000000E+00  0.10566000000E+00 0.  1.
     999900   -1    0    0    0    0 -0.00000000000E+00 -0.00000000000E+00 -0.74505805969E-08  0.93827000000E+00  0.93827000000E+00 0.  1.
     999902    2    1    2    0    0  0.42671919855E-02  0.56723294992E-02 -0.22715834200E-01  0.10201309796E+01  0.10198533336E+01 0.  0.
     999903    2    3    3    0    0 -0.59714346027E-01  0.78213570430E-01  0.82137206208E-01  0.12864344242E+00  0.10929268603E-01 0.  0.
         14    1    1    2    0    0 -0.42671919855E-02 -0.56723294992E-02  0.22715834200E-01  0.23799020417E-01  0.00000000000E+00 0.  1.
     999901    1    3    3    0    0  0.63981538012E-01 -0.72541240931E-01 -0.10485304041E+00  0.89148753717E+00  0.88000000000E+00 0.  1.
        -11    1    4    4    0    0 -0.31272420138E-01  0.34003766104E-01  0.33996613821E-01  0.57360711666E-01  0.51100000000E-03 0. -1.
         11    1    4    4    0    0 -0.28441925888E-01  0.44209804326E-01  0.48140592388E-01  0.71282730750E-01  0.51100000000E-03 0.  1.
</event>
<event>
 8    1  0.1176534E+005  0.1043930E+01  0.7957747E-01            NaN
         13   -1    0    0    0    0  0.00000000000E+00  0.00000000000E+00  0.74505805969E-08  0.10566000000E+00  0.10566000000E+00 0. -1.
     999900   -1    0    0    0    0 -0.00000000000E+00 -0.00000000000E+00 -0.74505805969E-08  0.93827000000E+00  0.93827000000E+00 0. -1.
     999902    2    1    2    0    0  0.12485533144E-01  0.12790761235E-01 -0.16237752287E-01  0.10197813621E+01  0.10194953996E+01 0.  0.
     999903    2    3    3    0    0  0.10579258920E+00  0.59538293176E-01  0.46474460246E-01  0.13139835913E+00  0.19203464328E-01 0.  0.
         14    1    1    2    0    0 -0.12485533144E-01 -0.12790761235E-01  0.16237752287E-01  0.24148637853E-01  0.00000000000E+00 0. -1.
     999901    1    3    3    0    0 -0.93307056057E-01 -0.46747531941E-01 -0.62712212533E-01  0.88838300302E+00  0.88000000000E+00 0. -1.
        -11    1    4    4    0    0  0.41804381637E-01  0.15538790489E-01  0.10542907806E-01  0.45830932349E-01  0.51100000000E-03 0. -1.
         11    1    4    4    0    0  0.63988207563E-01  0.43999502686E-01  0.35931552440E-01  0.85567426779E-01  0.51100000000E-03 0.  1.
</event>
<event>
 8    1  0.1176534E+005  0.1043930E+01  0.7957747E-01            NaN
         13   -1    0    0    0    0  0.00000000000E+00  0.00000000000E+00  0.74505805969E-08  0.10566000000E+00  0.10566000000E+00 0. -1.
     999900   -1    0    0    0    0 -0.00000000000E+00 -0.00000000000E+00 -0.74505805969E-08  0.93827000000E+00  0.93827000000E+00 0. -1.
     999902    2    1    2    0    0 -0.12368870673E-01  0.16030753555E-01  0.18439626997E-01  0.10165439841E+01  0.10161750232E+01 0.  0.
     999903    2    3    3    0    0  0.59077339631E-02  0.94016114564E-01  0.87617133937E-01  0.13020247079E+00  0.20049691329E-01 0.  0.
         14    1    1    2    0    0  0.12368870673E-01 -0.16030753555E-01 -0.18439626997E-01  0.27386015867E-01  0.00000000000E+00 0.  1.
     999901    1    3    3    0    0 -0.18276604636E-01 -0.77985361009E-01 -0.69177506940E-01  0.88634151334E+00  0.88000000000E+00 0. -1.
        -11    1    4    4    0    0  0.95045790258E-02  0.21456108022E-01  0.24979410341E-01  0.34277305261E-01  0.51100000000E-03 0. -1.
         11    1    4    4    0    0 -0.35968450627E-02  0.72560006542E-01  0.62637723595E-01  0.95925165530E-01  0.51100000000E-03 0.  1.
</event>
<event>
 8    1  0.1176534E+005  0.1043930E+01  0.7957747E-01            NaN
         13   -1    0    0    0    0  0.00000000000E+00  0.00000000000E+00  0.74505805969E-08  0.10566000000E+00  0.10566000000E+00 0.  1.
     999900   -1    0    0    0    0 -0.00000000000E+00 -0.00000000000E+00 -0.74505805969E-08  0.93827000000E+00  0.93827000000E+00 0.  1.
     999902    2    1    2    0    0  0.54839365027E-02 -0.28784604121E-03  0.22621091074E-01  0.10206518949E+01  0.10203864074E+01 0.  0.
     999903    2    3    3    0    0 -0.49006981904E-01 -0.11346590685E+00 -0.34994941363E-01  0.12986676884E+00  0.19092811133E-01 0.  0.
         14    1    1    2    0    0 -0.54839365027E-02  0.28784604121E-03 -0.22621091074E-01  0.23278105084E-01  0.00000000000E+00 0. -1.
     999901    1    3    3    0    0  0.54490918407E-01  0.11317806081E+00  0.57616032437E-01  0.89078512607E+00  0.88000000000E+00 0. -1.
        -11    1    4    4    0    0 -0.19819130045E-01 -0.29062228798E-01 -0.15555672099E-01  0.38466233425E-01  0.51100000000E-03 0.  1.
         11    1    4    4    0    0 -0.29187851859E-01 -0.84403678049E-01 -0.19439269264E-01  0.91400535419E-01  0.51100000000E-03 0. -1.
</event>
<event>
 8    1  0.1176534E+005  0.1043930E+01  0.7957747E-01            NaN
         13   -1    0    0    0    0  0.00000000000E+00  0.00000000000E+00  0.74505805969E-08  0.10566000000E+00  0.10566000000E+00 0. -1.
     999900   -1    0    0    0    0 -0.00000000000E+00 -0.00000000000E+00 -0.74505805969E-08  0.93827000000E+00  0.93827000000E+00 0.  1.
     999902    2    1    2    0    0  0.86288014030E-02  0.16712959377E-01 -0.13819186924E-01  0.10205901381E+01  0.10203232237E+01 0.  0.
     999903    2    3    3    0    0  0.59792198994E-02  0.10098333690E-01  0.12724829086E+00  0.12932653692E+00  0.19887136820E-01 0.  0.
         14    1    1    2    0    0 -0.86288014030E-02 -0.16712959377E-01  0.13819186924E-01  0.23339861868E-01  0.00000000000E+00 0. -1.
     999901    1    3    3    0    0  0.26495815036E-02  0.66146256863E-02 -0.14106747779E+00  0.89126360121E+00  0.88000000000E+00 0.  1.
        -11    1    4    4    0    0 -0.67384730818E-02  0.74620401427E-02  0.52498570310E-01  0.53455122001E-01  0.51100000000E-03 0.  1.
         11    1    4    4    0    0  0.12717692981E-01  0.26362935477E-02  0.74749720551E-01  0.75871414920E-01  0.51100000000E-03 0. -1.
</event>
<event>
 8    1  0.1176534E+005  0.1043930E+01  0.7957747E-01            NaN
         13   -1    0    0    0    0  0.00000000000E+00  0.00000000000E+00  0.74505805969E-08  0.10566000000E+00  0.10566000000E+00 0.  1.
     999900   -1    0    0    0    0 -0.00000000000E+00 -0.00000000000E+00 -0.74505805969E-08  0.93827000000E+00  0.93827000000E+00 0. -1.
     999902    2    1    2    0    0 -0.20620023920E-03 -0.12100651482E-01  0.13262732769E-01  0.10259753804E+01  0.10258182650E+01 0.  0.
     999903    2    3    3    0    0 -0.60257413765E-01 -0.97159307515E-01 -0.70707044942E-01  0.13586749548E+00  0.19738368040E-01 0.  0.
         14    1    1    2    0    0  0.20620023920E-03  0.12100651482E-01 -0.13262732769E-01  0.17954619610E-01  0.00000000000E+00 0. -1.
     999901    1    3    3    0    0  0.60051213526E-01  0.85058656033E-01  0.83969777711E-01  0.89010788491E+00  0.88000000000E+00 0.  1.
        -11    1    4    4    0    0 -0.17859003989E-01 -0.14155064993E-01 -0.14851713492E-01  0.27205595070E-01  0.51100000000E-03 0.  1.
         11    1    4    4    0    0 -0.42398409776E-01 -0.83004242522E-01 -0.55855331450E-01  0.10866190041E+00  0.51100000000E-03 0. -1.
</event>
<event>
 8    1  0.1176534E+005  0.1043930E+01  0.7957747E-01            NaN
         13   -1    0    0    0    0  0.00000000000E+00  0.00000000000E+00  0.74505805969E-08  0.10566000000E+00  0.10566000000E+00 0.  1.
     999900   -1    0    0    0    0 -0.00000000000E+00 -0.00000000000E+00 -0.74505805969E-08  0.93827000000E+00  0.93827000000E+00 0. -1.
     999902    2    1    2    0    0 -0.67854743474E-02 -0.15887518939E-01 -0.16932701850E-01  0.10197396649E+01  0.10194527021E+01 0.  0.
     999903    2    3    3    0    0  0.21034877388E-01 -0.12713579309E+00  0.13974957903E-01  0.13176138031E+00  0.23659795876E-01 0.  0.
         14    1    1    2    0    0  0.67854743474E-02  0.15887518939E-01  0.16932701850E-01  0.24190335097E-01  0.00000000000E+00 0.  1.
     999901    1    3    3    0    0 -0.27820351735E-01  0.11124827416E+00 -0.30907659753E-01  0.88797828459E+00  0.88000000000E+00 0.  1.
        -11    1    4    4    0    0  0.83247857223E-02 -0.93411473328E-01  0.20812425397E-02  0.93806173028E-01  0.51100000000E-03 0. -1.
         11    1    4    4    0    0  0.12710091665E-01 -0.33724319767E-01  0.11893715363E-01  0.37955207284E-01  0.51100000000E-03 0.  1.
</event>
<event>
 8    1  0.1176534E+005  0.1043930E+01  0.7957747E-01            NaN
         13   -1    0    0    0    0  0.00000000000E+00  0.00000000000E+00  0.74505805969E-08  0.10566000000E+00  0.10566000000E+00 0. -1.
     999900   -1    0    0    0    0 -0.00000000000E+00 -0.00000000000E+00 -0.74505805969E-08  0.93827000000E+00  0.93827000000E+00 0. -1.
     999902    2    1    2    0    0 -0.30871251697E-02  0.13573651592E-01  0.18918566975E-01  0.10204419917E+01  0.10201716384E+01 0.  0.
     999903    2    3    3    0    0 -0.46293568490E-01 -0.74334923515E-01  0.96217434658E-01  0.13163952245E+00  0.20059755791E-01 0.  0.
         14    1    1    2    0    0  0.30871251697E-02 -0.13573651592E-01 -0.18918566975E-01  0.23488008339E-01  0.00000000000E+00 0.  1.
     999901    1    3    3    0    0  0.43206443320E-01  0.87908575107E-01 -0.77298867683E-01  0.88880246921E+00  0.88000000000E+00 0.  1.
        -11    1    4    4    0    0 -0.19337491296E-01 -0.44912603761E-01  0.62764804405E-01  0.79566087871E-01  0.51100000000E-03 0. -1.
         11    1    4    4    0    0 -0.26956077195E-01 -0.29422319755E-01  0.33452630253E-01  0.52073434583E-01  0.51100000000E-03 0.  1.
</event>
<event>
 8    1  0.1176534E+005  0.1043930E+01  0.7957747E-01            NaN
         13   -1    0    0    0    0  0.00000000000E+00  0.00000000000E+00  0.74505805969E-08  0.10566000000E+00  0.10566000000E+00 0.  1.
     999900   -1    0    0    0    0 -0.00000000000E+00 -0.00000000000E+00 -0.74505805969E-08  0.93827000000E+00  0.93827000000E+00 0. -1.
     999902    2    1    2    0    0  0.10984962551E-01  0.12985189189E-01 -0.15698218678E-01  0.10207844041E+01  0.10205219650E+01 0.  0.
     999903    2    3    3    0    0  0.66069120673E-01  0.11199588647E+00  0.15060496501E-01  0.13298742211E+00  0.23465476579E-01 0.  0.
         14    1    1    2    0    0 -0.10984962551E-01 -0.12985189189E-01  0.15698218678E-01  0.23145595913E-01  0.00000000000E+00 0.  1.
     999901    1    3    3    0    0 -0.55084158123E-01 -0.99010697282E-01 -0.30758715180E-01  0.88779698198E+00  0.88000000000E+00 0. -1.
        -11    1    4    4    0    0  0.44638727695E-01  0.78513029864E-01 -0.43291892608E-03  0.90318106759E-01  0.51100000000E-03 0. -1.
         11    1    4    4    0    0  0.21430392978E-01  0.33482856606E-01  0.15493415427E-01  0.42669315348E-01  0.51100000000E-03 0.  1.
</event>
<event>
 8    1  0.1176534E+005  0.1043930E+01  0.7957747E-01            NaN
         13   -1    0    0    0    0  0.00000000000E+00  0.00000000000E+00  0.74505805969E-08  0.10566000000E+00  0.10566000000E+00 0.  1.
     999900   -1    0    0    0    0 -0.00000000000E+00 -0.00000000000E+00 -0.74505805969E-08  0.93827000000E+00  0.93827000000E+00 0.  1.
     999902    2    1    2    0    0 -0.20647388932E-01  0.10395929379E-01 -0.24880437141E-02  0.10206796155E+01  0.10204147672E+01 0.  0.
     999903    2    3    3    0    0 -0.26143227730E-01  0.51272549665E-01  0.11681291402E+00  0.13167240472E+00  0.19494167727E-01 0.  0.
         14    1    1    2    0    0  0.20647388932E-01 -0.10395929379E-01  0.24880437141E-02  0.23250384489E-01  0.00000000000E+00 0.  1.
     999901    1    3    3    0    0  0.54958387983E-02 -0.40876620286E-01 -0.11930095774E+00  0.88900721080E+00  0.88000000000E+00 0.  1.
        -11    1    4    4    0    0 -0.10016554295E-01  0.29822852926E-01  0.44181351424E-01  0.54240085281E-01  0.51100000000E-03 0. -1.
         11    1    4    4    0    0 -0.16126673435E-01  0.21449696738E-01  0.72631562600E-01  0.77432319434E-01  0.51100000000E-03 0.  1.
</event>
<event>
 8    1  0.1176534E+005  0.1043930E+01  0.7957747E-01            NaN
         13   -1    0    0    0    0  0.00000000000E+00  0.00000000000E+00  0.74505805969E-08  0.10566000000E+00  0.10566000000E+00 0.  1.
     999900   -1    0    0    0    0 -0.00000000000E+00 -0.00000000000E+00 -0.74505805969E-08  0.93827000000E+00  0.93827000000E+00 0.  1.
     999902    2    1    2    0    0  0.98682051809E-02  0.19355910162E-01  0.94190094785E-02  0.10202498296E+01  0.10199749822E+01 0.  0.
     999903    2    3    3    0    0  0.64503912809E-01 -0.10577663549E+00  0.31747242500E-01  0.12944021775E+00  0.19935676119E-01 0.  0.
         14    1    1    2    0    0 -0.98682051809E-02 -0.19355910162E-01 -0.94190094785E-02  0.23680170422E-01  0.00000000000E+00 0. -1.
     999901    1    3    3    0    0 -0.54635707628E-01  0.12513254565E+00 -0.22328233021E-01  0.89080961182E+00  0.88000000000E+00 0. -1.
        -11    1    4    4    0    0  0.30877535972E-01 -0.62995517551E-01  0.10124462374E-01  0.70884577438E-01  0.51100000000E-03 0. -1.
         11    1    4    4    0    0  0.33626376837E-01 -0.42781117939E-01  0.21622780126E-01  0.58555640315E-01  0.51100000000E-03 0.  1.
</event>
<event>
 8    1  0.1176534E+005  0.1043930E+01  0.7957747E-01            NaN
         13   -1    0    0    0    0  0.00000000000E+00  0.00000000000E+00  0.74505805969E-08  0.10566000000E+00  0.10566000000E+00 0.  1.
     999900   -1    0    0    0    0 -0.00000000000E+00 -0.00000000000E+00 -0.74505805969E-08  0.93827000000E+00  0.93827000000E+00 0. -1.
     999902    2    1    2    0    0 -0.13799670265E-02  0.11009890028E-02  0.27491775391E-01  0.10163816026E+01  0.10160081928E+01 0.  0.
     999903    2    3    3    0    0 -0.10667873758E+00  0.13466894796E-01 -0.61691924368E-01  0.12554240329E+00  0.19831570400E-01 0.  0.
         14    1    1    2    0    0  0.13799670265E-02 -0.11009890028E-02 -0.27491775391E-01  0.27548397412E-01  0.00000000000E+00 0. -1.
     999901    1    3    3    0    0  0.10529877055E+00 -0.12365905793E-01  0.89183699760E-01  0.89083919930E+00  0.88000000000E+00 0.  1.
        -11    1    4    4    0    0 -0.42859767720E-01  0.30766174995E-02 -0.14001517262E-01  0.45196558175E-01  0.51100000000E-03 0.  1.
         11    1    4    4    0    0 -0.63818969858E-01  0.10390277296E-01 -0.47690407106E-01  0.80345845113E-01  0.51100000000E-03 0. -1.
</event>
<event>
 8    1  0.1176534E+005  0.1043930E+01  0.7957747E-01            NaN
         13   -1    0    0    0    0  0.00000000000E+00  0.00000000000E+00  0.74505805969E-08  0.10566000000E+00  0.10566000000E+00 0. -1.
     999900   -1    0    0    0    0 -0.00000000000E+00 -0.00000000000E+00 -0.74505805969E-08  0.93827000000E+00  0.93827000000E+00 0.  1.
     999902    2    1    2    0    0  0.20728509668E-01 -0.88640554548E-02 -0.54304711670E-02  0.10207409377E+01  0.10204775007E+01 0.  0.
     999903    2    3    3    0    0  0.10162704025E+00  0.61751138702E-01 -0.56192674686E-01  0.13276127624E+00  0.18074328201E-01 0.  0.
         14    1    1    2    0    0 -0.20728509668E-01  0.88640554548E-02  0.54304711670E-02  0.23189062277E-01  0.00000000000E+00 0. -1.
     999901    1    3    3    0    0 -0.80898530584E-01 -0.70615194157E-01  0.50762203519E-01  0.88797966148E+00  0.88000000000E+00 0. -1.
        -11    1    4    4    0    0  0.24109882447E-01  0.74262045061E-02 -0.75665506295E-02  0.26342907099E-01  0.51100000000E-03 0. -1.
         11    1    4    4    0    0  0.77517157805E-01  0.54324934196E-01 -0.48626124057E-01  0.10641836914E+00  0.51100000000E-03 0.  1.
</event>
<event>
 8    1  0.1176534E+005  0.1043930E+01  0.7957747E-01            NaN
         13   -1    0    0    0    0  0.00000000000E+00  0.00000000000E+00  0.74505805969E-08  0.10566000000E+00  0.10566000000E+00 0.  1.
     999900   -1    0    0    0    0 -0.00000000000E+00 -0.00000000000E+00 -0.74505805969E-08  0.93827000000E+00  0.93827000000E+00 0. -1.
     999902    2    1    2    0    0 -0.16580653316E-01 -0.18598080049E-01  0.10695656462E-01  0.10168153598E+01  0.10164537728E+01 0.  0.
     999903    2    3    3    0    0 -0.52140333764E-01 -0.28189692318E-01  0.11394824953E+00  0.13001347219E+00  0.20150092361E-01 0.  0.
         14    1    1    2    0    0  0.16580653316E-01  0.18598080049E-01 -0.10695656462E-01  0.27114640197E-01  0.00000000000E+00 0.  1.
     999901    1    3    3    0    0  0.35559680448E-01  0.95916122694E-02 -0.10325259307E+00  0.88680188761E+00  0.88000000000E+00 0. -1.
        -11    1    4    4    0    0 -0.11816626675E-01 -0.16926505101E-01  0.34510454275E-01  0.40216561466E-01  0.51100000000E-03 0. -1.
         11    1    4    4    0    0 -0.40323707088E-01 -0.11263187217E-01  0.79437795254E-01  0.89796910723E-01  0.51100000000E-03 0.  1.
</event>
<event>
 8    1  0.1176534E+005  0.1043930E+01  0.7957747E-01            NaN
         13   -1    0    0    0    0  0.00000000000E+00  0.00000000000E+00  0.74505805969E-08  0.10566000000E+00  0.10566000000E+00 0. -1.
     999900   -1    0    0    0    0 -0.00000000000E+00 -0.00000000000E+00 -0.74505805969E-08  0.93827000000E+00  0.93827000000E+00 0.  1.
     999902    2    1    2    0    0  0.11537324796E-01 -0.32553588748E-02  0.20682479751E-01  0.10200245154E+01  0.10197443502E+01 0.  0.
     999903    2    3    3    0    0 -0.76456988298E-01  0.88012632876E-01 -0.49382097538E-01  0.12818266259E+00  0.20007719139E-01 0.  0.
         14    1    1    2    0    0 -0.11537324796E-01  0.32553588748E-02 -0.20682479751E-01  0.23905484591E-01  0.00000000000E+00 0.  1.
     999901    1    3    3    0    0  0.87994313094E-01 -0.91267991751E-01  0.70064577290E-01  0.89184185282E+00  0.88000000000E+00 0. -1.
        -11    1    4    4    0    0 -0.38323370378E-01  0.55760864803E-01 -0.35153043858E-01  0.76249277860E-01  0.51100000000E-03 0.  1.
         11    1    4    4    0    0 -0.38133617920E-01  0.32251768073E-01 -0.14229053681E-01  0.51933384727E-01  0.51100000000E-03 0. -1.
</event>
<event>
 8    1  0.1176534E+005  0.1043930E+01  0.7957747E-01            NaN
         13   -1    0    0    0    0  0.00000000000E+00  0.00000000000E+00  0.74505805969E-08  0.10566000000E+00  0.10566000000E+00 0.  1.
     999900   -1    0    0    0    0 -0.00000000000E+00 -0.00000000000E+00 -0.74505805969E-08  0.93827000000E+00  0.93827000000E+00 0.  1.
     999902    2    1    2    0    0 -0.22002421207E-01 -0.55167448544E-02 -0.61391078157E-02  0.10204304328E+01  0.10201598103E+01 0.  0.
     999903    2    3    3    0    0  0.47917013680E-02  0.11772483783E+00  0.49767591525E-01  0.12968244841E+00  0.21415564752E-01 0.  0.
         14    1    1    2    0    0  0.22002421207E-01  0.55167448544E-02  0.61391078157E-02  0.23499567178E-01  0.00000000000E+00 0. -1.
     999901    1    3    3    0    0 -0.26794122575E-01 -0.12324158269E+00 -0.55906699340E-01  0.89074798441E+00  0.88000000000E+00 0.  1.
        -11    1    4    4    0    0 -0.13359463154E-03  0.74349537988E-01  0.20510551342E-01  0.77128564643E-01  0.51100000000E-03 0.  1.
         11    1    4    4    0    0  0.49252959995E-02  0.43375299846E-01  0.29257040183E-01  0.52553883764E-01  0.51100000000E-03 0. -1.
</event>
<event>
 8    1  0.1176534E+005  0.1043930E+01  0.7957747E-01            NaN
         13   -1    0    0    0    0  0.00000000000E+00  0.00000000000E+00  0.74505805969E-08  0.10566000000E+00  0.10566000000E+00 0. -1.
     999900   -1    0    0    0    0 -0.00000000000E+00 -0.00000000000E+00 -0.74505805969E-08  0.93827000000E+00  0.93827000000E+00 0. -1.
     999902    2    1    2    0    0  0.22862291059E-01 -0.89267476710E-02 -0.12188440174E-03  0.10193864462E+01  0.10190909384E+01 0.  0.
     999903    2    3    3    0    0  0.12165541013E+00  0.17047907832E-01  0.45061497284E-01  0.13232596289E+00  0.19721864578E-01 0.  0.
         14    1    1    2    0    0 -0.22862291059E-01  0.89267476710E-02  0.12188440174E-03  0.24543553782E-01  0.00000000000E+00 0. -1.
     999901    1    3    3    0    0 -0.98793119068E-01 -0.25974655502E-01 -0.45183381686E-01  0.88706048333E+00  0.88000000000E+00 0. -1.
        -11    1    4    4    0    0  0.43868720480E-01  0.36653026701E-02  0.25988853836E-01  0.51123191655E-01  0.51100000000E-03 0.  1.
         11    1    4    4    0    0  0.77786689646E-01  0.13382605161E-01  0.19072643449E-01  0.81202771234E-01  0.51100000000E-03 0. -1.
</event>
<event>
 7    1  0.1176534E+005  0.1043930E+01  0.7957747E-01            NaN
         13   -1    0    0    0    0  0.00000000000E+00  0.00000000000E+00  0.74505805969E-08  0.10566000000E+00  0.10566000000E+00 0. -1.
     999900   -1    0    0    0    0 -0.00000000000E+00 -0.00000000000E+00 -0.74505805969E-08  0.93827000000E+00  0.93827000000E+00 0.  1.
     999902    2    1    2    0    0  0.66486006825E-02  0.92232279419E-02 -0.20607470192E-01  0.10203940774E+01  0.10201226071E+01 0.  0.
         14    1    1    2    0    0 -0.66486006825E-02 -0.92232279419E-02  0.20607470192E-01  0.23535922596E-01  0.00000000000E+00 0. -1.
     999901    1    3    3    0    0 -0.10008109922E-01 -0.58351811931E-01  0.84938430262E-01  0.88606976766E+00  0.88000000000E+00 0. -1.
        -11    1    3    3    0    0 -0.10901205054E-01  0.39701284644E-01 -0.70996967669E-01  0.82072277982E-01  0.51100000000E-03 0.  1.
         11    1    3    3    0    0  0.27557915659E-01  0.27873755229E-01 -0.34548932785E-01  0.52252031765E-01  0.51100000000E-03 0. -1.
</event>
<event>
 8    1  0.1176534E+005  0.1043930E+01  0.7957747E-01            NaN
         13   -1    0    0    0    0  0.00000000000E+00  0.00000000000E+00  0.74505805969E-08  0.10566000000E+00  0.10566000000E+00 0. -1.
     999900   -1    0    0    0    0 -0.00000000000E+00 -0.00000000000E+00 -0.74505805969E-08  0.93827000000E+00  0.93827000000E+00 0.  1.
     999902    2    1    2    0    0  0.11579530185E-01  0.16218698708E-01 -0.12732051584E-01  0.10202818110E+01  0.10200077142E+01 0.  0.
     999903    2    3    3    0    0  0.44213878329E-01 -0.97095709297E-01 -0.72265135084E-01  0.13042264021E+00  0.20133840435E-01 0.  0.
         14    1    1    2    0    0 -0.11579530185E-01 -0.16218698708E-01  0.12732051584E-01  0.23648189035E-01  0.00000000000E+00 0. -1.
     999901    1    3    3    0    0 -0.32634348144E-01  0.11331440801E+00  0.59533083500E-01  0.88985917075E+00  0.88000000000E+00 0.  1.
        -11    1    4    4    0    0  0.20198843321E-01 -0.57166255565E-01 -0.30609590919E-01  0.67920410953E-01  0.51100000000E-03 0. -1.
         11    1    4    4    0    0  0.24015035008E-01 -0.39929453732E-01 -0.41655544165E-01  0.62502229260E-01  0.51100000000E-03 0.  1.
</event>
<event>
 8    1  0.1176534E+005  0.1043930E+01  0.7957747E-01            NaN
         13   -1    0    0    0    0  0.00000000000E+00  0.00000000000E+00  0.74505805969E-08  0.10566000000E+00  0.10566000000E+00 0. -1.
     999900   -1    0    0    0    0 -0.00000000000E+00 -0.00000000000E+00 -0.74505805969E-08  0.93827000000E+00  0.93827000000E+00 0. -1.
     999902    2    1    2    0    0  0.17106652944E-01 -0.98520330046E-02 -0.12963750487E-01  0.10203130790E+01  0.10200397151E+01 0.  0.
     999903    2    3    3    0    0 -0.53314533115E-01  0.44688694767E-01  0.10522891546E+00  0.12795477616E+00  0.21442509459E-01 0.  0.
         14    1    1    2    0    0 -0.17106652944E-01  0.98520330046E-02  0.12963750487E-01  0.23616920967E-01  0.00000000000E+00 0. -1.
     999901    1    3    3    0    0  0.70421186058E-01 -0.54540727772E-01 -0.11819266594E+00  0.89235830288E+00  0.88000000000E+00 0. -1.
        -11    1    4    4    0    0 -0.10529768225E-01 -0.34143934965E-03  0.18124525729E-01  0.20970268324E-01  0.51100000000E-03 0.  1.
         11    1    4    4    0    0 -0.42784764889E-01  0.45030134117E-01  0.87104389727E-01  0.10698450783E+00  0.51100000000E-03 0. -1.
</event>
<event>
 8    1  0.1176534E+005  0.1043930E+01  0.7957747E-01            NaN
         13   -1    0    0    0    0  0.00000000000E+00  0.00000000000E+00  0.74505805969E-08  0.10566000000E+00  0.10566000000E+00 0.  1.
     999900   -1    0    0    0    0 -0.00000000000E+00 -0.00000000000E+00 -0.74505805969E-08  0.93827000000E+00  0.93827000000E+00 0. -1.
     999902    2    1    2    0    0  0.13971905891E-01  0.63384787748E-02  0.14282508149E-01  0.10229685948E+01  0.10227538147E+01 0.  0.
     999903    2    3    3    0    0  0.48810702097E-01  0.90496081693E-01 -0.82093395727E-01  0.13303345186E+00  0.19660830394E-01 0.  0.
         14    1    1    2    0    0 -0.13971905891E-01 -0.63384787748E-02 -0.14282508149E-01  0.20961405163E-01  0.00000000000E+00 0. -1.
     999901    1    3    3    0    0 -0.34838796207E-01 -0.84157602918E-01  0.96375903876E-01  0.88993514297E+00  0.88000000000E+00 0.  1.
        -11    1    4    4    0    0  0.16596052851E-02  0.82273329010E-02 -0.13860013691E-01  0.16211242916E-01  0.51100000000E-03 0.  1.
         11    1    4    4    0    0  0.47151096812E-01  0.82268748792E-01 -0.68233382037E-01  0.11682220895E+00  0.51100000000E-03 0. -1.
</event>
<event>
 8    1  0.1176534E+005  0.1043930E+01  0.7957747E-01            NaN
         13   -1    0    0    0    0  0.00000000000E+00  0.00000000000E+00  0.74505805969E-08  0.10566000000E+00  0.10566000000E+00 0. -1.
     999900   -1    0    0    0    0 -0.00000000000E+00 -0.00000000000E+00 -0.74505805969E-08  0.93827000000E+00  0.93827000000E+00 0.  1.
     999902    2    1    2    0    0 -0.24486958799E-01  0.36473553175E-02  0.25500011387E-02  0.10190419133E+01  0.10187379468E+01 0.  0.
     999903    2    3    3    0    0  0.59641397963E-01 -0.10488265913E+00  0.36617594935E-01  0.12774120909E+00  0.20481691894E-01 0.  0.
         14    1    1    2    0    0  0.24486958799E-01 -0.36473553175E-02 -0.25500011387E-02  0.24888086665E-01  0.00000000000E+00 0.  1.
     999901    1    3    3    0    0 -0.84128356761E-01  0.10853001445E+00 -0.34067593796E-01  0.89130070425E+00  0.88000000000E+00 0. -1.
        -11    1    4    4    0    0  0.45325290470E-01 -0.60550750827E-01  0.25760227674E-01  0.79903853679E-01  0.51100000000E-03 0. -1.
         11    1    4    4    0    0  0.14316107493E-01 -0.44331908304E-01  0.10857367261E-01  0.47837355408E-01  0.51100000000E-03 0.  1.
</event>
<event>
 8    1  0.1176534E+005  0.1043930E+01  0.7957747E-01            NaN
         13   -1    0    0    0    0  0.00000000000E+00  0.00000000000E+00  0.74505805969E-08  0.10566000000E+00  0.10566000000E+00 0. -1.
     999900   -1    0    0    0    0 -0.00000000000E+00 -0.00000000000E+00 -0.74505805969E-08  0.93827000000E+00  0.93827000000E+00 0. -1.
     999902    2    1    2    0    0 -0.11843696684E-01 -0.83827391600E-02 -0.18553197298E-01  0.10203765587E+01  0.10201046794E+01 0.  0.
     999903    2    3    3    0    0  0.97102433119E-01 -0.79583189671E-01 -0.30099257304E-01  0.13072939558E+00  0.20538816478E-01 0.  0.
         14    1    1    2    0    0  0.11843696684E-01  0.83827391600E-02  0.18553197298E-01  0.23553441297E-01  0.00000000000E+00 0. -1.
     999901    1    3    3    0    0 -0.10894612980E+00  0.71200450511E-01  0.11546060006E-01  0.88964716312E+00  0.88000000000E+00 0.  1.
        -11    1    4    4    0    0  0.46089339992E-01 -0.30485351396E-01 -0.45180892543E-02  0.55445993201E-01  0.51100000000E-03 0.  1.
         11    1    4    4    0    0  0.51013093127E-01 -0.49097838276E-01 -0.25581168050E-01  0.75283402378E-01  0.51100000000E-03 0. -1.
</event>
<event>
 8    1  0.1176534E+005  0.1043930E+01  0.7957747E-01            NaN
         13   -1    0    0    0    0  0.00000000000E+00  0.00000000000E+00  0.74505805969E-08  0.10566000000E+00  0.10566000000E+00 0. -1.
     999900   -1    0    0    0    0 -0.00000000000E+00 -0.00000000000E+00 -0.74505805969E-08  0.93827000000E+00  0.93827000000E+00 0.  1.
     999902    2    1    2    0    0  0.18543878663E-02 -0.22018994165E-01  0.87258419597E-02  0.10201725764E+01  0.10198959116E+01 0.  0.
     999903    2    3    3    0    0  0.67967828083E-01 -0.11070498949E+00  0.21724952697E-01  0.13315218789E+00  0.19552780348E-01 0.  0.
         14    1    1    2    0    0 -0.18543878663E-02  0.22018994165E-01 -0.87258419597E-02  0.23757423604E-01  0.00000000000E+00 0. -1.
     999901    1    3    3    0    0 -0.66113440217E-01  0.88685995320E-01 -0.12999110737E-01  0.88702038850E+00  0.88000000000E+00 0.  1.
        -11    1    4    4    0    0  0.67843389946E-01 -0.10422864515E+00  0.17994663363E-01  0.12565987848E+00  0.51100000000E-03 0. -1.
         11    1    4    4    0    0  0.12443813715E-03 -0.64763443317E-02  0.37302893339E-02  0.74923094081E-02  0.51100000000E-03 0.  1.
</event>
<event>
 8    1  0.1176534E+005  0.1043930E+01  0.7957747E-01            NaN
         13   -1    0    0    0    0  0.00000000000E+00  0.00000000000E+00  0.74505805969E-08  0.10566000000E+00  0.10566000000E+00 0.  1.
     999900   -1    0    0    0    0 -0.00000000000E+00 -0.00000000000E+00 -0.74505805969E-08  0.93827000000E+00  0.93827000000E+00 0. -1.
     999902    2    1    2    0    0 -0.75548904238E-02  0.11824438341E-01  0.18213481455E-01  0.10209381619E+01  0.10206792375E+01 0.  0.
     999903    2    3    3    0    0 -0.12659917897E-01  0.62011839214E-01 -0.11183425363E+00  0.12995148979E+00  0.19358401071E-01 0.  0.
         14    1    1    2    0    0  0.75548904238E-02 -0.11824438341E-01 -0.18213481455E-01  0.22991838076E-01  0.00000000000E+00 0. -1.
     999901    1    3    3    0    0  0.51050274731E-02 -0.50187400873E-01  0.13004773508E+00  0.89098667213E+00  0.88000000000E+00 0.  1.
        -11    1    4    4    0    0 -0.14916599108E-01  0.30177423199E-01 -0.48652935321E-01  0.59165454754E-01  0.51100000000E-03 0. -1.
         11    1    4    4    0    0  0.22566812113E-02  0.31834416015E-01 -0.63181318305E-01  0.70786035041E-01  0.51100000000E-03 0.  1.
</event>
<event>
 8    1  0.1176534E+005  0.1043930E+01  0.7957747E-01            NaN
         13   -1    0    0    0    0  0.00000000000E+00  0.00000000000E+00  0.74505805969E-08  0.10566000000E+00  0.10566000000E+00 0. -1.
     999900   -1    0    0    0    0 -0.00000000000E+00 -0.00000000000E+00 -0.74505805969E-08  0.93827000000E+00  0.93827000000E+00 0. -1.
     999902    2    1    2    0    0  0.12939494092E-01 -0.17360292240E-01  0.85386756160E-02  0.10206551373E+01  0.10203897246E+01 0.  0.
     999903    2    3    3    0    0  0.11321442144E+00 -0.46131945160E-01  0.49680384604E-01  0.13353873606E+00  0.20464403905E-01 0.  0.
         14    1    1    2    0    0 -0.12939494092E-01  0.17360292240E-01 -0.85386756160E-02  0.23274862734E-01  0.00000000000E+00 0.  1.
     999901    1    3    3    0    0 -0.10027492735E+00  0.28771652919E-01 -0.41141708988E-01  0.88711640120E+00  0.88000000000E+00 0.  1.
        -11    1    4    4    0    0  0.49447075362E-02  0.21357005853E-02  0.21003928409E-02  0.58038022619E-02  0.51100000000E-03 0. -1.
         11    1    4    4    0    0  0.10826971391E+00 -0.48267645745E-01  0.47579991763E-01  0.12773493380E+00  0.51100000000E-03 0.  1.
</event>
<event>
 8    1  0.1176534E+005  0.1043930E+01  0.7957747E-01            NaN
         13   -1    0    0    0    0  0.00000000000E+00  0.00000000000E+00  0.74505805969E-08  0.10566000000E+00  0.10566000000E+00 0.  1.
     999900   -1    0    0    0    0 -0.00000000000E+00 -0.00000000000E+00 -0.74505805969E-08  0.93827000000E+00  0.93827000000E+00 0.  1.
     999902    2    1    2    0    0  0.20273929444E-01 -0.46402102826E-02  0.13316323888E-01  0.10192340844E+01  0.10189348510E+01 0.  0.
     999903    2    3    3    0    0  0.50518849134E-01  0.11810804512E+00  0.23565933150E-02  0.13013228758E+00  0.20668679201E-01 0.  0.
         14    1    1    2    0    0 -0.20273929444E-01  0.46402102826E-02 -0.13316323888E-01  0.24695915623E-01  0.00000000000E+00 0.  1.
     999901    1    3    3    0    0 -0.30244919690E-01 -0.12274825540E+00  0.10959730573E-01  0.88910179680E+00  0.88000000000E+00 0.  1.
        -11    1    4    4    0    0  0.27236415975E-01  0.71735906478E-01  0.11024492203E-01  0.77522017406E-01  0.51100000000E-03 0. -1.
         11    1    4    4    0    0  0.23282433159E-01  0.46372138640E-01 -0.86678988882E-02  0.52610270176E-01  0.51100000000E-03 0.  1.
</event>
<event>
 8    1  0.1176534E+005  0.1043930E+01  0.7957747E-01            NaN
         13   -1    0    0    0    0  0.00000000000E+00  0.00000000000E+00  0.74505805969E-08  0.10566000000E+00  0.10566000000E+00 0.  1.
     999900   -1    0    0    0    0 -0.00000000000E+00 -0.00000000000E+00 -0.74505805969E-08  0.93827000000E+00  0.93827000000E+00 0.  1.
     999902    2    1    2    0    0 -0.74302387888E-02  0.63330179162E-02 -0.19295109389E-01  0.10223055506E+01  0.10220768181E+01 0.  0.
     999903    2    3    3    0    0  0.96940877796E-01  0.14140119278E-01  0.83071770480E-01  0.13021067960E+00  0.21364111758E-01 0.  0.
         14    1    1    2    0    0  0.74302387888E-02 -0.63330179162E-02  0.19295109389E-01  0.21624449374E-01  0.00000000000E+00 0.  1.
     999901    1    3    3    0    0 -0.10437111658E+00 -0.78071013623E-02 -0.10236687987E+00  0.89209487102E+00  0.88000000000E+00 0.  1.
        -11    1    4    4    0    0  0.21505001451E-01 -0.46341609565E-03  0.84953340103E-02  0.23132480689E-01  0.51100000000E-03 0. -1.
         11    1    4    4    0    0  0.75435876345E-01  0.14603535374E-01  0.74576436470E-01  0.10707819892E+00  0.51100000000E-03 0.  1.
</event>
<event>
 8    1  0.1176534E+005  0.1043930E+01  0.7957747E-01            NaN
         13   -1    0    0    0    0  0.00000000000E+00  0.00000000000E+00  0.74505805969E-08  0.10566000000E+00  0.10566000000E+00 0. -1.
     999900   -1    0    0    0    0 -0.00000000000E+00 -0.00000000000E+00 -0.74505805969E-08  0.93827000000E+00  0.93827000000E+00 0.  1.
     999902    2    1    2    0    0 -0.23090686196E-01 -0.64114060148E-02  0.11675061545E-01  0.10172730501E+01  0.10169237265E+01 0.  0.
     999903    2    3    3    0    0  0.83280529304E-01  0.79544064428E-01  0.47040017473E-01  0.12600773691E+00  0.20056963125E-01 0.  0.
         14    1    1    2    0    0  0.23090686196E-01  0.64114060148E-02 -0.11675061545E-01  0.26656949904E-01  0.00000000000E+00 0. -1.
     999901    1    3    3    0    0 -0.10637121550E+00 -0.85955470443E-01 -0.35364955929E-01  0.89126531319E+00  0.88000000000E+00 0.  1.
        -11    1    4    4    0    0  0.26342370830E-01  0.29576724636E-01  0.66737484861E-02  0.40168435132E-01  0.51100000000E-03 0. -1.
         11    1    4    4    0    0  0.56938158474E-01  0.49967339792E-01  0.40366268987E-01  0.85839301775E-01  0.51100000000E-03 0.  1.
</event>
<event>
 8    1  0.1176534E+005  0.1043930E+01  0.7957747E-01            NaN
         13   -1    0    0    0    0  0.00000000000E+00  0.00000000000E+00  0.74505805969E-08  0.10566000000E+00  0.10566000000E+00 0. -1.
     999900   -1    0    0    0    0 -0.00000000000E+00 -0.00000000000E+00 -0.74505805969E-08  0.93827000000E+00  0.93827000000E+00 0. -1.
     999902    2    1    2    0    0  0.11107284092E-01 -0.10515099875E-02  0.20242736472E-01  0.10208162419E+01  0.10205545326E+01 0.  0.
     999903    2    3    3    0    0 -0.11686172271E+00 -0.77134684486E-02 -0.49968159492E-01  0.12876802668E+00  0.19189265241E-01 0.  0.
         14    1    1    2    0    0 -0.11107284092E-01  0.10515099875E-02 -0.20242736472E-01  0.23113758089E-01  0.00000000000E+00 0.  1.
     999901    1    3    3    0    0  0.12796900680E+00  0.66619584611E-02  0.70210895964E-01  0.89204821524E+00  0.88000000000E+00 0. -1.
        -11    1    4    4    0    0 -0.94147852144E-01 -0.13184779767E-01 -0.43312660083E-01  0.10446963255E+00  0.51100000000E-03 0.  1.
         11    1    4    4    0    0 -0.22713870566E-01  0.54713113186E-02 -0.66554994095E-02  0.24298394124E-01  0.51100000000E-03 0. -1.
</event>
<event>
 8    1  0.1176534E+005  0.1043930E+01  0.7957747E-01            NaN
         13   -1    0    0    0    0  0.00000000000E+00  0.00000000000E+00  0.74505805969E-08  0.10566000000E+00  0.10566000000E+00 0.  1.
     999900   -1    0    0    0    0 -0.00000000000E+00 -0.00000000000E+00 -0.74505805969E-08  0.93827000000E+00  0.93827000000E+00 0.  1.
     999902    2    1    2    0    0  0.10072201170E-01 -0.15562617373E-01  0.16946808409E-01  0.10188134992E+01  0.10185038574E+01 0.  0.
     999903    2    3    3    0    0  0.86347024625E-01  0.75856093429E-01 -0.52603293151E-01  0.12807647518E+00  0.20652396287E-01 0.  0.
         14    1    1    2    0    0 -0.10072201170E-01  0.15562617373E-01 -0.16946808409E-01  0.25116500775E-01  0.00000000000E+00 0. -1.
     999901    1    3    3    0    0 -0.76274823454E-01 -0.91418710802E-01  0.69550101560E-01  0.89073702405E+00  0.88000000000E+00 0. -1.
        -11    1    4    4    0    0  0.27784022774E-01  0.16580653408E-01 -0.70805631790E-02  0.33124997885E-01  0.51100000000E-03 0. -1.
         11    1    4    4    0    0  0.58563001850E-01  0.59275440021E-01 -0.45522729972E-01  0.94951477295E-01  0.51100000000E-03 0.  1.
</event>
<event>
 8    1  0.1176534E+005  0.1043930E+01  0.7957747E-01            NaN
         13   -1    0    0    0    0  0.00000000000E+00  0.00000000000E+00  0.74505805969E-08  0.10566000000E+00  0.10566000000E+00 0.  1.
     999900   -1    0    0    0    0 -0.00000000000E+00 -0.00000000000E+00 -0.74505805969E-08  0.93827000000E+00  0.93827000000E+00 0.  1.
     999902    2    1    2    0    0 -0.91794420260E-02 -0.10611015663E-01 -0.25255519255E-02  0.10296739759E+01  0.10295752826E+01 0.  0.
     999903    2    3    3    0    0  0.83000867915E-01 -0.29229538561E-01 -0.10522487410E+00  0.13872447698E+00  0.20704984519E-01 0.  0.
         14    1    1    2    0    0  0.91794420260E-02  0.10611015663E-01  0.25255519255E-02  0.14256024054E-01  0.00000000000E+00 0. -1.
     999901    1    3    3    0    0 -0.92180309941E-01  0.18618522898E-01  0.10269932218E+00  0.89094949897E+00  0.88000000000E+00 0. -1.
        -11    1    4    4    0    0  0.39639220354E-01 -0.51905329498E-02 -0.37710272961E-01  0.54959396197E-01  0.51100000000E-03 0.  1.
         11    1    4    4    0    0  0.43361647561E-01 -0.24039005611E-01 -0.67514601141E-01  0.83765080781E-01  0.51100000000E-03 0. -1.
</event>
<event>
 8    1  0.1176534E+005  0.1043930E+01  0.7957747E-01            NaN
         13   -1    0    0    0    0  0.00000000000E+00  0.00000000000E+00  0.74505805969E-08  0.10566000000E+00  0.10566000000E+00 0.  1.
     999900   -1    0    0    0    0 -0.00000000000E+00 -0.00000000000E+00 -0.74505805969E-08  0.93827000000E+00  0.93827000000E+00 0. -1.
     999902    2    1    2    0    0  0.89263892904E-02  0.62178081488E-02 -0.19309705820E-01  0.10217668255E+01  0.10215264262E+01 0.  0.
     999903    2    3    3    0    0 -0.12791607093E+00 -0.10950832500E-01  0.12430733644E-01  0.13045987692E+00  0.19565643686E-01 0.  0.
         14    1    1    2    0    0 -0.89263892904E-02 -0.62178081488E-02  0.19309705820E-01  0.22163174475E-01  0.00000000000E+00 0.  1.
     999901    1    3    3    0    0  0.13684246022E+00  0.17168640649E-01 -0.31740439464E-01  0.89130694861E+00  0.88000000000E+00 0. -1.
        -11    1    4    4    0    0 -0.15338465202E-01 -0.71937976338E-02 -0.12257535991E-02  0.16993611506E-01  0.51100000000E-03 0.  1.
         11    1    4    4    0    0 -0.11257760572E+00 -0.37570348660E-02  0.13656487243E-01  0.11346626541E+00  0.51100000000E-03 0. -1.
</event>
<event>
 8    1  0.1176534E+005  0.1043930E+01  0.7957747E-01            NaN
         13   -1    0    0    0    0  0.00000000000E+00  0.00000000000E+00  0.74505805969E-08  0.10566000000E+00  0.10566000000E+00 0.  1.
     999900   -1    0    0    0    0 -0.00000000000E+00 -0.00000000000E+00 -0.74505805969E-08  0.93827000000E+00  0.93827000000E+00 0.  1.
     999902    2    1    2    0    0  0.70359838936E-02  0.16294935897E-01 -0.18496486905E-01  0.10182950623E+01  0.10179723394E+01 0.  0.
     999903    2    3    3    0    0 -0.30925625859E-01 -0.11510314286E+00  0.35832459256E-01  0.12607414045E+00  0.20139412187E-01 0.  0.
         14    1    1    2    0    0 -0.70359838936E-02 -0.16294935897E-01  0.18496486905E-01  0.25634937743E-01  0.00000000000E+00 0.  1.
     999901    1    3    3    0    0  0.37961609753E-01  0.13139807876E+00 -0.54328946161E-01  0.89222092181E+00  0.88000000000E+00 0.  1.
        -11    1    4    4    0    0 -0.23884395608E-01 -0.99450682885E-01  0.23531691208E-01  0.10495191419E+00  0.51100000000E-03 0. -1.
         11    1    4    4    0    0 -0.70412302510E-02 -0.15652459976E-01  0.12300768048E-01  0.21122226263E-01  0.51100000000E-03 0.  1.
</event>
<event>
 8    1  0.1176534E+005  0.1043930E+01  0.7957747E-01            NaN
         13   -1    0    0    0    0  0.00000000000E+00  0.00000000000E+00  0.74505805969E-08  0.10566000000E+00  0.10566000000E+00 0.  1.
     999900   -1    0    0    0    0 -0.00000000000E+00 -0.00000000000E+00 -0.74505805969E-08  0.93827000000E+00  0.93827000000E+00 0.  1.
     999902    2    1    2    0    0 -0.13128838315E-01 -0.19328600747E-01  0.23693893214E-02  0.10204443617E+01  0.10201740636E+01 0.  0.
     999903    2    3    3    0    0 -0.37458734805E-01 -0.10228196026E+00 -0.73149661086E-01  0.13298938777E+00  0.21692121456E-01 0.  0.
         14    1    1    2    0    0  0.13128838315E-01  0.19328600747E-01 -0.23693893214E-02  0.23485638337E-01  0.00000000000E+00 0. -1.
     999901    1    3    3    0    0  0.24329896490E-01  0.82953359517E-01  0.75519050407E-01  0.88745497390E+00  0.88000000000E+00 0. -1.
        -11    1    4    4    0    0 -0.20009083885E-01 -0.74355069999E-01 -0.42261574793E-01  0.87837017808E-01  0.51100000000E-03 0. -1.
         11    1    4    4    0    0 -0.17449650920E-01 -0.27926890264E-01 -0.30888086294E-01  0.45152369959E-01  0.51100000000E-03 0.  1.
</event>
<event>
 8    1  0.1176534E+005  0.1043930E+01  0.7957747E-01            NaN
         13   -1    0    0    0    0  0.00000000000E+00  0.00000000000E+00  0.74505805969E-08  0.10566000000E+00  0.10566000000E+00 0. -1.
     999900   -1    0    0    0    0 -0.00000000000E+00 -0.00000000000E+00 -0.74505805969E-08  0.93827000000E+00  0.93827000000E+00 0.  1.
     999902    2    1    2    0    0  0.24176634247E-01  0.69584932510E-02 -0.33464792204E-02  0.10185502995E+01  0.10182340514E+01 0.  0.
     999903    2    3    3    0    0  0.54488269785E-01 -0.39300017393E-02 -0.11679775519E+00  0.13068288456E+00  0.21257569059E-01 0.  0.
         14    1    1    2    0    0 -0.24176634247E-01 -0.69584932510E-02  0.33464792204E-02  0.25379700451E-01  0.00000000000E+00 0.  1.
     999901    1    3    3    0    0 -0.30311635538E-01  0.10888494990E-01  0.11345127597E+00  0.88786741498E+00  0.88000000000E+00 0. -1.
        -11    1    4    4    0    0  0.29747893199E-01 -0.90089776396E-02 -0.46050381807E-01  0.55560756055E-01  0.51100000000E-03 0. -1.
         11    1    4    4    0    0  0.24740376586E-01  0.50789759003E-02 -0.70747373385E-01  0.75122128509E-01  0.51100000000E-03 0.  1.
</event>
<event>
 8    1  0.1176534E+005  0.1043930E+01  0.7957747E-01            NaN
         13   -1    0    0    0    0  0.00000000000E+00  0.00000000000E+00  0.74505805969E-08  0.10566000000E+00  0.10566000000E+00 0. -1.
     999900   -1    0    0    0    0 -0.00000000000E+00 -0.00000000000E+00 -0.74505805969E-08  0.93827000000E+00  0.93827000000E+00 0.  1.
     999902    2    1    2    0    0 -0.89861246352E-03  0.17163099708E-01 -0.15625609083E-01  0.10207020178E+01  0.10204376855E+01 0.  0.
     999903    2    3    3    0    0  0.94272642017E-01  0.63362757831E-01 -0.66673917535E-01  0.13289691204E+00  0.17720266298E-01 0.  0.
         14    1    1    2    0    0  0.89861246352E-03 -0.17163099708E-01  0.15625609083E-01  0.23227982159E-01  0.00000000000E+00 0. -1.
     999901    1    3    3    0    0 -0.95171254480E-01 -0.46199658123E-01  0.51048308452E-01  0.88780510580E+00  0.88000000000E+00 0. -1.
        -11    1    4    4    0    0  0.24028538822E-01  0.24853002964E-01 -0.15914636376E-01  0.38060205022E-01  0.51100000000E-03 0.  1.
         11    1    4    4    0    0  0.70244103195E-01  0.38509754866E-01 -0.50759281159E-01  0.94836707019E-01  0.51100000000E-03 0. -1.
</event>
<event>
 8    1  0.1176534E+005  0.1043930E+01  0.7957747E-01            NaN
         13   -1    0    0    0    0  0.00000000000E+00  0.00000000000E+00  0.74505805969E-08  0.10566000000E+00  0.10566000000E+00 0.  1.
     999900   -1    0    0    0    0 -0.00000000000E+00 -0.00000000000E+00 -0.74505805969E-08  0.93827000000E+00  0.93827000000E+00 0.  1.
     999902    2    1    2    0    0  0.39865733548E-02 -0.27351060743E-01  0.20868534368E-02  0.10162112654E+01  0.10158331594E+01 0.  0.
     999903    2    3    3    0    0 -0.63073641020E-01  0.27460224879E-01  0.10367779296E+00  0.12614269030E+00  0.20749588404E-01 0.  0.
         14    1    1    2    0    0 -0.39865733548E-02  0.27351060743E-01 -0.20868534368E-02  0.27718734606E-01  0.00000000000E+00 0.  1.
     999901    1    3    3    0    0  0.67060214375E-01 -0.54811285622E-01 -0.10159093953E+00  0.89006857510E+00  0.88000000000E+00 0.  1.
        -11    1    4    4    0    0 -0.45492735388E-01  0.28351026334E-01  0.70330457894E-01  0.88430787037E-01  0.51100000000E-03 0.  1.
         11    1    4    4    0    0 -0.17580905632E-01 -0.89080145550E-03  0.33347335071E-01  0.37711903259E-01  0.51100000000E-03 0. -1.
</event>
<event>
 8    1  0.1176534E+005  0.1043930E+01  0.7957747E-01            NaN
         13   -1    0    0    0    0  0.00000000000E+00  0.00000000000E+00  0.74505805969E-08  0.10566000000E+00  0.10566000000E+00 0. -1.
     999900   -1    0    0    0    0 -0.00000000000E+00 -0.00000000000E+00 -0.74505805969E-08  0.93827000000E+00  0.93827000000E+00 0.  1.
     999902    2    1    2    0    0 -0.18084708564E-01  0.13319147203E-01 -0.10358181445E-01  0.10191964542E+01  0.10188962969E+01 0.  0.
     999903    2    3    3    0    0 -0.10669287121E+00  0.51738911200E-01  0.54141862459E-01  0.13156604662E+00  0.17832544816E-01 0.  0.
         14    1    1    2    0    0  0.18084708564E-01 -0.13319147203E-01  0.10358181445E-01  0.24733545822E-01  0.00000000000E+00 0. -1.
     999901    1    3    3    0    0  0.88608162645E-01 -0.38419763997E-01 -0.64500043904E-01  0.88763040756E+00  0.88000000000E+00 0.  1.
        -11    1    4    4    0    0 -0.64839600978E-01  0.24173359305E-01  0.24921180802E-01  0.73551692901E-01  0.51100000000E-03 0. -1.
         11    1    4    4    0    0 -0.41853270231E-01  0.27565551895E-01  0.29220681657E-01  0.58014353722E-01  0.51100000000E-03 0.  1.
</event>
<event>
 8    1  0.1176534E+005  0.1043930E+01  0.7957747E-01            NaN
         13   -1    0    0    0    0  0.00000000000E+00  0.00000000000E+00  0.74505805969E-08  0.10566000000E+00  0.10566000000E+00 0. -1.
     999900   -1    0    0    0    0 -0.00000000000E+00 -0.00000000000E+00 -0.74505805969E-08  0.93827000000E+00  0.93827000000E+00 0.  1.
     999902    2    1    2    0    0 -0.13440579327E-01  0.20096756203E-01 -0.35222191521E-02  0.10194977506E+01  0.10192049493E+01 0.  0.
     999903    2    3    3    0    0 -0.50425732443E-01  0.91646442967E-01 -0.79288650111E-01  0.13257734196E+00  0.18661097575E-01 0.  0.
         14    1    1    2    0    0  0.13440579327E-01 -0.20096756203E-01  0.35222191521E-02  0.24432249391E-01  0.00000000000E+00 0.  1.
     999901    1    3    3    0    0  0.36985153116E-01 -0.71549686764E-01  0.75766430958E-01  0.88692040865E+00  0.88000000000E+00 0. -1.
        -11    1    4    4    0    0 -0.61585779061E-02  0.29733599144E-02 -0.29015028691E-02  0.74463944903E-02  0.51100000000E-03 0.  1.
         11    1    4    4    0    0 -0.44267154537E-01  0.88673083052E-01 -0.76387147241E-01  0.12513094746E+00  0.51100000000E-03 0. -1.
</event>
<event>
 8    1  0.1176534E+005  0.1043930E+01  0.7957747E-01            NaN
         13   -1    0    0    0    0  0.00000000000E+00  0.00000000000E+00  0.74505805969E-08  0.10566000000E+00  0.10566000000E+00 0.  1.
     999900   -1    0    0    0    0 -0.00000000000E+00 -0.00000000000E+00 -0.74505805969E-08  0.93827000000E+00  0.93827000000E+00 0. -1.
     999902    2    1    2    0    0 -0.57324569727E-02 -0.87920458653E-02 -0.17183206185E-01  0.10237948638E+01  0.10235968442E+01 0.  0.
     999903    2    3    3    0    0 -0.80237844501E-01 -0.15388479506E-01  0.10239975487E+00  0.13256276709E+00  0.20304197299E-01 0.  0.
         14    1    1    2    0    0  0.57324569727E-02  0.87920458653E-02  0.17183206185E-01  0.20135136161E-01  0.00000000000E+00 0. -1.
     999901    1    3    3    0    0  0.74505387529E-01  0.65964336407E-02 -0.11958296106E+00  0.89123209675E+00  0.88000000000E+00 0. -1.
        -11    1    4    4    0    0 -0.77223514950E-01 -0.16414367334E-01  0.89864620175E-01  0.11961945409E+00  0.51100000000E-03 0. -1.
         11    1    4    4    0    0 -0.30143295512E-02  0.10258878284E-02  0.12535134697E-01  0.12943312998E-01  0.51100000000E-03 0.  1.
</event>
<event>
 8    1  0.1176534E+005  0.1043930E+01  0.7957747E-01            NaN
         13   -1    0    0    0    0  0.00000000000E+00  0.00000000000E+00  0.74505805969E-08  0.10566000000E+00  0.10566000000E+00 0.  1.
     999900   -1    0    0    0    0 -0.00000000000E+00 -0.00000000000E+00 -0.74505805969E-08  0.93827000000E+00  0.93827000000E+00 0.  1.
     999902    2    1    2    0    0 -0.12679163247E-01 -0.13516896695E-01 -0.14049948378E-01  0.10206734154E+01  0.10204084242E+01 0.  0.
     999903    2    3    3    0    0  0.64473677653E-01  0.10802418253E+00 -0.19947236732E-01  0.12895621092E+00  0.20142814096E-01 0.  0.
         14    1    1    2    0    0  0.12679163247E-01  0.13516896695E-01  0.14049948378E-01  0.23256584580E-01  0.00000000000E+00 0.  1.
     999901    1    3    3    0    0 -0.77152840901E-01 -0.12154107922E+00  0.58972883543E-02  0.89171720450E+00  0.88000000000E+00 0. -1.
        -11    1    4    4    0    0  0.38069044306E-01  0.44988332604E-01 -0.12067645024E-01  0.60158884483E-01  0.51100000000E-03 0. -1.
         11    1    4    4    0    0  0.26404633347E-01  0.63035849924E-01 -0.78795917075E-02  0.68797326433E-01  0.51100000000E-03 0.  1.
</event>
<event>
 8    1  0.1176534E+005  0.1043930E+01  0.7957747E-01            NaN
         13   -1    0    0    0    0  0.00000000000E+00  0.00000000000E+00  0.74505805969E-08  0.10566000000E+00  0.10566000000E+00 0.  1.
     999900   -1    0    0    0    0 -0.00000000000E+00 -0.00000000000E+00 -0.74505805969E-08  0.93827000000E+00  0.93827000000E+00 0.  1.
     999902    2    1    2    0    0 -0.69406501597E-02  0.18413726774E-01  0.14804598862E-01  0.10193045232E+01  0.10190070152E+01 0.  0.
     999903    2    3    3    0    0 -0.57776175744E-01  0.75305054890E-02 -0.11279410290E+00  0.12858339749E+00  0.20405525329E-01 0.  0.
         14    1    1    2    0    0  0.69406501597E-02 -0.18413726774E-01 -0.14804598862E-01  0.24625476764E-01  0.00000000000E+00 0. -1.
     999901    1    3    3    0    0  0.50835525585E-01  0.10883221285E-01  0.12759870176E+00  0.89072112575E+00  0.88000000000E+00 0. -1.
        -11    1    4    4    0    0 -0.43040343794E-01  0.11316589680E-01 -0.96588640751E-01  0.10634925030E+00  0.51100000000E-03 0.  1.
         11    1    4    4    0    0 -0.14735831950E-01 -0.37860841911E-02 -0.16205462147E-01  0.22234147188E-01  0.51100000000E-03 0. -1.
</event>
<event>
 8    1  0.1176534E+005  0.1043930E+01  0.7957747E-01            NaN
         13   -1    0    0    0    0  0.00000000000E+00  0.00000000000E+00  0.74505805969E-08  0.10566000000E+00  0.10566000000E+00 0. -1.
     999900   -1    0    0    0    0 -0.00000000000E+00 -0.00000000000E+00 -0.74505805969E-08  0.93827000000E+00  0.93827000000E+00 0. -1.
     999902    2    1    2    0    0 -0.73330067796E-02  0.10841784868E-02 -0.21432348540E-01  0.10212519490E+01  0.10210001221E+01 0.  0.
     999903    2    3    3    0    0  0.12549122560E-01 -0.33696442699E-01  0.12194936246E+00  0.12874799626E+00  0.20284693978E-01 0.  0.
         14    1    1    2    0    0  0.73330067796E-02 -0.10841784868E-02  0.21432348540E-01  0.22678050960E-01  0.00000000000E+00 0. -1.
     999901    1    3    3    0    0 -0.19882129339E-01  0.34780621186E-01 -0.14338171100E+00  0.89250395278E+00  0.88000000000E+00 0. -1.
        -11    1    4    4    0    0  0.10980492202E-02 -0.25291712136E-01  0.58823473764E-01  0.64041694243E-01  0.51100000000E-03 0.  1.
         11    1    4    4    0    0  0.11451073339E-01 -0.84047305633E-02  0.63125888694E-01  0.64706302018E-01  0.51100000000E-03 0. -1.
</event>
<event>
 8    1  0.1176534E+005  0.1043930E+01  0.7957747E-01            NaN
         13   -1    0    0    0    0  0.00000000000E+00  0.00000000000E+00  0.74505805969E-08  0.10566000000E+00  0.10566000000E+00 0. -1.
     999900   -1    0    0    0    0 -0.00000000000E+00 -0.00000000000E+00 -0.74505805969E-08  0.93827000000E+00  0.93827000000E+00 0. -1.
     999902    2    1    2    0    0  0.18400622658E-01 -0.14308166918E-01  0.70260806835E-02  0.10195851368E+01  0.10192944515E+01 0.  0.
     999903    2    3    3    0    0 -0.12531313375E-01 -0.18427557989E-01 -0.12565943379E+00  0.12909134131E+00  0.19433795084E-01 0.  0.
         14    1    1    2    0    0 -0.18400622658E-01  0.14308166918E-01 -0.70260806835E-02  0.24344863206E-01  0.00000000000E+00 0.  1.
     999901    1    3    3    0    0  0.30931936033E-01  0.41193910715E-02  0.13268551447E+00  0.89049379549E+00  0.88000000000E+00 0.  1.
        -11    1    4    4    0    0 -0.15276664949E-01 -0.69308436428E-02 -0.89047509198E-01  0.90615302797E-01  0.51100000000E-03 0.  1.
         11    1    4    4    0    0  0.27453515740E-02 -0.11496714346E-01 -0.36611924593E-01  0.38476038510E-01  0.51100000000E-03 0. -1.
</event>
<event>
 8    1  0.1176534E+005  0.1043930E+01  0.7957747E-01            NaN
         13   -1    0    0    0    0  0.00000000000E+00  0.00000000000E+00  0.74505805969E-08  0.10566000000E+00  0.10566000000E+00 0. -1.
     999900   -1    0    0    0    0 -0.00000000000E+00 -0.00000000000E+00 -0.74505805969E-08  0.93827000000E+00  0.93827000000E+00 0. -1.
     999902    2    1    2    0    0 -0.56210629157E-02 -0.12198803852E-01  0.20383571007E-01  0.10195189957E+01  0.10192267096E+01 0.  0.
     999903    2    3    3    0    0 -0.62109312465E-01  0.11075365562E+00 -0.72477787533E-02  0.12874869921E+00  0.19993957161E-01 0.  0.
         14    1    1    2    0    0  0.56210629157E-02  0.12198803852E-01 -0.20383571007E-01  0.24411004295E-01  0.00000000000E+00 0.  1.
     999901    1    3    3    0    0  0.56488249550E-01 -0.12295245947E+00  0.27631349760E-01  0.89077029649E+00  0.88000000000E+00 0.  1.
        -11    1    4    4    0    0 -0.94473610706E-02  0.29253792675E-01 -0.77703474806E-02  0.31712401960E-01  0.51100000000E-03 0.  1.
         11    1    4    4    0    0 -0.52661951395E-01  0.81499862946E-01  0.52256872728E-03  0.97036297250E-01  0.51100000000E-03 0. -1.
</event>
<event>
 8    1  0.1176534E+005  0.1043930E+01  0.7957747E-01            NaN
         13   -1    0    0    0    0  0.00000000000E+00  0.00000000000E+00  0.74505805969E-08  0.10566000000E+00  0.10566000000E+00 0.  1.
     999900   -1    0    0    0    0 -0.00000000000E+00 -0.00000000000E+00 -0.74505805969E-08  0.93827000000E+00  0.93827000000E+00 0.  1.
     999902    2    1    2    0    0 -0.17591685812E-01 -0.80090268887E-02  0.14255342663E-01  0.10199127829E+01  0.10196299613E+01 0.  0.
     999903    2    3    3    0    0 -0.27269857432E-01 -0.10545035738E+00  0.73083886031E-01  0.13252939487E+00  0.18956875019E-01 0.  0.
         14    1    1    2    0    0  0.17591685812E-01  0.80090268887E-02 -0.14255342663E-01  0.24017217071E-01  0.00000000000E+00 0. -1.
     999901    1    3    3    0    0  0.96781716198E-02  0.97441330491E-01 -0.58828543368E-01  0.88738338806E+00  0.88000000000E+00 0.  1.
        -11    1    4    4    0    0 -0.26557300167E-01 -0.10109617634E+00  0.64394592535E-01  0.12277072832E+00  0.51100000000E-03 0.  1.
         11    1    4    4    0    0 -0.71255726421E-03 -0.43541810415E-02  0.86892934957E-02  0.97586665509E-02  0.51100000000E-03 0. -1.
</event>
<event>
 8    1  0.1176534E+005  0.1043930E+01  0.7957747E-01            NaN
         13   -1    0    0    0    0  0.00000000000E+00  0.00000000000E+00  0.74505805969E-08  0.10566000000E+00  0.10566000000E+00 0.  1.
     999900   -1    0    0    0    0 -0.00000000000E+00 -0.00000000000E+00 -0.74505805969E-08  0.93827000000E+00  0.93827000000E+00 0. -1.
     999902    2    1    2    0    0 -0.16903923986E-01 -0.16650124667E-01 -0.10958077957E-02  0.10201777350E+01  0.10199011917E+01 0.  0.
     999903    2    3    3    0    0 -0.45083552069E-03 -0.10667695724E+00 -0.75631126437E-01  0.13229764827E+00  0.20060508278E-01 0.  0.
         14    1    1    2    0    0  0.16903923986E-01  0.16650124667E-01  0.10958077957E-02  0.23752264993E-01  0.00000000000E+00 0. -1.
     999901    1    3    3    0    0 -0.16453088465E-01  0.90026832573E-01  0.74535318642E-01  0.88788008674E+00  0.88000000000E+00 0. -1.
        -11    1    4    4    0    0  0.16527828625E-03 -0.47988832778E-01 -0.46292323101E-01  0.66679799695E-01  0.51100000000E-03 0. -1.
         11    1    4    4    0    0 -0.61611380694E-03 -0.58688124462E-01 -0.29338803336E-01  0.65617848573E-01  0.51100000000E-03 0.  1.
</event>
<event>
 8    1  0.1176534E+005  0.1043930E+01  0.7957747E-01            NaN
         13   -1    0    0    0    0  0.00000000000E+00  0.00000000000E+00  0.74505805969E-08  0.10566000000E+00  0.10566000000E+00 0.  1.
     999900   -1    0    0    0    0 -0.00000000000E+00 -0.00000000000E+00 -0.74505805969E-08  0.93827000000E+00  0.93827000000E+00 0. -1.
     999902    2    1    2    0    0 -0.17660890313E-01 -0.43495295393E-02  0.32754658283E-02  0.10254488169E+01  0.10252822645E+01 0.  0.
     999903    2    3    3    0    0  0.79757016932E-01 -0.10614086840E+00  0.26261238554E-02  0.13424056568E+00  0.19661313617E-01 0.  0.
         14    1    1    2    0    0  0.17660890313E-01  0.43495295393E-02 -0.32754658283E-02  0.18481183140E-01  0.00000000000E+00 0. -1.
     999901    1    3    3    0    0 -0.97417907245E-01  0.10179133886E+00  0.64934197284E-03  0.89120825118E+00  0.88000000000E+00 0.  1.
        -11    1    4    4    0    0  0.12469233764E-01 -0.10346040480E-01 -0.48927912734E-02  0.16932893188E-01  0.51100000000E-03 0.  1.
         11    1    4    4    0    0  0.67287783168E-01 -0.95794827924E-01  0.75189151288E-02  0.11730767250E+00  0.51100000000E-03 0. -1.
</event>
<event>
 8    1  0.1176534E+005  0.1043930E+01  0.7957747E-01            NaN
         13   -1    0    0    0    0  0.00000000000E+00  0.00000000000E+00  0.74505805969E-08  0.10566000000E+00  0.10566000000E+00 0. -1.
     999900   -1    0    0    0    0 -0.00000000000E+00 -0.00000000000E+00 -0.74505805969E-08  0.93827000000E+00  0.93827000000E+00 0.  1.
     999902    2    1    2    0    0  0.70482042952E-02 -0.22972396586E-01 -0.29918659408E-02  0.10197151399E+01  0.10194275879E+01 0.  0.
     999903    2    3    3    0    0 -0.20045275347E-01  0.98701680628E-01 -0.76265866187E-01  0.12791487255E+00  0.20047380159E-01 0.  0.
         14    1    1    2    0    0 -0.70482042952E-02  0.22972396586E-01  0.29918659408E-02  0.24214860118E-01  0.00000000000E+00 0.  1.
     999901    1    3    3    0    0  0.27093479643E-01 -0.12167407721E+00  0.73274000246E-01  0.89180026733E+00  0.88000000000E+00 0. -1.
        -11    1    4    4    0    0 -0.10156733857E-01  0.13494971295E-01 -0.13356405935E-01  0.21538992395E-01  0.51100000000E-03 0.  1.
         11    1    4    4    0    0 -0.98885414904E-02  0.85206709333E-01 -0.62909460252E-01  0.10637588015E+00  0.51100000000E-03 0. -1.
</event>
<event>
 8    1  0.1176534E+005  0.1043930E+01  0.7957747E-01            NaN
         13   -1    0    0    0    0  0.00000000000E+00  0.00000000000E+00  0.74505805969E-08  0.10566000000E+00  0.10566000000E+00 0.  1.
     999900   -1    0    0    0    0 -0.00000000000E+00 -0.00000000000E+00 -0.74505805969E-08  0.93827000000E+00  0.93827000000E+00 0.  1.
     999902    2    1    2    0    0  0.58308200556E-02  0.10557165062E-01  0.22533264071E-01  0.10183722187E+01  0.10180514602E+01 0.  0.
     999903    2    3    3    0    0 -0.11009096226E+00 -0.55711945969E-01  0.28845736015E-01  0.12827711027E+00  0.19977478295E-01 0.  0.
         14    1    1    2    0    0 -0.58308200556E-02 -0.10557165062E-01 -0.22533264071E-01  0.25557781327E-01  0.00000000000E+00 0.  1.
     999901    1    3    3    0    0  0.11592178232E+00  0.66269111031E-01 -0.63124719437E-02  0.89009510840E+00  0.88000000000E+00 0.  1.
        -11    1    4    4    0    0 -0.66695336437E-01 -0.40178413104E-01  0.26016186680E-01  0.82095528942E-01  0.51100000000E-03 0. -1.
         11    1    4    4    0    0 -0.43395625824E-01 -0.15533532866E-01  0.28295493348E-02  0.46181581332E-01  0.51100000000E-03 0.  1.
</event>
<event>
 8    1  0.1176534E+005  0.1043930E+01  0.7957747E-01            NaN
         13   -1    0    0    0    0  0.00000000000E+00  0.00000000000E+00  0.74505805969E-08  0.10566000000E+00  0.10566000000E+00 0.  1.
     999900   -1    0    0    0    0 -0.00000000000E+00 -0.00000000000E+00 -0.74505805969E-08  0.93827000000E+00  0.93827000000E+00 0.  1.
     999902    2    1    2    0    0  0.10486108008E-01 -0.19778736211E-02 -0.21359950574E-01  0.10200528575E+01  0.10197733641E+01 0.  0.
     999903    2    3    3    0    0 -0.69006627505E-01  0.43693414058E-01 -0.99881601733E-01  0.13181268097E+00  0.26967006267E-01 0.  0.
         14    1    1    2    0    0 -0.10486108008E-01  0.19778736211E-02  0.21359950574E-01  0.23877142495E-01  0.00000000000E+00 0.  1.
     999901    1    3    3    0    0  0.79492735513E-01 -0.45671287679E-01  0.78521651160E-01  0.88824017654E+00  0.88000000000E+00 0. -1.
        -11    1    4    4    0    0 -0.57022496105E-01  0.24158519830E-01 -0.62676668499E-01  0.88112570259E-01  0.51100000000E-03 0. -1.
         11    1    4    4    0    0 -0.11984131400E-01  0.19534894228E-01 -0.37204933234E-01  0.43700110707E-01  0.51100000000E-03 0.  1.
</event>
<event>
 8    1  0.1176534E+005  0.1043930E+01  0.7957747E-01            NaN
         13   -1    0    0    0    0  0.00000000000E+00  0.00000000000E+00  0.74505805969E-08  0.10566000000E+00  0.10566000000E+00 0.  1.
     999900   -1    0    0    0    0 -0.00000000000E+00 -0.00000000000E+00 -0.74505805969E-08  0.93827000000E+00  0.93827000000E+00 0. -1.
     999902    2    1    2    0    0 -0.16716962597E-03 -0.21801150991E-01 -0.11815657424E-01  0.10191322604E+01  0.10188305238E+01 0.  0.
     999903    2    3    3    0    0 -0.15968256318E-01  0.29215133181E-01 -0.12437870987E+00  0.13035626139E+00  0.20351466738E-01 0.  0.
         14    1    1    2    0    0  0.16716962597E-03  0.21801150991E-01  0.11815657424E-01  0.24797739627E-01  0.00000000000E+00 0.  1.
     999901    1    3    3    0    0  0.15801086692E-01 -0.51016284172E-01  0.11256305245E+00  0.88877599898E+00  0.88000000000E+00 0.  1.
        -11    1    4    4    0    0  0.19894361367E-02  0.77045234723E-02 -0.54283088682E-01  0.54865584622E-01  0.51100000000E-03 0. -1.
         11    1    4    4    0    0 -0.17957692455E-01  0.21510609709E-01 -0.70095621188E-01  0.75490676769E-01  0.51100000000E-03 0.  1.
</event>
<event>
 8    1  0.1176534E+005  0.1043930E+01  0.7957747E-01            NaN
         13   -1    0    0    0    0  0.00000000000E+00  0.00000000000E+00  0.74505805969E-08  0.10566000000E+00  0.10566000000E+00 0. -1.
     999900   -1    0    0    0    0 -0.00000000000E+00 -0.00000000000E+00 -0.74505805969E-08  0.93827000000E+00  0.93827000000E+00 0. -1.
     999902    2    1    2    0    0  0.21424425513E-01 -0.17932770723E-01 -0.16559722706E-01  0.10114520892E+01  0.10109305189E+01 0.  0.
     999903    2    3    3    0    0 -0.89637323688E-01 -0.76453893383E-01  0.20610048538E-01  0.12176617505E+00  0.22851251023E-01 0.  0.
         14    1    1    2    0    0 -0.21424425513E-01  0.17932770723E-01  0.16559722706E-01  0.32477910809E-01  0.00000000000E+00 0. -1.
     999901    1    3    3    0    0  0.11106174920E+00  0.58521122660E-01 -0.37169771245E-01  0.88968591414E+00  0.88000000000E+00 0. -1.
        -11    1    4    4    0    0 -0.25103421492E-01 -0.31506901735E-01  0.14747659153E-01  0.42902461457E-01  0.51100000000E-03 0.  1.
         11    1    4    4    0    0 -0.64533902197E-01 -0.44946991648E-01  0.58623893853E-02  0.78863713590E-01  0.51100000000E-03 0. -1.
</event>
<event>
 8    1  0.1176534E+005  0.1043930E+01  0.7957747E-01            NaN
         13   -1    0    0    0    0  0.00000000000E+00  0.00000000000E+00  0.74505805969E-08  0.10566000000E+00  0.10566000000E+00 0. -1.
     999900   -1    0    0    0    0 -0.00000000000E+00 -0.00000000000E+00 -0.74505805969E-08  0.93827000000E+00  0.93827000000E+00 0.  1.
     999902    2    1    2    0    0 -0.86634668108E-02 -0.16777910689E-01  0.12018095066E-01  0.10215472264E+01  0.10213019863E+01 0.  0.
     999903    2    3    3    0    0 -0.90278996650E-01 -0.76426222528E-01  0.60524564406E-01  0.13443286322E+00  0.20437883740E-01 0.  0.
         14    1    1    2    0    0  0.86634668108E-02  0.16777910689E-01 -0.12018095066E-01  0.22382773583E-01  0.00000000000E+00 0.  1.
     999901    1    3    3    0    0  0.81615529840E-01  0.59648311839E-01 -0.48506469340E-01  0.88711436319E+00  0.88000000000E+00 0. -1.
        -11    1    4    4    0    0 -0.25493160034E-01 -0.11492478940E-01  0.99396395600E-02  0.29682247831E-01  0.51100000000E-03 0.  1.
         11    1    4    4    0    0 -0.64785836616E-01 -0.64933743588E-01  0.50584924846E-01  0.10475061539E+00  0.51100000000E-03 0. -1.
</event>
<event>
 8    1  0.1176534E+005  0.1043930E+01  0.7957747E-01            NaN
         13   -1    0    0    0    0  0.00000000000E+00  0.00000000000E+00  0.74505805969E-08  0.10566000000E+00  0.10566000000E+00 0. -1.
     999900   -1    0    0    0    0 -0.00000000000E+00 -0.00000000000E+00 -0.74505805969E-08  0.93827000000E+00  0.93827000000E+00 0. -1.
     999902    2    1    2    0    0  0.12150000018E-01  0.13356299301E-01 -0.15813631626E-01  0.10199282464E+01  0.10196457932E+01 0.  0.
     999903    2    3    3    0    0  0.13974956871E-01 -0.86184966336E-01  0.89934484322E-01  0.12802328617E+00  0.26049999787E-01 0.  0.
         14    1    1    2    0    0 -0.12150000018E-01 -0.13356299301E-01  0.15813631626E-01  0.24001753616E-01  0.00000000000E+00 0.  1.
     999901    1    3    3    0    0 -0.18249568534E-02  0.99541265637E-01 -0.10574811595E+00  0.89190496022E+00  0.88000000000E+00 0. -1.
        -11    1    4    4    0    0 -0.65511625670E-02 -0.12595323148E-01  0.95146682516E-02  0.17098243451E-01  0.51100000000E-03 0.  1.
         11    1    4    4    0    0  0.20526119438E-01 -0.73589643188E-01  0.80419816071E-01  0.11092504272E+00  0.51100000000E-03 0. -1.
</event>
<event>
 8    1  0.1176534E+005  0.1043930E+01  0.7957747E-01            NaN
         13   -1    0    0    0    0  0.00000000000E+00  0.00000000000E+00  0.74505805969E-08  0.10566000000E+00  0.10566000000E+00 0. -1.
     999900   -1    0    0    0    0 -0.00000000000E+00 -0.00000000000E+00 -0.74505805969E-08  0.93827000000E+00  0.93827000000E+00 0.  1.
     999902    2    1    2    0    0 -0.17250019519E-01 -0.14144794022E-01 -0.10530323799E-01  0.10192616784E+01  0.10189631215E+01 0.  0.
     999903    2    3    3    0    0  0.21022826900E-01 -0.29473374316E-01 -0.12428802884E+00  0.13098211002E+00  0.19953946632E-01 0.  0.
         14    1    1    2    0    0  0.17250019519E-01  0.14144794022E-01  0.10530323799E-01  0.24668321602E-01  0.00000000000E+00 0. -1.
     999901    1    3    3    0    0 -0.38272846419E-01  0.15328580294E-01  0.11375770505E+00  0.88827956838E+00  0.88000000000E+00 0. -1.
        -11    1    4    4    0    0  0.54627914553E-02  0.21247890173E-02 -0.23123367116E-01  0.23860177003E-01  0.51100000000E-03 0. -1.
         11    1    4    4    0    0  0.15560035444E-01 -0.31598163333E-01 -0.10116466173E+00  0.10712193301E+00  0.51100000000E-03 0.  1.
</event>
<event>
 8    1  0.1176534E+005  0.1043930E+01  0.7957747E-01            NaN
         13   -1    0    0    0    0  0.00000000000E+00  0.00000000000E+00  0.74505805969E-08  0.10566000000E+00  0.10566000000E+00 0. -1.
     999900   -1    0    0    0    0 -0.00000000000E+00 -0.00000000000E+00 -0.74505805969E-08  0.93827000000E+00  0.93827000000E+00 0.  1.
     999902    2    1    2    0    0  0.77915469587E-02  0.11278870128E-01  0.19087113536E-01  0.10204302336E+01  0.10201596065E+01 0.  0.
     999903    2    3    3    0    0 -0.20958339426E-02  0.93880755386E-01  0.92931312245E-01  0.13342752935E+00  0.18673190450E-01 0.  0.
         14    1    1    2    0    0 -0.77915469587E-02 -0.11278870128E-01 -0.19087113536E-01  0.23499766350E-01  0.00000000000E+00 0.  1.
     999901    1    3    3    0    0  0.98873809014E-02 -0.82601885258E-01 -0.73844198708E-01  0.88700270430E+00  0.88000000000E+00 0.  1.
        -11    1    4    4    0    0 -0.13015310231E-02  0.78348713761E-01  0.86138451516E-01  0.11644873929E+00  0.51100000000E-03 0.  1.
         11    1    4    4    0    0 -0.79430291956E-03  0.15532041625E-01  0.67928607288E-02  0.16978790065E-01  0.51100000000E-03 0. -1.
</event>
<event>
 8    1  0.1176534E+005  0.1043930E+01  0.7957747E-01            NaN
         13   -1    0    0    0    0  0.00000000000E+00  0.00000000000E+00  0.74505805969E-08  0.10566000000E+00  0.10566000000E+00 0.  1.
     999900   -1    0    0    0    0 -0.00000000000E+00 -0.00000000000E+00 -0.74505805969E-08  0.93827000000E+00  0.93827000000E+00 0. -1.
     999902    2    1    2    0    0 -0.85431612676E-02 -0.10749361258E-01  0.19363394342E-01  0.10201923630E+01  0.10199161642E+01 0.  0.
     999903    2    3    3    0    0 -0.10541725249E-01  0.90256855155E-01 -0.87881278108E-01  0.12794370379E+00  0.19724209099E-01 0.  0.
         14    1    1    2    0    0  0.85431612676E-02  0.10749361258E-01 -0.19363394342E-01  0.23737637042E-01  0.00000000000E+00 0. -1.
     999901    1    3    3    0    0  0.19985639813E-02 -0.10100621641E+00  0.10724467245E+00  0.89224865916E+00  0.88000000000E+00 0.  1.
        -11    1    4    4    0    0 -0.36424221866E-02  0.26464723649E-01 -0.14267489739E-01  0.30289787416E-01  0.51100000000E-03 0. -1.
         11    1    4    4    0    0 -0.68993030623E-02  0.63792131506E-01 -0.73613788369E-01  0.97653916378E-01  0.51100000000E-03 0.  1.
</event>
<event>
 8    1  0.1176534E+005  0.1043930E+01  0.7957747E-01            NaN
         13   -1    0    0    0    0  0.00000000000E+00  0.00000000000E+00  0.74505805969E-08  0.10566000000E+00  0.10566000000E+00 0.  1.
     999900   -1    0    0    0    0 -0.00000000000E+00 -0.00000000000E+00 -0.74505805969E-08  0.93827000000E+00  0.93827000000E+00 0. -1.
     999902    2    1    2    0    0  0.28089548549E-02 -0.23639591227E-01  0.22133417497E-02  0.10200214370E+01  0.10197411989E+01 0.  0.
     999903    2    3    3    0    0  0.41661057836E-01 -0.84150013443E-01 -0.91149079828E-01  0.13216585258E+00  0.18514570826E-01 0.  0.
         14    1    1    2    0    0 -0.28089548549E-02  0.23639591227E-01 -0.22133417497E-02  0.23908562952E-01  0.00000000000E+00 0.  1.
     999901    1    3    3    0    0 -0.38852102981E-01  0.60510422216E-01  0.93362421578E-01  0.88785558447E+00  0.88000000000E+00 0.  1.
        -11    1    4    4    0    0  0.15118830234E-01 -0.24140972330E-01 -0.17104650489E-01  0.33229441194E-01  0.51100000000E-03 0.  1.
         11    1    4    4    0    0  0.26542227602E-01 -0.60009041113E-01 -0.74044429339E-01  0.98936411389E-01  0.51100000000E-03 0. -1.
</event>
<event>
 8    1  0.1176534E+005  0.1043930E+01  0.7957747E-01            NaN
         13   -1    0    0    0    0  0.00000000000E+00  0.00000000000E+00  0.74505805969E-08  0.10566000000E+00  0.10566000000E+00 0.  1.
     999900   -1    0    0    0    0 -0.00000000000E+00 -0.00000000000E+00 -0.74505805969E-08  0.93827000000E+00  0.93827000000E+00 0.  1.
     999902    2    1    2    0    0 -0.61020044669E-02  0.10844385829E-01  0.19560437251E-01  0.10207471212E+01  0.10204838262E+01 0.  0.
     999903    2    3    3    0    0 -0.41576988961E-01  0.37749090028E-01  0.11983619612E+00  0.13393396986E+00  0.20590157195E-01 0.  0.
         14    1    1    2    0    0  0.61020044669E-02 -0.10844385829E-01 -0.19560437251E-01  0.23182878768E-01  0.00000000000E+00 0. -1.
     999901    1    3    3    0    0  0.35474984494E-01 -0.26904704200E-01 -0.10027575887E+00  0.88681315137E+00  0.88000000000E+00 0.  1.
        -11    1    4    4    0    0 -0.38246075755E-01  0.23161588967E-01  0.85886351898E-01  0.96829479383E-01  0.51100000000E-03 0.  1.
         11    1    4    4    0    0 -0.33309132057E-02  0.14587501062E-01  0.33949844219E-01  0.37104490476E-01  0.51100000000E-03 0. -1.
</event>
<event>
 8    1  0.1176534E+005  0.1043930E+01  0.7957747E-01            NaN
         13   -1    0    0    0    0  0.00000000000E+00  0.00000000000E+00  0.74505805969E-08  0.10566000000E+00  0.10566000000E+00 0. -1.
     999900   -1    0    0    0    0 -0.00000000000E+00 -0.00000000000E+00 -0.74505805969E-08  0.93827000000E+00  0.93827000000E+00 0.  1.
     999902    2    1    2    0    0 -0.60389218935E-02  0.10718677619E-01  0.14842174624E-01  0.10246518057E+01  0.10244704360E+01 0.  0.
     999903    2    3    3    0    0 -0.62450898897E-01 -0.23583934349E-01 -0.11309035020E+00  0.13295358812E+00  0.20758433350E-01 0.  0.
         14    1    1    2    0    0  0.60389218935E-02 -0.10718677619E-01 -0.14842174624E-01  0.19278194291E-01  0.00000000000E+00 0.  1.
     999901    1    3    3    0    0  0.56411977004E-01  0.34302611968E-01  0.12793252482E+00  0.89169821758E+00  0.88000000000E+00 0. -1.
        -11    1    4    4    0    0 -0.31596474147E-01 -0.20532577212E-01 -0.49571723310E-01  0.62269902669E-01  0.51100000000E-03 0. -1.
         11    1    4    4    0    0 -0.30854424750E-01 -0.30513571375E-02 -0.63518626886E-01  0.70683685455E-01  0.51100000000E-03 0.  1.
</event>
<event>
 8    1  0.1176534E+005  0.1043930E+01  0.7957747E-01            NaN
         13   -1    0    0    0    0  0.00000000000E+00  0.00000000000E+00  0.74505805969E-08  0.10566000000E+00  0.10566000000E+00 0.  1.
     999900   -1    0    0    0    0 -0.00000000000E+00 -0.00000000000E+00 -0.74505805969E-08  0.93827000000E+00  0.93827000000E+00 0. -1.
     999902    2    1    2    0    0 -0.13296326379E-01 -0.85060844167E-02 -0.17506982588E-01  0.10203579783E+01  0.10200856649E+01 0.  0.
     999903    2    3    3    0    0 -0.11621361230E+00  0.23669925855E-01 -0.57581662778E-01  0.13287093988E+00  0.16527846339E-01 0.  0.
         14    1    1    2    0    0  0.13296326379E-01  0.85060844167E-02  0.17506982588E-01  0.23572021692E-01  0.00000000000E+00 0.  1.
     999901    1    3    3    0    0  0.10291728592E+00 -0.32176010271E-01  0.40074680190E-01  0.88748703842E+00  0.88000000000E+00 0.  1.
        -11    1    4    4    0    0 -0.77188896216E-01  0.84246964858E-02 -0.41005616206E-01  0.87811291366E-01  0.51100000000E-03 0. -1.
         11    1    4    4    0    0 -0.39024716080E-01  0.15245229369E-01 -0.16576046572E-01  0.45059648518E-01  0.51100000000E-03 0.  1.
</event>
<event>
 8    1  0.1176534E+005  0.1043930E+01  0.7957747E-01            NaN
         13   -1    0    0    0    0  0.00000000000E+00  0.00000000000E+00  0.74505805969E-08  0.10566000000E+00  0.10566000000E+00 0. -1.
     999900   -1    0    0    0    0 -0.00000000000E+00 -0.00000000000E+00 -0.74505805969E-08  0.93827000000E+00  0.93827000000E+00 0. -1.
     999902    2    1    2    0    0  0.10858224067E-01  0.18112898384E-01 -0.12313789130E-01  0.10194839876E+01  0.10191908524E+01 0.  0.
     999903    2    3    3    0    0  0.38408709409E-02 -0.59875046273E-01 -0.11372758467E+00  0.13020556066E+00  0.20487827046E-01 0.  0.
         14    1    1    2    0    0 -0.10858224067E-01 -0.18112898384E-01  0.12313789130E-01  0.24446012364E-01  0.00000000000E+00 0. -1.
     999901    1    3    3    0    0  0.70173531257E-02  0.77987944657E-01  0.10141379554E+00  0.88927842697E+00  0.88000000000E+00 0.  1.
        -11    1    4    4    0    0  0.55296774924E-02 -0.51123489440E-02 -0.23107487337E-01  0.24309062856E-01  0.51100000000E-03 0. -1.
         11    1    4    4    0    0 -0.16888065515E-02 -0.54762697329E-01 -0.90620097331E-01  0.10589649781E+00  0.51100000000E-03 0.  1.
</event>
<event>
 8    1  0.1176534E+005  0.1043930E+01  0.7957747E-01            NaN
         13   -1    0    0    0    0  0.00000000000E+00  0.00000000000E+00  0.74505805969E-08  0.10566000000E+00  0.10566000000E+00 0.  1.
     999900   -1    0    0    0    0 -0.00000000000E+00 -0.00000000000E+00 -0.74505805969E-08  0.93827000000E+00  0.93827000000E+00 0. -1.
     999902    2    1    2    0    0  0.13441486798E-01  0.23063886074E-01  0.48603898006E-03  0.10172306996E+01  0.10168802504E+01 0.  0.
     999903    2    3    3    0    0 -0.31053800044E-01  0.12249723650E+00 -0.24004770672E-01  0.13017567228E+00  0.19989126805E-01 0.  0.
         14    1    1    2    0    0 -0.13441486798E-01 -0.23063886074E-01 -0.48603898006E-03  0.26699300404E-01  0.00000000000E+00 0. -1.
     999901    1    3    3    0    0  0.44495286842E-01 -0.99433350430E-01  0.24490809652E-01  0.88705502732E+00  0.88000000000E+00 0.  1.
        -11    1    4    4    0    0 -0.30279993186E-01  0.91635975001E-01 -0.23342783526E-01  0.99293386313E-01  0.51100000000E-03 0.  1.
         11    1    4    4    0    0 -0.77380685793E-03  0.30861261502E-01 -0.66198714527E-03  0.30882285967E-01  0.51100000000E-03 0. -1.
</event>
<event>
 8    1  0.1176534E+005  0.1043930E+01  0.7957747E-01            NaN
         13   -1    0    0    0    0  0.00000000000E+00  0.00000000000E+00  0.74505805969E-08  0.10566000000E+00  0.10566000000E+00 0.  1.
     999900   -1    0    0    0    0 -0.00000000000E+00 -0.00000000000E+00 -0.74505805969E-08  0.93827000000E+00  0.93827000000E+00 0. -1.
     999902    2    1    2    0    0 -0.14462328526E-01 -0.11954681568E-02 -0.18365542524E-01  0.10205231368E+01  0.10202546700E+01 0.  0.
     999903    2    3    3    0    0 -0.45764930225E-01 -0.66751003680E-01  0.99615014607E-01  0.12968263879E+00  0.18555601267E-01 0.  0.
         14    1    1    2    0    0  0.14462328526E-01  0.11954681568E-02  0.18365542524E-01  0.23406863154E-01  0.00000000000E+00 0.  1.
     999901    1    3    3    0    0  0.31302601699E-01  0.65555535523E-01 -0.11798055713E+00  0.89084049805E+00  0.88000000000E+00 0. -1.
        -11    1    4    4    0    0 -0.21255825604E-01 -0.16408904249E-01  0.36382594900E-01  0.45221859686E-01  0.51100000000E-03 0.  1.
         11    1    4    4    0    0 -0.24509104621E-01 -0.50342099430E-01  0.63232419707E-01  0.84460779107E-01  0.51100000000E-03 0. -1.
</event>
<event>
 8    1  0.1176534E+005  0.1043930E+01  0.7957747E-01            NaN
         13   -1    0    0    0    0  0.00000000000E+00  0.00000000000E+00  0.74505805969E-08  0.10566000000E+00  0.10566000000E+00 0. -1.
     999900   -1    0    0    0    0 -0.00000000000E+00 -0.00000000000E+00 -0.74505805969E-08  0.93827000000E+00  0.93827000000E+00 0. -1.
     999902    2    1    2    0    0 -0.27835739297E-02 -0.17624030650E-01 -0.14552590138E-01  0.10209053910E+01  0.10206457195E+01 0.  0.
     999903    2    3    3    0    0  0.35595133038E-01  0.97916802568E-01 -0.75763497512E-01  0.13041710670E+00  0.20342085508E-01 0.  0.
         14    1    1    2    0    0  0.27835739297E-02  0.17624030650E-01  0.14552590138E-01  0.23024609006E-01  0.00000000000E+00 0.  1.
     999901    1    3    3    0    0 -0.38378706968E-01 -0.11554083322E+00  0.61210907374E-01  0.89048828430E+00  0.88000000000E+00 0.  1.
        -11    1    4    4    0    0  0.35133106609E-02  0.76015187790E-02 -0.24215515180E-03  0.83932234371E-02  0.51100000000E-03 0.  1.
         11    1    4    4    0    0  0.32081822377E-01  0.90315283789E-01 -0.75521342360E-01  0.12202388326E+00  0.51100000000E-03 0. -1.
</event>
<event>
 8    1  0.1176534E+005  0.1043930E+01  0.7957747E-01            NaN
         13   -1    0    0    0    0  0.00000000000E+00  0.00000000000E+00  0.74505805969E-08  0.10566000000E+00  0.10566000000E+00 0. -1.
     999900   -1    0    0    0    0 -0.00000000000E+00 -0.00000000000E+00 -0.74505805969E-08  0.93827000000E+00  0.93827000000E+00 0.  1.
     999902    2    1    2    0    0  0.31571604960E-02  0.12044030645E-01  0.20636259429E-01  0.10198285158E+01  0.10195436823E+01 0.  0.
     999903    2    3    3    0    0  0.57608896834E-01  0.90971908959E-01  0.75330297786E-01  0.13293165631E+00  0.20037421785E-01 0.  0.
         14    1    1    2    0    0 -0.31571604960E-02 -0.12044030645E-01 -0.20636259429E-01  0.24101484182E-01  0.00000000000E+00 0.  1.
     999901    1    3    3    0    0 -0.54451736338E-01 -0.78927878314E-01 -0.54694038358E-01  0.88689685950E+00  0.88000000000E+00 0.  1.
        -11    1    4    4    0    0  0.95958352165E-03 -0.10140039292E-02  0.12242465188E-02  0.19258517706E-02  0.51100000000E-03 0.  1.
         11    1    4    4    0    0  0.56649313313E-01  0.91985912888E-01  0.74106051267E-01  0.13100580454E+00  0.51100000000E-03 0. -1.
</event>
<event>
 8    1  0.1176534E+005  0.1043930E+01  0.7957747E-01            NaN
         13   -1    0    0    0    0  0.00000000000E+00  0.00000000000E+00  0.74505805969E-08  0.10566000000E+00  0.10566000000E+00 0. -1.
     999900   -1    0    0    0    0 -0.00000000000E+00 -0.00000000000E+00 -0.74505805969E-08  0.93827000000E+00  0.93827000000E+00 0. -1.
     999902    2    1    2    0    0  0.75767573685E-03 -0.22549654919E-01 -0.76920221974E-02  0.10200924621E+01  0.10198139060E+01 0.  0.
     999903    2    3    3    0    0 -0.70337542816E-01  0.99608830684E-01  0.32981121381E-01  0.12788647110E+00  0.19947582364E-01 0.  0.
         14    1    1    2    0    0 -0.75767573685E-03  0.22549654919E-01  0.76920221974E-02  0.23837537939E-01  0.00000000000E+00 0. -1.
     999901    1    3    3    0    0  0.71095218553E-01 -0.12215848560E+00 -0.40673143579E-01  0.89220599097E+00  0.88000000000E+00 0. -1.
        -11    1    4    4    0    0 -0.47346795793E-01  0.50499955183E-01  0.21144448466E-01  0.72383101393E-01  0.51100000000E-03 0. -1.
         11    1    4    4    0    0 -0.22990747023E-01  0.49108875502E-01  0.11836672915E-01  0.55503369703E-01  0.51100000000E-03 0.  1.
</event>
<event>
 8    1  0.1176534E+005  0.1043930E+01  0.7957747E-01            NaN
         13   -1    0    0    0    0  0.00000000000E+00  0.00000000000E+00  0.74505805969E-08  0.10566000000E+00  0.10566000000E+00 0.  1.
     999900   -1    0    0    0    0 -0.00000000000E+00 -0.00000000000E+00 -0.74505805969E-08  0.93827000000E+00  0.93827000000E+00 0. -1.
     999902    2    1    2    0    0  0.19285349875E-01  0.15101915997E-01 -0.69302541262E-02  0.10184737432E+01  0.10181555601E+01 0.  0.
     999903    2    3    3    0    0 -0.91868029451E-01  0.32756355179E-01  0.78980162449E-01  0.12715598135E+00  0.20446610801E-01 0.  0.
         14    1    1    2    0    0 -0.19285349875E-01 -0.15101915997E-01  0.69302541262E-02  0.25456256772E-01  0.00000000000E+00 0.  1.
     999901    1    3    3    0    0  0.11115337933E+00 -0.17654439182E-01 -0.85910416576E-01  0.89131776188E+00  0.88000000000E+00 0. -1.
        -11    1    4    4    0    0 -0.47963082293E-01  0.22585643076E-01  0.53779207434E-01  0.75518426953E-01  0.51100000000E-03 0. -1.
         11    1    4    4    0    0 -0.43904947158E-01  0.10170712103E-01  0.25200955015E-01  0.51637554399E-01  0.51100000000E-03 0.  1.
</event>
<event>
 8    1  0.1176534E+005  0.1043930E+01  0.7957747E-01            NaN
         13   -1    0    0    0    0  0.00000000000E+00  0.00000000000E+00  0.74505805969E-08  0.10566000000E+00  0.10566000000E+00 0.  1.
     999900   -1    0    0    0    0 -0.00000000000E+00 -0.00000000000E+00 -0.74505805969E-08  0.93827000000E+00  0.93827000000E+00 0. -1.
     999902    2    1    2    0    0  0.15359873114E-01  0.18827205351E-01  0.97023161181E-02  0.10177665847E+01  0.10174302416E+01 0.  0.
     999903    2    3    3    0    0 -0.47732748575E-01  0.11902223342E+00  0.88116070295E-02  0.12983611672E+00  0.18304793095E-01 0.  0.
         14    1    1    2    0    0 -0.15359873114E-01 -0.18827205351E-01 -0.97023161181E-02  0.26163415325E-01  0.00000000000E+00 0.  1.
     999901    1    3    3    0    0  0.63092621689E-01 -0.10019502807E+00  0.89070908860E-03  0.88793046796E+00  0.88000000000E+00 0. -1.
        -11    1    4    4    0    0 -0.66975945975E-02  0.65064862279E-02 -0.20654671004E-02  0.95770252046E-02  0.51100000000E-03 0. -1.
         11    1    4    4    0    0 -0.41035153977E-01  0.11251574720E+00  0.10877074130E-01  0.12025909151E+00  0.51100000000E-03 0.  1.
</event>
<event>
 8    1  0.1176534E+005  0.1043930E+01  0.7957747E-01            NaN
         13   -1    0    0    0    0  0.00000000000E+00  0.00000000000E+00  0.74505805969E-08  0.10566000000E+00  0.10566000000E+00 0.  1.
     999900   -1    0    0    0    0 -0.00000000000E+00 -0.00000000000E+00 -0.74505805969E-08  0.93827000000E+00  0.93827000000E+00 0. -1.
     999902    2    1    2    0    0  0.83766954629E-02 -0.83298346036E-02 -0.99300443294E-02  0.10284975358E+01  0.10283817483E+01 0.  0.
     999903    2    3    3    0    0  0.72049149032E-01  0.10688029244E+00 -0.45078625757E-01  0.13801284895E+00  0.20024664441E-01 0.  0.
         14    1    1    2    0    0 -0.83766954629E-02  0.83298346036E-02  0.99300443294E-02  0.15432464216E-01  0.00000000000E+00 0.  1.
     999901    1    3    3    0    0 -0.63672453569E-01 -0.11521012704E+00  0.35148581427E-01  0.89048468684E+00  0.88000000000E+00 0. -1.
        -11    1    4    4    0    0  0.51039871001E-01  0.73624457383E-01 -0.21438772208E-01  0.92116834680E-01  0.51100000000E-03 0.  1.
         11    1    4    4    0    0  0.21009278031E-01  0.33255835056E-01 -0.23639853549E-01  0.45896014266E-01  0.51100000000E-03 0. -1.
</event>
<event>
 7    1  0.1176534E+005  0.1043930E+01  0.7957747E-01            NaN
         13   -1    0    0    0    0  0.00000000000E+00  0.00000000000E+00  0.74505805969E-08  0.10566000000E+00  0.10566000000E+00 0.  1.
     999900   -1    0    0    0    0 -0.00000000000E+00 -0.00000000000E+00 -0.74505805969E-08  0.93827000000E+00  0.93827000000E+00 0. -1.
     999902    2    1    2    0    0  0.16909459547E-01 -0.92964189660E-02 -0.14311851518E-01  0.10199053809E+01  0.10196223829E+01 0.  0.
         14    1    1    2    0    0 -0.16909459547E-01  0.92964189660E-02  0.14311851518E-01  0.24024619074E-01  0.00000000000E+00 0.  1.
     999901    1    3    3    0    0  0.14909613892E-01  0.11513342187E+00  0.11373533177E-01  0.88769778566E+00  0.88000000000E+00 0.  1.
        -11    1    3    3    0    0  0.10794758554E-01 -0.10950610780E+00 -0.30564117412E-01  0.11420394412E+00  0.51100000000E-03 0.  1.
         11    1    3    3    0    0 -0.87949128986E-02 -0.14923733030E-01  0.48787327164E-02  0.18003651140E-01  0.51100000000E-03 0. -1.
</event>
<event>
 8    1  0.1176534E+005  0.1043930E+01  0.7957747E-01            NaN
         13   -1    0    0    0    0  0.00000000000E+00  0.00000000000E+00  0.74505805969E-08  0.10566000000E+00  0.10566000000E+00 0. -1.
     999900   -1    0    0    0    0 -0.00000000000E+00 -0.00000000000E+00 -0.74505805969E-08  0.93827000000E+00  0.93827000000E+00 0. -1.
     999902    2    1    2    0    0  0.11569569346E-01 -0.13005293578E-01  0.14244229318E-01  0.10214379866E+01  0.10211903201E+01 0.  0.
     999903    2    3    3    0    0  0.35940025616E-02 -0.11312571120E+00  0.68981785683E-01  0.13403508617E+00  0.19914170328E-01 0.  0.
         14    1    1    2    0    0 -0.11569569346E-01  0.13005293578E-01 -0.14244229318E-01  0.22492013355E-01  0.00000000000E+00 0.  1.
     999901    1    3    3    0    0  0.79755667840E-02  0.10012041762E+00 -0.54737556365E-01  0.88740290047E+00  0.88000000000E+00 0. -1.
        -11    1    4    4    0    0  0.56708851349E-02 -0.93919567468E-01  0.48428342280E-01  0.10582348297E+00  0.51100000000E-03 0. -1.
         11    1    4    4    0    0 -0.20768825734E-02 -0.19206143734E-01  0.20553443403E-01  0.28211603199E-01  0.51100000000E-03 0.  1.
</event>
<event>
 8    1  0.1176534E+005  0.1043930E+01  0.7957747E-01            NaN
         13   -1    0    0    0    0  0.00000000000E+00  0.00000000000E+00  0.74505805969E-08  0.10566000000E+00  0.10566000000E+00 0. -1.
     999900   -1    0    0    0    0 -0.00000000000E+00 -0.00000000000E+00 -0.74505805969E-08  0.93827000000E+00  0.93827000000E+00 0. -1.
     999902    2    1    2    0    0  0.20618480850E-01  0.48611873666E-02 -0.27217627530E-02  0.10225720767E+01  0.10223490065E+01 0.  0.
     999903    2    3    3    0    0 -0.94502781527E-01  0.84511253668E-01  0.26132346303E-01  0.13103991367E+00  0.20387048287E-01 0.  0.
         14    1    1    2    0    0 -0.20618480850E-01 -0.48611873666E-02  0.27217627530E-02  0.21357923299E-01  0.00000000000E+00 0. -1.
     999901    1    3    3    0    0  0.11512126238E+00 -0.79650066301E-01 -0.28854109056E-01  0.89153216303E+00  0.88000000000E+00 0. -1.
        -11    1    4    4    0    0 -0.29156166107E-01  0.34568074485E-01  0.17704127794E-02  0.45259576645E-01  0.51100000000E-03 0.  1.
         11    1    4    4    0    0 -0.65346615420E-01  0.49943179183E-01  0.24361933523E-01  0.85780337023E-01  0.51100000000E-03 0. -1.
</event>
<event>
 8    1  0.1176534E+005  0.1043930E+01  0.7957747E-01            NaN
         13   -1    0    0    0    0  0.00000000000E+00  0.00000000000E+00  0.74505805969E-08  0.10566000000E+00  0.10566000000E+00 0.  1.
     999900   -1    0    0    0    0 -0.00000000000E+00 -0.00000000000E+00 -0.74505805969E-08  0.93827000000E+00  0.93827000000E+00 0.  1.
     999902    2    1    2    0    0  0.25201276802E-01  0.47681837936E-02  0.45597138198E-03  0.10182775569E+01  0.10179543875E+01 0.  0.
     999903    2    3    3    0    0 -0.86017886898E-01  0.81542880849E-01 -0.41245723499E-01  0.12698462643E+00  0.19379560330E-01 0.  0.
         14    1    1    2    0    0 -0.25201276802E-01 -0.47681837936E-02 -0.45597138198E-03  0.25652443140E-01  0.00000000000E+00 0. -1.
     999901    1    3    3    0    0  0.11121916370E+00 -0.76774697056E-01  0.41701694881E-01  0.89129293043E+00  0.88000000000E+00 0.  1.
        -11    1    4    4    0    0 -0.39586546286E-01  0.42824678316E-01 -0.10872803392E-01  0.59325598980E-01  0.51100000000E-03 0.  1.
         11    1    4    4    0    0 -0.46431340612E-01  0.38718202533E-01 -0.30372920107E-01  0.67659027448E-01  0.51100000000E-03 0. -1.
</event>
<event>
 8    1  0.1256439E+005  0.1043930E+01  0.7957747E-01            NaN
         13   -1    0    0    0    0  0.00000000000E+00  0.00000000000E+00  0.74505805969E-08  0.10566000000E+00  0.10566000000E+00 0.  1.
     999900   -1    0    0    0    0 -0.00000000000E+00 -0.00000000000E+00 -0.74505805969E-08  0.93827000000E+00  0.93827000000E+00 0. -1.
     999902    2    1    2    0    0  0.23699870860E-02  0.41913288553E-02  0.25644067879E-01  0.10178378116E+01  0.10175033211E+01 0.  0.
     999903    2    3    3    0    0  0.92611902167E-01 -0.56157318319E-01  0.69256543848E-01  0.13009482489E+00  0.19939552994E-01 0.  0.
         14    1    1    2    0    0 -0.23699870860E-02 -0.41913288553E-02 -0.25644067879E-01  0.26092188366E-01  0.00000000000E+00 0. -1.
     999901    1    3    3    0    0 -0.90241915081E-01  0.60348647174E-01 -0.43612475969E-01  0.88774298674E+00  0.88000000000E+00 0.  1.
        -11    1    4    4    0    0  0.58466892148E-01 -0.40446733084E-01  0.55024028975E-01  0.89901171184E-01  0.51100000000E-03 0.  1.
         11    1    4    4    0    0  0.34145010019E-01 -0.15710585235E-01  0.14232514873E-01  0.40193653706E-01  0.51100000000E-03 0. -1.
</event>
<event>
 8    1  0.1176534E+005  0.1043930E+01  0.7957747E-01            NaN
         13   -1    0    0    0    0  0.00000000000E+00  0.00000000000E+00  0.74505805969E-08  0.10566000000E+00  0.10566000000E+00 0. -1.
     999900   -1    0    0    0    0 -0.00000000000E+00 -0.00000000000E+00 -0.74505805969E-08  0.93827000000E+00  0.93827000000E+00 0. -1.
     999902    2    1    2    0    0  0.91774598473E-02  0.21903388407E-01  0.37256549687E-02  0.10198911835E+01  0.10196078469E+01 0.  0.
     999903    2    3    3    0    0  0.60376792541E-01  0.70372652539E-01 -0.91660772234E-01  0.13193329503E+00  0.20174981232E-01 0.  0.
         14    1    1    2    0    0 -0.91774598473E-02 -0.21903388407E-01 -0.37256549687E-02  0.24038816483E-01  0.00000000000E+00 0.  1.
     999901    1    3    3    0    0 -0.51199332694E-01 -0.48469264131E-01  0.95386427202E-01  0.88795788849E+00  0.88000000000E+00 0.  1.
        -11    1    4    4    0    0  0.20079658082E-01  0.23307773699E-01 -0.17882454700E-01  0.35587754784E-01  0.51100000000E-03 0. -1.
         11    1    4    4    0    0  0.40297134459E-01  0.47064878840E-01 -0.73778317534E-01  0.96345540244E-01  0.51100000000E-03 0.  1.
</event>
<event>
 8    1  0.1176534E+005  0.1043930E+01  0.7957747E-01            NaN
         13   -1    0    0    0    0  0.00000000000E+00  0.00000000000E+00  0.74505805969E-08  0.10566000000E+00  0.10566000000E+00 0.  1.
     999900   -1    0    0    0    0 -0.00000000000E+00 -0.00000000000E+00 -0.74505805969E-08  0.93827000000E+00  0.93827000000E+00 0.  1.
     999902    2    1    2    0    0 -0.82482652393E-02  0.44036394348E-02 -0.22379544865E-01  0.10196757231E+01  0.10193872230E+01 0.  0.
     999903    2    3    3    0    0 -0.38512891407E-01  0.11525109674E+00  0.41535831416E-01  0.12990705557E+00  0.19610193563E-01 0.  0.
         14    1    1    2    0    0  0.82482652393E-02 -0.44036394348E-02  0.22379544865E-01  0.24254276903E-01  0.00000000000E+00 0.  1.
     999901    1    3    3    0    0  0.30264626168E-01 -0.11084745730E+00 -0.63915376281E-01  0.88976866753E+00  0.88000000000E+00 0. -1.
        -11    1    4    4    0    0 -0.39522266863E-01  0.98443008023E-01  0.38086093876E-01  0.11271134404E+00  0.51100000000E-03 0.  1.
         11    1    4    4    0    0  0.10093754564E-02  0.16808088716E-01  0.34497375396E-02  0.17195711534E-01  0.51100000000E-03 0. -1.
</event>
<event>
 8    1  0.1176534E+005  0.1043930E+01  0.7957747E-01            NaN
         13   -1    0    0    0    0  0.00000000000E+00  0.00000000000E+00  0.74505805969E-08  0.10566000000E+00  0.10566000000E+00 0.  1.
     999900   -1    0    0    0    0 -0.00000000000E+00 -0.00000000000E+00 -0.74505805969E-08  0.93827000000E+00  0.93827000000E+00 0. -1.
     999902    2    1    2    0    0  0.29786071251E-02  0.25095726900E-01 -0.73079305645E-03  0.10186475621E+01  0.10183337636E+01 0.  0.
     999903    2    3    3    0    0  0.86404043511E-02 -0.34507663046E-01 -0.12204622623E+00  0.12830939353E+00  0.17394934168E-01 0.  0.
         14    1    1    2    0    0 -0.29786071251E-02 -0.25095726900E-01  0.73079305645E-03  0.25282437927E-01  0.00000000000E+00 0. -1.
     999901    1    3    3    0    0 -0.56617972260E-02  0.59603389945E-01  0.12131543317E+00  0.89033816854E+00  0.88000000000E+00 0.  1.
        -11    1    4    4    0    0  0.65078665649E-02 -0.17521244991E-02 -0.19751198962E-01  0.20875661640E-01  0.51100000000E-03 0.  1.
         11    1    4    4    0    0  0.21325377863E-02 -0.32755538546E-01 -0.10229502727E+00  0.10743373189E+00  0.51100000000E-03 0. -1.
</event>
<event>
 8    1  0.1176534E+005  0.1043930E+01  0.7957747E-01            NaN
         13   -1    0    0    0    0  0.00000000000E+00  0.00000000000E+00  0.74505805969E-08  0.10566000000E+00  0.10566000000E+00 0. -1.
     999900   -1    0    0    0    0 -0.00000000000E+00 -0.00000000000E+00 -0.74505805969E-08  0.93827000000E+00  0.93827000000E+00 0. -1.
     999902    2    1    2    0    0  0.48430377597E-02 -0.55380307088E-02  0.21076445426E-01  0.10216064396E+01  0.10213625096E+01 0.  0.
     999903    2    3    3    0    0 -0.73152855120E-01  0.22078230971E-01  0.10758297047E+00  0.13350205601E+00  0.20246355883E-01 0.  0.
         14    1    1    2    0    0 -0.48430377597E-02  0.55380307088E-02 -0.21076445426E-01  0.22323560439E-01  0.00000000000E+00 0.  1.
     999901    1    3    3    0    0  0.77995892880E-01 -0.27616261680E-01 -0.86506525049E-01  0.88810438356E+00  0.88000000000E+00 0. -1.
        -11    1    4    4    0    0 -0.23524988061E-01 -0.23664130048E-02  0.29582621872E-01  0.37873706072E-01  0.51100000000E-03 0.  1.
         11    1    4    4    0    0 -0.49627867059E-01  0.24444643976E-01  0.78000348603E-01  0.95628349934E-01  0.51100000000E-03 0. -1.
</event>
<event>
 8    1  0.1176534E+005  0.1043930E+01  0.7957747E-01            NaN
         13   -1    0    0    0    0  0.00000000000E+00  0.00000000000E+00  0.74505805969E-08  0.10566000000E+00  0.10566000000E+00 0.  1.
     999900   -1    0    0    0    0 -0.00000000000E+00 -0.00000000000E+00 -0.74505805969E-08  0.93827000000E+00  0.93827000000E+00 0.  1.
     999902    2    1    2    0    0 -0.23988244711E-01  0.18604710374E-02  0.36913514193E-02  0.10195881983E+01  0.10192975869E+01 0.  0.
     999903    2    3    3    0    0  0.94801779514E-01 -0.51597266602E-01  0.65743228889E-01  0.12783754081E+00  0.19251217486E-01 0.  0.
         14    1    1    2    0    0  0.23988244711E-01 -0.18604710374E-02 -0.36913514193E-02  0.24341801743E-01  0.00000000000E+00 0.  1.
     999901    1    3    3    0    0 -0.11879002422E+00  0.53457737639E-01 -0.62051877469E-01  0.89175065745E+00  0.88000000000E+00 0. -1.
        -11    1    4    4    0    0  0.31836058982E-01 -0.13973642816E-01  0.11556359181E-01  0.36641614369E-01  0.51100000000E-03 0. -1.
         11    1    4    4    0    0  0.62965720532E-01 -0.37623623786E-01  0.54186869707E-01  0.91195926436E-01  0.51100000000E-03 0.  1.
</event>
<event>
 8    1  0.1176534E+005  0.1043930E+01  0.7957747E-01            NaN
         13   -1    0    0    0    0  0.00000000000E+00  0.00000000000E+00  0.74505805969E-08  0.10566000000E+00  0.10566000000E+00 0.  1.
     999900   -1    0    0    0    0 -0.00000000000E+00 -0.00000000000E+00 -0.74505805969E-08  0.93827000000E+00  0.93827000000E+00 0. -1.
     999902    2    1    2    0    0 -0.12549140330E-01  0.18835871717E-01  0.13996214650E-02  0.10212533617E+01  0.10210015665E+01 0.  0.
     999903    2    3    3    0    0  0.20251862494E-01 -0.58977777677E-01  0.11247970550E+00  0.13025972818E+00  0.20673568681E-01 0.  0.
         14    1    1    2    0    0  0.12549140330E-01 -0.18835871717E-01 -0.13996214650E-02  0.22676638344E-01  0.00000000000E+00 0. -1.
     999901    1    3    3    0    0 -0.32801002824E-01  0.77813649394E-01 -0.11108008404E+00  0.89099363347E+00  0.88000000000E+00 0. -1.
        -11    1    4    4    0    0  0.21016244090E-01 -0.43831354303E-01  0.70615409988E-01  0.85730201122E-01  0.51100000000E-03 0. -1.
         11    1    4    4    0    0 -0.76438159648E-03 -0.15146423375E-01  0.41864295516E-01  0.44529527062E-01  0.51100000000E-03 0.  1.
</event>
<event>
 8    1  0.1176534E+005  0.1043930E+01  0.7957747E-01            NaN
         13   -1    0    0    0    0  0.00000000000E+00  0.00000000000E+00  0.74505805969E-08  0.10566000000E+00  0.10566000000E+00 0. -1.
     999900   -1    0    0    0    0 -0.00000000000E+00 -0.00000000000E+00 -0.74505805969E-08  0.93827000000E+00  0.93827000000E+00 0. -1.
     999902    2    1    2    0    0  0.15742478466E-01  0.16643391890E-01  0.34032896118E-02  0.10207694624E+01  0.10205066805E+01 0.  0.
     999903    2    3    3    0    0  0.11990745462E+00 -0.44327710672E-01  0.27444689760E-01  0.13220556119E+00  0.19553920481E-01 0.  0.
         14    1    1    2    0    0 -0.15742478466E-01 -0.16643391890E-01 -0.34032896118E-02  0.23160537603E-01  0.00000000000E+00 0. -1.
     999901    1    3    3    0    0 -0.10416497616E+00  0.60971102563E-01 -0.24041400148E-01  0.88856390121E+00  0.88000000000E+00 0. -1.
        -11    1    4    4    0    0  0.70549203047E-01 -0.32808149132E-01  0.23900821068E-01  0.81394564123E-01  0.51100000000E-03 0. -1.
         11    1    4    4    0    0  0.49358251577E-01 -0.11519561540E-01  0.35438686916E-02  0.50810997068E-01  0.51100000000E-03 0.  1.
</event>
<event>
 8    1  0.1176534E+005  0.1043930E+01  0.7957747E-01            NaN
         13   -1    0    0    0    0  0.00000000000E+00  0.00000000000E+00  0.74505805969E-08  0.10566000000E+00  0.10566000000E+00 0. -1.
     999900   -1    0    0    0    0 -0.00000000000E+00 -0.00000000000E+00 -0.74505805969E-08  0.93827000000E+00  0.93827000000E+00 0. -1.
     999902    2    1    2    0    0  0.10210282254E-01  0.16854817458E-01  0.11289539198E-01  0.10212190240E+01  0.10209664571E+01 0.  0.
     999903    2    3    3    0    0 -0.80401402618E-01  0.53477723747E-01  0.86731218683E-01  0.13260034217E+00  0.27134737337E-01 0.  0.
         14    1    1    2    0    0 -0.10210282254E-01 -0.16854817458E-01 -0.11289539198E-01  0.22710975993E-01  0.00000000000E+00 0.  1.
     999901    1    3    3    0    0  0.90611684871E-01 -0.36622906289E-01 -0.75441679485E-01  0.88861868183E+00  0.88000000000E+00 0. -1.
        -11    1    4    4    0    0 -0.38505277670E-01  0.28956675605E-01  0.60753845326E-01  0.77539901428E-01  0.51100000000E-03 0.  1.
         11    1    4    4    0    0 -0.41896124948E-01  0.24521048141E-01  0.25977373357E-01  0.55060440746E-01  0.51100000000E-03 0. -1.
</event>
<event>
 8    1  0.1176534E+005  0.1043930E+01  0.7957747E-01            NaN
         13   -1    0    0    0    0  0.00000000000E+00  0.00000000000E+00  0.74505805969E-08  0.10566000000E+00  0.10566000000E+00 0.  1.
     999900   -1    0    0    0    0 -0.00000000000E+00 -0.00000000000E+00 -0.74505805969E-08  0.93827000000E+00  0.93827000000E+00 0.  1.
     999902    2    1    2    0    0 -0.22326135774E-01 -0.71180877269E-02 -0.15283625409E-02  0.10204468272E+01  0.10201765866E+01 0.  0.
     999903    2    3    3    0    0 -0.12810891921E+00  0.35214305743E-02 -0.31343284803E-01  0.13354653621E+00  0.20687681723E-01 0.  0.
         14    1    1    2    0    0  0.22326135774E-01  0.71180877269E-02  0.15283625409E-02  0.23483172774E-01  0.00000000000E+00 0. -1.
     999901    1    3    3    0    0  0.10578278344E+00 -0.10639518301E-01  0.29814922262E-01  0.88690029102E+00  0.88000000000E+00 0. -1.
        -11    1    4    4    0    0 -0.14196160754E-01  0.62806383433E-02 -0.68538598714E-03  0.15546969901E-01  0.51100000000E-03 0.  1.
         11    1    4    4    0    0 -0.11391275846E+00 -0.27592077690E-02 -0.30657898816E-01  0.11799956630E+00  0.51100000000E-03 0. -1.
</event>
<event>
 8    1  0.1176534E+005  0.1043930E+01  0.7957747E-01            NaN
         13   -1    0    0    0    0  0.00000000000E+00  0.00000000000E+00  0.74505805969E-08  0.10566000000E+00  0.10566000000E+00 0.  1.
     999900   -1    0    0    0    0 -0.00000000000E+00 -0.00000000000E+00 -0.74505805969E-08  0.93827000000E+00  0.93827000000E+00 0. -1.
     999902    2    1    2    0    0 -0.11104252846E-01 -0.16069362066E-01  0.87271541810E-02  0.10225362615E+01  0.10223124346E+01 0.  0.
     999903    2    3    3    0    0 -0.80550064737E-01 -0.10434572581E+00 -0.22105407640E-01  0.13486172423E+00  0.17963635221E-01 0.  0.
         14    1    1    2    0    0  0.11104252846E-01  0.16069362066E-01 -0.87271541810E-02  0.21393738537E-01  0.00000000000E+00 0. -1.
     999901    1    3    3    0    0  0.69445811891E-01  0.88276363747E-01  0.30832561821E-01  0.88767453723E+00  0.88000000000E+00 0. -1.
        -11    1    4    4    0    0 -0.56161047231E-01 -0.78641638399E-01 -0.23291352947E-01  0.99404822616E-01  0.51100000000E-03 0.  1.
         11    1    4    4    0    0 -0.24389017506E-01 -0.25704087414E-01  0.11859453069E-02  0.35456901612E-01  0.51100000000E-03 0. -1.
</event>
<event>
 8    1  0.1176534E+005  0.1043930E+01  0.7957747E-01            NaN
         13   -1    0    0    0    0  0.00000000000E+00  0.00000000000E+00  0.74505805969E-08  0.10566000000E+00  0.10566000000E+00 0.  1.
     999900   -1    0    0    0    0 -0.00000000000E+00 -0.00000000000E+00 -0.74505805969E-08  0.93827000000E+00  0.93827000000E+00 0.  1.
     999902    2    1    2    0    0 -0.18131637407E-02  0.19465868583E-01 -0.13835231281E-01  0.10199796090E+01  0.10196983778E+01 0.  0.
     999903    2    3    3    0    0 -0.29588825304E-01 -0.23209876383E-01 -0.12441157043E+00  0.13159915374E+00  0.20637380262E-01 0.  0.
         14    1    1    2    0    0  0.18131637407E-02 -0.19465868583E-01  0.13835231281E-01  0.23950390958E-01  0.00000000000E+00 0.  1.
     999901    1    3    3    0    0  0.27775661564E-01  0.42675744966E-01  0.11057633915E+00  0.88838045530E+00  0.88000000000E+00 0. -1.
        -11    1    4    4    0    0  0.97469071625E-04 -0.69874151412E-02 -0.40873533275E-01  0.41469751795E-01  0.51100000000E-03 0. -1.
         11    1    4    4    0    0 -0.29686294376E-01 -0.16222461242E-01 -0.83538037153E-01  0.90129401945E-01  0.51100000000E-03 0.  1.
</event>
<event>
 8    1  0.1176534E+005  0.1043930E+01  0.7957747E-01            NaN
         13   -1    0    0    0    0  0.00000000000E+00  0.00000000000E+00  0.74505805969E-08  0.10566000000E+00  0.10566000000E+00 0. -1.
     999900   -1    0    0    0    0 -0.00000000000E+00 -0.00000000000E+00 -0.74505805969E-08  0.93827000000E+00  0.93827000000E+00 0. -1.
     999902    2    1    2    0    0 -0.67738070307E-02  0.22810920231E-01 -0.38180363434E-02  0.10198302086E+01  0.10195454156E+01 0.  0.
     999903    2    3    3    0    0 -0.11958858206E-01 -0.97065010188E-01  0.79803013446E-01  0.12775980589E+00  0.19733640130E-01 0.  0.
         14    1    1    2    0    0  0.67738070307E-02 -0.22810920231E-01  0.38180363434E-02  0.24099791389E-01  0.00000000000E+00 0.  1.
     999901    1    3    3    0    0  0.51850511751E-02  0.11987593042E+00 -0.83621049789E-01  0.89207040272E+00  0.88000000000E+00 0.  1.
        -11    1    4    4    0    0 -0.43900466647E-02 -0.12460204732E-01  0.37456307717E-02  0.13741181993E-01  0.51100000000E-03 0.  1.
         11    1    4    4    0    0 -0.75688115410E-02 -0.84604805456E-01  0.76057382674E-01  0.11401862389E+00  0.51100000000E-03 0. -1.
</event>
<event>
 8    1  0.1176534E+005  0.1043930E+01  0.7957747E-01            NaN
         13   -1    0    0    0    0  0.00000000000E+00  0.00000000000E+00  0.74505805969E-08  0.10566000000E+00  0.10566000000E+00 0.  1.
     999900   -1    0    0    0    0 -0.00000000000E+00 -0.00000000000E+00 -0.74505805969E-08  0.93827000000E+00  0.93827000000E+00 0. -1.
     999902    2    1    2    0    0  0.15953872644E-01  0.53963420173E-02 -0.17207973832E-01  0.10198517749E+01  0.10195674975E+01 0.  0.
     999903    2    3    3    0    0  0.52489874956E-01 -0.54006058741E-01  0.10271850824E+00  0.12898372308E+00  0.20343734459E-01 0.  0.
         14    1    1    2    0    0 -0.15953872644E-01 -0.53963420173E-02  0.17207973832E-01  0.24078225078E-01  0.00000000000E+00 0.  1.
     999901    1    3    3    0    0 -0.36536002312E-01  0.59402400758E-01 -0.11992648207E+00  0.89086805184E+00  0.88000000000E+00 0. -1.
        -11    1    4    4    0    0  0.37384634068E-01 -0.36975171579E-01  0.85740557833E-01  0.10058070668E+00  0.51100000000E-03 0.  1.
         11    1    4    4    0    0  0.15105240888E-01 -0.17030887162E-01  0.16977950409E-01  0.28403016405E-01  0.51100000000E-03 0. -1.
</event>
<event>
 8    1  0.1176534E+005  0.1043930E+01  0.7957747E-01            NaN
         13   -1    0    0    0    0  0.00000000000E+00  0.00000000000E+00  0.74505805969E-08  0.10566000000E+00  0.10566000000E+00 0. -1.
     999900   -1    0    0    0    0 -0.00000000000E+00 -0.00000000000E+00 -0.74505805969E-08  0.93827000000E+00  0.93827000000E+00 0. -1.
     999902    2    1    2    0    0 -0.22133905290E-01  0.18545919777E-02 -0.80079702030E-02  0.10203190521E+01  0.10200458280E+01 0.  0.
     999903    2    3    3    0    0 -0.10198749110E+00  0.51383250438E-01  0.64734650132E-01  0.13233190579E+00  0.16717403962E-01 0.  0.
         14    1    1    2    0    0  0.22133905290E-01 -0.18545919777E-02  0.80079702030E-02  0.23610947917E-01  0.00000000000E+00 0. -1.
     999901    1    3    3    0    0  0.79853585808E-01 -0.49528658460E-01 -0.72742620335E-01  0.88798714630E+00  0.88000000000E+00 0. -1.
        -11    1    4    4    0    0 -0.59491304154E-01  0.38638986066E-01  0.37018802367E-01  0.80017744056E-01  0.51100000000E-03 0.  1.
         11    1    4    4    0    0 -0.42496186944E-01  0.12744264372E-01  0.27715847765E-01  0.52314161730E-01  0.51100000000E-03 0. -1.
</event>
<event>
 8    1  0.1176534E+005  0.1043930E+01  0.7957747E-01            NaN
         13   -1    0    0    0    0  0.00000000000E+00  0.00000000000E+00  0.74505805969E-08  0.10566000000E+00  0.10566000000E+00 0. -1.
     999900   -1    0    0    0    0 -0.00000000000E+00 -0.00000000000E+00 -0.74505805969E-08  0.93827000000E+00  0.93827000000E+00 0. -1.
     999902    2    1    2    0    0  0.83152476475E-02 -0.51349556949E-02  0.25869177696E-01  0.10162763299E+01  0.10159000213E+01 0.  0.
     999903    2    3    3    0    0  0.12283848217E+00  0.29794822850E-01  0.17525590955E-02  0.12784103574E+00  0.19058719428E-01 0.  0.
         14    1    1    2    0    0 -0.83152476475E-02  0.51349556949E-02 -0.25869177696E-01  0.27653670066E-01  0.00000000000E+00 0.  1.
     999901    1    3    3    0    0 -0.11452323452E+00 -0.34929778545E-01  0.24116618601E-01  0.88843529419E+00  0.88000000000E+00 0.  1.
        -11    1    4    4    0    0  0.12759338872E-01 -0.13010279772E-02  0.39568649638E-02  0.13431727498E-01  0.51100000000E-03 0.  1.
         11    1    4    4    0    0  0.11007914330E+00  0.31095850828E-01 -0.22043058683E-02  0.11440930824E+00  0.51100000000E-03 0. -1.
</event>
<event>
 8    1  0.1176534E+005  0.1043930E+01  0.7957747E-01            NaN
         13   -1    0    0    0    0  0.00000000000E+00  0.00000000000E+00  0.74505805969E-08  0.10566000000E+00  0.10566000000E+00 0.  1.
     999900   -1    0    0    0    0 -0.00000000000E+00 -0.00000000000E+00 -0.74505805969E-08  0.93827000000E+00  0.93827000000E+00 0. -1.
     999902    2    1    2    0    0 -0.63579543542E-02 -0.21913030211E-01 -0.60861544719E-02  0.10203154758E+01  0.10200421680E+01 0.  0.
     999903    2    3    3    0    0 -0.27892558410E-01 -0.89945827998E-02  0.12544308787E+00  0.13018595318E+00  0.18802041858E-01 0.  0.
         14    1    1    2    0    0  0.63579543542E-02  0.21913030211E-01  0.60861544719E-02  0.23614524193E-01  0.00000000000E+00 0.  1.
     999901    1    3    3    0    0  0.21534604056E-01 -0.12918447411E-01 -0.13152924234E+00  0.89012952262E+00  0.88000000000E+00 0. -1.
        -11    1    4    4    0    0 -0.23361898824E-01 -0.83032884246E-02  0.65044460290E-01  0.69611535328E-01  0.51100000000E-03 0. -1.
         11    1    4    4    0    0 -0.45306595860E-02 -0.69129437526E-03  0.60398627578E-01  0.60574417856E-01  0.51100000000E-03 0.  1.
</event>
<event>
 8    1  0.1176534E+005  0.1043930E+01  0.7957747E-01            NaN
         13   -1    0    0    0    0  0.00000000000E+00  0.00000000000E+00  0.74505805969E-08  0.10566000000E+00  0.10566000000E+00 0. -1.
     999900   -1    0    0    0    0 -0.00000000000E+00 -0.00000000000E+00 -0.74505805969E-08  0.93827000000E+00  0.93827000000E+00 0. -1.
     999902    2    1    2    0    0 -0.20937118351E-02  0.64463704389E-03 -0.23381002387E-01  0.10204465918E+01  0.10201763457E+01 0.  0.
     999903    2    3    3    0    0  0.38890147416E-01 -0.11170220209E+00  0.50435286760E-01  0.12929546351E+00  0.13556298000E-01 0.  0.
         14    1    1    2    0    0  0.20937118351E-02 -0.64463704389E-03  0.23381002387E-01  0.23483408160E-01  0.00000000000E+00 0. -1.
     999901    1    3    3    0    0 -0.40983859251E-01  0.11234683913E+00 -0.73816289147E-01  0.89115112833E+00  0.88000000000E+00 0. -1.
        -11    1    4    4    0    0  0.95594560741E-02 -0.36591548429E-01  0.10176643962E-01  0.39168224624E-01  0.51100000000E-03 0. -1.
         11    1    4    4    0    0  0.29330691342E-01 -0.75110653661E-01  0.40258642798E-01  0.90127238884E-01  0.51100000000E-03 0.  1.
</event>
<event>
 8    1  0.1176534E+005  0.1043930E+01  0.7957747E-01            NaN
         13   -1    0    0    0    0  0.00000000000E+00  0.00000000000E+00  0.74505805969E-08  0.10566000000E+00  0.10566000000E+00 0.  1.
     999900   -1    0    0    0    0 -0.00000000000E+00 -0.00000000000E+00 -0.74505805969E-08  0.93827000000E+00  0.93827000000E+00 0.  1.
     999902    2    1    2    0    0 -0.11643062779E-01  0.12518136920E-01 -0.16262213133E-01  0.10203349955E+01  0.10200621445E+01 0.  0.
     999903    2    3    3    0    0  0.11346576670E+00  0.40498037444E-01 -0.45842607517E-01  0.13055407087E+00  0.20694190161E-01 0.  0.
         14    1    1    2    0    0  0.11643062779E-01 -0.12518136920E-01  0.16262213133E-01  0.23595004531E-01  0.00000000000E+00 0. -1.
     999901    1    3    3    0    0 -0.12510882948E+00 -0.27979900524E-01  0.29580394384E-01  0.88978092460E+00  0.88000000000E+00 0. -1.
        -11    1    4    4    0    0  0.78448718245E-01  0.18804925756E-01 -0.35122943896E-01  0.87986981628E-01  0.51100000000E-03 0. -1.
         11    1    4    4    0    0  0.35017048458E-01  0.21693111688E-01 -0.10719663621E-01  0.42567089242E-01  0.51100000000E-03 0.  1.
</event>
<event>
 8    1  0.1176534E+005  0.1043930E+01  0.7957747E-01            NaN
         13   -1    0    0    0    0  0.00000000000E+00  0.00000000000E+00  0.74505805969E-08  0.10566000000E+00  0.10566000000E+00 0.  1.
     999900   -1    0    0    0    0 -0.00000000000E+00 -0.00000000000E+00 -0.74505805969E-08  0.93827000000E+00  0.93827000000E+00 0. -1.
     999902    2    1    2    0    0 -0.14087517731E-01  0.10100953881E-01 -0.16016969893E-01  0.10203285011E+01  0.10200554982E+01 0.  0.
     999903    2    3    3    0    0 -0.92826223367E-02  0.64426113019E-01  0.11102821105E+00  0.12953403103E+00  0.14659823615E-01 0.  0.
         14    1    1    2    0    0  0.14087517731E-01 -0.10100953881E-01  0.16016969893E-01  0.23601498886E-01  0.00000000000E+00 0.  1.
     999901    1    3    3    0    0 -0.48048953943E-02 -0.54325159138E-01 -0.12704518095E+00  0.89079447009E+00  0.88000000000E+00 0. -1.
        -11    1    4    4    0    0  0.11524257899E-02  0.40313008827E-01  0.63554146655E-01  0.75271890131E-01  0.51100000000E-03 0. -1.
         11    1    4    4    0    0 -0.10435048127E-01  0.24113104192E-01  0.47474064398E-01  0.54262140897E-01  0.51100000000E-03 0.  1.
</event>
<event>
 8    1  0.1176534E+005  0.1043930E+01  0.7957747E-01            NaN
         13   -1    0    0    0    0  0.00000000000E+00  0.00000000000E+00  0.74505805969E-08  0.10566000000E+00  0.10566000000E+00 0. -1.
     999900   -1    0    0    0    0 -0.00000000000E+00 -0.00000000000E+00 -0.74505805969E-08  0.93827000000E+00  0.93827000000E+00 0.  1.
     999902    2    1    2    0    0  0.21774386437E-01 -0.32225696687E-02 -0.17553388911E-02  0.10218485581E+01  0.10216099479E+01 0.  0.
     999903    2    3    3    0    0 -0.42615008095E-01  0.12171824660E+00  0.62358754570E-02  0.13065830842E+00  0.20033395738E-01 0.  0.
         14    1    1    2    0    0 -0.21774386437E-01  0.32225696687E-02  0.17553388911E-02  0.22081441859E-01  0.00000000000E+00 0.  1.
     999901    1    3    3    0    0  0.64389394532E-01 -0.12494081627E+00 -0.79912143481E-02  0.89119024973E+00  0.88000000000E+00 0. -1.
        -11    1    4    4    0    0 -0.10173021204E-01  0.56694048721E-01 -0.11576929026E-02  0.57613426340E-01  0.51100000000E-03 0. -1.
         11    1    4    4    0    0 -0.32441986891E-01  0.65024197880E-01  0.73935683595E-02  0.73044882075E-01  0.51100000000E-03 0.  1.
</event>
<event>
 8    1  0.1417645E+005  0.1043930E+01  0.7957747E-01            NaN
         13   -1    0    0    0    0  0.00000000000E+00  0.00000000000E+00  0.74505805969E-08  0.10566000000E+00  0.10566000000E+00 0. -1.
     999900   -1    0    0    0    0 -0.00000000000E+00 -0.00000000000E+00 -0.74505805969E-08  0.93827000000E+00  0.93827000000E+00 0.  1.
     999902    2    1    2    0    0  0.81057056147E-02  0.14939599542E-02  0.22796572091E-01  0.10196891651E+01  0.10194009884E+01 0.  0.
     999903    2    3    3    0    0 -0.34811634639E-01  0.16913016177E-01 -0.11957867721E+00  0.12708042826E+00  0.18774322397E-01 0.  0.
         14    1    1    2    0    0 -0.81057056147E-02 -0.14939599542E-02 -0.22796572091E-01  0.24240834948E-01  0.00000000000E+00 0.  1.
     999901    1    3    3    0    0  0.42917340254E-01 -0.15419056223E-01  0.14237524930E+00  0.89260873679E+00  0.88000000000E+00 0. -1.
        -11    1    4    4    0    0 -0.77179260233E-02  0.30375453846E-02 -0.55715896881E-01  0.56332187516E-01  0.51100000000E-03 0. -1.
         11    1    4    4    0    0 -0.27093708616E-01  0.13875470792E-01 -0.63862780324E-01  0.70748240742E-01  0.51100000000E-03 0.  1.
</event>
<event>
 8    1  0.1176534E+005  0.1043930E+01  0.7957747E-01            NaN
         13   -1    0    0    0    0  0.00000000000E+00  0.00000000000E+00  0.74505805969E-08  0.10566000000E+00  0.10566000000E+00 0. -1.
     999900   -1    0    0    0    0 -0.00000000000E+00 -0.00000000000E+00 -0.74505805969E-08  0.93827000000E+00  0.93827000000E+00 0.  1.
     999902    2    1    2    0    0  0.33574398542E-02  0.22080332629E-01  0.59970947413E-02  0.10208047187E+01  0.10205427453E+01 0.  0.
     999903    2    3    3    0    0 -0.16057071401E-01  0.12681040207E+00  0.34295090183E-01  0.13393038302E+00  0.20554480535E-01 0.  0.
         14    1    1    2    0    0 -0.33574398542E-02 -0.22080332629E-01 -0.59970947413E-02  0.23125281333E-01  0.00000000000E+00 0.  1.
     999901    1    3    3    0    0  0.19414511255E-01 -0.10473006944E+00 -0.28297995442E-01  0.88687433565E+00  0.88000000000E+00 0.  1.
        -11    1    4    4    0    0 -0.12276786495E-01  0.59025082901E-01  0.25534928132E-01  0.65474984337E-01  0.51100000000E-03 0.  1.
         11    1    4    4    0    0 -0.37802849058E-02  0.67785319164E-01  0.87601620507E-02  0.68455398679E-01  0.51100000000E-03 0. -1.
</event>
<event>
 8    1  0.1176534E+005  0.1043930E+01  0.7957747E-01            NaN
         13   -1    0    0    0    0  0.00000000000E+00  0.00000000000E+00  0.74505805969E-08  0.10566000000E+00  0.10566000000E+00 0. -1.
     999900   -1    0    0    0    0 -0.00000000000E+00 -0.00000000000E+00 -0.74505805969E-08  0.93827000000E+00  0.93827000000E+00 0.  1.
     999902    2    1    2    0    0 -0.17148396953E-02 -0.15963468259E-01 -0.18318567904E-01  0.10195713686E+01  0.10192803504E+01 0.  0.
     999903    2    3    3    0    0 -0.21489023026E-01  0.84717739611E-01  0.89951785056E-01  0.12701874086E+00  0.20088886949E-01 0.  0.
         14    1    1    2    0    0  0.17148396953E-02  0.15963468259E-01  0.18318567904E-01  0.24358631408E-01  0.00000000000E+00 0. -1.
     999901    1    3    3    0    0  0.19774183331E-01 -0.10068120787E+00 -0.10827035296E+00  0.89255262773E+00  0.88000000000E+00 0. -1.
        -11    1    4    4    0    0  0.26644290777E-02  0.24336363316E-01  0.21320911398E-01  0.32468448463E-01  0.51100000000E-03 0.  1.
         11    1    4    4    0    0 -0.24153452104E-01  0.60381376295E-01  0.68630873658E-01  0.94550292395E-01  0.51100000000E-03 0. -1.
</event>
<event>
 8    1  0.1176534E+005  0.1043930E+01  0.7957747E-01            NaN
         13   -1    0    0    0    0  0.00000000000E+00  0.00000000000E+00  0.74505805969E-08  0.10566000000E+00  0.10566000000E+00 0.  1.
     999900   -1    0    0    0    0 -0.00000000000E+00 -0.00000000000E+00 -0.74505805969E-08  0.93827000000E+00  0.93827000000E+00 0. -1.
     999902    2    1    2    0    0 -0.14378959675E-01 -0.65709025002E-02 -0.17623153179E-01  0.10202549758E+01  0.10199802493E+01 0.  0.
     999903    2    3    3    0    0 -0.11132675881E+00  0.26864008097E-01 -0.64872140708E-01  0.13304066361E+00  0.19393333293E-01 0.  0.
         14    1    1    2    0    0  0.14378959675E-01  0.65709025002E-02  0.17623153179E-01  0.23675024160E-01  0.00000000000E+00 0.  1.
     999901    1    3    3    0    0  0.96947799132E-01 -0.33434910598E-01  0.47248987529E-01  0.88721431223E+00  0.88000000000E+00 0.  1.
        -11    1    4    4    0    0 -0.40941618621E-01  0.18990376895E-01 -0.29003961016E-01  0.53650176379E-01  0.51100000000E-03 0. -1.
         11    1    4    4    0    0 -0.70385140186E-01  0.78736312029E-02 -0.35868179692E-01  0.79390487231E-01  0.51100000000E-03 0.  1.
</event>
<event>
 8    1  0.1176534E+005  0.1043930E+01  0.7957747E-01            NaN
         13   -1    0    0    0    0  0.00000000000E+00  0.00000000000E+00  0.74505805969E-08  0.10566000000E+00  0.10566000000E+00 0. -1.
     999900   -1    0    0    0    0 -0.00000000000E+00 -0.00000000000E+00 -0.74505805969E-08  0.93827000000E+00  0.93827000000E+00 0.  1.
     999902    2    1    2    0    0  0.66861630525E-02 -0.42214643960E-02 -0.22133862684E-01  0.10204260979E+01  0.10201553743E+01 0.  0.
     999903    2    3    3    0    0  0.11164551742E+00  0.36492490878E-01  0.52796908908E-01  0.13009542180E+00  0.18462982787E-01 0.  0.
         14    1    1    2    0    0 -0.66861630525E-02  0.42214643960E-02  0.22133862684E-01  0.23503902130E-01  0.00000000000E+00 0. -1.
     999901    1    3    3    0    0 -0.10495935436E+00 -0.40713955274E-01 -0.74930771592E-01  0.89033067607E+00  0.88000000000E+00 0.  1.
        -11    1    4    4    0    0  0.11358106787E-01  0.46302969747E-02  0.12199940188E-01  0.17307394415E-01  0.51100000000E-03 0.  1.
         11    1    4    4    0    0  0.10028741063E+00  0.31862193903E-01  0.40596968720E-01  0.11278802738E+00  0.51100000000E-03 0. -1.
</event>
<event>
 8    1  0.1176534E+005  0.1043930E+01  0.7957747E-01            NaN
         13   -1    0    0    0    0  0.00000000000E+00  0.00000000000E+00  0.74505805969E-08  0.10566000000E+00  0.10566000000E+00 0. -1.
     999900   -1    0    0    0    0 -0.00000000000E+00 -0.00000000000E+00 -0.74505805969E-08  0.93827000000E+00  0.93827000000E+00 0. -1.
     999902    2    1    2    0    0 -0.87700474143E-03 -0.30559175099E-02 -0.23909699667E-01  0.10198098527E+01  0.10195245726E+01 0.  0.
     999903    2    3    3    0    0  0.28715092050E-01 -0.10083054221E+00  0.71956510896E-01  0.12872854338E+00  0.20048532825E-01 0.  0.
         14    1    1    2    0    0  0.87700474143E-03  0.30559175099E-02  0.23909699667E-01  0.24120147332E-01  0.00000000000E+00 0. -1.
     999901    1    3    3    0    0 -0.29592096791E-01  0.97774624697E-01 -0.95866210563E-01  0.89108130928E+00  0.88000000000E+00 0. -1.
        -11    1    4    4    0    0  0.12940100455E-01 -0.37400336533E-01  0.16023570461E-01  0.42699500042E-01  0.51100000000E-03 0. -1.
         11    1    4    4    0    0  0.15774991595E-01 -0.63430205674E-01  0.55932940435E-01  0.86029043342E-01  0.51100000000E-03 0.  1.
</event>
<event>
 8    1  0.1176534E+005  0.1043930E+01  0.7957747E-01            NaN
         13   -1    0    0    0    0  0.00000000000E+00  0.00000000000E+00  0.74505805969E-08  0.10566000000E+00  0.10566000000E+00 0.  1.
     999900   -1    0    0    0    0 -0.00000000000E+00 -0.00000000000E+00 -0.74505805969E-08  0.93827000000E+00  0.93827000000E+00 0. -1.
     999902    2    1    2    0    0  0.22267919137E-01  0.36253573822E-02  0.10988092229E-01  0.10188353470E+01  0.10185262504E+01 0.  0.
     999903    2    3    3    0    0  0.10432136729E+00 -0.72899233186E-01  0.26089259104E-01  0.13158294403E+00  0.20884823376E-01 0.  0.
         14    1    1    2    0    0 -0.22267919137E-01 -0.36253573822E-02 -0.10988092229E-01  0.25094653010E-01  0.00000000000E+00 0. -1.
     999901    1    3    3    0    0 -0.82053448150E-01  0.76524590568E-01 -0.15101166875E-01  0.88725240296E+00  0.88000000000E+00 0. -1.
        -11    1    4    4    0    0  0.72616070429E-01 -0.38688425454E-01  0.18290251614E-01  0.84289277929E-01  0.51100000000E-03 0. -1.
         11    1    4    4    0    0  0.31705296859E-01 -0.34210807732E-01  0.77990074906E-02  0.47293666103E-01  0.51100000000E-03 0.  1.
</event>
<event>
 8    1  0.1176534E+005  0.1043930E+01  0.7957747E-01            NaN
         13   -1    0    0    0    0  0.00000000000E+00  0.00000000000E+00  0.74505805969E-08  0.10566000000E+00  0.10566000000E+00 0.  1.
     999900   -1    0    0    0    0 -0.00000000000E+00 -0.00000000000E+00 -0.74505805969E-08  0.93827000000E+00  0.93827000000E+00 0.  1.
     999902    2    1    2    0    0  0.45110101559E-02  0.14076024403E-01 -0.18318097765E-01  0.10203920226E+01  0.10201205043E+01 0.  0.
     999903    2    3    3    0    0 -0.81011484830E-01 -0.81637599845E-01  0.51535362206E-01  0.12834118272E+00  0.24248860615E-01 0.  0.
         14    1    1    2    0    0 -0.45110101559E-02 -0.14076024403E-01  0.18318097765E-01  0.23537977427E-01  0.00000000000E+00 0.  1.
     999901    1    3    3    0    0  0.85522494986E-01  0.95713624248E-01 -0.69853459971E-01  0.89205083985E+00  0.88000000000E+00 0.  1.
        -11    1    4    4    0    0 -0.44914863382E-01 -0.61183228262E-01  0.30242646891E-01  0.81704413498E-01  0.51100000000E-03 0. -1.
         11    1    4    4    0    0 -0.36096621448E-01 -0.20454371583E-01  0.21292715315E-01  0.46636769220E-01  0.51100000000E-03 0.  1.
</event>
<event>
 8    1  0.1176534E+005  0.1043930E+01  0.7957747E-01            NaN
         13   -1    0    0    0    0  0.00000000000E+00  0.00000000000E+00  0.74505805969E-08  0.10566000000E+00  0.10566000000E+00 0.  1.
     999900   -1    0    0    0    0 -0.00000000000E+00 -0.00000000000E+00 -0.74505805969E-08  0.93827000000E+00  0.93827000000E+00 0.  1.
     999902    2    1    2    0    0 -0.16809486420E-01 -0.52276881471E-02  0.24573407874E-01  0.10137018685E+01  0.10132510737E+01 0.  0.
     999903    2    3    3    0    0  0.55241769651E-01 -0.38038201736E-01 -0.99353944868E-01  0.12149903170E+00  0.19805313375E-01 0.  0.
         14    1    1    2    0    0  0.16809486420E-01  0.52276881471E-02 -0.24573407874E-01  0.30228131461E-01  0.00000000000E+00 0. -1.
     999901    1    3    3    0    0 -0.72051256072E-01  0.32810513589E-01  0.12392735274E+00  0.89220283684E+00  0.88000000000E+00 0. -1.
        -11    1    4    4    0    0  0.31185942426E-01 -0.32226276619E-01 -0.69554186392E-01  0.82759542503E-01  0.51100000000E-03 0. -1.
         11    1    4    4    0    0  0.24055827225E-01 -0.58119251169E-02 -0.29799758476E-01  0.38739489197E-01  0.51100000000E-03 0.  1.
</event>
<event>
 8    1  0.1176534E+005  0.1043930E+01  0.7957747E-01            NaN
         13   -1    0    0    0    0  0.00000000000E+00  0.00000000000E+00  0.74505805969E-08  0.10566000000E+00  0.10566000000E+00 0.  1.
     999900   -1    0    0    0    0 -0.00000000000E+00 -0.00000000000E+00 -0.74505805969E-08  0.93827000000E+00  0.93827000000E+00 0. -1.
     999902    2    1    2    0    0 -0.15268548745E-01  0.16089264954E-01  0.86339537461E-02  0.10201279374E+01  0.10198502196E+01 0.  0.
     999903    2    3    3    0    0  0.78040015151E-01 -0.98420664106E-01 -0.11637638634E-01  0.12758665015E+00  0.19132369871E-01 0.  0.
         14    1    1    2    0    0  0.15268548745E-01 -0.16089264954E-01 -0.86339537461E-02  0.23802062617E-01  0.00000000000E+00 0. -1.
     999901    1    3    3    0    0 -0.93308563896E-01  0.11450992906E+00  0.20271592380E-01  0.89254128723E+00  0.88000000000E+00 0. -1.
        -11    1    4    4    0    0  0.10162367893E-01 -0.18145256061E-01 -0.83239869400E-02  0.22407006010E-01  0.51100000000E-03 0. -1.
         11    1    4    4    0    0  0.67877647257E-01 -0.80275408044E-01 -0.33136516936E-02  0.10517964414E+00  0.51100000000E-03 0.  1.
</event>
<event>
 7    1  0.1176534E+005  0.1043930E+01  0.7957747E-01            NaN
         13   -1    0    0    0    0  0.00000000000E+00  0.00000000000E+00  0.74505805969E-08  0.10566000000E+00  0.10566000000E+00 0. -1.
     999900   -1    0    0    0    0 -0.00000000000E+00 -0.00000000000E+00 -0.74505805969E-08  0.93827000000E+00  0.93827000000E+00 0. -1.
     999902    2    1    2    0    0  0.13666919568E-01 -0.17163057484E-01  0.11693635700E-01  0.10190684564E+01  0.10187651459E+01 0.  0.
         14    1    1    2    0    0 -0.13666919568E-01  0.17163057484E-01 -0.11693635700E-01  0.24861543568E-01  0.00000000000E+00 0.  1.
     999901    1    3    3    0    0 -0.14778906775E-01  0.88683848237E-01 -0.46282353401E-01  0.88579077510E+00  0.88000000000E+00 0.  1.
        -11    1    3    3    0    0  0.29428017352E-03 -0.71718332175E-01  0.18706750184E-01  0.74120236064E-01  0.51100000000E-03 0. -1.
         11    1    3    3    0    0  0.28151546169E-01 -0.34128573547E-01  0.39269238917E-01  0.59157445264E-01  0.51100000000E-03 0.  1.
</event>
<event>
 8    1  0.1176534E+005  0.1043930E+01  0.7957747E-01            NaN
         13   -1    0    0    0    0  0.00000000000E+00  0.00000000000E+00  0.74505805969E-08  0.10566000000E+00  0.10566000000E+00 0.  1.
     999900   -1    0    0    0    0 -0.00000000000E+00 -0.00000000000E+00 -0.74505805969E-08  0.93827000000E+00  0.93827000000E+00 0. -1.
     999902    2    1    2    0    0  0.80997252767E-02  0.25879852522E-03  0.22816060192E-01  0.10197175006E+01  0.10194300054E+01 0.  0.
     999903    2    3    3    0    0  0.12069703853E+00 -0.40831414256E-01 -0.19357972603E-01  0.13059140738E+00  0.21080917408E-01 0.  0.
         14    1    1    2    0    0 -0.80997252767E-02 -0.25879852522E-03 -0.22816060192E-01  0.24212499435E-01  0.00000000000E+00 0. -1.
     999901    1    3    3    0    0 -0.11259731325E+00  0.41090212781E-01  0.42174032794E-01  0.88912609318E+00  0.88000000000E+00 0.  1.
        -11    1    4    4    0    0  0.16671305243E-01 -0.12199050870E-01 -0.77647593424E-02  0.22074914932E-01  0.51100000000E-03 0. -1.
         11    1    4    4    0    0  0.10402573329E+00 -0.28632363387E-01 -0.11593213260E-01  0.10851649245E+00  0.51100000000E-03 0.  1.
</event>
<event>
 8    1  0.1176534E+005  0.1043930E+01  0.7957747E-01            NaN
         13   -1    0    0    0    0  0.00000000000E+00  0.00000000000E+00  0.74505805969E-08  0.10566000000E+00  0.10566000000E+00 0. -1.
     999900   -1    0    0    0    0 -0.00000000000E+00 -0.00000000000E+00 -0.74505805969E-08  0.93827000000E+00  0.93827000000E+00 0.  1.
     999902    2    1    2    0    0  0.15567395424E-01 -0.11144292192E-01 -0.14100302768E-01  0.10201527506E+01  0.10198756184E+01 0.  0.
     999903    2    3    3    0    0 -0.62013668875E-01 -0.55138323326E-01  0.96827575693E-01  0.12871610649E+00  0.17502195009E-01 0.  0.
         14    1    1    2    0    0 -0.15567395424E-01  0.11144292192E-01  0.14100302768E-01  0.23777249355E-01  0.00000000000E+00 0. -1.
     999901    1    3    3    0    0  0.77581064299E-01  0.43994031135E-01 -0.11092787846E+00  0.89143664415E+00  0.88000000000E+00 0.  1.
        -11    1    4    4    0    0 -0.14132635153E-02 -0.69966823935E-02  0.11224596453E-01  0.13311782931E-01  0.51100000000E-03 0.  1.
         11    1    4    4    0    0 -0.60600405359E-01 -0.48141640933E-01  0.85602979240E-01  0.11540432356E+00  0.51100000000E-03 0. -1.
</event>
<event>
 8    1  0.1176534E+005  0.1043930E+01  0.7957747E-01            NaN
         13   -1    0    0    0    0  0.00000000000E+00  0.00000000000E+00  0.74505805969E-08  0.10566000000E+00  0.10566000000E+00 0.  1.
     999900   -1    0    0    0    0 -0.00000000000E+00 -0.00000000000E+00 -0.74505805969E-08  0.93827000000E+00  0.93827000000E+00 0. -1.
     999902    2    1    2    0    0 -0.19210353685E-01 -0.99283301730E-02  0.63341660219E-02  0.10213971110E+01  0.10211485334E+01 0.  0.
     999903    2    3    3    0    0  0.58154705266E-01 -0.37570333398E-01  0.10992156917E+00  0.13152083711E+00  0.20529966651E-01 0.  0.
         14    1    1    2    0    0  0.19210353685E-01  0.99283301730E-02 -0.63341660219E-02  0.22532889027E-01  0.00000000000E+00 0. -1.
     999901    1    3    3    0    0 -0.77365058951E-01  0.27642003225E-01 -0.10358740314E+00  0.88987627386E+00  0.88000000000E+00 0. -1.
        -11    1    4    4    0    0  0.60438519275E-02 -0.44591745705E-02  0.27659013657E-01  0.28665214834E-01  0.51100000000E-03 0. -1.
         11    1    4    4    0    0  0.52110853338E-01 -0.33111158828E-01  0.82262555509E-01  0.10285562228E+00  0.51100000000E-03 0.  1.
</event>
<event>
 8    1  0.1176534E+005  0.1043930E+01  0.7957747E-01            NaN
         13   -1    0    0    0    0  0.00000000000E+00  0.00000000000E+00  0.74505805969E-08  0.10566000000E+00  0.10566000000E+00 0. -1.
     999900   -1    0    0    0    0 -0.00000000000E+00 -0.00000000000E+00 -0.74505805969E-08  0.93827000000E+00  0.93827000000E+00 0.  1.
     999902    2    1    2    0    0 -0.10565939420E-01  0.45235361795E-02  0.20980054552E-01  0.10200079569E+01  0.10197273989E+01 0.  0.
     999903    2    3    3    0    0  0.16696576904E-01 -0.10187900597E+00 -0.73542019735E-01  0.12815641755E+00  0.18908494251E-01 0.  0.
         14    1    1    2    0    0  0.10565939420E-01 -0.45235361795E-02 -0.20980054552E-01  0.23922043065E-01  0.00000000000E+00 0.  1.
     999901    1    3    3    0    0 -0.27262516324E-01  0.10640254215E+00  0.94522074287E-01  0.89185153938E+00  0.88000000000E+00 0. -1.
        -11    1    4    4    0    0 -0.38055962919E-02 -0.21476022931E-01 -0.18263953397E-01  0.28452332747E-01  0.51100000000E-03 0. -1.
         11    1    4    4    0    0  0.20502173196E-01 -0.80402983041E-01 -0.55278066338E-01  0.99704084804E-01  0.51100000000E-03 0.  1.
</event>
<event>
 8    1  0.1176534E+005  0.1043930E+01  0.7957747E-01            NaN
         13   -1    0    0    0    0  0.00000000000E+00  0.00000000000E+00  0.74505805969E-08  0.10566000000E+00  0.10566000000E+00 0. -1.
     999900   -1    0    0    0    0 -0.00000000000E+00 -0.00000000000E+00 -0.74505805969E-08  0.93827000000E+00  0.93827000000E+00 0.  1.
     999902    2    1    2    0    0  0.11875667934E-01  0.20580532388E-01 -0.35166627200E-03  0.10201662993E+01  0.10198894865E+01 0.  0.
     999903    2    3    3    0    0  0.31804350825E-01 -0.12249286391E+00 -0.67247769195E-02  0.12836600457E+00  0.20410538058E-01 0.  0.
         14    1    1    2    0    0 -0.11875667934E-01 -0.20580532388E-01  0.35166627200E-03  0.23763700710E-01  0.00000000000E+00 0. -1.
     999901    1    3    3    0    0 -0.19928682891E-01  0.14307339630E+00  0.63731106475E-02  0.89180029472E+00  0.88000000000E+00 0. -1.
        -11    1    4    4    0    0  0.52344347570E-02 -0.12631083953E-01 -0.69264593599E-02  0.15335597456E-01  0.51100000000E-03 0.  1.
         11    1    4    4    0    0  0.26569916068E-01 -0.10986177996E+00  0.20168244040E-03  0.11303040711E+00  0.51100000000E-03 0. -1.
</event>
<event>
 8    1  0.1176534E+005  0.1043930E+01  0.7957747E-01            NaN
         13   -1    0    0    0    0  0.00000000000E+00  0.00000000000E+00  0.74505805969E-08  0.10566000000E+00  0.10566000000E+00 0.  1.
     999900   -1    0    0    0    0 -0.00000000000E+00 -0.00000000000E+00 -0.74505805969E-08  0.93827000000E+00  0.93827000000E+00 0. -1.
     999902    2    1    2    0    0  0.61132813538E-02 -0.10026613327E-02 -0.32870945910E-01  0.10104803868E+01  0.10099265991E+01 0.  0.
     999903    2    3    3    0    0 -0.57615472020E-01  0.99000876301E-01 -0.38619891382E-01  0.12250791429E+00  0.19899169059E-01 0.  0.
         14    1    1    2    0    0 -0.61132813538E-02  0.10026613327E-02  0.32870945910E-01  0.33449613207E-01  0.00000000000E+00 0.  1.
     999901    1    3    3    0    0  0.63728753374E-01 -0.10000353763E+00  0.57489454715E-02  0.88797247250E+00  0.88000000000E+00 0.  1.
        -11    1    4    4    0    0 -0.24474404026E-01  0.52302590976E-01 -0.28340360499E-01  0.64327246400E-01  0.51100000000E-03 0.  1.
         11    1    4    4    0    0 -0.33141067995E-01  0.46698285325E-01 -0.10279530883E-01  0.58180667892E-01  0.51100000000E-03 0. -1.
</event>
<event>
 8    1  0.1176534E+005  0.1043930E+01  0.7957747E-01            NaN
         13   -1    0    0    0    0  0.00000000000E+00  0.00000000000E+00  0.74505805969E-08  0.10566000000E+00  0.10566000000E+00 0.  1.
     999900   -1    0    0    0    0 -0.00000000000E+00 -0.00000000000E+00 -0.74505805969E-08  0.93827000000E+00  0.93827000000E+00 0.  1.
     999902    2    1    2    0    0 -0.13508589732E-01  0.17917556914E-01  0.89725455508E-03  0.10214727983E+01  0.10212259063E+01 0.  0.
     999903    2    3    3    0    0  0.18116140897E-02 -0.11981166031E+00  0.44445358682E-01  0.12956446036E+00  0.21294214867E-01 0.  0.
         14    1    1    2    0    0  0.13508589732E-01 -0.17917556914E-01 -0.89725455508E-03  0.22457201697E-01  0.00000000000E+00 0. -1.
     999901    1    3    3    0    0 -0.15320203821E-01  0.13772921723E+00 -0.43548104127E-01  0.89190833795E+00  0.88000000000E+00 0. -1.
        -11    1    4    4    0    0  0.87029502761E-02 -0.10439502797E+00  0.39542601441E-01  0.11197295057E+00  0.51100000000E-03 0. -1.
         11    1    4    4    0    0 -0.68913361864E-02 -0.15416632340E-01  0.49027572410E-02  0.17591509791E-01  0.51100000000E-03 0.  1.
</event>
<event>
 8    1  0.1176534E+005  0.1043930E+01  0.7957747E-01            NaN
         13   -1    0    0    0    0  0.00000000000E+00  0.00000000000E+00  0.74505805969E-08  0.10566000000E+00  0.10566000000E+00 0.  1.
     999900   -1    0    0    0    0 -0.00000000000E+00 -0.00000000000E+00 -0.74505805969E-08  0.93827000000E+00  0.93827000000E+00 0. -1.
     999902    2    1    2    0    0  0.20579780966E-02 -0.17564976995E-01 -0.15458513035E-01  0.10204410810E+01  0.10201707065E+01 0.  0.
     999903    2    3    3    0    0  0.10821235913E+00  0.68852910768E-01 -0.19505340329E-03  0.12972800871E+00  0.19459707297E-01 0.  0.
         14    1    1    2    0    0 -0.20579780966E-02  0.17564976995E-01  0.15458513035E-01  0.23488919004E-01  0.00000000000E+00 0. -1.
     999901    1    3    3    0    0 -0.10615438104E+00 -0.86417887764E-01 -0.15263459632E-01  0.89071307228E+00  0.88000000000E+00 0.  1.
        -11    1    4    4    0    0  0.20498355927E-01  0.19034301359E-01 -0.62627079696E-02  0.28670016673E-01  0.51100000000E-03 0.  1.
         11    1    4    4    0    0  0.87714003206E-01  0.49818609409E-01  0.60676545663E-02  0.10105799204E+00  0.51100000000E-03 0. -1.
</event>
<event>
 8    1  0.1176534E+005  0.1043930E+01  0.7957747E-01            NaN
         13   -1    0    0    0    0  0.00000000000E+00  0.00000000000E+00  0.74505805969E-08  0.10566000000E+00  0.10566000000E+00 0. -1.
     999900   -1    0    0    0    0 -0.00000000000E+00 -0.00000000000E+00 -0.74505805969E-08  0.93827000000E+00  0.93827000000E+00 0. -1.
     999902    2    1    2    0    0  0.19845343006E-03  0.16068308262E-01  0.10834432092E-01  0.10245492149E+01  0.10243658911E+01 0.  0.
     999903    2    3    3    0    0  0.76946652986E-01 -0.78224998530E-01 -0.71285946884E-01  0.13240277481E+00  0.20220552733E-01 0.  0.
         14    1    1    2    0    0 -0.19845343006E-03 -0.16068308262E-01 -0.10834432092E-01  0.19380785148E-01  0.00000000000E+00 0.  1.
     999901    1    3    3    0    0 -0.76748199556E-01  0.94293306792E-01  0.82120378976E-01  0.89214644004E+00  0.88000000000E+00 0.  1.
        -11    1    4    4    0    0  0.40491260788E-01 -0.42139379023E-01 -0.49818055861E-01  0.76794331011E-01  0.51100000000E-03 0. -1.
         11    1    4    4    0    0  0.36455392198E-01 -0.36085619507E-01 -0.21467891023E-01  0.55608443797E-01  0.51100000000E-03 0.  1.
</event>
<event>
 8    1  0.1176534E+005  0.1043930E+01  0.7957747E-01            NaN
         13   -1    0    0    0    0  0.00000000000E+00  0.00000000000E+00  0.74505805969E-08  0.10566000000E+00  0.10566000000E+00 0. -1.
     999900   -1    0    0    0    0 -0.00000000000E+00 -0.00000000000E+00 -0.74505805969E-08  0.93827000000E+00  0.93827000000E+00 0.  1.
     999902    2    1    2    0    0  0.16176491303E-01  0.17735261478E-01 -0.43975177917E-02  0.10195259730E+01  0.10192338559E+01 0.  0.
     999903    2    3    3    0    0 -0.92893311972E-02 -0.66416765554E-01 -0.10843307229E+00  0.12904662549E+00  0.19945474702E-01 0.  0.
         14    1    1    2    0    0 -0.16176491303E-01 -0.17735261478E-01  0.43975177917E-02  0.24404026989E-01  0.00000000000E+00 0.  1.
     999901    1    3    3    0    0  0.25465822501E-01  0.84152027031E-01  0.10403555450E+00  0.89047934753E+00  0.88000000000E+00 0. -1.
        -11    1    4    4    0    0 -0.15347009860E-01 -0.53537028681E-01 -0.87807187490E-01  0.10398128412E+00  0.51100000000E-03 0. -1.
         11    1    4    4    0    0  0.60576786629E-02 -0.12879736872E-01 -0.20625884805E-01  0.25065341364E-01  0.51100000000E-03 0.  1.
</event>
<event>
 8    1  0.1176534E+005  0.1043930E+01  0.7957747E-01            NaN
         13   -1    0    0    0    0  0.00000000000E+00  0.00000000000E+00  0.74505805969E-08  0.10566000000E+00  0.10566000000E+00 0. -1.
     999900   -1    0    0    0    0 -0.00000000000E+00 -0.00000000000E+00 -0.74505805969E-08  0.93827000000E+00  0.93827000000E+00 0. -1.
     999902    2    1    2    0    0 -0.10322613383E-01  0.97062266277E-02  0.15973925519E-01  0.10225774011E+01  0.10223544433E+01 0.  0.
     999903    2    3    3    0    0  0.18687899768E-01  0.13008282073E+00 -0.89630517486E-02  0.13355884838E+00  0.22064719318E-01 0.  0.
         14    1    1    2    0    0  0.10322613383E-01 -0.97062266277E-02 -0.15973925519E-01  0.21352598879E-01  0.00000000000E+00 0.  1.
     999901    1    3    3    0    0 -0.29010513151E-01 -0.12037659410E+00  0.24936977267E-01  0.88901855274E+00  0.88000000000E+00 0.  1.
        -11    1    4    4    0    0 -0.17954331239E-02  0.57193240623E-01 -0.84368289834E-02  0.57842299033E-01  0.51100000000E-03 0. -1.
         11    1    4    4    0    0  0.20483332891E-01  0.72889580103E-01 -0.52622276521E-03  0.75716549349E-01  0.51100000000E-03 0.  1.
</event>
<event>
 8    1  0.1176534E+005  0.1043930E+01  0.7957747E-01            NaN
         13   -1    0    0    0    0  0.00000000000E+00  0.00000000000E+00  0.74505805969E-08  0.10566000000E+00  0.10566000000E+00 0.  1.
     999900   -1    0    0    0    0 -0.00000000000E+00 -0.00000000000E+00 -0.74505805969E-08  0.93827000000E+00  0.93827000000E+00 0. -1.
     999902    2    1    2    0    0  0.32930644607E-02 -0.19933209341E-01  0.12782107687E-01  0.10200226918E+01  0.10197424834E+01 0.  0.
     999903    2    3    3    0    0 -0.70774051196E-01 -0.84424105563E-01  0.70654768286E-01  0.13267030512E+00  0.21746669987E-01 0.  0.
         14    1    1    2    0    0 -0.32930644607E-02  0.19933209341E-01 -0.12782107687E-01  0.23907308194E-01  0.00000000000E+00 0.  1.
     999901    1    3    3    0    0  0.74067115657E-01  0.64490896222E-01 -0.57872660599E-01  0.88735238669E+00  0.88000000000E+00 0. -1.
        -11    1    4    4    0    0 -0.67498692780E-01 -0.70068173647E-01  0.58153997248E-01  0.11334800837E+00  0.51100000000E-03 0. -1.
         11    1    4    4    0    0 -0.32753584163E-02 -0.14355931916E-01  0.12500771038E-01  0.19322296744E-01  0.51100000000E-03 0.  1.
</event>
<event>
 8    1  0.1176534E+005  0.1043930E+01  0.7957747E-01            NaN
         13   -1    0    0    0    0  0.00000000000E+00  0.00000000000E+00  0.74505805969E-08  0.10566000000E+00  0.10566000000E+00 0.  1.
     999900   -1    0    0    0    0 -0.00000000000E+00 -0.00000000000E+00 -0.74505805969E-08  0.93827000000E+00  0.93827000000E+00 0.  1.
     999902    2    1    2    0    0  0.18645020297E-01  0.62959952620E-02 -0.12304127094E-01  0.10207207802E+01  0.10204568797E+01 0.  0.
     999903    2    3    3    0    0  0.11694946239E-01 -0.11398884557E+00 -0.60669477199E-01  0.13119509003E+00  0.20028417337E-01 0.  0.
         14    1    1    2    0    0 -0.18645020297E-01 -0.62959952620E-02  0.12304127094E-01  0.23209219758E-01  0.00000000000E+00 0.  1.
     999901    1    3    3    0    0  0.69500740572E-02  0.12028484083E+00  0.48365350104E-01  0.88952569022E+00  0.88000000000E+00 0. -1.
        -11    1    4    4    0    0  0.12943484514E-01 -0.91377375450E-01 -0.40204688062E-01  0.10066795219E+00  0.51100000000E-03 0. -1.
         11    1    4    4    0    0 -0.12485382743E-02 -0.22611470122E-01 -0.20464789137E-01  0.30527137834E-01  0.51100000000E-03 0.  1.
</event>
<event>
 8    1  0.1176534E+005  0.1043930E+01  0.7957747E-01            NaN
         13   -1    0    0    0    0  0.00000000000E+00  0.00000000000E+00  0.74505805969E-08  0.10566000000E+00  0.10566000000E+00 0.  1.
     999900   -1    0    0    0    0 -0.00000000000E+00 -0.00000000000E+00 -0.74505805969E-08  0.93827000000E+00  0.93827000000E+00 0.  1.
     999902    2    1    2    0    0 -0.72574048017E-02  0.21380732811E-01 -0.16817377736E-03  0.10213504973E+01  0.10211008787E+01 0.  0.
     999903    2    3    3    0    0 -0.10143811182E+00 -0.76557701783E-01 -0.21303756453E-01  0.13067173624E+00  0.21690559704E-01 0.  0.
         14    1    1    2    0    0  0.72574048017E-02 -0.21380732811E-01  0.16817377736E-03  0.22579502705E-01  0.00000000000E+00 0.  1.
     999901    1    3    3    0    0  0.94180707018E-01  0.97938434594E-01  0.21135582676E-01  0.89067876106E+00  0.88000000000E+00 0. -1.
        -11    1    4    4    0    0 -0.82895354142E-01 -0.51467474722E-01 -0.18794769071E-01  0.99368230124E-01  0.51100000000E-03 0. -1.
         11    1    4    4    0    0 -0.18542757678E-01 -0.25090227061E-01 -0.25089873824E-02  0.31303506113E-01  0.51100000000E-03 0.  1.
</event>
<event>
 8    1  0.1176534E+005  0.1043930E+01  0.7957747E-01            NaN
         13   -1    0    0    0    0  0.00000000000E+00  0.00000000000E+00  0.74505805969E-08  0.10566000000E+00  0.10566000000E+00 0. -1.
     999900   -1    0    0    0    0 -0.00000000000E+00 -0.00000000000E+00 -0.74505805969E-08  0.93827000000E+00  0.93827000000E+00 0. -1.
     999902    2    1    2    0    0 -0.17784026805E-01 -0.90503203009E-02  0.12492966419E-01  0.10203873978E+01  0.10201157716E+01 0.  0.
     999903    2    3    3    0    0 -0.54486640474E-01  0.15367271995E-01 -0.11537872305E+00  0.13005348877E+00  0.19917659731E-01 0.  0.
         14    1    1    2    0    0  0.17784026805E-01  0.90503203009E-02 -0.12492966419E-01  0.23542602169E-01  0.00000000000E+00 0. -1.
     999901    1    3    3    0    0  0.36702613669E-01 -0.24417592296E-01  0.12787168947E+00  0.89033390907E+00  0.88000000000E+00 0.  1.
        -11    1    4    4    0    0 -0.41049501167E-02 -0.32260800280E-02 -0.19116939164E-01  0.19823639722E-01  0.51100000000E-03 0. -1.
         11    1    4    4    0    0 -0.50381690357E-01  0.18593352023E-01 -0.96261783884E-01  0.11022984904E+00  0.51100000000E-03 0.  1.
</event>
<event>
 8    1  0.1176534E+005  0.1043930E+01  0.7957747E-01            NaN
         13   -1    0    0    0    0  0.00000000000E+00  0.00000000000E+00  0.74505805969E-08  0.10566000000E+00  0.10566000000E+00 0. -1.
     999900   -1    0    0    0    0 -0.00000000000E+00 -0.00000000000E+00 -0.74505805969E-08  0.93827000000E+00  0.93827000000E+00 0. -1.
     999902    2    1    2    0    0  0.92409606895E-03  0.23496260061E-01  0.68820888795E-02  0.10194291564E+01  0.10191346886E+01 0.  0.
     999903    2    3    3    0    0  0.41788228938E-01 -0.11302805631E+00  0.35832974391E-01  0.12749478656E+00  0.21197192120E-01 0.  0.
         14    1    1    2    0    0 -0.92409606895E-03 -0.23496260061E-01 -0.68820888795E-02  0.24500843613E-01  0.00000000000E+00 0.  1.
     999901    1    3    3    0    0 -0.40864132869E-01  0.13652431637E+00 -0.28950885512E-01  0.89193436983E+00  0.88000000000E+00 0. -1.
        -11    1    4    4    0    0  0.20529803621E-01 -0.28887942477E-01  0.13037074403E-01  0.37765228547E-01  0.51100000000E-03 0.  1.
         11    1    4    4    0    0  0.21258425318E-01 -0.84140113834E-01  0.22795899988E-01  0.89729558008E-01  0.51100000000E-03 0. -1.
</event>
<event>
 8    1  0.1176534E+005  0.1043930E+01  0.7957747E-01            NaN
         13   -1    0    0    0    0  0.00000000000E+00  0.00000000000E+00  0.74505805969E-08  0.10566000000E+00  0.10566000000E+00 0.  1.
     999900   -1    0    0    0    0 -0.00000000000E+00 -0.00000000000E+00 -0.74505805969E-08  0.93827000000E+00  0.93827000000E+00 0.  1.
     999902    2    1    2    0    0  0.13613111519E-01  0.14201767561E-01 -0.11006568556E-01  0.10213877828E+01  0.10211389970E+01 0.  0.
     999903    2    3    3    0    0 -0.64266958638E-01 -0.10802037592E+00  0.20994243370E-01  0.12895985308E+00  0.19779834820E-01 0.  0.
         14    1    1    2    0    0 -0.13613111519E-01 -0.14201767561E-01  0.11006568556E-01  0.22542217248E-01  0.00000000000E+00 0.  1.
     999901    1    3    3    0    0  0.77880070157E-01  0.12222214349E+00 -0.32000811925E-01  0.89242792967E+00  0.88000000000E+00 0.  1.
        -11    1    4    4    0    0 -0.10393956371E-01 -0.34712663388E-01  0.71307094862E-02  0.36933879668E-01  0.51100000000E-03 0.  1.
         11    1    4    4    0    0 -0.53873002267E-01 -0.73307712536E-01  0.13863533884E-01  0.92025973417E-01  0.51100000000E-03 0. -1.
</event>
<event>
 8    1  0.1176534E+005  0.1043930E+01  0.7957747E-01            NaN
         13   -1    0    0    0    0  0.00000000000E+00  0.00000000000E+00  0.74505805969E-08  0.10566000000E+00  0.10566000000E+00 0. -1.
     999900   -1    0    0    0    0 -0.00000000000E+00 -0.00000000000E+00 -0.74505805969E-08  0.93827000000E+00  0.93827000000E+00 0.  1.
     999902    2    1    2    0    0  0.16135674467E-01 -0.19183620439E-01  0.22298392547E-02  0.10187636839E+01  0.10184527972E+01 0.  0.
     999903    2    3    3    0    0 -0.30201381214E-01 -0.83568925998E-01  0.93030197256E-01  0.13054226143E+00  0.22153455654E-01 0.  0.
         14    1    1    2    0    0 -0.16135674467E-01  0.19183620439E-01 -0.22298392547E-02  0.25166316114E-01  0.00000000000E+00 0.  1.
     999901    1    3    3    0    0  0.46337055681E-01  0.64385305558E-01 -0.90800358001E-01  0.88822142246E+00  0.88000000000E+00 0.  1.
        -11    1    4    4    0    0 -0.81772221849E-02 -0.32924107639E-01  0.50484171250E-01  0.60825788070E-01  0.51100000000E-03 0.  1.
         11    1    4    4    0    0 -0.22024159029E-01 -0.50644818358E-01  0.42546026006E-01  0.69716473358E-01  0.51100000000E-03 0. -1.
</event>
<event>
 8    1  0.1176534E+005  0.1043930E+01  0.7957747E-01            NaN
         13   -1    0    0    0    0  0.00000000000E+00  0.00000000000E+00  0.74505805969E-08  0.10566000000E+00  0.10566000000E+00 0.  1.
     999900   -1    0    0    0    0 -0.00000000000E+00 -0.00000000000E+00 -0.74505805969E-08  0.93827000000E+00  0.93827000000E+00 0.  1.
     999902    2    1    2    0    0  0.12664637134E-01  0.19662193140E-01  0.48660171152E-02  0.10200412370E+01  0.10197614683E+01 0.  0.
     999903    2    3    3    0    0  0.76419687858E-01 -0.94600483996E-01 -0.39088706954E-01  0.12928162658E+00  0.19914610074E-01 0.  0.
         14    1    1    2    0    0 -0.12664637134E-01 -0.19662193140E-01 -0.48660171152E-02  0.23888762952E-01  0.00000000000E+00 0.  1.
     999901    1    3    3    0    0 -0.63755050724E-01  0.11426267714E+00  0.43954724069E-01  0.89075961047E+00  0.88000000000E+00 0. -1.
        -11    1    4    4    0    0  0.22052192694E-01 -0.41693375363E-01 -0.11433591701E-01  0.48534780229E-01  0.51100000000E-03 0. -1.
         11    1    4    4    0    0  0.54367495164E-01 -0.52907108634E-01 -0.27655115253E-01  0.80746846348E-01  0.51100000000E-03 0.  1.
</event>
<event>
 8    1  0.1176534E+005  0.1043930E+01  0.7957747E-01            NaN
         13   -1    0    0    0    0  0.00000000000E+00  0.00000000000E+00  0.74505805969E-08  0.10566000000E+00  0.10566000000E+00 0.  1.
     999900   -1    0    0    0    0 -0.00000000000E+00 -0.00000000000E+00 -0.74505805969E-08  0.93827000000E+00  0.93827000000E+00 0.  1.
     999902    2    1    2    0    0 -0.10743332078E-01  0.21123385669E-02 -0.20606451723E-01  0.10205953260E+01  0.10203285316E+01 0.  0.
     999903    2    3    3    0    0 -0.81122325533E-01 -0.24688728097E-01  0.95898986375E-01  0.12972776176E+00  0.21031205133E-01 0.  0.
         14    1    1    2    0    0  0.10743332078E-01 -0.21123385669E-02  0.20606451723E-01  0.23334674006E-01  0.00000000000E+00 0.  1.
     999901    1    3    3    0    0  0.70378993455E-01  0.26801066664E-01 -0.11650543810E+00  0.89086756423E+00  0.88000000000E+00 0.  1.
        -11    1    4    4    0    0 -0.45513646206E-01 -0.24477868185E-01  0.54185978547E-01  0.74880167027E-01  0.51100000000E-03 0. -1.
         11    1    4    4    0    0 -0.35608679326E-01 -0.21085991250E-03  0.41713007827E-01  0.54847594736E-01  0.51100000000E-03 0.  1.
</event>
<event>
 8    1  0.1176534E+005  0.1043930E+01  0.7957747E-01            NaN
         13   -1    0    0    0    0  0.00000000000E+00  0.00000000000E+00  0.74505805969E-08  0.10566000000E+00  0.10566000000E+00 0.  1.
     999900   -1    0    0    0    0 -0.00000000000E+00 -0.00000000000E+00 -0.74505805969E-08  0.93827000000E+00  0.93827000000E+00 0. -1.
     999902    2    1    2    0    0 -0.10019119257E-02 -0.22619384429E-01  0.61907969701E-02  0.10204573277E+01  0.10201873314E+01 0.  0.
     999903    2    3    3    0    0 -0.54563016100E-01 -0.35645608034E-01  0.11337142089E+00  0.13224217325E+00  0.19676920879E-01 0.  0.
         14    1    1    2    0    0  0.10019119257E-02  0.22619384429E-01 -0.61907969701E-02  0.23472672335E-01  0.00000000000E+00 0. -1.
     999901    1    3    3    0    0  0.53561104174E-01  0.13026223605E-01 -0.10718062392E+00  0.88821515441E+00  0.88000000000E+00 0. -1.
        -11    1    4    4    0    0 -0.34590854069E-01 -0.28057142330E-01  0.90925530708E-01  0.10124941322E+00  0.51100000000E-03 0.  1.
         11    1    4    4    0    0 -0.19972162031E-01 -0.75884657033E-02  0.22445890177E-01  0.30992760038E-01  0.51100000000E-03 0. -1.
</event>
<event>
 8    1  0.1176534E+005  0.1043930E+01  0.7957747E-01            NaN
         13   -1    0    0    0    0  0.00000000000E+00  0.00000000000E+00  0.74505805969E-08  0.10566000000E+00  0.10566000000E+00 0.  1.
     999900   -1    0    0    0    0 -0.00000000000E+00 -0.00000000000E+00 -0.74505805969E-08  0.93827000000E+00  0.93827000000E+00 0.  1.
     999902    2    1    2    0    0  0.10700025888E-01 -0.15664468348E-01  0.16436763695E-01  0.10188295354E+01  0.10185202938E+01 0.  0.
     999903    2    3    3    0    0  0.12669715809E+00 -0.15250367194E-01 -0.18865375416E-01  0.13051554407E+00  0.19840899355E-01 0.  0.
         14    1    1    2    0    0 -0.10700025888E-01  0.15664468348E-01 -0.16436763695E-01  0.25100464605E-01  0.00000000000E+00 0.  1.
     999901    1    3    3    0    0 -0.11599713220E+00 -0.41410115383E-03  0.35302139111E-01  0.88831399133E+00  0.88000000000E+00 0. -1.
        -11    1    4    4    0    0  0.53426451819E-01  0.12011140905E-02 -0.16342591864E-02  0.53467376531E-01  0.51100000000E-03 0. -1.
         11    1    4    4    0    0  0.73270706269E-01 -0.16451481285E-01 -0.17231116230E-01  0.77048167539E-01  0.51100000000E-03 0.  1.
</event>
<event>
 8    1  0.1176534E+005  0.1043930E+01  0.7957747E-01            NaN
         13   -1    0    0    0    0  0.00000000000E+00  0.00000000000E+00  0.74505805969E-08  0.10566000000E+00  0.10566000000E+00 0.  1.
     999900   -1    0    0    0    0 -0.00000000000E+00 -0.00000000000E+00 -0.74505805969E-08  0.93827000000E+00  0.93827000000E+00 0. -1.
     999902    2    1    2    0    0 -0.17284387347E-01 -0.12923796608E-01 -0.11090930315E-01  0.10196651427E+01  0.10193763878E+01 0.  0.
     999903    2    3    3    0    0  0.54084815913E-02  0.49519887364E-01 -0.11900082582E+00  0.13058768515E+00  0.20260208533E-01 0.  0.
         14    1    1    2    0    0  0.17284387347E-01  0.12923796608E-01  0.11090930315E-01  0.24264857304E-01  0.00000000000E+00 0.  1.
     999901    1    3    3    0    0 -0.22692868938E-01 -0.62443683973E-01  0.10790989550E+00  0.88907745755E+00  0.88000000000E+00 0.  1.
        -11    1    4    4    0    0  0.77804659790E-02  0.49861376669E-01 -0.10654498707E+00  0.11789312077E+00  0.51100000000E-03 0. -1.
         11    1    4    4    0    0 -0.23719843877E-02 -0.34148930431E-03 -0.12455838750E-01  0.12694564382E-01  0.51100000000E-03 0.  1.
</event>
<event>
 8    1  0.1176534E+005  0.1043930E+01  0.7957747E-01            NaN
         13   -1    0    0    0    0  0.00000000000E+00  0.00000000000E+00  0.74505805969E-08  0.10566000000E+00  0.10566000000E+00 0.  1.
     999900   -1    0    0    0    0 -0.00000000000E+00 -0.00000000000E+00 -0.74505805969E-08  0.93827000000E+00  0.93827000000E+00 0.  1.
     999902    2    1    2    0    0  0.16375952001E-01  0.79874284502E-03  0.17226713217E-01  0.10201482961E+01  0.10198710588E+01 0.  0.
     999903    2    3    3    0    0 -0.42254409721E-01  0.74562852051E-01  0.97831303773E-01  0.13145500637E+00  0.19089281141E-01 0.  0.
         14    1    1    2    0    0 -0.16375952001E-01 -0.79874284502E-03 -0.17226713217E-01  0.23781703941E-01  0.00000000000E+00 0.  1.
     999901    1    3    3    0    0  0.58630361722E-01 -0.73764109206E-01 -0.80604590555E-01  0.88869328969E+00  0.88000000000E+00 0.  1.
        -11    1    4    4    0    0 -0.16610544133E-01  0.14000056768E-01  0.29190909302E-01  0.36390686621E-01  0.51100000000E-03 0. -1.
         11    1    4    4    0    0 -0.25643865588E-01  0.60562795283E-01  0.68640394471E-01  0.95064319746E-01  0.51100000000E-03 0.  1.
</event>
<event>
 8    1  0.1176534E+005  0.1043930E+01  0.7957747E-01            NaN
         13   -1    0    0    0    0  0.00000000000E+00  0.00000000000E+00  0.74505805969E-08  0.10566000000E+00  0.10566000000E+00 0.  1.
     999900   -1    0    0    0    0 -0.00000000000E+00 -0.00000000000E+00 -0.74505805969E-08  0.93827000000E+00  0.93827000000E+00 0.  1.
     999902    2    1    2    0    0  0.11315587601E-01 -0.20711589857E-01  0.23887612523E-02  0.10202083083E+01  0.10199324848E+01 0.  0.
     999903    2    3    3    0    0  0.61162658076E-01 -0.24041842271E-01 -0.11231766910E+00  0.13135883500E+00  0.17916579405E-01 0.  0.
         14    1    1    2    0    0 -0.11315587601E-01  0.20711589857E-01 -0.23887612523E-02  0.23721691708E-01  0.00000000000E+00 0.  1.
     999901    1    3    3    0    0 -0.49847070475E-01  0.33302524137E-02  0.11470643035E+00  0.88884947330E+00  0.88000000000E+00 0. -1.
        -11    1    4    4    0    0  0.14450436642E-02 -0.13482569384E-02 -0.13732224525E-01  0.13883121384E-01  0.51100000000E-03 0.  1.
         11    1    4    4    0    0  0.59717614412E-01 -0.22693585332E-01 -0.98585444572E-01  0.11747571361E+00  0.51100000000E-03 0. -1.
</event>
<event>
 8    1  0.1176534E+005  0.1043930E+01  0.7957747E-01            NaN
         13   -1    0    0    0    0  0.00000000000E+00  0.00000000000E+00  0.74505805969E-08  0.10566000000E+00  0.10566000000E+00 0.  1.
     999900   -1    0    0    0    0 -0.00000000000E+00 -0.00000000000E+00 -0.74505805969E-08  0.93827000000E+00  0.93827000000E+00 0.  1.
     999902    2    1    2    0    0 -0.23436262897E-01  0.13357494810E-02  0.49620829225E-03  0.10204504585E+01  0.10201803024E+01 0.  0.
     999903    2    3    3    0    0  0.10988026081E+00  0.64141042769E-02  0.62643790992E-01  0.12822772444E+00  0.20082139198E-01 0.  0.
         14    1    1    2    0    0  0.23436262897E-01 -0.13357494810E-02 -0.49620829225E-03  0.23479541476E-01  0.00000000000E+00 0. -1.
     999901    1    3    3    0    0 -0.13331652371E+00 -0.50783547959E-02 -0.62147582699E-01  0.89222273408E+00  0.88000000000E+00 0.  1.
        -11    1    4    4    0    0  0.70496251568E-01  0.67633754469E-03  0.29470023984E-01  0.76412841540E-01  0.51100000000E-03 0. -1.
         11    1    4    4    0    0  0.39384009246E-01  0.57377667322E-02  0.33173767007E-01  0.51814882899E-01  0.51100000000E-03 0.  1.
</event>
<event>
 8    1  0.1176534E+005  0.1043930E+01  0.7957747E-01            NaN
         13   -1    0    0    0    0  0.00000000000E+00  0.00000000000E+00  0.74505805969E-08  0.10566000000E+00  0.10566000000E+00 0.  1.
     999900   -1    0    0    0    0 -0.00000000000E+00 -0.00000000000E+00 -0.74505805969E-08  0.93827000000E+00  0.93827000000E+00 0.  1.
     999902    2    1    2    0    0 -0.51015761488E-02  0.81791925649E-02 -0.21535395243E-01  0.10203355405E+01  0.10200627023E+01 0.  0.
     999903    2    3    3    0    0 -0.10790433122E+00  0.70002460706E-01 -0.20976904844E-01  0.13219656780E+00  0.22185869392E-01 0.  0.
         14    1    1    2    0    0  0.51015761488E-02 -0.81791925649E-02  0.21535395243E-01  0.23594459487E-01  0.00000000000E+00 0.  1.
     999901    1    3    3    0    0  0.10280275507E+00 -0.61823268141E-01 -0.55849039949E-03  0.88813897271E+00  0.88000000000E+00 0.  1.
        -11    1    4    4    0    0 -0.33495815511E-01  0.10284928896E-01 -0.37395280701E-02  0.35241943907E-01  0.51100000000E-03 0.  1.
         11    1    4    4    0    0 -0.74408515711E-01  0.59717531810E-01 -0.17237376774E-01  0.96954623896E-01  0.51100000000E-03 0. -1.
</event>
<event>
 8    1  0.1176534E+005  0.1043930E+01  0.7957747E-01            NaN
         13   -1    0    0    0    0  0.00000000000E+00  0.00000000000E+00  0.74505805969E-08  0.10566000000E+00  0.10566000000E+00 0. -1.
     999900   -1    0    0    0    0 -0.00000000000E+00 -0.00000000000E+00 -0.74505805969E-08  0.93827000000E+00  0.93827000000E+00 0. -1.
     999902    2    1    2    0    0 -0.65180238335E-02 -0.20275334888E-01  0.97053601590E-02  0.10205255591E+01  0.10202571484E+01 0.  0.
     999903    2    3    3    0    0 -0.49318474047E-01 -0.12181676131E+00  0.13879933022E-01  0.13364339842E+00  0.19906536158E-01 0.  0.
         14    1    1    2    0    0  0.65180238335E-02  0.20275334888E-01 -0.97053601590E-02  0.23404440931E-01  0.00000000000E+00 0.  1.
     999901    1    3    3    0    0  0.42800450213E-01  0.10154142642E+00 -0.41745728632E-02  0.88688216065E+00  0.88000000000E+00 0. -1.
        -11    1    4    4    0    0 -0.31317706604E-01 -0.90598258323E-01  0.26579575637E-02  0.95896658010E-01  0.51100000000E-03 0. -1.
         11    1    4    4    0    0 -0.18000767443E-01 -0.31218502988E-01  0.11221975459E-01  0.37746740410E-01  0.51100000000E-03 0.  1.
</event>
<event>
 8    1  0.1176534E+005  0.1043930E+01  0.7957747E-01            NaN
         13   -1    0    0    0    0  0.00000000000E+00  0.00000000000E+00  0.74505805969E-08  0.10566000000E+00  0.10566000000E+00 0.  1.
     999900   -1    0    0    0    0 -0.00000000000E+00 -0.00000000000E+00 -0.74505805969E-08  0.93827000000E+00  0.93827000000E+00 0. -1.
     999902    2    1    2    0    0  0.13646667109E-01  0.17233909355E-01 -0.81484105130E-02  0.10204856883E+01  0.10202163518E+01 0.  0.
     999903    2    3    3    0    0  0.37188451141E-02 -0.60723449405E-01 -0.11391279848E+00  0.13067558659E+00  0.19970381985E-01 0.  0.
         14    1    1    2    0    0 -0.13646667109E-01 -0.17233909355E-01  0.81484105130E-02  0.23444311650E-01  0.00000000000E+00 0. -1.
     999901    1    3    3    0    0  0.99278219953E-02  0.77957358760E-01  0.10576438797E+00  0.88981010176E+00  0.88000000000E+00 0. -1.
        -11    1    4    4    0    0 -0.73104805321E-02 -0.18074632621E-01 -0.42596551572E-01  0.46849362822E-01  0.51100000000E-03 0. -1.
         11    1    4    4    0    0  0.11029325646E-01 -0.42648816783E-01 -0.71316246906E-01  0.83826223767E-01  0.51100000000E-03 0.  1.
</event>
<event>
 8    1  0.1176534E+005  0.1043930E+01  0.7957747E-01            NaN
         13   -1    0    0    0    0  0.00000000000E+00  0.00000000000E+00  0.74505805969E-08  0.10566000000E+00  0.10566000000E+00 0. -1.
     999900   -1    0    0    0    0 -0.00000000000E+00 -0.00000000000E+00 -0.74505805969E-08  0.93827000000E+00  0.93827000000E+00 0. -1.
     999902    2    1    2    0    0 -0.14084454999E-01  0.16531541887E-01  0.96259930988E-02  0.10201745060E+01  0.10198978867E+01 0.  0.
     999903    2    3    3    0    0 -0.10112495978E+00 -0.37835270707E-01  0.73058177638E-01  0.13194286857E+00  0.20338585144E-01 0.  0.
         14    1    1    2    0    0  0.14084454999E-01 -0.16531541887E-01 -0.96259930988E-02  0.23755493952E-01  0.00000000000E+00 0.  1.
     999901    1    3    3    0    0  0.87040504783E-01  0.54366812594E-01 -0.63432184540E-01  0.88823163748E+00  0.88000000000E+00 0. -1.
        -11    1    4    4    0    0 -0.47678526312E-01 -0.13439579890E-01  0.22408861730E-01  0.54371705730E-01  0.51100000000E-03 0. -1.
         11    1    4    4    0    0 -0.53446433470E-01 -0.24395690817E-01  0.50649315908E-01  0.77571162838E-01  0.51100000000E-03 0.  1.
</event>
<event>
 8    1  0.1176534E+005  0.1043930E+01  0.7957747E-01            NaN
         13   -1    0    0    0    0  0.00000000000E+00  0.00000000000E+00  0.74505805969E-08  0.10566000000E+00  0.10566000000E+00 0.  1.
     999900   -1    0    0    0    0 -0.00000000000E+00 -0.00000000000E+00 -0.74505805969E-08  0.93827000000E+00  0.93827000000E+00 0. -1.
     999902    2    1    2    0    0 -0.23747994406E-01 -0.42437382051E-02  0.35716956011E-02  0.10195428402E+01  0.10192511317E+01 0.  0.
     999903    2    3    3    0    0 -0.94561581147E-01 -0.81985204468E-01  0.38933317978E-01  0.13257680707E+00  0.19933392658E-01 0.  0.
         14    1    1    2    0    0  0.23747994406E-01  0.42437382051E-02 -0.35716956011E-02  0.24387159772E-01  0.00000000000E+00 0. -1.
     999901    1    3    3    0    0  0.70813586741E-01  0.77741466263E-01 -0.35361622376E-01  0.88696603316E+00  0.88000000000E+00 0. -1.
        -11    1    4    4    0    0 -0.59395095166E-01 -0.56621384280E-01  0.34395704487E-01  0.88977997818E-01  0.51100000000E-03 0.  1.
         11    1    4    4    0    0 -0.35166485981E-01 -0.25363820188E-01  0.45376134901E-02  0.43598809249E-01  0.51100000000E-03 0. -1.
</event>
<event>
 8    1  0.1176534E+005  0.1043930E+01  0.7957747E-01            NaN
         13   -1    0    0    0    0  0.00000000000E+00  0.00000000000E+00  0.74505805969E-08  0.10566000000E+00  0.10566000000E+00 0. -1.
     999900   -1    0    0    0    0 -0.00000000000E+00 -0.00000000000E+00 -0.74505805969E-08  0.93827000000E+00  0.93827000000E+00 0.  1.
     999902    2    1    2    0    0  0.10415099756E-01  0.20021990718E-01  0.85695881198E-02  0.10197889094E+01  0.10195031277E+01 0.  0.
     999903    2    3    3    0    0 -0.12430651624E+00 -0.13545922398E-01  0.23287468497E-01  0.12878198764E+00  0.20171568048E-01 0.  0.
         14    1    1    2    0    0 -0.10415099756E-01 -0.20021990718E-01 -0.85695881198E-02  0.24141090609E-01  0.00000000000E+00 0.  1.
     999901    1    3    3    0    0  0.13472161600E+00  0.33567913116E-01 -0.14717880377E-01  0.89100692175E+00  0.88000000000E+00 0.  1.
        -11    1    4    4    0    0 -0.43221190244E-01  0.39707272309E-02  0.38409537856E-02  0.43575819073E-01  0.51100000000E-03 0. -1.
         11    1    4    4    0    0 -0.81085325997E-01 -0.17516649629E-01  0.19446514711E-01  0.85206168566E-01  0.51100000000E-03 0.  1.
</event>
<event>
 8    1  0.1176534E+005  0.1043930E+01  0.7957747E-01            NaN
         13   -1    0    0    0    0  0.00000000000E+00  0.00000000000E+00  0.74505805969E-08  0.10566000000E+00  0.10566000000E+00 0. -1.
     999900   -1    0    0    0    0 -0.00000000000E+00 -0.00000000000E+00 -0.74505805969E-08  0.93827000000E+00  0.93827000000E+00 0.  1.
     999902    2    1    2    0    0 -0.59113777731E-02  0.14890055043E-01  0.17943930481E-01  0.10198750054E+01  0.10195912827E+01 0.  0.
     999903    2    3    3    0    0 -0.37668667237E-02  0.26144534830E-01  0.12867539065E+00  0.13286163538E+00  0.19928171261E-01 0.  0.
         14    1    1    2    0    0  0.59113777731E-02 -0.14890055043E-01 -0.17943930481E-01  0.24054994646E-01  0.00000000000E+00 0. -1.
     999901    1    3    3    0    0 -0.21445110495E-02 -0.11254479787E-01 -0.11073146017E+00  0.88701336998E+00  0.88000000000E+00 0.  1.
        -11    1    4    4    0    0 -0.11188326368E-01  0.93220958081E-02  0.51252927933E-01  0.53284180203E-01  0.51100000000E-03 0.  1.
         11    1    4    4    0    0  0.74214596442E-02  0.16822439022E-01  0.77422462718E-01  0.79577455176E-01  0.51100000000E-03 0. -1.
</event>
<event>
 8    1  0.1176534E+005  0.1043930E+01  0.7957747E-01            NaN
         13   -1    0    0    0    0  0.00000000000E+00  0.00000000000E+00  0.74505805969E-08  0.10566000000E+00  0.10566000000E+00 0.  1.
     999900   -1    0    0    0    0 -0.00000000000E+00 -0.00000000000E+00 -0.74505805969E-08  0.93827000000E+00  0.93827000000E+00 0.  1.
     999902    2    1    2    0    0 -0.20720442333E-02 -0.80791587858E-03  0.22359487093E-01  0.10214601812E+01  0.10212130086E+01 0.  0.
     999903    2    3    3    0    0 -0.34485234456E-01  0.12343293246E+00 -0.18883484726E-01  0.13118641090E+00  0.20697057741E-01 0.  0.
         14    1    1    2    0    0  0.20720442333E-02  0.80791587858E-03 -0.22359487093E-01  0.22469818834E-01  0.00000000000E+00 0. -1.
     999901    1    3    3    0    0  0.32413190223E-01 -0.12424084834E+00  0.41242971819E-01  0.89027377026E+00  0.88000000000E+00 0.  1.
        -11    1    4    4    0    0 -0.71780403040E-02  0.64081196399E-01 -0.97357823572E-02  0.65214803332E-01  0.51100000000E-03 0. -1.
         11    1    4    4    0    0 -0.27307194152E-01  0.59351736060E-01 -0.91477023690E-02  0.65971607570E-01  0.51100000000E-03 0.  1.
</event>
<event>
 8    1  0.1176534E+005  0.1043930E+01  0.7957747E-01            NaN
         13   -1    0    0    0    0  0.00000000000E+00  0.00000000000E+00  0.74505805969E-08  0.10566000000E+00  0.10566000000E+00 0.  1.
     999900   -1    0    0    0    0 -0.00000000000E+00 -0.00000000000E+00 -0.74505805969E-08  0.93827000000E+00  0.93827000000E+00 0.  1.
     999902    2    1    2    0    0 -0.13834552722E-01  0.15269764631E-01  0.10122456794E-01  0.10209729816E+01  0.10207148498E+01 0.  0.
     999903    2    3    3    0    0 -0.12066789450E+00  0.28773735636E-02 -0.50432000160E-01  0.13235958058E+00  0.20165611541E-01 0.  0.
         14    1    1    2    0    0  0.13834552722E-01 -0.15269764631E-01 -0.10122456794E-01  0.22957018370E-01  0.00000000000E+00 0. -1.
     999901    1    3    3    0    0  0.10683334178E+00  0.12392391068E-01  0.60554456954E-01  0.88861340105E+00  0.88000000000E+00 0.  1.
        -11    1    4    4    0    0 -0.88933058068E-01 -0.65868863503E-02 -0.38846694453E-01  0.97271797968E-01  0.51100000000E-03 0. -1.
         11    1    4    4    0    0 -0.31734836433E-01  0.94642599139E-02 -0.11585305707E-01  0.35087782610E-01  0.51100000000E-03 0.  1.
</event>
<event>
 8    1  0.1176534E+005  0.1043930E+01  0.7957747E-01            NaN
         13   -1    0    0    0    0  0.00000000000E+00  0.00000000000E+00  0.74505805969E-08  0.10566000000E+00  0.10566000000E+00 0. -1.
     999900   -1    0    0    0    0 -0.00000000000E+00 -0.00000000000E+00 -0.74505805969E-08  0.93827000000E+00  0.93827000000E+00 0.  1.
     999902    2    1    2    0    0 -0.18858311927E-01 -0.67084886414E-02 -0.11553089214E-01  0.10208191017E+01  0.10205574579E+01 0.  0.
     999903    2    3    3    0    0 -0.62550305867E-01  0.24791616537E-01 -0.11331509442E+00  0.13331881854E+00  0.20160152217E-01 0.  0.
         14    1    1    2    0    0  0.18858311927E-01  0.67084886414E-02  0.11553089214E-01  0.23110898272E-01  0.00000000000E+00 0. -1.
     999901    1    3    3    0    0  0.43691993941E-01 -0.31500105179E-01  0.10176200521E+00  0.88750028319E+00  0.88000000000E+00 0. -1.
        -11    1    4    4    0    0 -0.25619770353E-01  0.30016222080E-03 -0.47541994073E-01  0.54008934925E-01  0.51100000000E-03 0. -1.
         11    1    4    4    0    0 -0.36930535515E-01  0.24491454316E-01 -0.65773100348E-01  0.79309883611E-01  0.51100000000E-03 0.  1.
</event>
<event>
 8    1  0.1176534E+005  0.1043930E+01  0.7957747E-01            NaN
         13   -1    0    0    0    0  0.00000000000E+00  0.00000000000E+00  0.74505805969E-08  0.10566000000E+00  0.10566000000E+00 0. -1.
     999900   -1    0    0    0    0 -0.00000000000E+00 -0.00000000000E+00 -0.74505805969E-08  0.93827000000E+00  0.93827000000E+00 0.  1.
     999902    2    1    2    0    0 -0.88666065081E-02 -0.61517720361E-03  0.21933239762E-01  0.10202643675E+01  0.10199898615E+01 0.  0.
     999903    2    3    3    0    0 -0.97879692276E-01 -0.67395299660E-01  0.55479361759E-01  0.13262240339E+00  0.19702327867E-01 0.  0.
         14    1    1    2    0    0  0.88666065081E-02  0.61517720361E-03 -0.21933239762E-01  0.23665632474E-01  0.00000000000E+00 0.  1.
     999901    1    3    3    0    0  0.89013085768E-01  0.66780122457E-01 -0.33546121997E-01  0.88764196414E+00  0.88000000000E+00 0.  1.
        -11    1    4    4    0    0 -0.56690096668E-01 -0.45632205988E-01  0.25002761967E-01  0.76951052693E-01  0.51100000000E-03 0. -1.
         11    1    4    4    0    0 -0.41189595608E-01 -0.21763093672E-01  0.30476599792E-01  0.55671350697E-01  0.51100000000E-03 0.  1.
</event>
<event>
 8    1  0.1176534E+005  0.1043930E+01  0.7957747E-01            NaN
         13   -1    0    0    0    0  0.00000000000E+00  0.00000000000E+00  0.74505805969E-08  0.10566000000E+00  0.10566000000E+00 0.  1.
     999900   -1    0    0    0    0 -0.00000000000E+00 -0.00000000000E+00 -0.74505805969E-08  0.93827000000E+00  0.93827000000E+00 0.  1.
     999902    2    1    2    0    0 -0.20838542729E-04  0.12840104912E-01 -0.20402253407E-01  0.10198235554E+01  0.10195386032E+01 0.  0.
     999903    2    3    3    0    0 -0.27822766739E-01  0.73203432229E-02 -0.12737089567E+00  0.13289305900E+00  0.24688586264E-01 0.  0.
         14    1    1    2    0    0  0.20838542729E-04 -0.12840104912E-01  0.20402253407E-01  0.24106444625E-01  0.00000000000E+00 0. -1.
     999901    1    3    3    0    0  0.27801928196E-01  0.55197616890E-02  0.10696864226E+00  0.88693049638E+00  0.88000000000E+00 0. -1.
        -11    1    4    4    0    0 -0.24706257870E-01 -0.27828608275E-02 -0.64322101317E-01  0.68961854175E-01  0.51100000000E-03 0. -1.
         11    1    4    4    0    0 -0.31165088688E-02  0.10103204050E-01 -0.63048794351E-01  0.63931204820E-01  0.51100000000E-03 0.  1.
</event>
<event>
 8    1  0.1176534E+005  0.1043930E+01  0.7957747E-01            NaN
         13   -1    0    0    0    0  0.00000000000E+00  0.00000000000E+00  0.74505805969E-08  0.10566000000E+00  0.10566000000E+00 0.  1.
     999900   -1    0    0    0    0 -0.00000000000E+00 -0.00000000000E+00 -0.74505805969E-08  0.93827000000E+00  0.93827000000E+00 0.  1.
     999902    2    1    2    0    0  0.11968040908E-01  0.18236217538E-01 -0.64738629472E-02  0.10211768786E+01  0.10209233628E+01 0.  0.
     999903    2    3    3    0    0  0.11912586439E+00 -0.30521235928E-01  0.42951576809E-01  0.13196207747E+00  0.21133729669E-01 0.  0.
         14    1    1    2    0    0 -0.11968040908E-01 -0.18236217538E-01  0.64738629472E-02  0.22753121428E-01  0.00000000000E+00 0.  1.
     999901    1    3    3    0    0 -0.10715782349E+00  0.48757453466E-01 -0.49425439757E-01  0.88921480110E+00  0.88000000000E+00 0.  1.
        -11    1    4    4    0    0  0.69613995132E-01 -0.27827266727E-01  0.22027330196E-01  0.78140447198E-01  0.51100000000E-03 0.  1.
         11    1    4    4    0    0  0.49511869262E-01 -0.26939692016E-02  0.20924246614E-01  0.53821630273E-01  0.51100000000E-03 0. -1.
</event>
<event>
 8    1  0.1176534E+005  0.1043930E+01  0.7957747E-01            NaN
         13   -1    0    0    0    0  0.00000000000E+00  0.00000000000E+00  0.74505805969E-08  0.10566000000E+00  0.10566000000E+00 0. -1.
     999900   -1    0    0    0    0 -0.00000000000E+00 -0.00000000000E+00 -0.74505805969E-08  0.93827000000E+00  0.93827000000E+00 0. -1.
     999902    2    1    2    0    0 -0.43905336831E-02  0.41842240561E-02 -0.92167236982E-02  0.10328967542E+01  0.10328378248E+01 0.  0.
     999903    2    3    3    0    0  0.54777772989E-02 -0.97771242621E-01  0.98695879937E-01  0.14040729726E+00  0.19598736656E-01 0.  0.
         14    1    1    2    0    0  0.43905336831E-02 -0.41842240561E-02  0.92167236982E-02  0.11033245792E-01  0.00000000000E+00 0. -1.
     999901    1    3    3    0    0 -0.98683109820E-02  0.10195546668E+00 -0.10791260363E+00  0.89248945695E+00  0.88000000000E+00 0.  1.
        -11    1    4    4    0    0  0.53579658948E-02 -0.28194572944E-01  0.40834388810E-01  0.49913426776E-01  0.51100000000E-03 0. -1.
         11    1    4    4    0    0  0.11981140409E-03 -0.69576669677E-01  0.57861491127E-01  0.90493870481E-01  0.51100000000E-03 0.  1.
</event>
<event>
 8    1  0.1176534E+005  0.1043930E+01  0.7957747E-01            NaN
         13   -1    0    0    0    0  0.00000000000E+00  0.00000000000E+00  0.74505805969E-08  0.10566000000E+00  0.10566000000E+00 0.  1.
     999900   -1    0    0    0    0 -0.00000000000E+00 -0.00000000000E+00 -0.74505805969E-08  0.93827000000E+00  0.93827000000E+00 0. -1.
     999902    2    1    2    0    0 -0.11941535675E-01 -0.14325517184E-01 -0.13695715780E-01  0.10207914316E+01  0.10205291537E+01 0.  0.
     999903    2    3    3    0    0 -0.46455687813E-01  0.99372464232E-01 -0.68969083483E-01  0.13108720948E+00  0.19852063770E-01 0.  0.
         14    1    1    2    0    0  0.11941535675E-01  0.14325517184E-01  0.13695715780E-01  0.23138568400E-01  0.00000000000E+00 0. -1.
     999901    1    3    3    0    0  0.34514152138E-01 -0.11369798142E+00  0.55273367703E-01  0.88970422212E+00  0.88000000000E+00 0.  1.
        -11    1    4    4    0    0 -0.67316955121E-02  0.19311220913E-01 -0.22293760542E-01  0.30257426489E-01  0.51100000000E-03 0.  1.
         11    1    4    4    0    0 -0.39723992301E-01  0.80061243319E-01 -0.46675322941E-01  0.10082978299E+00  0.51100000000E-03 0. -1.
</event>
<event>
 7    1  0.1176534E+005  0.1043930E+01  0.7957747E-01            NaN
         13   -1    0    0    0    0  0.00000000000E+00  0.00000000000E+00  0.74505805969E-08  0.10566000000E+00  0.10566000000E+00 0. -1.
     999900   -1    0    0    0    0 -0.00000000000E+00 -0.00000000000E+00 -0.74505805969E-08  0.93827000000E+00  0.93827000000E+00 0. -1.
     999902    2    1    2    0    0  0.20999257498E-03 -0.11681527743E-01  0.20818199138E-01  0.10200574299E+01  0.10197780448E+01 0.  0.
         14    1    1    2    0    0 -0.20999257498E-03  0.11681527743E-01 -0.20818199138E-01  0.23872570089E-01  0.00000000000E+00 0.  1.
     999901    1    3    3    0    0  0.10270804986E+00  0.61247772151E-01  0.34233409825E-02  0.88809456274E+00  0.88000000000E+00 0.  1.
        -11    1    3    3    0    0 -0.14596264959E-01 -0.45544561231E-02 -0.86752588019E-02  0.17587360735E-01  0.51100000000E-03 0.  1.
         11    1    3    3    0    0 -0.87901792323E-01 -0.68374843771E-01  0.26070116958E-01  0.11437550644E+00  0.51100000000E-03 0. -1.
</event>
<event>
 8    1  0.1176534E+005  0.1043930E+01  0.7957747E-01            NaN
         13   -1    0    0    0    0  0.00000000000E+00  0.00000000000E+00  0.74505805969E-08  0.10566000000E+00  0.10566000000E+00 0.  1.
     999900   -1    0    0    0    0 -0.00000000000E+00 -0.00000000000E+00 -0.74505805969E-08  0.93827000000E+00  0.93827000000E+00 0. -1.
     999902    2    1    2    0    0 -0.15340776149E-01  0.87985062148E-02 -0.15455892495E-01  0.10204430305E+01  0.10201727014E+01 0.  0.
     999903    2    3    3    0    0  0.15939279908E-01 -0.11113513251E+00 -0.63052197887E-01  0.13048352135E+00  0.21101927972E-01 0.  0.
         14    1    1    2    0    0  0.15340776149E-01 -0.87985062148E-02  0.15455892495E-01  0.23486969521E-01  0.00000000000E+00 0.  1.
     999901    1    3    3    0    0 -0.31280056057E-01  0.11993363872E+00  0.47596305392E-01  0.88995950913E+00  0.88000000000E+00 0.  1.
        -11    1    4    4    0    0  0.58214016514E-02 -0.53909017591E-01 -0.18635385577E-01  0.57337680555E-01  0.51100000000E-03 0.  1.
         11    1    4    4    0    0  0.10117878257E-01 -0.57226114915E-01 -0.44416812310E-01  0.73145840794E-01  0.51100000000E-03 0. -1.
</event>
<event>
 8    1  0.1176534E+005  0.1043930E+01  0.7957747E-01            NaN
         13   -1    0    0    0    0  0.00000000000E+00  0.00000000000E+00  0.74505805969E-08  0.10566000000E+00  0.10566000000E+00 0. -1.
     999900   -1    0    0    0    0 -0.00000000000E+00 -0.00000000000E+00 -0.74505805969E-08  0.93827000000E+00  0.93827000000E+00 0.  1.
     999902    2    1    2    0    0 -0.18546676789E-01 -0.13383802482E-01 -0.57159303750E-02  0.10203550716E+01  0.10200826902E+01 0.  0.
     999903    2    3    3    0    0  0.87018289204E-01 -0.52293871378E-02  0.92431309654E-01  0.12859090028E+00  0.19812710176E-01 0.  0.
         14    1    1    2    0    0  0.18546676789E-01  0.13383802482E-01  0.57159303750E-02  0.23574928395E-01  0.00000000000E+00 0. -1.
     999901    1    3    3    0    0 -0.10556496599E+00 -0.81544153446E-02 -0.98147240029E-01  0.89176417133E+00  0.88000000000E+00 0.  1.
        -11    1    4    4    0    0  0.12159127251E-01 -0.57254209071E-02  0.22115318556E-01  0.25883841599E-01  0.51100000000E-03 0.  1.
         11    1    4    4    0    0  0.74859161953E-01  0.49603376930E-03  0.70315991098E-01  0.10270705868E+00  0.51100000000E-03 0. -1.
</event>
<event>
 8    1  0.1176534E+005  0.1043930E+01  0.7957747E-01            NaN
         13   -1    0    0    0    0  0.00000000000E+00  0.00000000000E+00  0.74505805969E-08  0.10566000000E+00  0.10566000000E+00 0.  1.
     999900   -1    0    0    0    0 -0.00000000000E+00 -0.00000000000E+00 -0.74505805969E-08  0.93827000000E+00  0.93827000000E+00 0. -1.
     999902    2    1    2    0    0  0.23246650847E-01  0.43949539381E-02  0.79842619121E-02  0.10189606020E+01  0.10186546214E+01 0.  0.
     999903    2    3    3    0    0 -0.10114995355E+00  0.14691102159E-01 -0.71972364521E-01  0.12656293959E+00  0.19774095106E-01 0.  0.
         14    1    1    2    0    0 -0.23246650847E-01 -0.43949539381E-02 -0.79842619121E-02  0.24969397950E-01  0.00000000000E+00 0. -1.
     999901    1    3    3    0    0  0.12439660440E+00 -0.10296148221E-01  0.79956626433E-01  0.89239766246E+00  0.88000000000E+00 0.  1.
        -11    1    4    4    0    0 -0.22907731045E-01  0.10646585214E-01 -0.12437770405E-01  0.28161554857E-01  0.51100000000E-03 0. -1.
         11    1    4    4    0    0 -0.78242222504E-01  0.40445169454E-02 -0.59534594115E-01  0.98401384732E-01  0.51100000000E-03 0.  1.
</event>
<event>
 8    1  0.1176534E+005  0.1043930E+01  0.7957747E-01            NaN
         13   -1    0    0    0    0  0.00000000000E+00  0.00000000000E+00  0.74505805969E-08  0.10566000000E+00  0.10566000000E+00 0.  1.
     999900   -1    0    0    0    0 -0.00000000000E+00 -0.00000000000E+00 -0.74505805969E-08  0.93827000000E+00  0.93827000000E+00 0.  1.
     999902    2    1    2    0    0 -0.26772887385E-01 -0.72425497317E-03 -0.45831318704E-02  0.10167580081E+01  0.10163948691E+01 0.  0.
     999903    2    3    3    0    0 -0.12342370645E+00  0.37859890030E-01  0.22428877093E-02  0.13059960716E+00  0.19607250162E-01 0.  0.
         14    1    1    2    0    0  0.26772887385E-01  0.72425497317E-03  0.45831318704E-02  0.27171991865E-01  0.00000000000E+00 0.  1.
     999901    1    3    3    0    0  0.96650819064E-01 -0.38584145004E-01 -0.68260195797E-02  0.88615840097E+00  0.88000000000E+00 0.  1.
        -11    1    4    4    0    0 -0.99812806284E-01  0.30948657105E-01 -0.59320450495E-02  0.10467027254E+00  0.51100000000E-03 0. -1.
         11    1    4    4    0    0 -0.23610900165E-01  0.69112329253E-02  0.81749327587E-02  0.25929334618E-01  0.51100000000E-03 0.  1.
</event>
<event>
 8    1  0.1176534E+005  0.1043930E+01  0.7957747E-01            NaN
         13   -1    0    0    0    0  0.00000000000E+00  0.00000000000E+00  0.74505805969E-08  0.10566000000E+00  0.10566000000E+00 0.  1.
     999900   -1    0    0    0    0 -0.00000000000E+00 -0.00000000000E+00 -0.74505805969E-08  0.93827000000E+00  0.93827000000E+00 0.  1.
     999902    2    1    2    0    0  0.11077495997E-01 -0.19309668772E-01 -0.78871711392E-02  0.10203125976E+01  0.10200392224E+01 0.  0.
     999903    2    3    3    0    0  0.94798530347E-02  0.88182470079E-01  0.90590817619E-01  0.12831762756E+00  0.19816701620E-01 0.  0.
         14    1    1    2    0    0 -0.11077495997E-01  0.19309668772E-01  0.78871711392E-02  0.23617402360E-01  0.00000000000E+00 0.  1.
     999901    1    3    3    0    0  0.15976429624E-02 -0.10749213885E+00 -0.98477988758E-01  0.89199497008E+00  0.88000000000E+00 0.  1.
        -11    1    4    4    0    0  0.10505737338E-01  0.56502178862E-01  0.69756996091E-01  0.90383440728E-01  0.51100000000E-03 0. -1.
         11    1    4    4    0    0 -0.10258843030E-02  0.31680291217E-01  0.20833821528E-01  0.37934186832E-01  0.51100000000E-03 0.  1.
</event>
<event>
 8    1  0.1176534E+005  0.1043930E+01  0.7957747E-01            NaN
         13   -1    0    0    0    0  0.00000000000E+00  0.00000000000E+00  0.74505805969E-08  0.10566000000E+00  0.10566000000E+00 0.  1.
     999900   -1    0    0    0    0 -0.00000000000E+00 -0.00000000000E+00 -0.74505805969E-08  0.93827000000E+00  0.93827000000E+00 0.  1.
     999902    2    1    2    0    0 -0.16999236084E-01 -0.22185509246E-02 -0.16251392485E-01  0.10203078969E+01  0.10200344116E+01 0.  0.
     999903    2    3    3    0    0 -0.47035588506E-01  0.23338922903E-01  0.11651006993E+00  0.12947627825E+00  0.20795632409E-01 0.  0.
         14    1    1    2    0    0  0.16999236084E-01  0.22185509246E-02  0.16251392485E-01  0.23622103067E-01  0.00000000000E+00 0.  1.
     999901    1    3    3    0    0  0.30036352422E-01 -0.25557473828E-01 -0.13276146241E+00  0.89083161868E+00  0.88000000000E+00 0.  1.
        -11    1    4    4    0    0 -0.31967814346E-01  0.13976358188E-01  0.52396810666E-01  0.62952097909E-01  0.51100000000E-03 0.  1.
         11    1    4    4    0    0 -0.15067774160E-01  0.93625647157E-02  0.64113259263E-01  0.66524180345E-01  0.51100000000E-03 0. -1.
</event>
<event>
 8    1  0.1176534E+005  0.1043930E+01  0.7957747E-01            NaN
         13   -1    0    0    0    0  0.00000000000E+00  0.00000000000E+00  0.74505805969E-08  0.10566000000E+00  0.10566000000E+00 0. -1.
     999900   -1    0    0    0    0 -0.00000000000E+00 -0.00000000000E+00 -0.74505805969E-08  0.93827000000E+00  0.93827000000E+00 0. -1.
     999902    2    1    2    0    0 -0.11037819997E-01 -0.52525224225E-02  0.18648537529E-01  0.10216322330E+01  0.10213888726E+01 0.  0.
     999903    2    3    3    0    0  0.41226211267E-01 -0.10684602793E-01 -0.12028491733E+00  0.12918417212E+00  0.20157573134E-01 0.  0.
         14    1    1    2    0    0  0.11037819997E-01  0.52525224225E-02 -0.18648537529E-01  0.22297767020E-01  0.00000000000E+00 0.  1.
     999901    1    3    3    0    0 -0.52264031265E-01  0.54320803706E-02  0.13893345486E+00  0.89244806086E+00  0.88000000000E+00 0.  1.
        -11    1    4    4    0    0  0.28098246675E-01  0.22896861604E-02 -0.81227554950E-01  0.85982154736E-01  0.51100000000E-03 0. -1.
         11    1    4    4    0    0  0.13127964592E-01 -0.12974288954E-01 -0.39057362384E-01  0.43202017379E-01  0.51100000000E-03 0.  1.
</event>
<event>
 8    1  0.1176534E+005  0.1043930E+01  0.7957747E-01            NaN
         13   -1    0    0    0    0  0.00000000000E+00  0.00000000000E+00  0.74505805969E-08  0.10566000000E+00  0.10566000000E+00 0. -1.
     999900   -1    0    0    0    0 -0.00000000000E+00 -0.00000000000E+00 -0.74505805969E-08  0.93827000000E+00  0.93827000000E+00 0.  1.
     999902    2    1    2    0    0 -0.22243301498E-01 -0.76463225562E-02  0.18781562667E-02  0.10203342762E+01  0.10200614085E+01 0.  0.
     999903    2    3    3    0    0 -0.11842454766E-01  0.63049160287E-01  0.11189216226E+00  0.13061009961E+00  0.20584018054E-01 0.  0.
         14    1    1    2    0    0  0.22243301498E-01  0.76463225562E-02 -0.18781562667E-02  0.23595723789E-01  0.00000000000E+00 0.  1.
     999901    1    3    3    0    0 -0.10400846732E-01 -0.70695482844E-01 -0.11001400599E+00  0.88972417660E+00  0.88000000000E+00 0.  1.
        -11    1    4    4    0    0 -0.14818900889E-01  0.60652579917E-01  0.10956321350E+00  0.12610588467E+00  0.51100000000E-03 0. -1.
         11    1    4    4    0    0  0.29764461227E-02  0.23965803701E-02  0.23289487566E-02  0.45042149485E-02  0.51100000000E-03 0.  1.
</event>
<event>
 7    1  0.1176534E+005  0.1043930E+01  0.7957747E-01            NaN
         13   -1    0    0    0    0  0.00000000000E+00  0.00000000000E+00  0.74505805969E-08  0.10566000000E+00  0.10566000000E+00 0.  1.
     999900   -1    0    0    0    0 -0.00000000000E+00 -0.00000000000E+00 -0.74505805969E-08  0.93827000000E+00  0.93827000000E+00 0. -1.
     999902    2    1    2    0    0 -0.84517933587E-02 -0.21696909120E-01  0.38596015425E-02  0.10203273476E+01  0.10200543177E+01 0.  0.
         14    1    1    2    0    0  0.84517933587E-02  0.21696909120E-01 -0.38596015425E-02  0.23602652402E-01  0.00000000000E+00 0.  1.
     999901    1    3    3    0    0 -0.86157503754E-02  0.63124000056E-01  0.96722222601E-01  0.88758890196E+00  0.88000000000E+00 0.  1.
        -11    1    3    3    0    0  0.30521307322E-02  0.30378263597E-02 -0.13945992507E-01  0.14604647171E-01  0.51100000000E-03 0.  1.
         11    1    3    3    0    0 -0.28881737155E-02 -0.87858735536E-01 -0.78916628552E-01  0.11813379847E+00  0.51100000000E-03 0. -1.
</event>
<event>
 8    1  0.1176534E+005  0.1043930E+01  0.7957747E-01            NaN
         13   -1    0    0    0    0  0.00000000000E+00  0.00000000000E+00  0.74505805969E-08  0.10566000000E+00  0.10566000000E+00 0. -1.
     999900   -1    0    0    0    0 -0.00000000000E+00 -0.00000000000E+00 -0.74505805969E-08  0.93827000000E+00  0.93827000000E+00 0.  1.
     999902    2    1    2    0    0 -0.11139343814E-02 -0.60964940786E-02  0.22602288948E-01  0.10204934568E+01  0.10202243008E+01 0.  0.
     999903    2    3    3    0    0 -0.62519670245E-01 -0.60651989016E-01 -0.93274187818E-01  0.12910447087E+00  0.19506853853E-01 0.  0.
         14    1    1    2    0    0  0.11139343814E-02  0.60964940786E-02 -0.22602288948E-01  0.23436543165E-01  0.00000000000E+00 0.  1.
     999901    1    3    3    0    0  0.61405735864E-01  0.54555494938E-01  0.11587647677E+00  0.89138898596E+00  0.88000000000E+00 0. -1.
        -11    1    4    4    0    0 -0.47439348835E-01 -0.54655546238E-01 -0.81809039921E-01  0.10922774687E+00  0.51100000000E-03 0.  1.
         11    1    4    4    0    0 -0.15080321410E-01 -0.59964427787E-02 -0.11465147898E-01  0.19876724004E-01  0.51100000000E-03 0. -1.
</event>
<event>
 8    1  0.1176534E+005  0.1043930E+01  0.7957747E-01            NaN
         13   -1    0    0    0    0  0.00000000000E+00  0.00000000000E+00  0.74505805969E-08  0.10566000000E+00  0.10566000000E+00 0. -1.
     999900   -1    0    0    0    0 -0.00000000000E+00 -0.00000000000E+00 -0.74505805969E-08  0.93827000000E+00  0.93827000000E+00 0. -1.
     999902    2    1    2    0    0 -0.43714710729E-02 -0.10979103484E-01  0.19427536859E-01  0.10211906143E+01  0.10209374080E+01 0.  0.
     999903    2    3    3    0    0 -0.33281642588E-01 -0.99598547081E-01  0.80692563437E-01  0.13414912302E+00  0.21381279195E-01 0.  0.
         14    1    1    2    0    0  0.43714710729E-02  0.10979103484E-01 -0.19427536859E-01  0.22739385679E-01  0.00000000000E+00 0.  1.
     999901    1    3    3    0    0  0.28910171515E-01  0.88619443598E-01 -0.61265026578E-01  0.88704149130E+00  0.88000000000E+00 0. -1.
        -11    1    4    4    0    0 -0.28034588030E-01 -0.55143134904E-01  0.40127848206E-01  0.73737431307E-01  0.51100000000E-03 0. -1.
         11    1    4    4    0    0 -0.52470545582E-02 -0.44455412177E-01  0.40564715232E-01  0.60411691718E-01  0.51100000000E-03 0.  1.
</event>
<event>
 8    1  0.1176534E+005  0.1043930E+01  0.7957747E-01            NaN
         13   -1    0    0    0    0  0.00000000000E+00  0.00000000000E+00  0.74505805969E-08  0.10566000000E+00  0.10566000000E+00 0. -1.
     999900   -1    0    0    0    0 -0.00000000000E+00 -0.00000000000E+00 -0.74505805969E-08  0.93827000000E+00  0.93827000000E+00 0.  1.
     999902    2    1    2    0    0 -0.16158635746E-02 -0.84976468802E-02 -0.21814386766E-01  0.10204632472E+01  0.10201933887E+01 0.  0.
     999903    2    3    3    0    0 -0.21571448855E-01 -0.12728738638E+00  0.16228388697E-01  0.13144329220E+00  0.18616453199E-01 0.  0.
         14    1    1    2    0    0  0.16158635746E-02  0.84976468802E-02  0.21814386766E-01  0.23466752813E-01  0.00000000000E+00 0. -1.
     999901    1    3    3    0    0  0.19955585280E-01  0.11878973950E+00 -0.38042775463E-01  0.88901995498E+00  0.88000000000E+00 0.  1.
        -11    1    4    4    0    0 -0.63473583890E-02 -0.26960470032E-01 -0.39420443622E-02  0.27981364113E-01  0.51100000000E-03 0. -1.
         11    1    4    4    0    0 -0.15224090466E-01 -0.10032691634E+00  0.20170433059E-01  0.10346192809E+00  0.51100000000E-03 0.  1.
</event>
<event>
 8    1  0.1176534E+005  0.1043930E+01  0.7957747E-01            NaN
         13   -1    0    0    0    0  0.00000000000E+00  0.00000000000E+00  0.74505805969E-08  0.10566000000E+00  0.10566000000E+00 0. -1.
     999900   -1    0    0    0    0 -0.00000000000E+00 -0.00000000000E+00 -0.74505805969E-08  0.93827000000E+00  0.93827000000E+00 0. -1.
     999902    2    1    2    0    0  0.85452361956E-02  0.12227491361E-02 -0.21933576848E-01  0.10203588742E+01  0.10200865817E+01 0.  0.
     999903    2    3    3    0    0  0.70977974189E-01 -0.93516000999E-01  0.52093401406E-01  0.12999194365E+00  0.20026674224E-01 0.  0.
         14    1    1    2    0    0 -0.85452361956E-02 -0.12227491361E-02  0.21933576848E-01  0.23571125778E-01  0.00000000000E+00 0. -1.
     999901    1    3    3    0    0 -0.62432737993E-01  0.94738750135E-01 -0.74026978254E-01  0.89036693057E+00  0.88000000000E+00 0.  1.
        -11    1    4    4    0    0  0.46185787180E-01 -0.70419484388E-01  0.29366342001E-01  0.89188978481E-01  0.51100000000E-03 0.  1.
         11    1    4    4    0    0  0.24792187009E-01 -0.23096516611E-01  0.22727059404E-01  0.40802965167E-01  0.51100000000E-03 0. -1.
</event>
<event>
 8    1  0.1176534E+005  0.1043930E+01  0.7957747E-01            NaN
         13   -1    0    0    0    0  0.00000000000E+00  0.00000000000E+00  0.74505805969E-08  0.10566000000E+00  0.10566000000E+00 0.  1.
     999900   -1    0    0    0    0 -0.00000000000E+00 -0.00000000000E+00 -0.74505805969E-08  0.93827000000E+00  0.93827000000E+00 0.  1.
     999902    2    1    2    0    0 -0.42294733929E-02 -0.22777142623E-01 -0.46686482469E-03  0.10207587973E+01  0.10204957705E+01 0.  0.
     999903    2    3    3    0    0  0.75123010870E-01  0.27269604628E-01  0.10046409853E+00  0.13003518528E+00  0.20712706694E-01 0.  0.
         14    1    1    2    0    0  0.42294733929E-02  0.22777142623E-01  0.46686482469E-03  0.23171202688E-01  0.00000000000E+00 0. -1.
     999901    1    3    3    0    0 -0.79352484263E-01 -0.50046747251E-01 -0.10093096335E+00  0.89072361203E+00  0.88000000000E+00 0.  1.
        -11    1    4    4    0    0  0.42128608031E-01  0.25112717416E-01  0.66499660417E-01  0.82631314568E-01  0.51100000000E-03 0.  1.
         11    1    4    4    0    0  0.32994402839E-01  0.21568872120E-02  0.33964438112E-01  0.47403870711E-01  0.51100000000E-03 0. -1.
</event>
<event>
 8    1  0.1176534E+005  0.1043930E+01  0.7957747E-01            NaN
         13   -1    0    0    0    0  0.00000000000E+00  0.00000000000E+00  0.74505805969E-08  0.10566000000E+00  0.10566000000E+00 0. -1.
     999900   -1    0    0    0    0 -0.00000000000E+00 -0.00000000000E+00 -0.74505805969E-08  0.93827000000E+00  0.93827000000E+00 0.  1.
     999902    2    1    2    0    0 -0.64968608463E-02  0.30475629647E-02  0.21928858565E-01  0.10208568191E+01  0.10205960383E+01 0.  0.
     999903    2    3    3    0    0 -0.12822879284E+00  0.18955886031E-01 -0.12774032113E-01  0.13165716283E+00  0.19195929262E-01 0.  0.
         14    1    1    2    0    0  0.64968608463E-02 -0.30475629647E-02 -0.21928858565E-01  0.23073180943E-01  0.00000000000E+00 0.  1.
     999901    1    3    3    0    0  0.12173193199E+00 -0.15908323066E-01  0.34702890678E-01  0.88919965623E+00  0.88000000000E+00 0. -1.
        -11    1    4    4    0    0 -0.79079858358E-01  0.19925207758E-01 -0.12429575650E-01  0.82494808164E-01  0.51100000000E-03 0. -1.
         11    1    4    4    0    0 -0.49148934481E-01 -0.96932172686E-03 -0.34445646271E-03  0.49162354668E-01  0.51100000000E-03 0.  1.
</event>
<event>
 8    1  0.1176534E+005  0.1043930E+01  0.7957747E-01            NaN
         13   -1    0    0    0    0  0.00000000000E+00  0.00000000000E+00  0.74505805969E-08  0.10566000000E+00  0.10566000000E+00 0.  1.
     999900   -1    0    0    0    0 -0.00000000000E+00 -0.00000000000E+00 -0.74505805969E-08  0.93827000000E+00  0.93827000000E+00 0. -1.
     999902    2    1    2    0    0 -0.11749959715E-01  0.19480392126E-01  0.63233566520E-02  0.10203178830E+01  0.10200446315E+01 0.  0.
     999903    2    3    3    0    0  0.89412133961E-01  0.90434442143E-01 -0.21541738598E-01  0.13124830756E+00  0.24272488751E-01 0.  0.
         14    1    1    2    0    0  0.11749959715E-01 -0.19480392126E-01 -0.63233566520E-02  0.23612117017E-01  0.00000000000E+00 0. -1.
     999901    1    3    3    0    0 -0.10116209368E+00 -0.70954050017E-01  0.27865095250E-01  0.88906957542E+00  0.88000000000E+00 0. -1.
        -11    1    4    4    0    0  0.35628297093E-01  0.35340507064E-01  0.34351413834E-02  0.50302965227E-01  0.51100000000E-03 0.  1.
         11    1    4    4    0    0  0.53783836868E-01  0.55093935079E-01 -0.24976879981E-01  0.80945342332E-01  0.51100000000E-03 0. -1.
</event>
<event>
 8    1  0.1176534E+005  0.1043930E+01  0.7957747E-01            NaN
         13   -1    0    0    0    0  0.00000000000E+00  0.00000000000E+00  0.74505805969E-08  0.10566000000E+00  0.10566000000E+00 0. -1.
     999900   -1    0    0    0    0 -0.00000000000E+00 -0.00000000000E+00 -0.74505805969E-08  0.93827000000E+00  0.93827000000E+00 0. -1.
     999902    2    1    2    0    0  0.11508915966E-01 -0.21019620053E-01  0.92782046354E-03  0.10199479145E+01  0.10196659295E+01 0.  0.
     999903    2    3    3    0    0 -0.70520646713E-01 -0.10759266740E+00  0.20282526488E-01  0.13169212571E+00  0.19547158435E-01 0.  0.
         14    1    1    2    0    0 -0.11508915966E-01  0.21019620053E-01 -0.92782046354E-03  0.23982085495E-01  0.00000000000E+00 0. -1.
     999901    1    3    3    0    0  0.82029562679E-01  0.86573047345E-01 -0.19354706024E-01  0.88825578879E+00  0.88000000000E+00 0.  1.
        -11    1    4    4    0    0 -0.32977314534E-01 -0.64656129546E-01  0.56177679117E-02  0.72799304935E-01  0.51100000000E-03 0.  1.
         11    1    4    4    0    0 -0.37543332179E-01 -0.42936537852E-01  0.14664758576E-01  0.58892820776E-01  0.51100000000E-03 0. -1.
</event>
<event>
 8    1  0.1176534E+005  0.1043930E+01  0.7957747E-01            NaN
         13   -1    0    0    0    0  0.00000000000E+00  0.00000000000E+00  0.74505805969E-08  0.10566000000E+00  0.10566000000E+00 0.  1.
     999900   -1    0    0    0    0 -0.00000000000E+00 -0.00000000000E+00 -0.74505805969E-08  0.93827000000E+00  0.93827000000E+00 0.  1.
     999902    2    1    2    0    0 -0.22576559779E-02  0.17781698528E-01  0.15597480251E-01  0.10201693770E+01  0.10198926368E+01 0.  0.
     999903    2    3    3    0    0 -0.28562000720E-01 -0.10923910870E+00  0.60265887840E-01  0.12953956020E+00  0.19988738451E-01 0.  0.
         14    1    1    2    0    0  0.22576559779E-02 -0.17781698528E-01 -0.15597480251E-01  0.23760622956E-01  0.00000000000E+00 0. -1.
     999901    1    3    3    0    0  0.26304344742E-01  0.12702080723E+00 -0.44668407589E-01  0.89062981685E+00  0.88000000000E+00 0.  1.
        -11    1    4    4    0    0 -0.83231408626E-02 -0.69997126615E-01  0.38179002145E-01  0.80167136246E-01  0.51100000000E-03 0. -1.
         11    1    4    4    0    0 -0.20238859857E-01 -0.39241982082E-01  0.22086885695E-01  0.49372423951E-01  0.51100000000E-03 0.  1.
</event>
<event>
 7    1  0.1176534E+005  0.1043930E+01  0.7957747E-01            NaN
         13   -1    0    0    0    0  0.00000000000E+00  0.00000000000E+00  0.74505805969E-08  0.10566000000E+00  0.10566000000E+00 0. -1.
     999900   -1    0    0    0    0 -0.00000000000E+00 -0.00000000000E+00 -0.74505805969E-08  0.93827000000E+00  0.93827000000E+00 0. -1.
     999903    2    1    2    0    0 -0.52294928469E-04  0.97613968748E-01  0.23898647682E-01  0.10303567264E+00  0.22731362591E-01 0.  0.
         14    1    1    2    0    0  0.29430894653E-01  0.35532331064E-01 -0.20250090904E-01  0.50386409800E-01  0.00000000000E+00 0. -1.
     999901    1    1    2    0    0 -0.29378599725E-01 -0.13314629981E+00 -0.36485567784E-02  0.89050791756E+00  0.88000000000E+00 0. -1.
        -11    1    3    3    0    0 -0.30326783147E-02  0.16582382630E-01 -0.39087709518E-02  0.17312196937E-01  0.51100000000E-03 0. -1.
         11    1    3    3    0    0  0.29803833862E-02  0.81031586118E-01  0.27807418634E-01  0.85723475700E-01  0.51100000000E-03 0.  1.
</event>
<event>
 8    1  0.1176534E+005  0.1043930E+01  0.7957747E-01            NaN
         13   -1    0    0    0    0  0.00000000000E+00  0.00000000000E+00  0.74505805969E-08  0.10566000000E+00  0.10566000000E+00 0.  1.
     999900   -1    0    0    0    0 -0.00000000000E+00 -0.00000000000E+00 -0.74505805969E-08  0.93827000000E+00  0.93827000000E+00 0.  1.
     999902    2    1    2    0    0  0.68228507327E-02  0.36259086049E-03 -0.23369891229E-01  0.10195818054E+01  0.10192910396E+01 0.  0.
     999903    2    3    3    0    0 -0.49533598083E-01  0.12337808933E-01 -0.12012956649E+00  0.13240544755E+00  0.22232654528E-01 0.  0.
         14    1    1    2    0    0 -0.68228507327E-02 -0.36259086049E-03  0.23369891229E-01  0.24348194601E-01  0.00000000000E+00 0.  1.
     999901    1    3    3    0    0  0.56356448815E-01 -0.11975218073E-01  0.96759675261E-01  0.88717635785E+00  0.88000000000E+00 0. -1.
        -11    1    4    4    0    0 -0.36306621003E-01 -0.11165648195E-02 -0.70521171090E-01  0.79327890042E-01  0.51100000000E-03 0.  1.
         11    1    4    4    0    0 -0.13226977080E-01  0.13454373753E-01 -0.49608395400E-01  0.53077557507E-01  0.51100000000E-03 0. -1.
</event>
<event>
 8    1  0.1176534E+005  0.1043930E+01  0.7957747E-01            NaN
         13   -1    0    0    0    0  0.00000000000E+00  0.00000000000E+00  0.74505805969E-08  0.10566000000E+00  0.10566000000E+00 0.  1.
     999900   -1    0    0    0    0 -0.00000000000E+00 -0.00000000000E+00 -0.74505805969E-08  0.93827000000E+00  0.93827000000E+00 0. -1.
     999902    2    1    2    0    0  0.15473884080E-01  0.85981895647E-03 -0.17925756904E-01  0.10202337316E+01  0.10199585060E+01 0.  0.
     999903    2    3    3    0    0  0.59622695772E-01 -0.96417523441E-01 -0.65333520225E-01  0.13250658039E+00  0.20936100469E-01 0.  0.
         14    1    1    2    0    0 -0.15473884080E-01 -0.85981895647E-03  0.17925756904E-01  0.23696268435E-01  0.00000000000E+00 0.  1.
     999901    1    3    3    0    0 -0.44148811693E-01  0.97277342398E-01  0.47407763321E-01  0.88772715118E+00  0.88000000000E+00 0. -1.
        -11    1    4    4    0    0  0.43944184901E-01 -0.54181444507E-01 -0.33856682029E-01  0.77545189113E-01  0.51100000000E-03 0. -1.
         11    1    4    4    0    0  0.15678510871E-01 -0.42236078934E-01 -0.31476838196E-01  0.54961391273E-01  0.51100000000E-03 0.  1.
</event>
<event>
 8    1  0.1176534E+005  0.1043930E+01  0.7957747E-01            NaN
         13   -1    0    0    0    0  0.00000000000E+00  0.00000000000E+00  0.74505805969E-08  0.10566000000E+00  0.10566000000E+00 0. -1.
     999900   -1    0    0    0    0 -0.00000000000E+00 -0.00000000000E+00 -0.74505805969E-08  0.93827000000E+00  0.93827000000E+00 0.  1.
     999902    2    1    2    0    0  0.72433464913E-02 -0.13588484002E-01 -0.20719620786E-01  0.10181149724E+01  0.10177876406E+01 0.  0.
     999903    2    3    3    0    0  0.40564300802E-01  0.88834500077E-01 -0.83169895278E-01  0.12935134213E+00  0.16658551144E-01 0.  0.
         14    1    1    2    0    0 -0.72433464913E-02  0.13588484002E-01  0.20719620786E-01  0.25815027627E-01  0.00000000000E+00 0. -1.
     999901    1    3    3    0    0 -0.33320954310E-01 -0.10242298408E+00  0.62450274492E-01  0.88876363025E+00  0.88000000000E+00 0. -1.
        -11    1    4    4    0    0  0.14729985377E-01  0.24694143683E-01 -0.33842115391E-01  0.44410844358E-01  0.51100000000E-03 0. -1.
         11    1    4    4    0    0  0.25834315425E-01  0.64140356393E-01 -0.49327779887E-01  0.84940497769E-01  0.51100000000E-03 0.  1.
</event>
<event>
 8    1  0.1176534E+005  0.1043930E+01  0.7957747E-01            NaN
         13   -1    0    0    0    0  0.00000000000E+00  0.00000000000E+00  0.74505805969E-08  0.10566000000E+00  0.10566000000E+00 0.  1.
     999900   -1    0    0    0    0 -0.00000000000E+00 -0.00000000000E+00 -0.74505805969E-08  0.93827000000E+00  0.93827000000E+00 0. -1.
     999902    2    1    2    0    0 -0.47011543878E-02  0.74266490037E-02 -0.21805240025E-01  0.10204199073E+01  0.10201490394E+01 0.  0.
     999903    2    3    3    0    0 -0.50445389435E-01 -0.11678271129E+00 -0.21761554820E-01  0.13052075447E+00  0.19472111025E-01 0.  0.
         14    1    1    2    0    0  0.47011543878E-02 -0.74266490037E-02  0.21805240025E-01  0.23510092738E-01  0.00000000000E+00 0.  1.
     999901    1    3    3    0    0  0.45744235047E-01  0.12420936030E+00 -0.43685204932E-04  0.88989915279E+00  0.88000000000E+00 0. -1.
        -11    1    4    4    0    0 -0.51598043566E-01 -0.10691238330E+00 -0.19322667832E-01  0.12027569337E+00  0.51100000000E-03 0. -1.
         11    1    4    4    0    0  0.11526541310E-02 -0.98703279970E-02 -0.24388869876E-02  0.10245061105E-01  0.51100000000E-03 0.  1.
</event>
<event>
 8    1  0.1176534E+005  0.1043930E+01  0.7957747E-01            NaN
         13   -1    0    0    0    0  0.00000000000E+00  0.00000000000E+00  0.74505805969E-08  0.10566000000E+00  0.10566000000E+00 0.  1.
     999900   -1    0    0    0    0 -0.00000000000E+00 -0.00000000000E+00 -0.74505805969E-08  0.93827000000E+00  0.93827000000E+00 0. -1.
     999902    2    1    2    0    0  0.10839859998E-01 -0.18392570143E-01  0.10204444773E-01  0.10202673735E+01  0.10199929380E+01 0.  0.
     999903    2    3    3    0    0  0.12921349043E+00 -0.20641080633E-01 -0.15292189411E-02  0.13226115105E+00  0.19196177968E-01 0.  0.
         14    1    1    2    0    0 -0.10839859998E-01  0.18392570143E-01 -0.10204444773E-01  0.23662626531E-01  0.00000000000E+00 0. -1.
     999901    1    3    3    0    0 -0.11837363043E+00  0.22485104902E-02  0.11733663714E-01  0.88800622241E+00  0.88000000000E+00 0.  1.
        -11    1    4    4    0    0  0.68011450111E-01 -0.14460548974E-02 -0.30856290607E-02  0.68098683164E-01  0.51100000000E-03 0. -1.
         11    1    4    4    0    0  0.61202040320E-01 -0.19195025735E-01  0.15564101196E-02  0.64162467891E-01  0.51100000000E-03 0.  1.
</event>
<event>
 8    1  0.1176534E+005  0.1043930E+01  0.7957747E-01            NaN
         13   -1    0    0    0    0  0.00000000000E+00  0.00000000000E+00  0.74505805969E-08  0.10566000000E+00  0.10566000000E+00 0. -1.
     999900   -1    0    0    0    0 -0.00000000000E+00 -0.00000000000E+00 -0.74505805969E-08  0.93827000000E+00  0.93827000000E+00 0. -1.
     999902    2    1    2    0    0 -0.17182080520E-01 -0.95175826869E-02 -0.12346316205E-01  0.10207300044E+01  0.10204663160E+01 0.  0.
     999903    2    3    3    0    0  0.86757455466E-01  0.43367131651E-01  0.81367505019E-01  0.12810326247E+00  0.19550212170E-01 0.  0.
         14    1    1    2    0    0  0.17182080520E-01  0.95175826869E-02  0.12346316205E-01  0.23199995583E-01  0.00000000000E+00 0. -1.
     999901    1    3    3    0    0 -0.10393953599E+00 -0.52884714338E-01 -0.93713821224E-01  0.89262674195E+00  0.88000000000E+00 0. -1.
        -11    1    4    4    0    0  0.53762998337E-01  0.31952825321E-01  0.62481513508E-01  0.88406129241E-01  0.51100000000E-03 0.  1.
         11    1    4    4    0    0  0.32994457129E-01  0.11414306329E-01  0.18885991511E-01  0.39697133228E-01  0.51100000000E-03 0. -1.
</event>
<event>
 8    1  0.1176534E+005  0.1043930E+01  0.7957747E-01            NaN
         13   -1    0    0    0    0  0.00000000000E+00  0.00000000000E+00  0.74505805969E-08  0.10566000000E+00  0.10566000000E+00 0. -1.
     999900   -1    0    0    0    0 -0.00000000000E+00 -0.00000000000E+00 -0.74505805969E-08  0.93827000000E+00  0.93827000000E+00 0.  1.
     999902    2    1    2    0    0 -0.32940418826E-02 -0.82214267825E-02 -0.21819536890E-01  0.10203814383E+01  0.10201096729E+01 0.  0.
     999903    2    3    3    0    0 -0.99635410509E-01 -0.33832625861E-01 -0.78622835196E-01  0.13293329468E+00  0.20441355657E-01 0.  0.
         14    1    1    2    0    0  0.32940418826E-02  0.82214267825E-02  0.21819536890E-01  0.23548561747E-01  0.00000000000E+00 0. -1.
     999901    1    3    3    0    0  0.96341368627E-01  0.25611199079E-01  0.56803298306E-01  0.88744814357E+00  0.88000000000E+00 0. -1.
        -11    1    4    4    0    0 -0.27470279251E-01 -0.19247483670E-01 -0.23488348666E-01  0.40951746163E-01  0.51100000000E-03 0.  1.
         11    1    4    4    0    0 -0.72165131258E-01 -0.14585142192E-01 -0.55134486530E-01  0.91981548520E-01  0.51100000000E-03 0. -1.
</event>
<event>
 8    1  0.1176534E+005  0.1043930E+01  0.7957747E-01            NaN
         13   -1    0    0    0    0  0.00000000000E+00  0.00000000000E+00  0.74505805969E-08  0.10566000000E+00  0.10566000000E+00 0. -1.
     999900   -1    0    0    0    0 -0.00000000000E+00 -0.00000000000E+00 -0.74505805969E-08  0.93827000000E+00  0.93827000000E+00 0. -1.
     999902    2    1    2    0    0  0.15179296898E-01 -0.15719503495E-01 -0.82778936736E-02  0.10205625575E+01  0.10202950046E+01 0.  0.
     999903    2    3    3    0    0 -0.75951410853E-01  0.57811105767E-01  0.82883708485E-01  0.12813777408E+00  0.20948490460E-01 0.  0.
         14    1    1    2    0    0 -0.15179296898E-01  0.15719503495E-01  0.82778936736E-02  0.23367442481E-01  0.00000000000E+00 0.  1.
     999901    1    3    3    0    0  0.91130707751E-01 -0.73530609262E-01 -0.91161602159E-01  0.89242478344E+00  0.88000000000E+00 0. -1.
        -11    1    4    4    0    0 -0.23095789308E-01  0.30276797474E-01  0.30561931452E-01  0.48830243949E-01  0.51100000000E-03 0. -1.
         11    1    4    4    0    0 -0.52855621544E-01  0.27534308293E-01  0.52321777033E-01  0.79307530127E-01  0.51100000000E-03 0.  1.
</event>
<event>
 8    1  0.1176534E+005  0.1043930E+01  0.7957747E-01            NaN
         13   -1    0    0    0    0  0.00000000000E+00  0.00000000000E+00  0.74505805969E-08  0.10566000000E+00  0.10566000000E+00 0. -1.
     999900   -1    0    0    0    0 -0.00000000000E+00 -0.00000000000E+00 -0.74505805969E-08  0.93827000000E+00  0.93827000000E+00 0. -1.
     999902    2    1    2    0    0 -0.47677933740E-02  0.77109914765E-02 -0.21457942524E-01  0.10206354826E+01  0.10203696163E+01 0.  0.
     999903    2    3    3    0    0  0.93249569301E-01  0.33216105040E-02  0.85626444088E-01  0.12873092723E+00  0.23092172406E-01 0.  0.
         14    1    1    2    0    0  0.47677933740E-02 -0.77109914765E-02  0.21457942524E-01  0.23294517393E-01  0.00000000000E+00 0. -1.
     999901    1    3    3    0    0 -0.98017362675E-01  0.43893809725E-02 -0.10708438661E+00  0.89190455538E+00  0.88000000000E+00 0. -1.
        -11    1    4    4    0    0  0.62386395812E-01  0.26894444828E-02  0.41890224248E-01  0.75195395488E-01  0.51100000000E-03 0. -1.
         11    1    4    4    0    0  0.30863173489E-01  0.63216602120E-03  0.43736219840E-01  0.53535531739E-01  0.51100000000E-03 0.  1.
</event>
<event>
 8    1  0.1176534E+005  0.1043930E+01  0.7957747E-01            NaN
         13   -1    0    0    0    0  0.00000000000E+00  0.00000000000E+00  0.74505805969E-08  0.10566000000E+00  0.10566000000E+00 0. -1.
     999900   -1    0    0    0    0 -0.00000000000E+00 -0.00000000000E+00 -0.74505805969E-08  0.93827000000E+00  0.93827000000E+00 0.  1.
     999902    2    1    2    0    0  0.91732024026E-02 -0.19895820722E-03  0.22017217862E-01  0.10200774297E+01  0.10197985181E+01 0.  0.
     999903    2    3    3    0    0  0.75872135256E-02  0.48238227147E-01 -0.11661649517E+00  0.12790705211E+00  0.19398831612E-01 0.  0.
         14    1    1    2    0    0 -0.91732024026E-02  0.19895820722E-03 -0.22017217862E-01  0.23852570282E-01  0.00000000000E+00 0.  1.
     999901    1    3    3    0    0  0.15859888770E-02 -0.48437185354E-01  0.13863371303E+00  0.89217037760E+00  0.88000000000E+00 0. -1.
        -11    1    4    4    0    0 -0.54739768640E-02  0.23623532157E-01 -0.46291638196E-01  0.52261004412E-01  0.51100000000E-03 0.  1.
         11    1    4    4    0    0  0.13061190390E-01  0.24614694990E-01 -0.70324856972E-01  0.75646047702E-01  0.51100000000E-03 0. -1.
</event>
<event>
 8    1  0.1176534E+005  0.1043930E+01  0.7957747E-01            NaN
         13   -1    0    0    0    0  0.00000000000E+00  0.00000000000E+00  0.74505805969E-08  0.10566000000E+00  0.10566000000E+00 0. -1.
     999900   -1    0    0    0    0 -0.00000000000E+00 -0.00000000000E+00 -0.74505805969E-08  0.93827000000E+00  0.93827000000E+00 0.  1.
     999902    2    1    2    0    0  0.46819321216E-02  0.21628843696E-01  0.11618956450E-01  0.10189354503E+01  0.10186288452E+01 0.  0.
     999903    2    3    3    0    0 -0.10945247206E+00 -0.27144296535E-01  0.59055199094E-01  0.12896035030E+00  0.20654271588E-01 0.  0.
         14    1    1    2    0    0 -0.46819321216E-02 -0.21628843696E-01 -0.11618956450E-01  0.24994549746E-01  0.00000000000E+00 0. -1.
     999901    1    3    3    0    0  0.11413440418E+00  0.48773140230E-01 -0.47436242644E-01  0.88997509996E+00  0.88000000000E+00 0.  1.
        -11    1    4    4    0    0 -0.60304875204E-01 -0.48156559417E-02  0.34609781118E-01  0.69699114669E-01  0.51100000000E-03 0.  1.
         11    1    4    4    0    0 -0.49147596854E-01 -0.22328640593E-01  0.24445417976E-01  0.59261235629E-01  0.51100000000E-03 0. -1.
</event>
<event>
 8    1  0.1176534E+005  0.1043930E+01  0.7957747E-01            NaN
         13   -1    0    0    0    0  0.00000000000E+00  0.00000000000E+00  0.74505805969E-08  0.10566000000E+00  0.10566000000E+00 0.  1.
     999900   -1    0    0    0    0 -0.00000000000E+00 -0.00000000000E+00 -0.74505805969E-08  0.93827000000E+00  0.93827000000E+00 0.  1.
     999902    2    1    2    0    0 -0.73158461405E-02  0.52918740226E-03 -0.22018092515E-01  0.10207222849E+01  0.10204584189E+01 0.  0.
     999903    2    3    3    0    0  0.67298942073E-03  0.10354980923E+00  0.74874231928E-01  0.12939451543E+00  0.20341438257E-01 0.  0.
         14    1    1    2    0    0  0.73158461405E-02 -0.52918740226E-03  0.22018092515E-01  0.23207715141E-01  0.00000000000E+00 0.  1.
     999901    1    3    3    0    0 -0.79888355612E-02 -0.10302062183E+00 -0.96892324443E-01  0.89132776943E+00  0.88000000000E+00 0.  1.
        -11    1    4    4    0    0 -0.82584959330E-02  0.76295536815E-01  0.51923386869E-01  0.92658032129E-01  0.51100000000E-03 0. -1.
         11    1    4    4    0    0  0.89314853537E-02  0.27254272417E-01  0.22950845058E-01  0.36736483304E-01  0.51100000000E-03 0.  1.
</event>
<event>
 8    1  0.1176534E+005  0.1043930E+01  0.7957747E-01            NaN
         13   -1    0    0    0    0  0.00000000000E+00  0.00000000000E+00  0.74505805969E-08  0.10566000000E+00  0.10566000000E+00 0.  1.
     999900   -1    0    0    0    0 -0.00000000000E+00 -0.00000000000E+00 -0.74505805969E-08  0.93827000000E+00  0.93827000000E+00 0. -1.
     999902    2    1    2    0    0  0.65384800477E-02  0.78534364029E-02  0.21583600173E-01  0.10200494644E+01  0.10197698906E+01 0.  0.
     999903    2    3    3    0    0  0.46653690855E-01 -0.91526079570E-01 -0.74133893878E-01  0.12839518329E+00  0.20878188589E-01 0.  0.
         14    1    1    2    0    0 -0.65384800477E-02 -0.78534364029E-02 -0.21583600173E-01  0.23880535611E-01  0.00000000000E+00 0. -1.
     999901    1    3    3    0    0 -0.40115210808E-01  0.99379515973E-01  0.95717494051E-01  0.89165428110E+00  0.88000000000E+00 0.  1.
        -11    1    4    4    0    0  0.33953346155E-01 -0.63669788381E-01 -0.39860771992E-01  0.82436726842E-01  0.51100000000E-03 0.  1.
         11    1    4    4    0    0  0.12700344701E-01 -0.27856291188E-01 -0.34273121886E-01  0.45958456448E-01  0.51100000000E-03 0. -1.
</event>
<event>
 8    1  0.1176534E+005  0.1043930E+01  0.7957747E-01            NaN
         13   -1    0    0    0    0  0.00000000000E+00  0.00000000000E+00  0.74505805969E-08  0.10566000000E+00  0.10566000000E+00 0.  1.
     999900   -1    0    0    0    0 -0.00000000000E+00 -0.00000000000E+00 -0.74505805969E-08  0.93827000000E+00  0.93827000000E+00 0. -1.
     999902    2    1    2    0    0 -0.58631386600E-02 -0.37772009763E-02 -0.22999964826E-01  0.10198958155E+01  0.10196125894E+01 0.  0.
     999903    2    3    3    0    0  0.59754610339E-01  0.10126161923E+00 -0.53545455615E-01  0.13069849784E+00  0.19759871855E-01 0.  0.
         14    1    1    2    0    0  0.58631386600E-02  0.37772009763E-02  0.22999964826E-01  0.24034184491E-01  0.00000000000E+00 0.  1.
     999901    1    3    3    0    0 -0.65617748999E-01 -0.10503882021E+00  0.30545490790E-01  0.88919731766E+00  0.88000000000E+00 0.  1.
        -11    1    4    4    0    0  0.43870084974E-01  0.80326602219E-01 -0.49652365896E-01  0.10412764253E+00  0.51100000000E-03 0. -1.
         11    1    4    4    0    0  0.15884525365E-01  0.20935017012E-01 -0.38930897198E-02  0.26570855311E-01  0.51100000000E-03 0.  1.
</event>
<event>
 8    1  0.1176534E+005  0.1043930E+01  0.7957747E-01            NaN
         13   -1    0    0    0    0  0.00000000000E+00  0.00000000000E+00  0.74505805969E-08  0.10566000000E+00  0.10566000000E+00 0. -1.
     999900   -1    0    0    0    0 -0.00000000000E+00 -0.00000000000E+00 -0.74505805969E-08  0.93827000000E+00  0.93827000000E+00 0. -1.
     999902    2    1    2    0    0 -0.22275512109E-02 -0.20902040305E-01 -0.95419515577E-02  0.10208452407E+01  0.10205841951E+01 0.  0.
     999903    2    3    3    0    0 -0.24555320296E-02  0.11254675755E+00 -0.60448056553E-01  0.12932964062E+00  0.19984647341E-01 0.  0.
         14    1    1    2    0    0  0.22275512109E-02  0.20902040305E-01  0.95419515577E-02  0.23084759319E-01  0.00000000000E+00 0.  1.
     999901    1    3    3    0    0  0.22798081872E-03 -0.13344879786E+00  0.50906104995E-01  0.89151560006E+00  0.88000000000E+00 0.  1.
        -11    1    4    4    0    0  0.66213540859E-02  0.62615775237E-01 -0.40094455888E-01  0.74648537510E-01  0.51100000000E-03 0. -1.
         11    1    4    4    0    0 -0.90768861155E-02  0.49930982313E-01 -0.20353600665E-01  0.54681103110E-01  0.51100000000E-03 0.  1.
</event>
<event>
 8    1  0.1176534E+005  0.1043930E+01  0.7957747E-01            NaN
         13   -1    0    0    0    0  0.00000000000E+00  0.00000000000E+00  0.74505805969E-08  0.10566000000E+00  0.10566000000E+00 0.  1.
     999900   -1    0    0    0    0 -0.00000000000E+00 -0.00000000000E+00 -0.74505805969E-08  0.93827000000E+00  0.93827000000E+00 0. -1.
     999902    2    1    2    0    0 -0.56899219942E-02 -0.64883684946E-02 -0.22145295650E-01  0.10201626220E+01  0.10198857225E+01 0.  0.
     999903    2    3    3    0    0  0.10436243419E-01  0.66923636336E-01 -0.11192881993E+00  0.13240676766E+00  0.20391250915E-01 0.  0.
         14    1    1    2    0    0  0.56899219942E-02  0.64883684946E-02  0.22145295650E-01  0.23767378009E-01  0.00000000000E+00 0.  1.
     999901    1    3    3    0    0 -0.16126165413E-01 -0.73412004831E-01  0.89783524282E-01  0.88775585433E+00  0.88000000000E+00 0. -1.
        -11    1    4    4    0    0  0.14088540560E-01  0.64331106616E-01 -0.10761417149E+00  0.12616675188E+00  0.51100000000E-03 0. -1.
         11    1    4    4    0    0 -0.36522971414E-02  0.25925297203E-02 -0.43146484396E-02  0.62400157786E-02  0.51100000000E-03 0.  1.
</event>
<event>
 8    1  0.1176534E+005  0.1043930E+01  0.7957747E-01            NaN
         13   -1    0    0    0    0  0.00000000000E+00  0.00000000000E+00  0.74505805969E-08  0.10566000000E+00  0.10566000000E+00 0. -1.
     999900   -1    0    0    0    0 -0.00000000000E+00 -0.00000000000E+00 -0.74505805969E-08  0.93827000000E+00  0.93827000000E+00 0.  1.
     999902    2    1    2    0    0 -0.12142062028E-02  0.63041474010E-02  0.24213937703E-01  0.10188794242E+01  0.10185714259E+01 0.  0.
     999903    2    3    3    0    0  0.11563812718E+00 -0.34334741590E-01  0.44329961077E-01  0.12999774389E+00  0.19575929858E-01 0.  0.
         14    1    1    2    0    0  0.12142062028E-02 -0.63041474010E-02 -0.24213937703E-01  0.25050575846E-01  0.00000000000E+00 0.  1.
     999901    1    3    3    0    0 -0.11685233338E+00  0.40638888991E-01 -0.20116023374E-01  0.88888168027E+00  0.88000000000E+00 0. -1.
        -11    1    4    4    0    0  0.34118255329E-01 -0.14210180153E-01  0.50861965091E-02  0.37311058449E-01  0.51100000000E-03 0.  1.
         11    1    4    4    0    0  0.81519871849E-01 -0.20124561437E-01  0.39243764568E-01  0.92686685440E-01  0.51100000000E-03 0. -1.
</event>
<event>
 8    1  0.1176534E+005  0.1043930E+01  0.7957747E-01            NaN
         13   -1    0    0    0    0  0.00000000000E+00  0.00000000000E+00  0.74505805969E-08  0.10566000000E+00  0.10566000000E+00 0.  1.
     999900   -1    0    0    0    0 -0.00000000000E+00 -0.00000000000E+00 -0.74505805969E-08  0.93827000000E+00  0.93827000000E+00 0.  1.
     999902    2    1    2    0    0 -0.86009045094E-02 -0.20726292276E-01 -0.38552616937E-02  0.10211612101E+01  0.10209073412E+01 0.  0.
     999903    2    3    3    0    0  0.23668571450E-01 -0.72588874108E-01  0.10575331649E+00  0.13226015439E+00  0.21900652269E-01 0.  0.
         14    1    1    2    0    0  0.86009045094E-02  0.20726292276E-01  0.38552616937E-02  0.22768789880E-01  0.00000000000E+00 0.  1.
     999901    1    3    3    0    0 -0.32269475960E-01  0.51862581832E-01 -0.10960857819E+00  0.88890105573E+00  0.88000000000E+00 0.  1.
        -11    1    4    4    0    0  0.18767912190E-01 -0.28333595137E-01  0.55839008826E-01  0.65370353900E-01  0.51100000000E-03 0. -1.
         11    1    4    4    0    0  0.49006592599E-02 -0.44255278971E-01  0.49914307668E-01  0.66889800485E-01  0.51100000000E-03 0.  1.
</event>
<event>
 8    1  0.1176534E+005  0.1043930E+01  0.7957747E-01            NaN
         13   -1    0    0    0    0  0.00000000000E+00  0.00000000000E+00  0.74505805969E-08  0.10566000000E+00  0.10566000000E+00 0. -1.
     999900   -1    0    0    0    0 -0.00000000000E+00 -0.00000000000E+00 -0.74505805969E-08  0.93827000000E+00  0.93827000000E+00 0.  1.
     999902    2    1    2    0    0 -0.20653274434E-01  0.93009479366E-02 -0.63159399257E-02  0.10204149734E+01  0.10201439906E+01 0.  0.
     999903    2    3    3    0    0 -0.10096201691E+00  0.63613861350E-01 -0.56266410265E-01  0.13368252440E+00  0.21565161493E-01 0.  0.
         14    1    1    2    0    0  0.20653274434E-01 -0.93009479366E-02  0.63159399257E-02  0.23515026568E-01  0.00000000000E+00 0. -1.
     999901    1    3    3    0    0  0.80308742480E-01 -0.54312913413E-01  0.49950470339E-01  0.88673244903E+00  0.88000000000E+00 0. -1.
        -11    1    4    4    0    0 -0.40705672569E-01  0.15496108453E-01 -0.26732096478E-01  0.51107213381E-01  0.51100000000E-03 0. -1.
         11    1    4    4    0    0 -0.60256344345E-01  0.48117752897E-01 -0.29534313787E-01  0.82575311017E-01  0.51100000000E-03 0.  1.
</event>
<event>
 8    1  0.1176534E+005  0.1043930E+01  0.7957747E-01            NaN
         13   -1    0    0    0    0  0.00000000000E+00  0.00000000000E+00  0.74505805969E-08  0.10566000000E+00  0.10566000000E+00 0. -1.
     999900   -1    0    0    0    0 -0.00000000000E+00 -0.00000000000E+00 -0.74505805969E-08  0.93827000000E+00  0.93827000000E+00 0.  1.
     999902    2    1    2    0    0  0.27009589648E-02 -0.12220221992E-01  0.21042417230E-01  0.10194471013E+01  0.10191530700E+01 0.  0.
     999903    2    3    3    0    0  0.11022541695E+00  0.20562090934E-01 -0.59771018013E-01  0.12862332502E+00  0.19973558020E-01 0.  0.
         14    1    1    2    0    0 -0.27009589648E-02  0.12220221992E-01 -0.21042417230E-01  0.24482898680E-01  0.00000000000E+00 0.  1.
     999901    1    3    3    0    0 -0.10752445798E+00 -0.32782312926E-01  0.80813435244E-01  0.89082377630E+00  0.88000000000E+00 0. -1.
        -11    1    4    4    0    0  0.56535071203E-01  0.20271190052E-01 -0.28408058677E-01  0.66441059149E-01  0.51100000000E-03 0. -1.
         11    1    4    4    0    0  0.53690345745E-01  0.29090088210E-03 -0.31362959336E-01  0.62182265871E-01  0.51100000000E-03 0.  1.
</event>
<event>
 8    1  0.1176534E+005  0.1043930E+01  0.7957747E-01            NaN
         13   -1    0    0    0    0  0.00000000000E+00  0.00000000000E+00  0.74505805969E-08  0.10566000000E+00  0.10566000000E+00 0.  1.
     999900   -1    0    0    0    0 -0.00000000000E+00 -0.00000000000E+00 -0.74505805969E-08  0.93827000000E+00  0.93827000000E+00 0.  1.
     999902    2    1    2    0    0 -0.10238495898E-01 -0.21182628205E-01 -0.17704843532E-02  0.10203362476E+01  0.10200634260E+01 0.  0.
     999903    2    3    3    0    0 -0.27055817803E-01  0.87667153457E-01  0.88296573691E-01  0.12890864416E+00  0.20089961224E-01 0.  0.
         14    1    1    2    0    0  0.10238495898E-01  0.21182628205E-01  0.17704843532E-02  0.23593752367E-01  0.00000000000E+00 0. -1.
     999901    1    3    3    0    0  0.16817321905E-01 -0.10884978166E+00 -0.90067058044E-01  0.89142760347E+00  0.88000000000E+00 0.  1.
        -11    1    4    4    0    0  0.65504658390E-03  0.27907368905E-01  0.23263714833E-01  0.36341599773E-01  0.51100000000E-03 0.  1.
         11    1    4    4    0    0 -0.27710864387E-01  0.59759784552E-01  0.65032858858E-01  0.92567044390E-01  0.51100000000E-03 0. -1.
</event>
<event>
 8    1  0.1176534E+005  0.1043930E+01  0.7957747E-01            NaN
         13   -1    0    0    0    0  0.00000000000E+00  0.00000000000E+00  0.74505805969E-08  0.10566000000E+00  0.10566000000E+00 0. -1.
     999900   -1    0    0    0    0 -0.00000000000E+00 -0.00000000000E+00 -0.74505805969E-08  0.93827000000E+00  0.93827000000E+00 0. -1.
     999902    2    1    2    0    0 -0.20659218836E-01  0.60741930843E-02  0.84135890153E-02  0.10208110116E+01  0.10205491824E+01 0.  0.
     999903    2    3    3    0    0  0.77268720308E-02 -0.94185501473E-01  0.88652771822E-01  0.13103794898E+00  0.19519653735E-01 0.  0.
         14    1    1    2    0    0  0.20659218836E-01 -0.60741930843E-02 -0.84135890153E-02  0.23118988400E-01  0.00000000000E+00 0. -1.
     999901    1    3    3    0    0 -0.28386090867E-01  0.10025969456E+00 -0.80239182806E-01  0.88977306262E+00  0.88000000000E+00 0. -1.
        -11    1    4    4    0    0  0.12473051692E-01 -0.37815220253E-01  0.39610526735E-01  0.56167809736E-01  0.51100000000E-03 0. -1.
         11    1    4    4    0    0 -0.47461796609E-02 -0.56370281220E-01  0.49042245086E-01  0.74870139244E-01  0.51100000000E-03 0.  1.
</event>
<event>
 8    1  0.1176534E+005  0.1043930E+01  0.7957747E-01            NaN
         13   -1    0    0    0    0  0.00000000000E+00  0.00000000000E+00  0.74505805969E-08  0.10566000000E+00  0.10566000000E+00 0.  1.
     999900   -1    0    0    0    0 -0.00000000000E+00 -0.00000000000E+00 -0.74505805969E-08  0.93827000000E+00  0.93827000000E+00 0. -1.
     999902    2    1    2    0    0 -0.20303498793E-01  0.48876711266E-02 -0.11376741827E-01  0.10201486702E+01  0.10198714417E+01 0.  0.
     999903    2    3    3    0    0 -0.42768045557E-01  0.27680107750E-01 -0.12097112405E+00  0.13277328197E+00  0.19985931690E-01 0.  0.
         14    1    1    2    0    0  0.20303498793E-01 -0.48876711266E-02  0.11376741827E-01  0.23781329797E-01  0.00000000000E+00 0.  1.
     999901    1    3    3    0    0  0.22464546764E-01 -0.22792436623E-01  0.10959438222E+00  0.88737538823E+00  0.88000000000E+00 0.  1.
        -11    1    4    4    0    0 -0.22177802098E-01  0.48337876672E-02 -0.65796077755E-01  0.69603199481E-01  0.51100000000E-03 0.  1.
         11    1    4    4    0    0 -0.20590243459E-01  0.22846320083E-01 -0.55175046294E-01  0.63170082488E-01  0.51100000000E-03 0. -1.
</event>
<event>
 8    1  0.1176534E+005  0.1043930E+01  0.7957747E-01            NaN
         13   -1    0    0    0    0  0.00000000000E+00  0.00000000000E+00  0.74505805969E-08  0.10566000000E+00  0.10566000000E+00 0.  1.
     999900   -1    0    0    0    0 -0.00000000000E+00 -0.00000000000E+00 -0.74505805969E-08  0.93827000000E+00  0.93827000000E+00 0. -1.
     999902    2    1    2    0    0 -0.25192358734E-01  0.19657659422E-01 -0.58075006358E-02  0.10114522295E+01  0.10109306638E+01 0.  0.
     999903    2    3    3    0    0  0.10434812943E+00  0.35535410480E-01 -0.45948171213E-01  0.12092198606E+00  0.18962983976E-01 0.  0.
         14    1    1    2    0    0  0.25192358734E-01 -0.19657659422E-01  0.58075006358E-02  0.32477770493E-01  0.00000000000E+00 0.  1.
     999901    1    3    3    0    0 -0.12954048817E+00 -0.15877751058E-01  0.40140670577E-01  0.89053024344E+00  0.88000000000E+00 0.  1.
        -11    1    4    4    0    0  0.26064457422E-01  0.16256351729E-01 -0.76342927693E-02  0.31657044387E-01  0.51100000000E-03 0.  1.
         11    1    4    4    0    0  0.78283672012E-01  0.19279058751E-01 -0.38313878443E-01  0.89264941676E-01  0.51100000000E-03 0. -1.
</event>
<event>
 8    1  0.1176534E+005  0.1043930E+01  0.7957747E-01            NaN
         13   -1    0    0    0    0  0.00000000000E+00  0.00000000000E+00  0.74505805969E-08  0.10566000000E+00  0.10566000000E+00 0.  1.
     999900   -1    0    0    0    0 -0.00000000000E+00 -0.00000000000E+00 -0.74505805969E-08  0.93827000000E+00  0.93827000000E+00 0.  1.
     999902    2    1    2    0    0 -0.77175659240E-02 -0.21930051591E-01 -0.35332605845E-02  0.10204146451E+01  0.10201436546E+01 0.  0.
     999903    2    3    3    0    0 -0.19273636026E-01  0.45181266487E-01  0.11809260852E+00  0.12944308335E+00  0.19920535987E-01 0.  0.
         14    1    1    2    0    0  0.77175659240E-02  0.21930051591E-01  0.35332605845E-02  0.23515354918E-01  0.00000000000E+00 0.  1.
     999901    1    3    3    0    0  0.11556070102E-01 -0.67111318078E-01 -0.12162586911E+00  0.89097156173E+00  0.88000000000E+00 0.  1.
        -11    1    4    4    0    0 -0.19120317981E-01  0.38386234564E-01  0.80247326906E-01  0.90988923283E-01  0.51100000000E-03 0.  1.
         11    1    4    4    0    0 -0.15331804496E-03  0.67950319230E-02  0.37845281616E-01  0.38454160072E-01  0.51100000000E-03 0. -1.
</event>
<event>
 8    1  0.1176534E+005  0.1043930E+01  0.7957747E-01            NaN
         13   -1    0    0    0    0  0.00000000000E+00  0.00000000000E+00  0.74505805969E-08  0.10566000000E+00  0.10566000000E+00 0. -1.
     999900   -1    0    0    0    0 -0.00000000000E+00 -0.00000000000E+00 -0.74505805969E-08  0.93827000000E+00  0.93827000000E+00 0.  1.
     999902    2    1    2    0    0  0.15674992712E-01  0.17918848467E-01 -0.10809088717E-02  0.10200981119E+01  0.10198196895E+01 0.  0.
     999903    2    3    3    0    0  0.62059490432E-01  0.14140312324E-01  0.11321736832E+00  0.13148689480E+00  0.20476870635E-01 0.  0.
         14    1    1    2    0    0 -0.15674992712E-01 -0.17918848467E-01  0.10809088717E-02  0.23831888110E-01  0.00000000000E+00 0. -1.
     999901    1    3    3    0    0 -0.46384497720E-01  0.37785361427E-02 -0.11429827719E+00  0.88861121709E+00  0.88000000000E+00 0.  1.
        -11    1    4    4    0    0  0.24576896523E-01 -0.44445962234E-02  0.40095379504E-01  0.47240648353E-01  0.51100000000E-03 0.  1.
         11    1    4    4    0    0  0.37482593909E-01  0.18584908547E-01  0.73121988813E-01  0.84246246450E-01  0.51100000000E-03 0. -1.
</event>
<event>
 8    1  0.1176534E+005  0.1043930E+01  0.7957747E-01            NaN
         13   -1    0    0    0    0  0.00000000000E+00  0.00000000000E+00  0.74505805969E-08  0.10566000000E+00  0.10566000000E+00 0.  1.
     999900   -1    0    0    0    0 -0.00000000000E+00 -0.00000000000E+00 -0.74505805969E-08  0.93827000000E+00  0.93827000000E+00 0.  1.
     999902    2    1    2    0    0  0.96365797615E-02  0.33532247628E-02  0.20554803440E-01  0.10209820648E+01  0.10207241395E+01 0.  0.
     999903    2    3    3    0    0  0.46232886083E-01  0.17358362897E-01  0.12326328410E+00  0.13414247077E+00  0.19015066124E-01 0.  0.
         14    1    1    2    0    0 -0.96365797615E-02 -0.33532247628E-02 -0.20554803440E-01  0.22947935207E-01  0.00000000000E+00 0. -1.
     999901    1    3    3    0    0 -0.36596306321E-01 -0.14005138134E-01 -0.10270848066E+00  0.88683959402E+00  0.88000000000E+00 0.  1.
        -11    1    4    4    0    0  0.32623142561E-01  0.16315176717E-01  0.67455510627E-01  0.76687426980E-01  0.51100000000E-03 0.  1.
         11    1    4    4    0    0  0.13609743521E-01  0.10431861795E-02  0.55807773469E-01  0.57455043788E-01  0.51100000000E-03 0. -1.
</event>
<event>
 8    1  0.1176534E+005  0.1043930E+01  0.7957747E-01            NaN
         13   -1    0    0    0    0  0.00000000000E+00  0.00000000000E+00  0.74505805969E-08  0.10566000000E+00  0.10566000000E+00 0. -1.
     999900   -1    0    0    0    0 -0.00000000000E+00 -0.00000000000E+00 -0.74505805969E-08  0.93827000000E+00  0.93827000000E+00 0.  1.
     999902    2    1    2    0    0 -0.18395294021E-01 -0.15445686553E-01  0.49331686062E-02  0.10194087393E+01  0.10191137745E+01 0.  0.
     999903    2    3    3    0    0  0.10853844027E+00 -0.14605851839E-01 -0.62785196632E-01  0.12772569288E+00  0.19440879139E-01 0.  0.
         14    1    1    2    0    0  0.18395294021E-01  0.15445686553E-01 -0.49331686062E-02  0.24521260728E-01  0.00000000000E+00 0. -1.
     999901    1    3    3    0    0 -0.12693373429E+00 -0.83983471353E-03  0.67718365238E-01  0.89168304639E+00  0.88000000000E+00 0.  1.
        -11    1    4    4    0    0  0.81846124344E-01 -0.24808676681E-02 -0.47344503330E-01  0.94587028134E-01  0.51100000000E-03 0.  1.
         11    1    4    4    0    0  0.26692315929E-01 -0.12124984171E-01 -0.15440693301E-01  0.33138664750E-01  0.51100000000E-03 0. -1.
</event>
<event>
 8    1  0.1176534E+005  0.1043930E+01  0.7957747E-01            NaN
         13   -1    0    0    0    0  0.00000000000E+00  0.00000000000E+00  0.74505805969E-08  0.10566000000E+00  0.10566000000E+00 0.  1.
     999900   -1    0    0    0    0 -0.00000000000E+00 -0.00000000000E+00 -0.74505805969E-08  0.93827000000E+00  0.93827000000E+00 0. -1.
     999902    2    1    2    0    0 -0.41139187800E-03 -0.64080549967E-02 -0.20913836889E-01  0.10220525919E+01  0.10218184181E+01 0.  0.
     999903    2    3    3    0    0  0.40525281003E-01  0.12246669615E+00 -0.18047502933E-01  0.13171966060E+00  0.19595064705E-01 0.  0.
         14    1    1    2    0    0  0.41139187800E-03  0.64080549967E-02  0.20913836889E-01  0.21877408108E-01  0.00000000000E+00 0.  1.
     999901    1    3    3    0    0 -0.40936672881E-01 -0.12887475115E+00 -0.28663339564E-02  0.89033293129E+00  0.88000000000E+00 0.  1.
        -11    1    4    4    0    0  0.34566825752E-01  0.91947363980E-01 -0.61570200632E-02  0.98424352690E-01  0.51100000000E-03 0.  1.
         11    1    4    4    0    0  0.59584552509E-02  0.30519332169E-01 -0.11890482869E-01  0.33295307911E-01  0.51100000000E-03 0. -1.
</event>
<event>
 8    1  0.1176534E+005  0.1043930E+01  0.7957747E-01            NaN
         13   -1    0    0    0    0  0.00000000000E+00  0.00000000000E+00  0.74505805969E-08  0.10566000000E+00  0.10566000000E+00 0. -1.
     999900   -1    0    0    0    0 -0.00000000000E+00 -0.00000000000E+00 -0.74505805969E-08  0.93827000000E+00  0.93827000000E+00 0.  1.
     999902    2    1    2    0    0  0.16872011465E-01 -0.16402406454E-01 -0.52514399245E-02  0.10198202234E+01  0.10195351915E+01 0.  0.
     999903    2    3    3    0    0 -0.77403334927E-01 -0.66940998006E-02 -0.10169939006E+00  0.12949202587E+00  0.19731487429E-01 0.  0.
         14    1    1    2    0    0 -0.16872011465E-01  0.16402406454E-01  0.52514399245E-02  0.24109776640E-01  0.00000000000E+00 0. -1.
     999901    1    3    3    0    0  0.94275346391E-01 -0.97083066539E-02  0.96447950135E-01  0.89032819749E+00  0.88000000000E+00 0. -1.
        -11    1    4    4    0    0 -0.47093879309E-01 -0.13694192725E-01 -0.62170600948E-01  0.79188440608E-01  0.51100000000E-03 0.  1.
         11    1    4    4    0    0 -0.30309455618E-01  0.70000929247E-02 -0.39528789112E-01  0.50303585264E-01  0.51100000000E-03 0. -1.
</event>
<event>
 8    1  0.1176534E+005  0.1043930E+01  0.7957747E-01            NaN
         13   -1    0    0    0    0  0.00000000000E+00  0.00000000000E+00  0.74505805969E-08  0.10566000000E+00  0.10566000000E+00 0.  1.
     999900   -1    0    0    0    0 -0.00000000000E+00 -0.00000000000E+00 -0.74505805969E-08  0.93827000000E+00  0.93827000000E+00 0. -1.
     999902    2    1    2    0    0 -0.13568139818E-01 -0.49601084539E-02  0.18831417836E-01  0.10201956495E+01  0.10199195282E+01 0.  0.
     999903    2    3    3    0    0 -0.82477623747E-01  0.69715132823E-02 -0.97851381841E-01  0.12974309252E+00  0.20179611268E-01 0.  0.
         14    1    1    2    0    0  0.13568139818E-01  0.49601084539E-02 -0.18831417836E-01  0.23734350459E-01  0.00000000000E+00 0. -1.
     999901    1    3    3    0    0  0.68909483929E-01 -0.11931621736E-01  0.11668279968E+00  0.89045255703E+00  0.88000000000E+00 0. -1.
        -11    1    4    4    0    0 -0.41195738264E-02  0.48517072475E-02 -0.11230539744E-01  0.12918827178E-01  0.51100000000E-03 0. -1.
         11    1    4    4    0    0 -0.78358049920E-01  0.21198060348E-02 -0.86620842097E-01  0.11682426534E+00  0.51100000000E-03 0.  1.
</event>
<event>
 8    1  0.1176534E+005  0.1043930E+01  0.7957747E-01            NaN
         13   -1    0    0    0    0  0.00000000000E+00  0.00000000000E+00  0.74505805969E-08  0.10566000000E+00  0.10566000000E+00 0. -1.
     999900   -1    0    0    0    0 -0.00000000000E+00 -0.00000000000E+00 -0.74505805969E-08  0.93827000000E+00  0.93827000000E+00 0. -1.
     999902    2    1    2    0    0  0.17585345698E-01 -0.53506991362E-02 -0.14918592145E-01  0.10202564123E+01  0.10199817195E+01 0.  0.
     999903    2    3    3    0    0 -0.36345042296E-01  0.11684968009E+00  0.34827752136E-01  0.12878789448E+00  0.19963456822E-01 0.  0.
         14    1    1    2    0    0 -0.17585345698E-01  0.53506991362E-02  0.14918592145E-01  0.23673587733E-01  0.00000000000E+00 0. -1.
     999901    1    3    3    0    0  0.53930387995E-01 -0.12220037923E+00 -0.49746344280E-01  0.89146851779E+00  0.88000000000E+00 0. -1.
        -11    1    4    4    0    0 -0.15370205808E-01  0.33606774438E-01  0.18774175252E-01  0.41453459350E-01  0.51100000000E-03 0. -1.
         11    1    4    4    0    0 -0.20974836489E-01  0.83242905657E-01  0.16053576884E-01  0.87334435131E-01  0.51100000000E-03 0.  1.
</event>
<event>
 8    1  0.1176534E+005  0.1043930E+01  0.7957747E-01            NaN
         13   -1    0    0    0    0  0.00000000000E+00  0.00000000000E+00  0.74505805969E-08  0.10566000000E+00  0.10566000000E+00 0. -1.
     999900   -1    0    0    0    0 -0.00000000000E+00 -0.00000000000E+00 -0.74505805969E-08  0.93827000000E+00  0.93827000000E+00 0. -1.
     999902    2    1    2    0    0  0.12197545994E-01  0.17284324726E-01  0.98708100287E-02  0.10205856024E+01  0.10203185830E+01 0.  0.
     999903    2    3    3    0    0 -0.98668627498E-01  0.65907863689E-01  0.55263634236E-01  0.13113854637E+00  0.79940306262E-02 0.  0.
         14    1    1    2    0    0 -0.12197545994E-01 -0.17284324726E-01 -0.98708100287E-02  0.23344397617E-01  0.00000000000E+00 0.  1.
     999901    1    3    3    0    0  0.11086617349E+00 -0.48623538964E-01 -0.45392824207E-01  0.88944705602E+00  0.88000000000E+00 0.  1.
        -11    1    4    4    0    0 -0.22081235589E-01  0.18282238913E-01  0.11502298508E-01  0.30893125721E-01  0.51100000000E-03 0.  1.
         11    1    4    4    0    0 -0.76587391909E-01  0.47625624776E-01  0.43761335728E-01  0.10024542065E+00  0.51100000000E-03 0. -1.
</event>
<event>
 8    1  0.1176534E+005  0.1043930E+01  0.7957747E-01            NaN
         13   -1    0    0    0    0  0.00000000000E+00  0.00000000000E+00  0.74505805969E-08  0.10566000000E+00  0.10566000000E+00 0.  1.
     999900   -1    0    0    0    0 -0.00000000000E+00 -0.00000000000E+00 -0.74505805969E-08  0.93827000000E+00  0.93827000000E+00 0. -1.
     999902    2    1    2    0    0 -0.17992311855E-01 -0.10342990282E-01 -0.10004023512E-01  0.10208913104E+01  0.10206313175E+01 0.  0.
     999903    2    3    3    0    0 -0.51349213181E-01  0.74111791149E-01 -0.94527898496E-01  0.13219024790E+00  0.20234593267E-01 0.  0.
         14    1    1    2    0    0  0.17992311855E-01  0.10342990282E-01  0.10004023512E-01  0.23038689639E-01  0.00000000000E+00 0.  1.
     999901    1    3    3    0    0  0.33356901326E-01 -0.84454781431E-01  0.84523874984E-01  0.88870106246E+00  0.88000000000E+00 0.  1.
        -11    1    4    4    0    0 -0.41574346152E-01  0.45385880153E-01 -0.69639634172E-01  0.92942154827E-01  0.51100000000E-03 0.  1.
         11    1    4    4    0    0 -0.97748670291E-02  0.28725910996E-01 -0.24888264324E-01  0.39248093075E-01  0.51100000000E-03 0. -1.
</event>
<event>
 8    1  0.1176534E+005  0.1043930E+01  0.7957747E-01            NaN
         13   -1    0    0    0    0  0.00000000000E+00  0.00000000000E+00  0.74505805969E-08  0.10566000000E+00  0.10566000000E+00 0.  1.
     999900   -1    0    0    0    0 -0.00000000000E+00 -0.00000000000E+00 -0.74505805969E-08  0.93827000000E+00  0.93827000000E+00 0.  1.
     999902    2    1    2    0    0 -0.76473907769E-02 -0.16371885874E-01 -0.15543753668E-01  0.10200945325E+01  0.10198160254E+01 0.  0.
     999903    2    3    3    0    0  0.78093845878E-04 -0.47632569161E-01  0.11880182648E+00  0.12931641853E+00  0.18438936586E-01 0.  0.
         14    1    1    2    0    0  0.76473907769E-02  0.16371885874E-01  0.15543753668E-01  0.23835467499E-01  0.00000000000E+00 0. -1.
     999901    1    3    3    0    0 -0.77254846228E-02  0.31260683287E-01 -0.13434558015E+00  0.89077811398E+00  0.88000000000E+00 0.  1.
        -11    1    4    4    0    0  0.83223414227E-02 -0.27777205834E-01  0.58490291644E-01  0.65285602305E-01  0.51100000000E-03 0.  1.
         11    1    4    4    0    0 -0.82442475768E-02 -0.19855363327E-01  0.60311534834E-01  0.64030816221E-01  0.51100000000E-03 0. -1.
</event>
<event>
 8    1  0.1176534E+005  0.1043930E+01  0.7957747E-01            NaN
         13   -1    0    0    0    0  0.00000000000E+00  0.00000000000E+00  0.74505805969E-08  0.10566000000E+00  0.10566000000E+00 0.  1.
     999900   -1    0    0    0    0 -0.00000000000E+00 -0.00000000000E+00 -0.74505805969E-08  0.93827000000E+00  0.93827000000E+00 0.  1.
     999902    2    1    2    0    0 -0.16614047091E-02 -0.22886446605E-01  0.39415800493E-02  0.10206472648E+01  0.10203816705E+01 0.  0.
     999903    2    3    3    0    0  0.55616939594E-01 -0.11495236942E+00 -0.30778975817E-01  0.13331279583E+00  0.22752252114E-01 0.  0.
         14    1    1    2    0    0  0.16614047091E-02  0.22886446605E-01 -0.39415800493E-02  0.23282735172E-01  0.00000000000E+00 0.  1.
     999901    1    3    3    0    0 -0.57278344303E-01  0.92065922810E-01  0.34720555866E-01  0.88733446900E+00  0.88000000000E+00 0. -1.
        -11    1    4    4    0    0  0.35795408890E-01 -0.79270701091E-01 -0.31438389664E-01  0.92486695339E-01  0.51100000000E-03 0.  1.
         11    1    4    4    0    0  0.19821530704E-01 -0.35681668325E-01  0.65941384724E-03  0.40826100493E-01  0.51100000000E-03 0. -1.
</event>
<event>
 8    1  0.1176534E+005  0.1043930E+01  0.7957747E-01            NaN
         13   -1    0    0    0    0  0.00000000000E+00  0.00000000000E+00  0.74505805969E-08  0.10566000000E+00  0.10566000000E+00 0.  1.
     999900   -1    0    0    0    0 -0.00000000000E+00 -0.00000000000E+00 -0.74505805969E-08  0.93827000000E+00  0.93827000000E+00 0. -1.
     999902    2    1    2    0    0 -0.23717305693E-01 -0.19717084831E-02  0.12425102106E-02  0.10200984651E+01  0.10198200510E+01 0.  0.
     999903    2    3    3    0    0 -0.12055671549E+00 -0.14723847396E-01 -0.48357234856E-01  0.13330614272E+00  0.26103490042E-01 0.  0.
         14    1    1    2    0    0  0.23717305693E-01  0.19717084831E-02 -0.12425102106E-02  0.23831534892E-01  0.00000000000E+00 0. -1.
     999901    1    3    3    0    0  0.96839409796E-01  0.12752138912E-01  0.49599745066E-01  0.88679232239E+00  0.88000000000E+00 0.  1.
        -11    1    4    4    0    0 -0.59192728064E-01 -0.17241475687E-01 -0.33286502857E-01  0.70066396604E-01  0.51100000000E-03 0.  1.
         11    1    4    4    0    0 -0.61363987425E-01  0.25176282915E-02 -0.15070731999E-01  0.63239746116E-01  0.51100000000E-03 0. -1.
</event>
<event>
 8    1  0.1176534E+005  0.1043930E+01  0.7957747E-01            NaN
         13   -1    0    0    0    0  0.00000000000E+00  0.00000000000E+00  0.74505805969E-08  0.10566000000E+00  0.10566000000E+00 0. -1.
     999900   -1    0    0    0    0 -0.00000000000E+00 -0.00000000000E+00 -0.74505805969E-08  0.93827000000E+00  0.93827000000E+00 0. -1.
     999902    2    1    2    0    0 -0.14529193930E-01  0.19532302006E-02  0.18806673444E-01  0.10200845906E+01  0.10198058484E+01 0.  0.
     999903    2    3    3    0    0 -0.11271748805E+00  0.59370711228E-01 -0.24860205419E-01  0.13169024991E+00  0.22230129165E-01 0.  0.
         14    1    1    2    0    0  0.14529193930E-01 -0.19532302006E-02 -0.18806673444E-01  0.23845409422E-01  0.00000000000E+00 0.  1.
     999901    1    3    3    0    0  0.98188294119E-01 -0.57417481027E-01  0.43666878862E-01  0.88839434067E+00  0.88000000000E+00 0.  1.
        -11    1    4    4    0    0 -0.11530051651E-01  0.12486518820E-01 -0.83809537273E-02  0.18956707248E-01  0.51100000000E-03 0. -1.
         11    1    4    4    0    0 -0.10118743640E+00  0.46884192408E-01 -0.16479251691E-01  0.11273354266E+00  0.51100000000E-03 0.  1.
</event>
<event>
 8    1  0.1176534E+005  0.1043930E+01  0.7957747E-01            NaN
         13   -1    0    0    0    0  0.00000000000E+00  0.00000000000E+00  0.74505805969E-08  0.10566000000E+00  0.10566000000E+00 0. -1.
     999900   -1    0    0    0    0 -0.00000000000E+00 -0.00000000000E+00 -0.74505805969E-08  0.93827000000E+00  0.93827000000E+00 0. -1.
     999902    2    1    2    0    0  0.17737142577E-01  0.24275874299E-01 -0.73770954862E-02  0.10129728387E+01  0.10124996919E+01 0.  0.
     999903    2    3    3    0    0 -0.29297212054E-01 -0.98120319311E-01  0.60457867946E-01  0.12067544375E+00  0.20530105474E-01 0.  0.
         14    1    1    2    0    0 -0.17737142577E-01 -0.24275874299E-01  0.73770954862E-02  0.30957161330E-01  0.00000000000E+00 0.  1.
     999901    1    3    3    0    0  0.47034354630E-01  0.12239619361E+00 -0.67834963432E-01  0.89229739492E+00  0.88000000000E+00 0.  1.
        -11    1    4    4    0    0 -0.17906838023E-01 -0.76864867166E-01  0.54241845127E-01  0.95766912533E-01  0.51100000000E-03 0. -1.
         11    1    4    4    0    0 -0.11390374031E-01 -0.21255452145E-01  0.62160228193E-02  0.24908531212E-01  0.51100000000E-03 0.  1.
</event>
<event>
 8    1  0.1176534E+005  0.1043930E+01  0.7957747E-01            NaN
         13   -1    0    0    0    0  0.00000000000E+00  0.00000000000E+00  0.74505805969E-08  0.10566000000E+00  0.10566000000E+00 0.  1.
     999900   -1    0    0    0    0 -0.00000000000E+00 -0.00000000000E+00 -0.74505805969E-08  0.93827000000E+00  0.93827000000E+00 0. -1.
     999902    2    1    2    0    0 -0.14977084054E-01  0.10214889956E-01 -0.15063351475E-01  0.10203596461E+01  0.10200873717E+01 0.  0.
     999903    2    3    3    0    0 -0.69490474338E-01 -0.18757027730E-01  0.10602527436E+00  0.12992518081E+00  0.21411251559E-01 0.  0.
         14    1    1    2    0    0  0.14977084054E-01 -0.10214889956E-01  0.15063351475E-01  0.23570353863E-01  0.00000000000E+00 0.  1.
     999901    1    3    3    0    0  0.54513390284E-01  0.28971917686E-01 -0.12108862583E+00  0.89043446533E+00  0.88000000000E+00 0. -1.
        -11    1    4    4    0    0 -0.65734439773E-01 -0.11262601966E-01  0.93883508773E-01  0.11516178670E+00  0.51100000000E-03 0.  1.
         11    1    4    4    0    0 -0.37560345644E-02 -0.74944257642E-02  0.12141765584E-01  0.14763394111E-01  0.51100000000E-03 0. -1.
</event>
<event>
 8    1  0.1298911E+005  0.1043930E+01  0.7957747E-01            NaN
         13   -1    0    0    0    0  0.00000000000E+00  0.00000000000E+00  0.74505805969E-08  0.10566000000E+00  0.10566000000E+00 0.  1.
     999900   -1    0    0    0    0 -0.00000000000E+00 -0.00000000000E+00 -0.74505805969E-08  0.93827000000E+00  0.93827000000E+00 0.  1.
     999902    2    1    2    0    0  0.12270510923E-01 -0.15504973232E-01  0.14432598514E-01  0.10194500177E+01  0.10191560573E+01 0.  0.
     999903    2    3    3    0    0  0.12024111817E+00  0.46647387673E-01 -0.43047879215E-02  0.13047776974E+00  0.19287610624E-01 0.  0.
         14    1    1    2    0    0 -0.12270510923E-01  0.15504973232E-01 -0.14432598514E-01  0.24479982294E-01  0.00000000000E+00 0. -1.
     999901    1    3    3    0    0 -0.10797060724E+00 -0.62152360905E-01  0.18737386436E-01  0.88897224796E+00  0.88000000000E+00 0. -1.
        -11    1    4    4    0    0  0.31588670418E-01  0.21251814578E-01 -0.37147060694E-02  0.38256292081E-01  0.51100000000E-03 0. -1.
         11    1    4    4    0    0  0.88652447750E-01  0.25395573095E-01 -0.59008185215E-03  0.92221477663E-01  0.51100000000E-03 0.  1.
</event>
<event>
 8    1  0.1176534E+005  0.1043930E+01  0.7957747E-01            NaN
         13   -1    0    0    0    0  0.00000000000E+00  0.00000000000E+00  0.74505805969E-08  0.10566000000E+00  0.10566000000E+00 0. -1.
     999900   -1    0    0    0    0 -0.00000000000E+00 -0.00000000000E+00 -0.74505805969E-08  0.93827000000E+00  0.93827000000E+00 0.  1.
     999902    2    1    2    0    0  0.87847937190E-02  0.19801178306E-01 -0.67463212474E-02  0.10212414101E+01  0.10209893464E+01 0.  0.
     999903    2    3    3    0    0  0.10490110245E+00  0.52206771067E-02  0.77224330114E-01  0.13191469501E+00  0.20159187280E-01 0.  0.
         14    1    1    2    0    0 -0.87847937190E-02 -0.19801178306E-01  0.67463212474E-02  0.22688589937E-01  0.00000000000E+00 0. -1.
     999901    1    3    3    0    0 -0.96116308736E-01  0.14580501199E-01 -0.83970651361E-01  0.88932671505E+00  0.88000000000E+00 0.  1.
        -11    1    4    4    0    0  0.87768392711E-01  0.11449605911E-01  0.60917725835E-01  0.10745052199E+00  0.51100000000E-03 0. -1.
         11    1    4    4    0    0  0.17132709744E-01 -0.62289288041E-02  0.16306604279E-01  0.24464173015E-01  0.51100000000E-03 0.  1.
</event>
<event>
 8    1  0.1176534E+005  0.1043930E+01  0.7957747E-01            NaN
         13   -1    0    0    0    0  0.00000000000E+00  0.00000000000E+00  0.74505805969E-08  0.10566000000E+00  0.10566000000E+00 0. -1.
     999900   -1    0    0    0    0 -0.00000000000E+00 -0.00000000000E+00 -0.74505805969E-08  0.93827000000E+00  0.93827000000E+00 0. -1.
     999902    2    1    2    0    0 -0.10218216899E-01 -0.13854231893E-01 -0.15726028095E-01  0.10206134896E+01  0.10203471152E+01 0.  0.
     999903    2    3    3    0    0  0.54587956802E-01 -0.63736990039E-01  0.96930724616E-01  0.12967035244E+00  0.19405823865E-01 0.  0.
         14    1    1    2    0    0  0.10218216899E-01  0.13854231893E-01  0.15726028095E-01  0.23316510407E-01  0.00000000000E+00 0. -1.
     999901    1    3    3    0    0 -0.64806173702E-01  0.49882758146E-01 -0.11265675271E+00  0.89094313715E+00  0.88000000000E+00 0. -1.
        -11    1    4    4    0    0  0.25665338204E-01 -0.17086270869E-01  0.41019335761E-01  0.51317611642E-01  0.51100000000E-03 0. -1.
         11    1    4    4    0    0  0.28922618598E-01 -0.46650719171E-01  0.55911388855E-01  0.78352740797E-01  0.51100000000E-03 0.  1.
</event>
<event>
 8    1  0.1176534E+005  0.1043930E+01  0.7957747E-01            NaN
         13   -1    0    0    0    0  0.00000000000E+00  0.00000000000E+00  0.74505805969E-08  0.10566000000E+00  0.10566000000E+00 0.  1.
     999900   -1    0    0    0    0 -0.00000000000E+00 -0.00000000000E+00 -0.74505805969E-08  0.93827000000E+00  0.93827000000E+00 0. -1.
     999902    2    1    2    0    0  0.21984915708E-01 -0.68162342407E-02 -0.42804958133E-02  0.10205180327E+01  0.10202494474E+01 0.  0.
     999903    2    3    3    0    0  0.68960247770E-01  0.97693272736E-01  0.50688515890E-01  0.13138895821E+00  0.19855512754E-01 0.  0.
         14    1    1    2    0    0 -0.21984915708E-01  0.68162342407E-02  0.42804958133E-02  0.23411967289E-01  0.00000000000E+00 0.  1.
     999901    1    3    3    0    0 -0.46975332062E-01 -0.10450950698E+00 -0.54969011703E-01  0.88912907450E+00  0.88000000000E+00 0. -1.
        -11    1    4    4    0    0  0.29739356515E-01  0.33698526815E-01  0.28084243274E-01  0.53000055440E-01  0.51100000000E-03 0. -1.
         11    1    4    4    0    0  0.39220891255E-01  0.63994745921E-01  0.22604272616E-01  0.78388902772E-01  0.51100000000E-03 0.  1.
</event>
<event>
 8    1  0.1176534E+005  0.1043930E+01  0.7957747E-01            NaN
         13   -1    0    0    0    0  0.00000000000E+00  0.00000000000E+00  0.74505805969E-08  0.10566000000E+00  0.10566000000E+00 0.  1.
     999900   -1    0    0    0    0 -0.00000000000E+00 -0.00000000000E+00 -0.74505805969E-08  0.93827000000E+00  0.93827000000E+00 0. -1.
     999902    2    1    2    0    0  0.10592976340E-01 -0.48074086044E-02 -0.21016934309E-01  0.10199084711E+01  0.10196255467E+01 0.  0.
     999903    2    3    3    0    0 -0.43877451173E-02  0.11643415485E+00 -0.55891009492E-01  0.13078522884E+00  0.20119801607E-01 0.  0.
         14    1    1    2    0    0 -0.10592976340E-01  0.48074086044E-02  0.21016934309E-01  0.24021528948E-01  0.00000000000E+00 0.  1.
     999901    1    3    3    0    0  0.14980721458E-01 -0.12124156346E+00  0.34874075183E-01  0.88912324221E+00  0.88000000000E+00 0.  1.
        -11    1    4    4    0    0 -0.81328141001E-02  0.18437482752E-01 -0.87869509754E-02  0.21989885490E-01  0.51100000000E-03 0. -1.
         11    1    4    4    0    0  0.37450689828E-02  0.97996672101E-01 -0.47104058517E-01  0.10879534335E+00  0.51100000000E-03 0.  1.
</event>
<event>
 8    1  0.1176534E+005  0.1043930E+01  0.7957747E-01            NaN
         13   -1    0    0    0    0  0.00000000000E+00  0.00000000000E+00  0.74505805969E-08  0.10566000000E+00  0.10566000000E+00 0.  1.
     999900   -1    0    0    0    0 -0.00000000000E+00 -0.00000000000E+00 -0.74505805969E-08  0.93827000000E+00  0.93827000000E+00 0.  1.
     999902    2    1    2    0    0  0.96166811280E-02 -0.21388321826E-01  0.33886711493E-02  0.10202356134E+01  0.10199604320E+01 0.  0.
     999903    2    3    3    0    0  0.10442938290E+00 -0.62782350538E-01  0.50097724181E-01  0.13294499035E+00  0.17817658100E-01 0.  0.
         14    1    1    2    0    0 -0.96166811280E-02  0.21388321826E-01 -0.33886711493E-02  0.23694386647E-01  0.00000000000E+00 0. -1.
     999901    1    3    3    0    0 -0.94812701769E-01  0.41394028713E-01 -0.46709053032E-01  0.88729062300E+00  0.88000000000E+00 0.  1.
        -11    1    4    4    0    0  0.41489529436E-01 -0.19693473068E-01  0.26856851487E-01  0.53204938935E-01  0.51100000000E-03 0.  1.
         11    1    4    4    0    0  0.62939853461E-01 -0.43088877471E-01  0.23240872694E-01  0.79740051417E-01  0.51100000000E-03 0. -1.
</event>
<event>
 8    1  0.1176534E+005  0.1043930E+01  0.7957747E-01            NaN
         13   -1    0    0    0    0  0.00000000000E+00  0.00000000000E+00  0.74505805969E-08  0.10566000000E+00  0.10566000000E+00 0.  1.
     999900   -1    0    0    0    0 -0.00000000000E+00 -0.00000000000E+00 -0.74505805969E-08  0.93827000000E+00  0.93827000000E+00 0.  1.
     999902    2    1    2    0    0 -0.11280661036E-01  0.10121531142E-01  0.17933054428E-01  0.10204503674E+01  0.10201802092E+01 0.  0.
     999903    2    3    3    0    0 -0.70867612425E-01 -0.53416899936E-01  0.96277353086E-01  0.13268600332E+00  0.21463062900E-01 0.  0.
         14    1    1    2    0    0  0.11280661036E-01 -0.10121531142E-01 -0.17933054428E-01  0.23479632603E-01  0.00000000000E+00 0. -1.
     999901    1    3    3    0    0  0.59586951389E-01  0.63538431078E-01 -0.78344298658E-01  0.88776436408E+00  0.88000000000E+00 0.  1.
        -11    1    4    4    0    0 -0.26955425416E-01 -0.33718944803E-01  0.45311845916E-01  0.62585834654E-01  0.51100000000E-03 0.  1.
         11    1    4    4    0    0 -0.43912187010E-01 -0.19697955133E-01  0.50965507170E-01  0.70100168662E-01  0.51100000000E-03 0. -1.
</event>
<event>
 7    1  0.1176534E+005  0.1043930E+01  0.7957747E-01            NaN
         13   -1    0    0    0    0  0.00000000000E+00  0.00000000000E+00  0.74505805969E-08  0.10566000000E+00  0.10566000000E+00 0. -1.
     999900   -1    0    0    0    0 -0.00000000000E+00 -0.00000000000E+00 -0.74505805969E-08  0.93827000000E+00  0.93827000000E+00 0.  1.
     999902    2    1    2    0    0 -0.11252608030E-01 -0.52199361912E-02  0.19161513929E-01  0.10211038628E+01  0.10208486990E+01 0.  0.
         14    1    1    2    0    0  0.11252608030E-01  0.52199361912E-02 -0.19161513929E-01  0.22826137154E-01  0.00000000000E+00 0.  1.
     999901    1    3    3    0    0 -0.64951728084E-01 -0.11934432582E+00  0.47719241822E-01  0.89170562470E+00  0.88000000000E+00 0. -1.
        -11    1    3    3    0    0  0.32227429468E-01  0.73440475787E-01 -0.18298856778E-01  0.82263114300E-01  0.51100000000E-03 0. -1.
         11    1    3    3    0    0  0.21471690586E-01  0.40683913842E-01 -0.10258871115E-01  0.47135123843E-01  0.51100000000E-03 0.  1.
</event>
<event>
 8    1  0.1176534E+005  0.1043930E+01  0.7957747E-01            NaN
         13   -1    0    0    0    0  0.00000000000E+00  0.00000000000E+00  0.74505805969E-08  0.10566000000E+00  0.10566000000E+00 0. -1.
     999900   -1    0    0    0    0 -0.00000000000E+00 -0.00000000000E+00 -0.74505805969E-08  0.93827000000E+00  0.93827000000E+00 0.  1.
     999902    2    1    2    0    0  0.86679859043E-02  0.22825834804E-01 -0.77608653796E-03  0.10195014302E+01  0.10192087181E+01 0.  0.
     999903    2    3    3    0    0 -0.72936926222E-01 -0.10025816101E+00  0.18536590681E-01  0.12698699823E+00  0.20263229472E-01 0.  0.
         14    1    1    2    0    0 -0.86679859043E-02 -0.22825834804E-01  0.77608653796E-03  0.24428569841E-01  0.00000000000E+00 0.  1.
     999901    1    3    3    0    0  0.81604912126E-01  0.12308399581E+00 -0.19312677219E-01  0.89251443193E+00  0.88000000000E+00 0. -1.
        -11    1    4    4    0    0 -0.37192901145E-01 -0.61898411089E-01  0.18523027077E-01  0.74552591129E-01  0.51100000000E-03 0. -1.
         11    1    4    4    0    0 -0.35744025076E-01 -0.38359749920E-01  0.13563604130E-04  0.52434407096E-01  0.51100000000E-03 0.  1.
</event>
<event>
 8    1  0.1176534E+005  0.1043930E+01  0.7957747E-01            NaN
         13   -1    0    0    0    0  0.00000000000E+00  0.00000000000E+00  0.74505805969E-08  0.10566000000E+00  0.10566000000E+00 0.  1.
     999900   -1    0    0    0    0 -0.00000000000E+00 -0.00000000000E+00 -0.74505805969E-08  0.93827000000E+00  0.93827000000E+00 0.  1.
     999902    2    1    2    0    0 -0.10574838119E-01 -0.20807297098E-01 -0.26158999060E-02  0.10204435412E+01  0.10201732241E+01 0.  0.
     999903    2    3    3    0    0  0.11563672024E+00 -0.33918581030E-01  0.44701151095E-01  0.13008396973E+00  0.20033099216E-01 0.  0.
         14    1    1    2    0    0  0.10574838119E-01  0.20807297098E-01  0.26158999060E-02  0.23486458781E-01  0.00000000000E+00 0.  1.
     999901    1    3    3    0    0 -0.12621155836E+00  0.13111283932E-01 -0.47317051001E-01  0.89035957149E+00  0.88000000000E+00 0.  1.
        -11    1    4    4    0    0  0.28887912856E-01 -0.12019351688E-01  0.20455277844E-01  0.37385235546E-01  0.51100000000E-03 0. -1.
         11    1    4    4    0    0  0.86748807384E-01 -0.21899229342E-01  0.24245873251E-01  0.92698734183E-01  0.51100000000E-03 0.  1.
</event>
<event>
 8    1  0.1176534E+005  0.1043930E+01  0.7957747E-01            NaN
         13   -1    0    0    0    0  0.00000000000E+00  0.00000000000E+00  0.74505805969E-08  0.10566000000E+00  0.10566000000E+00 0. -1.
     999900   -1    0    0    0    0 -0.00000000000E+00 -0.00000000000E+00 -0.74505805969E-08  0.93827000000E+00  0.93827000000E+00 0.  1.
     999902    2    1    2    0    0  0.19931885842E-01 -0.78479290263E-03 -0.14780769927E-01  0.10191032577E+01  0.10188008062E+01 0.  0.
     999903    2    3    3    0    0  0.27674511182E-01  0.10121468041E+00  0.68343037015E-01  0.12928675523E+00  0.32155936763E-01 0.  0.
         14    1    1    2    0    0 -0.19931885842E-01  0.78479290263E-03  0.14780769927E-01  0.24826742291E-01  0.00000000000E+00 0. -1.
     999901    1    3    3    0    0 -0.77426253406E-02 -0.10199947332E+00 -0.83123806943E-01  0.88981650248E+00  0.88000000000E+00 0. -1.
        -11    1    4    4    0    0  0.31768084823E-01  0.81511521496E-01  0.64745547044E-01  0.10883743075E+00  0.51100000000E-03 0. -1.
         11    1    4    4    0    0 -0.40935736407E-02  0.19703158917E-01  0.35974899713E-02  0.20449324477E-01  0.51100000000E-03 0.  1.
</event>
<event>
 8    1  0.1176534E+005  0.1043930E+01  0.7957747E-01            NaN
         13   -1    0    0    0    0  0.00000000000E+00  0.00000000000E+00  0.74505805969E-08  0.10566000000E+00  0.10566000000E+00 0. -1.
     999900   -1    0    0    0    0 -0.00000000000E+00 -0.00000000000E+00 -0.74505805969E-08  0.93827000000E+00  0.93827000000E+00 0. -1.
     999902    2    1    2    0    0 -0.22226471267E-01 -0.10298951458E-01  0.66935818963E-03  0.10194242361E+01  0.10191296486E+01 0.  0.
     999903    2    3    3    0    0 -0.83404177887E-01 -0.73280337464E-01  0.69058148065E-01  0.13241443151E+00  0.20935355531E-01 0.  0.
         14    1    1    2    0    0  0.22226471267E-01  0.10298951458E-01 -0.66935818963E-03  0.24505763945E-01  0.00000000000E+00 0.  1.
     999901    1    3    3    0    0  0.61177706619E-01  0.62981386007E-01 -0.68388789876E-01  0.88700980454E+00  0.88000000000E+00 0. -1.
        -11    1    4    4    0    0 -0.49038468161E-01 -0.33694283090E-01  0.45681290682E-01  0.75014115418E-01  0.51100000000E-03 0.  1.
         11    1    4    4    0    0 -0.34365709726E-01 -0.39586054374E-01  0.23376857384E-01  0.57400316097E-01  0.51100000000E-03 0. -1.
</event>
<event>
 8    1  0.1176534E+005  0.1043930E+01  0.7957747E-01            NaN
         13   -1    0    0    0    0  0.00000000000E+00  0.00000000000E+00  0.74505805969E-08  0.10566000000E+00  0.10566000000E+00 0. -1.
     999900   -1    0    0    0    0 -0.00000000000E+00 -0.00000000000E+00 -0.74505805969E-08  0.93827000000E+00  0.93827000000E+00 0.  1.
     999902    2    1    2    0    0  0.88851955261E-02  0.20751889137E-01 -0.30040368559E-02  0.10211569493E+01  0.10209029842E+01 0.  0.
     999903    2    3    3    0    0  0.85775924425E-01 -0.10983391885E-01 -0.97760700004E-01  0.13216980793E+00  0.20822092937E-01 0.  0.
         14    1    1    2    0    0 -0.88851955261E-02 -0.20751889137E-01  0.30040368559E-02  0.22773050734E-01  0.00000000000E+00 0. -1.
     999901    1    3    3    0    0 -0.76890728899E-01  0.31735281022E-01  0.94756663148E-01  0.88898714134E+00  0.88000000000E+00 0. -1.
        -11    1    4    4    0    0  0.44758771704E-01 -0.12336041595E-01 -0.63753769779E-01  0.78869067756E-01  0.51100000000E-03 0. -1.
         11    1    4    4    0    0  0.41017152721E-01  0.13526497100E-02 -0.34006930225E-01  0.53300740172E-01  0.51100000000E-03 0.  1.
</event>
<event>
 8    1  0.1176534E+005  0.1043930E+01  0.7957747E-01            NaN
         13   -1    0    0    0    0  0.00000000000E+00  0.00000000000E+00  0.74505805969E-08  0.10566000000E+00  0.10566000000E+00 0.  1.
     999900   -1    0    0    0    0 -0.00000000000E+00 -0.00000000000E+00 -0.74505805969E-08  0.93827000000E+00  0.93827000000E+00 0.  1.
     999902    2    1    2    0    0  0.25855755558E-02  0.15128563004E-01 -0.66908007793E-02  0.10271870781E+01  0.10270506161E+01 0.  0.
     999903    2    3    3    0    0  0.12076754944E+00  0.18445101590E-02 -0.62571192635E-01  0.13743089619E+00  0.19593209657E-01 0.  0.
         14    1    1    2    0    0 -0.25855755558E-02 -0.15128563004E-01  0.66908007793E-02  0.16742921925E-01  0.00000000000E+00 0. -1.
     999901    1    3    3    0    0 -0.11818197388E+00  0.13284052845E-01  0.55880391856E-01  0.88975618189E+00  0.88000000000E+00 0.  1.
        -11    1    4    4    0    0  0.65534243423E-01  0.81103800886E-02 -0.26450557519E-01  0.71136547852E-01  0.51100000000E-03 0. -1.
         11    1    4    4    0    0  0.55233306014E-01 -0.62658699296E-02 -0.36120635116E-01  0.66294348337E-01  0.51100000000E-03 0.  1.
</event>
<event>
 8    1  0.1176534E+005  0.1043930E+01  0.7957747E-01            NaN
         13   -1    0    0    0    0  0.00000000000E+00  0.00000000000E+00  0.74505805969E-08  0.10566000000E+00  0.10566000000E+00 0.  1.
     999900   -1    0    0    0    0 -0.00000000000E+00 -0.00000000000E+00 -0.74505805969E-08  0.93827000000E+00  0.93827000000E+00 0.  1.
     999902    2    1    2    0    0  0.22292221385E-01 -0.24446334998E-02 -0.13150546273E-01  0.10179327649E+01  0.10176007358E+01 0.  0.
     999903    2    3    3    0    0 -0.55329062911E-01 -0.81175178304E-01 -0.79771855501E-01  0.12851612386E+00  0.22408266026E-01 0.  0.
         14    1    1    2    0    0 -0.22292221385E-01  0.24446334998E-02  0.13150546273E-01  0.25997235132E-01  0.00000000000E+00 0.  1.
     999901    1    3    3    0    0  0.77621284296E-01  0.78730544805E-01  0.66621309228E-01  0.88941664101E+00  0.88000000000E+00 0. -1.
        -11    1    4    4    0    0 -0.39025235780E-01 -0.63358816663E-01 -0.70898677204E-01  0.10278225638E+00  0.51100000000E-03 0. -1.
         11    1    4    4    0    0 -0.16303827130E-01 -0.17816361641E-01 -0.88731782970E-02  0.25733867477E-01  0.51100000000E-03 0.  1.
</event>
<event>
 8    1  0.1176534E+005  0.1043930E+01  0.7957747E-01            NaN
         13   -1    0    0    0    0  0.00000000000E+00  0.00000000000E+00  0.74505805969E-08  0.10566000000E+00  0.10566000000E+00 0.  1.
     999900   -1    0    0    0    0 -0.00000000000E+00 -0.00000000000E+00 -0.74505805969E-08  0.93827000000E+00  0.93827000000E+00 0.  1.
     999902    2    1    2    0    0 -0.23413121307E-01  0.12505276410E-03  0.46252481417E-03  0.10205119767E+01  0.10202432508E+01 0.  0.
     999903    2    3    3    0    0 -0.31746419156E-01 -0.12840589255E-01 -0.12507104002E+00  0.13146966742E+00  0.21651617465E-01 0.  0.
         14    1    1    2    0    0  0.23413121307E-01 -0.12505276410E-03 -0.46252481417E-03  0.23418023331E-01  0.00000000000E+00 0. -1.
     999901    1    3    3    0    0  0.83332978490E-02  0.12965642020E-01  0.12553356484E+00  0.88904230924E+00  0.88000000000E+00 0. -1.
        -11    1    4    4    0    0 -0.12304130937E-01  0.35699742634E-02 -0.64637801205E-01  0.65897214054E-01  0.51100000000E-03 0. -1.
         11    1    4    4    0    0 -0.19442288219E-01 -0.16410563519E-01 -0.60433238816E-01  0.65572453371E-01  0.51100000000E-03 0.  1.
</event>
<event>
 8    1  0.1176534E+005  0.1043930E+01  0.7957747E-01            NaN
         13   -1    0    0    0    0  0.00000000000E+00  0.00000000000E+00  0.74505805969E-08  0.10566000000E+00  0.10566000000E+00 0. -1.
     999900   -1    0    0    0    0 -0.00000000000E+00 -0.00000000000E+00 -0.74505805969E-08  0.93827000000E+00  0.93827000000E+00 0. -1.
     999902    2    1    2    0    0 -0.82537195474E-02  0.20838331473E-01 -0.75889964052E-02  0.10202666779E+01  0.10199922261E+01 0.  0.
     999903    2    3    3    0    0 -0.60599255920E-01  0.11570760758E+00 -0.18833843658E-01  0.13354987911E+00  0.20502104071E-01 0.  0.
         14    1    1    2    0    0  0.82537195474E-02 -0.20838331473E-01  0.75889964052E-02  0.23663322070E-01  0.00000000000E+00 0. -1.
     999901    1    3    3    0    0  0.52345536372E-01 -0.94869276111E-01  0.11244847253E-01  0.88671679882E+00  0.88000000000E+00 0.  1.
        -11    1    4    4    0    0 -0.12962689761E-01  0.31223231361E-01  0.35904434979E-02  0.34001086865E-01  0.51100000000E-03 0.  1.
         11    1    4    4    0    0 -0.47636566159E-01  0.84484376223E-01 -0.22424287156E-01  0.99548792241E-01  0.51100000000E-03 0. -1.
</event>
<event>
 8    1  0.1176534E+005  0.1043930E+01  0.7957747E-01            NaN
         13   -1    0    0    0    0  0.00000000000E+00  0.00000000000E+00  0.74505805969E-08  0.10566000000E+00  0.10566000000E+00 0.  1.
     999900   -1    0    0    0    0 -0.00000000000E+00 -0.00000000000E+00 -0.74505805969E-08  0.93827000000E+00  0.93827000000E+00 0.  1.
     999902    2    1    2    0    0  0.13846739693E-01 -0.27596419650E-02  0.18276890190E-01  0.10208347074E+01  0.10205734209E+01 0.  0.
     999903    2    3    3    0    0  0.13030167369E+00  0.28574764508E-02  0.16744165517E-01  0.13314351511E+00  0.21450808836E-01 0.  0.
         14    1    1    2    0    0 -0.13846739693E-01  0.27596419650E-02 -0.18276890190E-01  0.23095292571E-01  0.00000000000E+00 0. -1.
     999901    1    3    3    0    0 -0.11645493400E+00 -0.56171184158E-02  0.15327246736E-02  0.88769119232E+00  0.88000000000E+00 0.  1.
        -11    1    4    4    0    0  0.97878371857E-01  0.10170044693E-01  0.77759641576E-02  0.98713384229E-01  0.51100000000E-03 0. -1.
         11    1    4    4    0    0  0.32423301833E-01 -0.73125682419E-02  0.89682013592E-02  0.34430130883E-01  0.51100000000E-03 0.  1.
</event>
<event>
 8    1  0.1176534E+005  0.1043930E+01  0.7957747E-01            NaN
         13   -1    0    0    0    0  0.00000000000E+00  0.00000000000E+00  0.74505805969E-08  0.10566000000E+00  0.10566000000E+00 0. -1.
     999900   -1    0    0    0    0 -0.00000000000E+00 -0.00000000000E+00 -0.74505805969E-08  0.93827000000E+00  0.93827000000E+00 0. -1.
     999902    2    1    2    0    0  0.18878851299E-01  0.23569530536E-02 -0.12040238830E-01  0.10214148139E+01  0.10211666311E+01 0.  0.
     999903    2    3    3    0    0 -0.48361891618E-01  0.68739136160E-01  0.96551880181E-01  0.12971970903E+00  0.20999903399E-01 0.  0.
         14    1    1    2    0    0 -0.18878851299E-01 -0.23569530536E-02  0.12040238830E-01  0.22515186101E-01  0.00000000000E+00 0. -1.
     999901    1    3    3    0    0  0.67240742916E-01 -0.66382183106E-01 -0.10859211901E+00  0.89169510487E+00  0.88000000000E+00 0.  1.
        -11    1    4    4    0    0 -0.15460973568E-01  0.28319407182E-01  0.51770640860E-01  0.61004023662E-01  0.51100000000E-03 0. -1.
         11    1    4    4    0    0 -0.32900918050E-01  0.40419728978E-01  0.44781239321E-01  0.68715685366E-01  0.51100000000E-03 0.  1.
</event>
<event>
 8    1  0.1176534E+005  0.1043930E+01  0.7957747E-01            NaN
         13   -1    0    0    0    0  0.00000000000E+00  0.00000000000E+00  0.74505805969E-08  0.10566000000E+00  0.10566000000E+00 0. -1.
     999900   -1    0    0    0    0 -0.00000000000E+00 -0.00000000000E+00 -0.74505805969E-08  0.93827000000E+00  0.93827000000E+00 0.  1.
     999902    2    1    2    0    0 -0.20751715161E-01  0.81216795554E-02 -0.83220692706E-02  0.10201423520E+01  0.10198649745E+01 0.  0.
     999903    2    3    3    0    0  0.54573716682E-01  0.11293338310E+00 -0.30212144984E-01  0.13045780717E+00  0.19344926314E-01 0.  0.
         14    1    1    2    0    0  0.20751715161E-01 -0.81216795554E-02  0.83220692706E-02  0.23787648011E-01  0.00000000000E+00 0.  1.
     999901    1    3    3    0    0 -0.75325431843E-01 -0.10481170355E+00  0.21890075714E-01  0.88968454482E+00  0.88000000000E+00 0.  1.
        -11    1    4    4    0    0  0.22617940696E-01  0.28514050725E-01 -0.50332148847E-02  0.36745294980E-01  0.51100000000E-03 0. -1.
         11    1    4    4    0    0  0.31955775986E-01  0.84419332380E-01 -0.25178930100E-01  0.93712512186E-01  0.51100000000E-03 0.  1.
</event>
<event>
 8    1  0.1176534E+005  0.1043930E+01  0.7957747E-01            NaN
         13   -1    0    0    0    0  0.00000000000E+00  0.00000000000E+00  0.74505805969E-08  0.10566000000E+00  0.10566000000E+00 0.  1.
     999900   -1    0    0    0    0 -0.00000000000E+00 -0.00000000000E+00 -0.74505805969E-08  0.93827000000E+00  0.93827000000E+00 0.  1.
     999902    2    1    2    0    0  0.21217202795E-01 -0.19406997258E-02  0.10434337648E-01  0.10202063533E+01  0.10199304839E+01 0.  0.
     999903    2    3    3    0    0 -0.71802981238E-01  0.96257619777E-01 -0.40970293432E-01  0.12838905101E+00  0.19595560619E-01 0.  0.
         14    1    1    2    0    0 -0.21217202795E-01  0.19406997258E-02 -0.10434337648E-01  0.23723646685E-01  0.00000000000E+00 0.  1.
     999901    1    3    3    0    0  0.93020184033E-01 -0.98198319503E-01  0.51404631080E-01  0.89181730230E+00  0.88000000000E+00 0. -1.
        -11    1    4    4    0    0 -0.70209884348E-01  0.86905778687E-01 -0.40629757320E-01  0.11888263343E+00  0.51100000000E-03 0. -1.
         11    1    4    4    0    0 -0.15930968900E-02  0.93518410900E-02 -0.34053611157E-03  0.95064175859E-02  0.51100000000E-03 0.  1.
</event>
<event>
 8    1  0.1176534E+005  0.1043930E+01  0.7957747E-01            NaN
         13   -1    0    0    0    0  0.00000000000E+00  0.00000000000E+00  0.74505805969E-08  0.10566000000E+00  0.10566000000E+00 0. -1.
     999900   -1    0    0    0    0 -0.00000000000E+00 -0.00000000000E+00 -0.74505805969E-08  0.93827000000E+00  0.93827000000E+00 0. -1.
     999902    2    1    2    0    0  0.34415899179E-02 -0.15113216342E-01 -0.16778446520E-01  0.10210877121E+01  0.10208321829E+01 0.  0.
     999903    2    3    3    0    0  0.87345748994E-01  0.93126607002E-01  0.14999433232E-01  0.12992801770E+00  0.18827160868E-01 0.  0.
         14    1    1    2    0    0 -0.34415899179E-02  0.15113216342E-01  0.16778446520E-01  0.22842287911E-01  0.00000000000E+00 0. -1.
     999901    1    3    3    0    0 -0.83904159076E-01 -0.10823982334E+00 -0.31777879752E-01  0.89115969439E+00  0.88000000000E+00 0.  1.
        -11    1    4    4    0    0  0.45074195754E-01  0.39534711988E-01 -0.37682167178E-03  0.59958983401E-01  0.51100000000E-03 0.  1.
         11    1    4    4    0    0  0.42271553240E-01  0.53591895014E-01  0.15376254903E-01  0.69969034296E-01  0.51100000000E-03 0. -1.
</event>
<event>
 8    1  0.1176534E+005  0.1043930E+01  0.7957747E-01            NaN
         13   -1    0    0    0    0  0.00000000000E+00  0.00000000000E+00  0.74505805969E-08  0.10566000000E+00  0.10566000000E+00 0.  1.
     999900   -1    0    0    0    0 -0.00000000000E+00 -0.00000000000E+00 -0.74505805969E-08  0.93827000000E+00  0.93827000000E+00 0. -1.
     999902    2    1    2    0    0 -0.26418159836E-02 -0.56202143163E-02 -0.24131279420E-01  0.10190124430E+01  0.10187077473E+01 0.  0.
     999903    2    3    3    0    0 -0.58192550742E-01  0.38071608007E-01 -0.11026920822E+00  0.13198673748E+00  0.20624749444E-01 0.  0.
         14    1    1    2    0    0  0.26418159836E-02  0.56202143163E-02  0.24131279420E-01  0.24917557005E-01  0.00000000000E+00 0.  1.
     999901    1    3    3    0    0  0.55550734758E-01 -0.43691822323E-01  0.86137928803E-01  0.88702570552E+00  0.88000000000E+00 0.  1.
        -11    1    4    4    0    0 -0.29996363342E-01  0.24383526000E-01 -0.77678611367E-01  0.86767309160E-01  0.51100000000E-03 0. -1.
         11    1    4    4    0    0 -0.28196187400E-01  0.13688082007E-01 -0.32590596857E-01  0.45219428317E-01  0.51100000000E-03 0.  1.
</event>
<event>
 8    1  0.1176534E+005  0.1043930E+01  0.7957747E-01            NaN
         13   -1    0    0    0    0  0.00000000000E+00  0.00000000000E+00  0.74505805969E-08  0.10566000000E+00  0.10566000000E+00 0. -1.
     999900   -1    0    0    0    0 -0.00000000000E+00 -0.00000000000E+00 -0.74505805969E-08  0.93827000000E+00  0.93827000000E+00 0. -1.
     999902    2    1    2    0    0 -0.19586698215E-01  0.12452401534E-01 -0.35944813699E-02  0.10204433794E+01  0.10201730585E+01 0.  0.
     999903    2    3    3    0    0 -0.12838904278E+00 -0.41253091148E-02 -0.29763753471E-01  0.13320181056E+00  0.18869998276E-01 0.  0.
         14    1    1    2    0    0  0.19586698215E-01 -0.12452401534E-01  0.35944813699E-02  0.23486620601E-01  0.00000000000E+00 0. -1.
     999901    1    3    3    0    0  0.10880234456E+00  0.16577710649E-01  0.26169272102E-01  0.88724156884E+00  0.88000000000E+00 0.  1.
        -11    1    4    4    0    0 -0.38948909943E-01 -0.86379940938E-02 -0.45020687604E-02  0.40151740582E-01  0.51100000000E-03 0. -1.
         11    1    4    4    0    0 -0.89440132836E-01  0.45126849790E-02 -0.25261684711E-01  0.93050069978E-01  0.51100000000E-03 0.  1.
</event>
<event>
 8    1  0.1176534E+005  0.1043930E+01  0.7957747E-01            NaN
         13   -1    0    0    0    0  0.00000000000E+00  0.00000000000E+00  0.74505805969E-08  0.10566000000E+00  0.10566000000E+00 0. -1.
     999900   -1    0    0    0    0 -0.00000000000E+00 -0.00000000000E+00 -0.74505805969E-08  0.93827000000E+00  0.93827000000E+00 0. -1.
     999902    2    1    2    0    0 -0.15629212690E-01 -0.69198185836E-02 -0.16426805242E-01  0.10202235429E+01  0.10199480778E+01 0.  0.
     999903    2    3    3    0    0 -0.10546606258E-02 -0.12712553520E+00  0.24663911735E-01  0.13098213646E+00  0.19646819626E-01 0.  0.
         14    1    1    2    0    0  0.15629212690E-01  0.69198185836E-02  0.16426805242E-01  0.23706457116E-01  0.00000000000E+00 0. -1.
     999901    1    3    3    0    0 -0.14574552064E-01  0.12020571661E+00 -0.41090716978E-01  0.88924140642E+00  0.88000000000E+00 0.  1.
        -11    1    4    4    0    0  0.24701454464E-02 -0.12067553011E-01  0.79313555388E-02  0.14659296568E-01  0.51100000000E-03 0.  1.
         11    1    4    4    0    0 -0.35248060723E-02 -0.11505798219E+00  0.16732556197E-01  0.11632283989E+00  0.51100000000E-03 0. -1.
</event>
<event>
 8    1  0.1176534E+005  0.1043930E+01  0.7957747E-01            NaN
         13   -1    0    0    0    0  0.00000000000E+00  0.00000000000E+00  0.74505805969E-08  0.10566000000E+00  0.10566000000E+00 0. -1.
     999900   -1    0    0    0    0 -0.00000000000E+00 -0.00000000000E+00 -0.74505805969E-08  0.93827000000E+00  0.93827000000E+00 0.  1.
     999902    2    1    2    0    0 -0.20098124717E-01  0.92092223028E-02 -0.56187826139E-02  0.10211195833E+01  0.10208647747E+01 0.  0.
     999903    2    3    3    0    0 -0.53714012773E-01 -0.61838507815E-01 -0.10197664661E+00  0.13237741267E+00  0.20380056749E-01 0.  0.
         14    1    1    2    0    0  0.20098124717E-01 -0.92092223028E-02  0.56187826139E-02  0.22810416713E-01  0.00000000000E+00 0.  1.
     999901    1    3    3    0    0  0.33615888056E-01  0.71047730118E-01  0.96357863998E-01  0.88874217062E+00  0.88000000000E+00 0. -1.
        -11    1    4    4    0    0 -0.22413626506E-01 -0.11945976242E-01 -0.27774441457E-01  0.37639842199E-01  0.51100000000E-03 0.  1.
         11    1    4    4    0    0 -0.31300386267E-01 -0.49892531573E-01 -0.74202205155E-01  0.94737570467E-01  0.51100000000E-03 0. -1.
</event>
<event>
 8    1  0.1176534E+005  0.1043930E+01  0.7957747E-01            NaN
         13   -1    0    0    0    0  0.00000000000E+00  0.00000000000E+00  0.74505805969E-08  0.10566000000E+00  0.10566000000E+00 0. -1.
     999900   -1    0    0    0    0 -0.00000000000E+00 -0.00000000000E+00 -0.74505805969E-08  0.93827000000E+00  0.93827000000E+00 0.  1.
     999902    2    1    2    0    0  0.70750819071E-02  0.23330105755E-01 -0.44841229328E-02  0.10191417371E+01  0.10188402340E+01 0.  0.
     999903    2    3    3    0    0 -0.73862556257E-03  0.11038244317E+00 -0.70069341218E-01  0.13238326699E+00  0.20755420320E-01 0.  0.
         14    1    1    2    0    0 -0.70750819071E-02 -0.23330105755E-01  0.44841229328E-02  0.24788262888E-01  0.00000000000E+00 0.  1.
     999901    1    3    3    0    0  0.78137074697E-02 -0.87052337415E-01  0.65585218285E-01  0.88675847012E+00  0.88000000000E+00 0. -1.
        -11    1    4    4    0    0 -0.36446951136E-02  0.18489133518E-01 -0.20805375892E-01  0.28075908671E-01  0.51100000000E-03 0. -1.
         11    1    4    4    0    0  0.29060695510E-02  0.91893309652E-01 -0.49263965326E-01  0.10430735832E+00  0.51100000000E-03 0.  1.
</event>
<event>
 8    1  0.1176534E+005  0.1043930E+01  0.7957747E-01            NaN
         13   -1    0    0    0    0  0.00000000000E+00  0.00000000000E+00  0.74505805969E-08  0.10566000000E+00  0.10566000000E+00 0. -1.
     999900   -1    0    0    0    0 -0.00000000000E+00 -0.00000000000E+00 -0.74505805969E-08  0.93827000000E+00  0.93827000000E+00 0. -1.
     999902    2    1    2    0    0 -0.15731042797E-01  0.15807312551E-02  0.10655691128E-01  0.10248641097E+01  0.10246867498E+01 0.  0.
     999903    2    3    3    0    0 -0.90396799403E-01  0.86915774765E-01  0.51305471405E-01  0.13665836244E+00  0.17813573019E-01 0.  0.
         14    1    1    2    0    0  0.15731042797E-01 -0.15807312551E-02 -0.10655691128E-01  0.19065890281E-01  0.00000000000E+00 0.  1.
     999901    1    3    3    0    0  0.74665756606E-01 -0.85335043510E-01 -0.40649780277E-01  0.88820574728E+00  0.88000000000E+00 0.  1.
        -11    1    4    4    0    0 -0.71346755603E-01  0.65072631287E-01  0.46846520273E-01  0.10732969981E+00  0.51100000000E-03 0.  1.
         11    1    4    4    0    0 -0.19050043801E-01  0.21843143479E-01  0.44589511317E-02  0.29328662636E-01  0.51100000000E-03 0. -1.
</event>
<event>
 8    1  0.1176534E+005  0.1043930E+01  0.7957747E-01            NaN
         13   -1    0    0    0    0  0.00000000000E+00  0.00000000000E+00  0.74505805969E-08  0.10566000000E+00  0.10566000000E+00 0. -1.
     999900   -1    0    0    0    0 -0.00000000000E+00 -0.00000000000E+00 -0.74505805969E-08  0.93827000000E+00  0.93827000000E+00 0. -1.
     999902    2    1    2    0    0 -0.14695087086E-01 -0.18606823066E-01  0.24522833861E-02  0.10200936172E+01  0.10198150885E+01 0.  0.
     999903    2    3    3    0    0 -0.48049007208E-01 -0.10474297841E+00  0.63629334600E-01  0.13314685850E+00  0.19989874653E-01 0.  0.
         14    1    1    2    0    0  0.14695087086E-01  0.18606823066E-01 -0.24522833861E-02  0.23836382756E-01  0.00000000000E+00 0. -1.
     999901    1    3    3    0    0  0.33353920121E-01  0.86136155341E-01 -0.61177051214E-01  0.88694675874E+00  0.88000000000E+00 0. -1.
        -11    1    4    4    0    0 -0.20315065196E-02 -0.20123825121E-01  0.69966063627E-02  0.21408152135E-01  0.51100000000E-03 0. -1.
         11    1    4    4    0    0 -0.46017500688E-01 -0.84619153286E-01  0.56632728237E-01  0.11173870637E+00  0.51100000000E-03 0.  1.
</event>
<event>
 8    1  0.1176534E+005  0.1043930E+01  0.7957747E-01            NaN
         13   -1    0    0    0    0  0.00000000000E+00  0.00000000000E+00  0.74505805969E-08  0.10566000000E+00  0.10566000000E+00 0.  1.
     999900   -1    0    0    0    0 -0.00000000000E+00 -0.00000000000E+00 -0.74505805969E-08  0.93827000000E+00  0.93827000000E+00 0.  1.
     999902    2    1    2    0    0  0.18824316371E-01 -0.11533234345E-01  0.69483720061E-02  0.10207858808E+01  0.10205234755E+01 0.  0.
     999903    2    3    3    0    0  0.64784418225E-01  0.10241390430E+00  0.46935725757E-01  0.13135051503E+00  0.19088394598E-01 0.  0.
         14    1    1    2    0    0 -0.18824316371E-01  0.11533234345E-01 -0.69483720061E-02  0.23144119228E-01  0.00000000000E+00 0. -1.
     999901    1    3    3    0    0 -0.45960101854E-01 -0.11394713865E+00 -0.39987353751E-01  0.88943536574E+00  0.88000000000E+00 0.  1.
        -11    1    4    4    0    0  0.42155185413E-01  0.76750467917E-01  0.40718968497E-01  0.96571162875E-01  0.51100000000E-03 0. -1.
         11    1    4    4    0    0  0.22629232812E-01  0.25663436384E-01  0.62167572599E-02  0.34779352158E-01  0.51100000000E-03 0.  1.
</event>
<event>
 8    1  0.1176534E+005  0.1043930E+01  0.7957747E-01            NaN
         13   -1    0    0    0    0  0.00000000000E+00  0.00000000000E+00  0.74505805969E-08  0.10566000000E+00  0.10566000000E+00 0. -1.
     999900   -1    0    0    0    0 -0.00000000000E+00 -0.00000000000E+00 -0.74505805969E-08  0.93827000000E+00  0.93827000000E+00 0. -1.
     999902    2    1    2    0    0 -0.79545572235E-02  0.22314926120E-01  0.78157545463E-02  0.10189837192E+01  0.10186783118E+01 0.  0.
     999903    2    3    3    0    0 -0.10208961252E+00  0.81201000841E-01  0.52287397414E-02  0.13200250681E+00  0.19530247369E-01 0.  0.
         14    1    1    2    0    0  0.79545572235E-02 -0.22314926120E-01 -0.78157545463E-02  0.24946280835E-01  0.00000000000E+00 0.  1.
     999901    1    3    3    0    0  0.94135055295E-01 -0.58886074722E-01  0.25870148049E-02  0.88698121236E+00  0.88000000000E+00 0.  1.
        -11    1    4    4    0    0 -0.26217040929E-01  0.13994204804E-01  0.73628556595E-02  0.30620969410E-01  0.51100000000E-03 0. -1.
         11    1    4    4    0    0 -0.75872571589E-01  0.67206796037E-01 -0.21341159181E-02  0.10138153740E+00  0.51100000000E-03 0.  1.
</event>
<event>
 7    1  0.1176534E+005  0.1043930E+01  0.7957747E-01            NaN
         13   -1    0    0    0    0  0.00000000000E+00  0.00000000000E+00  0.74505805969E-08  0.10566000000E+00  0.10566000000E+00 0. -1.
     999900   -1    0    0    0    0 -0.00000000000E+00 -0.00000000000E+00 -0.74505805969E-08  0.93827000000E+00  0.93827000000E+00 0. -1.
     999902    2    1    2    0    0 -0.40855516572E-02  0.16100020088E-01 -0.16916701556E-01  0.10202218332E+01  0.10199463279E+01 0.  0.
         14    1    1    2    0    0  0.40855516572E-02 -0.16100020088E-01  0.16916701556E-01  0.23708166752E-01  0.00000000000E+00 0. -1.
     999901    1    3    3    0    0  0.38587743416E-01 -0.69708866015E-01 -0.74768400398E-01  0.88675738150E+00  0.88000000000E+00 0. -1.
        -11    1    3    3    0    0 -0.61668284533E-01  0.61347832453E-01  0.53662807030E-01  0.10220808111E+00  0.51100000000E-03 0. -1.
         11    1    3    3    0    0  0.18994989460E-01  0.24461053650E-01  0.41888918113E-02  0.31256370644E-01  0.51100000000E-03 0.  1.
</event>
<event>
 8    1  0.1176534E+005  0.1043930E+01  0.7957747E-01            NaN
         13   -1    0    0    0    0  0.00000000000E+00  0.00000000000E+00  0.74505805969E-08  0.10566000000E+00  0.10566000000E+00 0.  1.
     999900   -1    0    0    0    0 -0.00000000000E+00 -0.00000000000E+00 -0.74505805969E-08  0.93827000000E+00  0.93827000000E+00 0. -1.
     999902    2    1    2    0    0 -0.18351616395E-02 -0.19139618445E-01 -0.22606241180E-02  0.10245701644E+01  0.10243872405E+01 0.  0.
     999903    2    3    3    0    0 -0.15871611183E-01  0.47577652343E-01 -0.12204518049E+00  0.13384205995E+00  0.22430557008E-01 0.  0.
         14    1    1    2    0    0  0.18351616395E-02  0.19139618445E-01  0.22606241180E-02  0.19359835585E-01  0.00000000000E+00 0.  1.
     999901    1    3    3    0    0  0.14036449543E-01 -0.66717270788E-01  0.11978455637E+00  0.89072810446E+00  0.88000000000E+00 0.  1.
        -11    1    4    4    0    0 -0.69506911049E-02  0.39803421039E-01 -0.73529606670E-01  0.83901660361E-01  0.51100000000E-03 0.  1.
         11    1    4    4    0    0 -0.89209200777E-02  0.77742313044E-02 -0.48515573818E-01  0.49940399591E-01  0.51100000000E-03 0. -1.
</event>
<event>
 8    1  0.1176534E+005  0.1043930E+01  0.7957747E-01            NaN
         13   -1    0    0    0    0  0.00000000000E+00  0.00000000000E+00  0.74505805969E-08  0.10566000000E+00  0.10566000000E+00 0.  1.
     999900   -1    0    0    0    0 -0.00000000000E+00 -0.00000000000E+00 -0.74505805969E-08  0.93827000000E+00  0.93827000000E+00 0.  1.
     999902    2    1    2    0    0  0.41471101123E-03 -0.10346412842E-01 -0.20788916011E-01  0.10207050291E+01  0.10204407661E+01 0.  0.
     999903    2    3    3    0    0  0.11538768951E+00 -0.19124464173E-01 -0.58507745155E-01  0.13238158011E+00  0.20534422066E-01 0.  0.
         14    1    1    2    0    0 -0.41471101123E-03  0.10346412842E-01  0.20788916011E-01  0.23224970890E-01  0.00000000000E+00 0.  1.
     999901    1    3    3    0    0 -0.11497297850E+00  0.87780513315E-02  0.37718829144E-01  0.88832344900E+00  0.88000000000E+00 0.  1.
        -11    1    4    4    0    0  0.18163383114E-01 -0.20093121928E-03 -0.18341910613E-02  0.18264014820E-01  0.51100000000E-03 0.  1.
         11    1    4    4    0    0  0.97224306395E-01 -0.18923532954E-01 -0.56673554093E-01  0.11411756529E+00  0.51100000000E-03 0. -1.
</event>
<event>
 8    1  0.1176534E+005  0.1043930E+01  0.7957747E-01            NaN
         13   -1    0    0    0    0  0.00000000000E+00  0.00000000000E+00  0.74505805969E-08  0.10566000000E+00  0.10566000000E+00 0.  1.
     999900   -1    0    0    0    0 -0.00000000000E+00 -0.00000000000E+00 -0.74505805969E-08  0.93827000000E+00  0.93827000000E+00 0.  1.
     999902    2    1    2    0    0 -0.13866115103E-01  0.20946221971E-02  0.19107093702E-01  0.10202289954E+01  0.10199536585E+01 0.  0.
     999903    2    3    3    0    0 -0.12684669463E+00  0.32158752600E-01  0.65893159590E-02  0.13240854166E+00  0.19087522399E-01 0.  0.
         14    1    1    2    0    0  0.13866115103E-01 -0.20946221971E-02 -0.19107093702E-01  0.23701004619E-01  0.00000000000E+00 0. -1.
     999901    1    3    3    0    0  0.11298057953E+00 -0.30064130403E-01  0.12517777743E-01  0.88782045372E+00  0.88000000000E+00 0. -1.
        -11    1    4    4    0    0 -0.62656174371E-01  0.25613980227E-01  0.20190405888E-02  0.67721560937E-01  0.51100000000E-03 0. -1.
         11    1    4    4    0    0 -0.64190520263E-01  0.65447723732E-02  0.45702753702E-02  0.64686980722E-01  0.51100000000E-03 0.  1.
</event>
<event>
 8    1  0.1176534E+005  0.1043930E+01  0.7957747E-01            NaN
         13   -1    0    0    0    0  0.00000000000E+00  0.00000000000E+00  0.74505805969E-08  0.10566000000E+00  0.10566000000E+00 0. -1.
     999900   -1    0    0    0    0 -0.00000000000E+00 -0.00000000000E+00 -0.74505805969E-08  0.93827000000E+00  0.93827000000E+00 0.  1.
     999902    2    1    2    0    0  0.19149372651E-01  0.13321258628E-01 -0.11721441246E-02  0.10205734522E+01  0.10203061516E+01 0.  0.
     999903    2    3    3    0    0  0.39107334597E-01 -0.12019376677E+00 -0.22929002652E-01  0.13001298643E+00  0.20042761518E-01 0.  0.
         14    1    1    2    0    0 -0.19149372651E-01 -0.13321258628E-01  0.11721441246E-02  0.23356547823E-01  0.00000000000E+00 0.  1.
     999901    1    3    3    0    0 -0.19957961946E-01  0.13351502540E+00  0.21756858528E-01  0.89056046574E+00  0.88000000000E+00 0.  1.
        -11    1    4    4    0    0  0.60850954538E-02 -0.48623926806E-01 -0.57687094283E-02  0.49344237497E-01  0.51100000000E-03 0. -1.
         11    1    4    4    0    0  0.33022239144E-01 -0.71569839963E-01 -0.17160293224E-01  0.80668748936E-01  0.51100000000E-03 0.  1.
</event>
<event>
 8    1  0.1176534E+005  0.1043930E+01  0.7957747E-01            NaN
         13   -1    0    0    0    0  0.00000000000E+00  0.00000000000E+00  0.74505805969E-08  0.10566000000E+00  0.10566000000E+00 0.  1.
     999900   -1    0    0    0    0 -0.00000000000E+00 -0.00000000000E+00 -0.74505805969E-08  0.93827000000E+00  0.93827000000E+00 0. -1.
     999902    2    1    2    0    0 -0.19621559442E-02  0.14173469368E-01 -0.18808473250E-01  0.10202974810E+01  0.10200237515E+01 0.  0.
     999903    2    3    3    0    0 -0.12125247491E+00 -0.96560710906E-03 -0.46796461959E-01  0.13167905929E+00  0.21127487643E-01 0.  0.
         14    1    1    2    0    0  0.19621559442E-02 -0.14173469368E-01  0.18808473250E-01  0.23632519034E-01  0.00000000000E+00 0.  1.
     999901    1    3    3    0    0  0.11929031897E+00  0.15139076477E-01  0.27987988709E-01  0.88861842168E+00  0.88000000000E+00 0.  1.
        -11    1    4    4    0    0 -0.10737647262E+00 -0.48615397453E-02 -0.34984863359E-01  0.11303779557E+00  0.51100000000E-03 0. -1.
         11    1    4    4    0    0 -0.13876002287E-01  0.38959326362E-02 -0.11811598600E-01  0.18641263719E-01  0.51100000000E-03 0.  1.
</event>
<event>
 8    1  0.1176534E+005  0.1043930E+01  0.7957747E-01            NaN
         13   -1    0    0    0    0  0.00000000000E+00  0.00000000000E+00  0.74505805969E-08  0.10566000000E+00  0.10566000000E+00 0. -1.
     999900   -1    0    0    0    0 -0.00000000000E+00 -0.00000000000E+00 -0.74505805969E-08  0.93827000000E+00  0.93827000000E+00 0.  1.
     999902    2    1    2    0    0  0.17453057028E-01 -0.40027698846E-02  0.15016806091E-01  0.10205604508E+01  0.10202928491E+01 0.  0.
     999903    2    3    3    0    0 -0.58545103968E-01 -0.54373988507E-01  0.10238200321E+00  0.13154658259E+00  0.20937263069E-01 0.  0.
         14    1    1    2    0    0 -0.17453057028E-01  0.40027698846E-02 -0.15016806091E-01  0.23369549237E-01  0.00000000000E+00 0.  1.
     999901    1    3    3    0    0  0.75998160996E-01  0.50371218622E-01 -0.87365197118E-01  0.88901386818E+00  0.88000000000E+00 0.  1.
        -11    1    4    4    0    0 -0.48929896361E-01 -0.51400335357E-01  0.96796184607E-01  0.12002454627E+00  0.51100000000E-03 0.  1.
         11    1    4    4    0    0 -0.96152076071E-02 -0.29736531494E-02  0.55858186017E-02  0.11522036314E-01  0.51100000000E-03 0. -1.
</event>
<event>
 8    1  0.1176534E+005  0.1043930E+01  0.7957747E-01            NaN
         13   -1    0    0    0    0  0.00000000000E+00  0.00000000000E+00  0.74505805969E-08  0.10566000000E+00  0.10566000000E+00 0. -1.
     999900   -1    0    0    0    0 -0.00000000000E+00 -0.00000000000E+00 -0.74505805969E-08  0.93827000000E+00  0.93827000000E+00 0.  1.
     999902    2    1    2    0    0 -0.20613312631E-01  0.30767280358E-02 -0.10254708475E-01  0.10207021297E+01  0.10204378000E+01 0.  0.
     999903    2    3    3    0    0  0.72190704885E-01 -0.92035261482E-01  0.48536634769E-01  0.12878548658E+00  0.23407464879E-01 0.  0.
         14    1    1    2    0    0  0.20613312631E-01 -0.30767280358E-02  0.10254708475E-01  0.23227870306E-01  0.00000000000E+00 0. -1.
     999901    1    3    3    0    0 -0.92804017516E-01  0.95111989518E-01 -0.58791343244E-01  0.89191664311E+00  0.88000000000E+00 0. -1.
        -11    1    4    4    0    0  0.65431329437E-01 -0.89819068238E-01  0.41102824310E-01  0.11848386885E+00  0.51100000000E-03 0. -1.
         11    1    4    4    0    0  0.67593754474E-02 -0.22161932446E-02  0.74338104592E-02  0.10301617731E-01  0.51100000000E-03 0.  1.
</event>
<event>
 8    1  0.1176534E+005  0.1043930E+01  0.7957747E-01            NaN
         13   -1    0    0    0    0  0.00000000000E+00  0.00000000000E+00  0.74505805969E-08  0.10566000000E+00  0.10566000000E+00 0. -1.
     999900   -1    0    0    0    0 -0.00000000000E+00 -0.00000000000E+00 -0.74505805969E-08  0.93827000000E+00  0.93827000000E+00 0. -1.
     999902    2    1    2    0    0 -0.53530727200E-02 -0.73666395926E-02 -0.24571740620E-01  0.10177251683E+01  0.10173877457E+01 0.  0.
     999903    2    3    3    0    0  0.28410903894E-01  0.15360172986E-02  0.11913091196E+00  0.12538570613E+00  0.26830249892E-01 0.  0.
         14    1    1    2    0    0  0.53530727200E-02  0.73666395926E-02  0.24571740620E-01  0.26204831683E-01  0.00000000000E+00 0. -1.
     999901    1    3    3    0    0 -0.33763976614E-01 -0.89026568912E-02 -0.14370265258E+00  0.89233946219E+00  0.88000000000E+00 0. -1.
        -11    1    4    4    0    0  0.29106746432E-01 -0.69548727812E-02  0.82145770376E-01  0.87428608904E-01  0.51100000000E-03 0. -1.
         11    1    4    4    0    0 -0.69584253788E-03  0.84908900798E-02  0.36985141580E-01  0.37957097227E-01  0.51100000000E-03 0.  1.
</event>
<event>
 8    1  0.1176534E+005  0.1043930E+01  0.7957747E-01            NaN
         13   -1    0    0    0    0  0.00000000000E+00  0.00000000000E+00  0.74505805969E-08  0.10566000000E+00  0.10566000000E+00 0.  1.
     999900   -1    0    0    0    0 -0.00000000000E+00 -0.00000000000E+00 -0.74505805969E-08  0.93827000000E+00  0.93827000000E+00 0.  1.
     999902    2    1    2    0    0  0.84828289552E-02  0.21924454975E-01  0.11448108131E-02  0.10203938426E+01  0.10201223668E+01 0.  0.
     999903    2    3    3    0    0 -0.39945306628E-02 -0.56840865721E-01 -0.11438187512E+00  0.12926754661E+00  0.19494741901E-01 0.  0.
         14    1    1    2    0    0 -0.84828289552E-02 -0.21924454975E-01 -0.11448108131E-02  0.23536157393E-01  0.00000000000E+00 0. -1.
     999901    1    3    3    0    0  0.12477359618E-01  0.78765320696E-01  0.11552668593E+00  0.89112629599E+00  0.88000000000E+00 0. -1.
        -11    1    4    4    0    0 -0.16508023680E-02 -0.51791029440E-01 -0.86528964788E-01  0.10085910344E+00  0.51100000000E-03 0.  1.
         11    1    4    4    0    0 -0.23437282949E-02 -0.50498362815E-02 -0.27852910328E-01  0.28408443173E-01  0.51100000000E-03 0. -1.
</event>
<event>
 8    1  0.1176534E+005  0.1043930E+01  0.7957747E-01            NaN
         13   -1    0    0    0    0  0.00000000000E+00  0.00000000000E+00  0.74505805969E-08  0.10566000000E+00  0.10566000000E+00 0. -1.
     999900   -1    0    0    0    0 -0.00000000000E+00 -0.00000000000E+00 -0.74505805969E-08  0.93827000000E+00  0.93827000000E+00 0.  1.
     999902    2    1    2    0    0 -0.13196397400E-01  0.17220140623E-01  0.19526911954E-02  0.10221471822E+01  0.10219150508E+01 0.  0.
     999903    2    3    3    0    0 -0.69151600267E-01 -0.67028774836E-01  0.88348367053E-01  0.13215107139E+00  0.19587527515E-01 0.  0.
         14    1    1    2    0    0  0.13196397400E-01 -0.17220140623E-01 -0.19526911954E-02  0.21782817778E-01  0.00000000000E+00 0. -1.
     999901    1    3    3    0    0  0.55955202867E-01  0.84248915459E-01 -0.86395675857E-01  0.88999611083E+00  0.88000000000E+00 0.  1.
        -11    1    4    4    0    0 -0.46779385337E-01 -0.34964496781E-01  0.44678317617E-01  0.73533938516E-01  0.51100000000E-03 0. -1.
         11    1    4    4    0    0 -0.22372214930E-01 -0.32064278054E-01  0.43670049435E-01  0.58617132877E-01  0.51100000000E-03 0.  1.
</event>
<event>
 8    1  0.1176534E+005  0.1043930E+01  0.7957747E-01            NaN
         13   -1    0    0    0    0  0.00000000000E+00  0.00000000000E+00  0.74505805969E-08  0.10566000000E+00  0.10566000000E+00 0.  1.
     999900   -1    0    0    0    0 -0.00000000000E+00 -0.00000000000E+00 -0.74505805969E-08  0.93827000000E+00  0.93827000000E+00 0. -1.
     999902    2    1    2    0    0 -0.20662042616E-01 -0.25848656492E-01 -0.15893639079E-01  0.10072192276E+01  0.10065499946E+01 0.  0.
     999903    2    3    3    0    0  0.25043604168E-01  0.10000883571E+00 -0.50420628828E-01  0.11642114300E+00  0.19562550890E-01 0.  0.
         14    1    1    2    0    0  0.20662042616E-01  0.25848656492E-01  0.15893639079E-01  0.36710772406E-01  0.00000000000E+00 0. -1.
     999901    1    3    3    0    0 -0.45705646784E-01 -0.12585749220E+00  0.34526989749E-01  0.89079808459E+00  0.88000000000E+00 0. -1.
        -11    1    4    4    0    0  0.48420934435E-02  0.36922501051E-01 -0.27608146157E-01  0.46359333559E-01  0.51100000000E-03 0. -1.
         11    1    4    4    0    0  0.20201510725E-01  0.63086334656E-01 -0.22812482671E-01  0.70061809444E-01  0.51100000000E-03 0.  1.
</event>
<event>
 8    1  0.1176534E+005  0.1043930E+01  0.7957747E-01            NaN
         13   -1    0    0    0    0  0.00000000000E+00  0.00000000000E+00  0.74505805969E-08  0.10566000000E+00  0.10566000000E+00 0. -1.
     999900   -1    0    0    0    0 -0.00000000000E+00 -0.00000000000E+00 -0.74505805969E-08  0.93827000000E+00  0.93827000000E+00 0.  1.
     999902    2    1    2    0    0 -0.62949595029E-02 -0.32565464649E-02  0.22282980086E-01  0.10205470401E+01  0.10202791277E+01 0.  0.
     999903    2    3    3    0    0  0.91231281630E-01  0.89244367299E-01 -0.97893896039E-02  0.12976287793E+00  0.21327646319E-01 0.  0.
         14    1    1    2    0    0  0.62949595029E-02  0.32565464649E-02 -0.22282980086E-01  0.23382959854E-01  0.00000000000E+00 0.  1.
     999901    1    3    3    0    0 -0.97526241133E-01 -0.92500913764E-01  0.32072369690E-01  0.89078416222E+00  0.88000000000E+00 0.  1.
        -11    1    4    4    0    0  0.71248995108E-01  0.56584714241E-01 -0.93917002473E-02  0.91469745513E-01  0.51100000000E-03 0.  1.
         11    1    4    4    0    0  0.19982286522E-01  0.32659653058E-01 -0.39768935654E-03  0.38293132418E-01  0.51100000000E-03 0. -1.
</event>
<event>
 8    1  0.1176534E+005  0.1043930E+01  0.7957747E-01            NaN
         13   -1    0    0    0    0  0.00000000000E+00  0.00000000000E+00  0.74505805969E-08  0.10566000000E+00  0.10566000000E+00 0. -1.
     999900   -1    0    0    0    0 -0.00000000000E+00 -0.00000000000E+00 -0.74505805969E-08  0.93827000000E+00  0.93827000000E+00 0.  1.
     999902    2    1    2    0    0 -0.39798256979E-02  0.21248390907E-01  0.95970751519E-02  0.10202775798E+01  0.10200033838E+01 0.  0.
     999903    2    3    3    0    0  0.42753813290E-01 -0.10304169331E+00  0.61190178264E-01  0.12882152015E+00  0.20131245000E-01 0.  0.
         14    1    1    2    0    0  0.39798256979E-02 -0.21248390907E-01 -0.95970751519E-02  0.23652420176E-01  0.00000000000E+00 0.  1.
     999901    1    3    3    0    0 -0.46733638988E-01  0.12429008422E+00 -0.51593103113E-01  0.89145605968E+00  0.88000000000E+00 0.  1.
        -11    1    4    4    0    0  0.35660672175E-01 -0.76328822712E-01  0.54626721837E-01  0.10040972351E+00  0.51100000000E-03 0. -1.
         11    1    4    4    0    0  0.70931411153E-02 -0.26712870599E-01  0.65634564277E-02  0.28411796631E-01  0.51100000000E-03 0.  1.
</event>
<event>
 8    1  0.1176534E+005  0.1043930E+01  0.7957747E-01            NaN
         13   -1    0    0    0    0  0.00000000000E+00  0.00000000000E+00  0.74505805969E-08  0.10566000000E+00  0.10566000000E+00 0.  1.
     999900   -1    0    0    0    0 -0.00000000000E+00 -0.00000000000E+00 -0.74505805969E-08  0.93827000000E+00  0.93827000000E+00 0. -1.
     999902    2    1    2    0    0 -0.28557275724E-01 -0.10971295079E-01 -0.11608929659E-01  0.10112091418E+01  0.10106796099E+01 0.  0.
     999903    2    3    3    0    0 -0.78951117086E-01  0.38300541937E-01 -0.85596664409E-01  0.12529637068E+00  0.25926456479E-01 0.  0.
         14    1    1    2    0    0  0.28557275724E-01  0.10971295079E-01  0.11608929659E-01  0.32720858184E-01  0.00000000000E+00 0.  1.
     999901    1    3    3    0    0  0.50393841362E-01 -0.49271837016E-01  0.73987734750E-01  0.88591277114E+00  0.88000000000E+00 0.  1.
        -11    1    4    4    0    0 -0.68307613161E-01  0.21514113314E-01 -0.66824567744E-01  0.97951881363E-01  0.51100000000E-03 0. -1.
         11    1    4    4    0    0 -0.10643503925E-01  0.16786428624E-01 -0.18772096665E-01  0.27344489316E-01  0.51100000000E-03 0.  1.
</event>
<event>
 8    1  0.1176534E+005  0.1043930E+01  0.7957747E-01            NaN
         13   -1    0    0    0    0  0.00000000000E+00  0.00000000000E+00  0.74505805969E-08  0.10566000000E+00  0.10566000000E+00 0. -1.
     999900   -1    0    0    0    0 -0.00000000000E+00 -0.00000000000E+00 -0.74505805969E-08  0.93827000000E+00  0.93827000000E+00 0.  1.
     999902    2    1    2    0    0  0.15267945042E-01  0.69459595898E-02 -0.16661555227E-01  0.10202875821E+01  0.10200136207E+01 0.  0.
     999903    2    3    3    0    0  0.51810444333E-02 -0.12811795303E+00 -0.87940547900E-02  0.12989109537E+00  0.18796492949E-01 0.  0.
         14    1    1    2    0    0 -0.15267945042E-01 -0.69459595898E-02  0.16661555227E-01  0.23642417876E-01  0.00000000000E+00 0. -1.
     999901    1    3    3    0    0  0.10086900608E-01  0.13506391262E+00 -0.78675004368E-02  0.89039648675E+00  0.88000000000E+00 0.  1.
        -11    1    4    4    0    0 -0.60647869754E-02 -0.77486757995E-01 -0.53274242292E-02  0.77907778017E-01  0.51100000000E-03 0.  1.
         11    1    4    4    0    0  0.11245831409E-01 -0.50631195036E-01 -0.34666305609E-02  0.51983317356E-01  0.51100000000E-03 0. -1.
</event>
<event>
 8    1  0.1176534E+005  0.1043930E+01  0.7957747E-01            NaN
         13   -1    0    0    0    0  0.00000000000E+00  0.00000000000E+00  0.74505805969E-08  0.10566000000E+00  0.10566000000E+00 0.  1.
     999900   -1    0    0    0    0 -0.00000000000E+00 -0.00000000000E+00 -0.74505805969E-08  0.93827000000E+00  0.93827000000E+00 0.  1.
     999902    2    1    2    0    0  0.11345126268E-01 -0.44385237060E-02 -0.21672157016E-01  0.10190684881E+01  0.10187651784E+01 0.  0.
     999903    2    3    3    0    0  0.27758074912E-01 -0.37810430143E-01 -0.12220274998E+00  0.13256441643E+00  0.20968382172E-01 0.  0.
         14    1    1    2    0    0 -0.11345126268E-01  0.44385237060E-02  0.21672157016E-01  0.24861511870E-01  0.00000000000E+00 0.  1.
     999901    1    3    3    0    0 -0.16412948644E-01  0.33371906437E-01  0.10053059296E+00  0.88650407170E+00  0.88000000000E+00 0. -1.
        -11    1    4    4    0    0  0.14302266313E-01 -0.31209315939E-01 -0.10034810101E+00  0.10605931699E+00  0.51100000000E-03 0.  1.
         11    1    4    4    0    0  0.13455808599E-01 -0.66011142033E-02 -0.21854648962E-01  0.26505099435E-01  0.51100000000E-03 0. -1.
</event>
<event>
 8    1  0.1176534E+005  0.1043930E+01  0.7957747E-01            NaN
         13   -1    0    0    0    0  0.00000000000E+00  0.00000000000E+00  0.74505805969E-08  0.10566000000E+00  0.10566000000E+00 0.  1.
     999900   -1    0    0    0    0 -0.00000000000E+00 -0.00000000000E+00 -0.74505805969E-08  0.93827000000E+00  0.93827000000E+00 0.  1.
     999902    2    1    2    0    0  0.25186774364E-02  0.11162900527E-01 -0.20446698947E-01  0.10204987904E+01  0.10202297583E+01 0.  0.
     999903    2    3    3    0    0  0.11021199730E+00 -0.26804997692E-01  0.59274434483E-01  0.12954712420E+00  0.20094938538E-01 0.  0.
         14    1    1    2    0    0 -0.25186774364E-02 -0.11162900527E-01  0.20446698947E-01  0.23431209572E-01  0.00000000000E+00 0.  1.
     999901    1    3    3    0    0 -0.10769331986E+00  0.37967898219E-01 -0.79721133430E-01  0.89095166623E+00  0.88000000000E+00 0.  1.
        -11    1    4    4    0    0  0.14662192125E-01 -0.36317847873E-02  0.16347370223E-01  0.22263588499E-01  0.51100000000E-03 0.  1.
         11    1    4    4    0    0  0.95549805176E-01 -0.23173212904E-01  0.42927064260E-01  0.10728353570E+00  0.51100000000E-03 0. -1.
</event>
<event>
 7    1  0.1456091E+005  0.1043930E+01  0.7957747E-01            NaN
         13   -1    0    0    0    0  0.00000000000E+00  0.00000000000E+00  0.74505805969E-08  0.10566000000E+00  0.10566000000E+00 0.  1.
     999900   -1    0    0    0    0 -0.00000000000E+00 -0.00000000000E+00 -0.74505805969E-08  0.93827000000E+00  0.93827000000E+00 0. -1.
     999903    2    1    2    0    0  0.63469958683E-01 -0.13222027856E-01  0.94069154421E-01  0.11596762186E+00  0.19905422150E-01 0.  0.
         14    1    1    2    0    0  0.90812971508E-02  0.37504905110E-01  0.57731222305E-02  0.39018159946E-01  0.00000000000E+00 0. -1.
     999901    1    1    2    0    0 -0.72551255834E-01 -0.24282877254E-01 -0.99842276651E-01  0.88894421819E+00  0.88000000000E+00 0. -1.
        -11    1    3    3    0    0  0.39489059929E-01 -0.16795203272E-01  0.52136274640E-01  0.67527157214E-01  0.51100000000E-03 0. -1.
         11    1    3    3    0    0  0.23980898754E-01  0.35731754161E-02  0.41932879781E-01  0.48440464648E-01  0.51100000000E-03 0.  1.
</event>
<event>
 8    1  0.1176534E+005  0.1043930E+01  0.7957747E-01            NaN
         13   -1    0    0    0    0  0.00000000000E+00  0.00000000000E+00  0.74505805969E-08  0.10566000000E+00  0.10566000000E+00 0. -1.
     999900   -1    0    0    0    0 -0.00000000000E+00 -0.00000000000E+00 -0.74505805969E-08  0.93827000000E+00  0.93827000000E+00 0. -1.
     999902    2    1    2    0    0  0.12334536298E-02 -0.70423305941E-03 -0.23565965172E-01  0.10203212714E+01  0.10200480993E+01 0.  0.
     999903    2    3    3    0    0 -0.30824428056E-01 -0.11511318424E+00  0.46787387402E-01  0.12955378764E+00  0.19847763614E-01 0.  0.
         14    1    1    2    0    0 -0.12334536298E-02  0.70423305941E-03  0.23565965172E-01  0.23608728610E-01  0.00000000000E+00 0. -1.
     999901    1    3    3    0    0  0.32057881686E-01  0.11440895118E+00 -0.70353352575E-01  0.89076748375E+00  0.88000000000E+00 0.  1.
        -11    1    4    4    0    0 -0.28536152811E-01 -0.70258436603E-01  0.31353138161E-01  0.82059980043E-01  0.51100000000E-03 0. -1.
         11    1    4    4    0    0 -0.22882752453E-02 -0.44854747639E-01  0.15434249241E-01  0.47493807597E-01  0.51100000000E-03 0.  1.
</event>
<event>
 8    1  0.1176534E+005  0.1043930E+01  0.7957747E-01            NaN
         13   -1    0    0    0    0  0.00000000000E+00  0.00000000000E+00  0.74505805969E-08  0.10566000000E+00  0.10566000000E+00 0.  1.
     999900   -1    0    0    0    0 -0.00000000000E+00 -0.00000000000E+00 -0.74505805969E-08  0.93827000000E+00  0.93827000000E+00 0. -1.
     999902    2    1    2    0    0  0.41637013410E-02  0.20244786554E-01  0.11456015609E-01  0.10202989170E+01  0.10200252212E+01 0.  0.
     999903    2    3    3    0    0  0.55279935017E-01  0.11282369601E+00 -0.37640774369E-01  0.13260853254E+00  0.19573896165E-01 0.  0.
         14    1    1    2    0    0 -0.41637013410E-02 -0.20244786554E-01 -0.11456015609E-01  0.23631083029E-01  0.00000000000E+00 0. -1.
     999901    1    3    3    0    0 -0.51116233676E-01 -0.92578909456E-01  0.49096789977E-01  0.88769038443E+00  0.88000000000E+00 0.  1.
        -11    1    4    4    0    0  0.43792749752E-01  0.98107102734E-01 -0.37909137350E-01  0.11393055935E+00  0.51100000000E-03 0. -1.
         11    1    4    4    0    0  0.11487185265E-01  0.14716593276E-01  0.26836298125E-03  0.18677973194E-01  0.51100000000E-03 0.  1.
</event>
<event>
 8    1  0.1176534E+005  0.1043930E+01  0.7957747E-01            NaN
         13   -1    0    0    0    0  0.00000000000E+00  0.00000000000E+00  0.74505805969E-08  0.10566000000E+00  0.10566000000E+00 0. -1.
     999900   -1    0    0    0    0 -0.00000000000E+00 -0.00000000000E+00 -0.74505805969E-08  0.93827000000E+00  0.93827000000E+00 0.  1.
     999902    2    1    2    0    0  0.11061171515E-01  0.28301305262E-02 -0.20023899748E-01  0.10208797133E+01  0.10206194557E+01 0.  0.
     999903    2    3    3    0    0 -0.31779388067E-01  0.11874641629E+00 -0.43267358684E-01  0.13194093185E+00  0.20632602430E-01 0.  0.
         14    1    1    2    0    0 -0.11061171515E-01 -0.28301305262E-02  0.20023899748E-01  0.23050286662E-01  0.00000000000E+00 0. -1.
     999901    1    3    3    0    0  0.42840559582E-01 -0.11591628576E+00  0.23243458936E-01  0.88893878149E+00  0.88000000000E+00 0.  1.
        -11    1    4    4    0    0 -0.22128249200E-01  0.74458018133E-01 -0.37462545355E-01  0.86240125826E-01  0.51100000000E-03 0.  1.
         11    1    4    4    0    0 -0.96511388671E-02  0.44288398154E-01 -0.58048133288E-02  0.45700806024E-01  0.51100000000E-03 0. -1.
</event>
<event>
 8    1  0.1176534E+005  0.1043930E+01  0.7957747E-01            NaN
         13   -1    0    0    0    0  0.00000000000E+00  0.00000000000E+00  0.74505805969E-08  0.10566000000E+00  0.10566000000E+00 0. -1.
     999900   -1    0    0    0    0 -0.00000000000E+00 -0.00000000000E+00 -0.74505805969E-08  0.93827000000E+00  0.93827000000E+00 0. -1.
     999902    2    1    2    0    0  0.11571019528E-01  0.21328016010E-01  0.60919492796E-02  0.10189123141E+01  0.10186051341E+01 0.  0.
     999903    2    3    3    0    0  0.84845901621E-01 -0.13853046737E-02  0.97508632971E-01  0.13085707186E+00  0.20368938628E-01 0.  0.
         14    1    1    2    0    0 -0.11571019528E-01 -0.21328016010E-01 -0.60919492796E-02  0.25017685862E-01  0.00000000000E+00 0.  1.
     999901    1    3    3    0    0 -0.73274882093E-01  0.22713320684E-01 -0.91416683691E-01  0.88805524228E+00  0.88000000000E+00 0. -1.
        -11    1    4    4    0    0  0.39207032354E-01 -0.64351927111E-02  0.57850537494E-01  0.70182254884E-01  0.51100000000E-03 0. -1.
         11    1    4    4    0    0  0.45638869267E-01  0.50498880374E-02  0.39658095477E-01  0.60674816976E-01  0.51100000000E-03 0.  1.
</event>
<event>
 8    1  0.1176534E+005  0.1043930E+01  0.7957747E-01            NaN
         13   -1    0    0    0    0  0.00000000000E+00  0.00000000000E+00  0.74505805969E-08  0.10566000000E+00  0.10566000000E+00 0.  1.
     999900   -1    0    0    0    0 -0.00000000000E+00 -0.00000000000E+00 -0.74505805969E-08  0.93827000000E+00  0.93827000000E+00 0.  1.
     999902    2    1    2    0    0 -0.14717769459E-01  0.16147589338E-01 -0.10826373192E-01  0.10195462403E+01  0.10192546141E+01 0.  0.
     999903    2    3    3    0    0 -0.70539996635E-01  0.80331470101E-01 -0.76479929132E-01  0.13301023936E+00  0.20334896161E-01 0.  0.
         14    1    1    2    0    0  0.14717769459E-01 -0.16147589338E-01  0.10826373192E-01  0.24383759672E-01  0.00000000000E+00 0.  1.
     999901    1    3    3    0    0  0.55822227176E-01 -0.64183880764E-01  0.65653555940E-01  0.88653600096E+00  0.88000000000E+00 0. -1.
        -11    1    4    4    0    0 -0.55825625453E-01  0.71332628400E-01 -0.57173336258E-01  0.10711627249E+00  0.51100000000E-03 0. -1.
         11    1    4    4    0    0 -0.14714371182E-01  0.89988417015E-02 -0.19306592874E-01  0.25893966878E-01  0.51100000000E-03 0.  1.
</event>
<event>
 8    1  0.1176534E+005  0.1043930E+01  0.7957747E-01            NaN
         13   -1    0    0    0    0  0.00000000000E+00  0.00000000000E+00  0.74505805969E-08  0.10566000000E+00  0.10566000000E+00 0.  1.
     999900   -1    0    0    0    0 -0.00000000000E+00 -0.00000000000E+00 -0.74505805969E-08  0.93827000000E+00  0.93827000000E+00 0. -1.
     999902    2    1    2    0    0  0.21539050514E-01  0.31911422972E-02 -0.89483992118E-02  0.10203888035E+01  0.10201172101E+01 0.  0.
     999903    2    3    3    0    0 -0.92163976197E-01  0.26557175216E-01  0.82444351271E-01  0.12807328492E+00  0.20154731217E-01 0.  0.
         14    1    1    2    0    0 -0.21539050514E-01 -0.31911422972E-02  0.89483992118E-02  0.23541196543E-01  0.00000000000E+00 0.  1.
     999901    1    3    3    0    0  0.11370302671E+00 -0.23366032919E-01 -0.91392750483E-01  0.89231551854E+00  0.88000000000E+00 0. -1.
        -11    1    4    4    0    0 -0.32667161290E-01  0.18092740505E-01  0.38381736015E-01  0.53552866088E-01  0.51100000000E-03 0.  1.
         11    1    4    4    0    0 -0.59496814907E-01  0.84644347111E-02  0.44062615256E-01  0.74520418834E-01  0.51100000000E-03 0. -1.
</event>
<event>
 8    1  0.1176534E+005  0.1043930E+01  0.7957747E-01            NaN
         13   -1    0    0    0    0  0.00000000000E+00  0.00000000000E+00  0.74505805969E-08  0.10566000000E+00  0.10566000000E+00 0.  1.
     999900   -1    0    0    0    0 -0.00000000000E+00 -0.00000000000E+00 -0.74505805969E-08  0.93827000000E+00  0.93827000000E+00 0.  1.
     999902    2    1    2    0    0  0.94190700453E-02  0.20635934227E-01  0.36104173067E-02  0.10209605469E+01  0.10207021322E+01 0.  0.
     999903    2    3    3    0    0 -0.83387413148E-01 -0.63163932945E-02  0.97598890604E-01  0.13069468528E+00  0.23710753196E-01 0.  0.
         14    1    1    2    0    0 -0.94190700453E-02 -0.20635934227E-01 -0.36104173067E-02  0.22969453086E-01  0.00000000000E+00 0. -1.
     999901    1    3    3    0    0  0.92806483193E-01  0.26952327521E-01 -0.93988473297E-01  0.89026586164E+00  0.88000000000E+00 0.  1.
        -11    1    4    4    0    0 -0.33847316061E-01 -0.33477336187E-02  0.57842095283E-01  0.67103034452E-01  0.51100000000E-03 0.  1.
         11    1    4    4    0    0 -0.49540097087E-01 -0.29686596758E-02  0.39756795321E-01  0.63591650826E-01  0.51100000000E-03 0. -1.
</event>
<event>
 8    1  0.1176534E+005  0.1043930E+01  0.7957747E-01            NaN
         13   -1    0    0    0    0  0.00000000000E+00  0.00000000000E+00  0.74505805969E-08  0.10566000000E+00  0.10566000000E+00 0.  1.
     999900   -1    0    0    0    0 -0.00000000000E+00 -0.00000000000E+00 -0.74505805969E-08  0.93827000000E+00  0.93827000000E+00 0.  1.
     999902    2    1    2    0    0 -0.19069863615E-01 -0.92473872188E-02  0.11622996554E-01  0.10197583654E+01  0.10194718515E+01 0.  0.
     999903    2    3    3    0    0 -0.10896353884E+00 -0.72630244297E-01  0.11608672026E-01  0.13291099434E+00  0.19554180265E-01 0.  0.
         14    1    1    2    0    0  0.19069863615E-01  0.92473872188E-02 -0.11622996554E-01  0.24171634566E-01  0.00000000000E+00 0.  1.
     999901    1    3    3    0    0  0.89893675226E-01  0.63382857078E-01  0.14324528544E-04  0.88684737110E+00  0.88000000000E+00 0.  1.
        -11    1    4    4    0    0 -0.82891967619E-01 -0.57066047233E-01  0.17013994775E-01  0.10206541619E+00  0.51100000000E-03 0.  1.
         11    1    4    4    0    0 -0.26071571223E-01 -0.15564197064E-01 -0.54053227496E-02  0.30845578148E-01  0.51100000000E-03 0. -1.
</event>
<event>
 7    1  0.1176534E+005  0.1043930E+01  0.7957747E-01            NaN
         13   -1    0    0    0    0  0.00000000000E+00  0.00000000000E+00  0.74505805969E-08  0.10566000000E+00  0.10566000000E+00 0.  1.
     999900   -1    0    0    0    0 -0.00000000000E+00 -0.00000000000E+00 -0.74505805969E-08  0.93827000000E+00  0.93827000000E+00 0. -1.
     999902    2    1    2    0    0 -0.35855899076E-03 -0.13972202510E-02 -0.22642012931E-01  0.10212420839E+01  0.10209900354E+01 0.  0.
         14    1    1    2    0    0  0.35855899076E-03  0.13972202510E-02  0.22642012931E-01  0.22687916135E-01  0.00000000000E+00 0.  1.
     999901    1    3    3    0    0  0.12991898026E+00 -0.13672684109E-01 -0.29573069987E-01  0.89013507413E+00  0.88000000000E+00 0.  1.
        -11    1    3    3    0    0 -0.90292399502E-01  0.97303755379E-02  0.33576182862E-02  0.90878668221E-01  0.51100000000E-03 0. -1.
         11    1    3    3    0    0 -0.39985139752E-01  0.25450883202E-02  0.35734387699E-02  0.40228341517E-01  0.51100000000E-03 0.  1.
</event>
<event>
 8    1  0.1176534E+005  0.1043930E+01  0.7957747E-01            NaN
         13   -1    0    0    0    0  0.00000000000E+00  0.00000000000E+00  0.74505805969E-08  0.10566000000E+00  0.10566000000E+00 0.  1.
     999900   -1    0    0    0    0 -0.00000000000E+00 -0.00000000000E+00 -0.74505805969E-08  0.93827000000E+00  0.93827000000E+00 0. -1.
     999902    2    1    2    0    0 -0.52119366948E-02 -0.13936081701E-01  0.19185830159E-01  0.10196508992E+01  0.10193618011E+01 0.  0.
     999903    2    3    3    0    0  0.48355920100E-01 -0.10379837613E+00 -0.58547766426E-01  0.13005140544E+00  0.19316552680E-01 0.  0.
         14    1    1    2    0    0  0.52119366948E-02  0.13936081701E-01 -0.19185830159E-01  0.24279100811E-01  0.00000000000E+00 0. -1.
     999901    1    3    3    0    0 -0.53567856795E-01  0.89862294429E-01  0.77733596585E-01  0.88959949375E+00  0.88000000000E+00 0.  1.
        -11    1    4    4    0    0  0.13567152832E-01 -0.24062410203E-01 -0.55407507451E-02  0.28178507068E-01  0.51100000000E-03 0.  1.
         11    1    4    4    0    0  0.34788767268E-01 -0.79735965927E-01 -0.53007015681E-01  0.10187289837E+00  0.51100000000E-03 0. -1.
</event>
<event>
 8    1  0.1176534E+005  0.1043930E+01  0.7957747E-01            NaN
         13   -1    0    0    0    0  0.00000000000E+00  0.00000000000E+00  0.74505805969E-08  0.10566000000E+00  0.10566000000E+00 0.  1.
     999900   -1    0    0    0    0 -0.00000000000E+00 -0.00000000000E+00 -0.74505805969E-08  0.93827000000E+00  0.93827000000E+00 0.  1.
     999902    2    1    2    0    0 -0.15638284154E-02  0.15573124023E-02  0.22856109859E-01  0.10209675842E+01  0.10207093296E+01 0.  0.
     999903    2    3    3    0    0  0.32704455274E-01 -0.54512401079E-01  0.11582225694E+00  0.13363403219E+00  0.20051835074E-01 0.  0.
         14    1    1    2    0    0  0.15638284154E-02 -0.15573124023E-02 -0.22856109859E-01  0.22962415795E-01  0.00000000000E+00 0. -1.
     999901    1    3    3    0    0 -0.34268283689E-01  0.56069713481E-01 -0.92966147079E-01  0.88733355202E+00  0.88000000000E+00 0.  1.
        -11    1    4    4    0    0  0.15624118113E-01 -0.22003903283E-01  0.69242072302E-01  0.74316959869E-01  0.51100000000E-03 0.  1.
         11    1    4    4    0    0  0.17080337161E-01 -0.32508497796E-01  0.46580184636E-01  0.59317072317E-01  0.51100000000E-03 0. -1.
</event>
<event>
 8    1  0.1176534E+005  0.1043930E+01  0.7957747E-01            NaN
         13   -1    0    0    0    0  0.00000000000E+00  0.00000000000E+00  0.74505805969E-08  0.10566000000E+00  0.10566000000E+00 0. -1.
     999900   -1    0    0    0    0 -0.00000000000E+00 -0.00000000000E+00 -0.74505805969E-08  0.93827000000E+00  0.93827000000E+00 0. -1.
     999902    2    1    2    0    0 -0.60097829832E-02  0.19610330899E-02  0.24131396623E-01  0.10189843101E+01  0.10186789174E+01 0.  0.
     999903    2    3    3    0    0  0.61435911861E-01  0.31686255300E-01 -0.10413017067E+00  0.12663710175E+00  0.20383156140E-01 0.  0.
         14    1    1    2    0    0  0.60097829832E-02 -0.19610330899E-02 -0.24131396623E-01  0.24945689914E-01  0.00000000000E+00 0.  1.
     999901    1    3    3    0    0 -0.67445694844E-01 -0.29725222210E-01  0.12826156729E+00  0.89234720834E+00  0.88000000000E+00 0.  1.
        -11    1    4    4    0    0  0.24265543836E-01  0.16060032049E-01 -0.27479940262E-01  0.40026859543E-01  0.51100000000E-03 0.  1.
         11    1    4    4    0    0  0.37170368025E-01  0.15626223251E-01 -0.76650230406E-01  0.86610242203E-01  0.51100000000E-03 0. -1.
</event>
<event>
 8    1  0.1176534E+005  0.1043930E+01  0.7957747E-01            NaN
         13   -1    0    0    0    0  0.00000000000E+00  0.00000000000E+00  0.74505805969E-08  0.10566000000E+00  0.10566000000E+00 0. -1.
     999900   -1    0    0    0    0 -0.00000000000E+00 -0.00000000000E+00 -0.74505805969E-08  0.93827000000E+00  0.93827000000E+00 0. -1.
     999902    2    1    2    0    0  0.22168987534E-01  0.21814846335E-02 -0.63985186084E-02  0.10207532029E+01  0.10204900476E+01 0.  0.
     999903    2    3    3    0    0 -0.81257797398E-01 -0.19637500907E-01 -0.97508172835E-01  0.12975705416E+00  0.18455033331E-01 0.  0.
         14    1    1    2    0    0 -0.22168987534E-01 -0.21814846335E-02  0.63985186084E-02  0.23176797101E-01  0.00000000000E+00 0.  1.
     999901    1    3    3    0    0  0.10342678493E+00  0.21818985541E-01  0.91109654226E-01  0.89099614874E+00  0.88000000000E+00 0.  1.
        -11    1    4    4    0    0 -0.61235489548E-01 -0.63338668290E-02 -0.70403312641E-01  0.93524278136E-01  0.51100000000E-03 0.  1.
         11    1    4    4    0    0 -0.20022307851E-01 -0.13303634078E-01 -0.27104860194E-01  0.36232776025E-01  0.51100000000E-03 0. -1.
</event>
<event>
 8    1  0.1176534E+005  0.1043930E+01  0.7957747E-01            NaN
         13   -1    0    0    0    0  0.00000000000E+00  0.00000000000E+00  0.74505805969E-08  0.10566000000E+00  0.10566000000E+00 0.  1.
     999900   -1    0    0    0    0 -0.00000000000E+00 -0.00000000000E+00 -0.74505805969E-08  0.93827000000E+00  0.93827000000E+00 0. -1.
     999902    2    1    2    0    0 -0.16636255518E-01 -0.16461070876E-01  0.42209254240E-02  0.10201487455E+01  0.10198715189E+01 0.  0.
     999903    2    3    3    0    0 -0.12896580151E+00  0.12212189591E-01  0.18833760216E-01  0.13242490464E+00  0.20008231129E-01 0.  0.
         14    1    1    2    0    0  0.16636255518E-01  0.16461070876E-01 -0.42209254240E-02  0.23781254455E-01  0.00000000000E+00 0. -1.
     999901    1    3    3    0    0  0.11232954599E+00 -0.28673260467E-01 -0.14612834792E-01  0.88772384090E+00  0.88000000000E+00 0.  1.
        -11    1    4    4    0    0 -0.49085777925E-01 -0.99589793205E-03 -0.82805098027E-03  0.49105521040E-01  0.51100000000E-03 0.  1.
         11    1    4    4    0    0 -0.79880023580E-01  0.13208087523E-01  0.19661811196E-01  0.83319383601E-01  0.51100000000E-03 0. -1.
</event>
<event>
 8    1  0.1176534E+005  0.1043930E+01  0.7957747E-01            NaN
         13   -1    0    0    0    0  0.00000000000E+00  0.00000000000E+00  0.74505805969E-08  0.10566000000E+00  0.10566000000E+00 0.  1.
     999900   -1    0    0    0    0 -0.00000000000E+00 -0.00000000000E+00 -0.74505805969E-08  0.93827000000E+00  0.93827000000E+00 0.  1.
     999902    2    1    2    0    0  0.98863881888E-02  0.16542282757E-01 -0.38166588001E-02  0.10242842708E+01  0.10240958514E+01 0.  0.
     999903    2    3    3    0    0 -0.55307053356E-01  0.11524221864E+00  0.39564156611E-01  0.13531084192E+00  0.20101302065E-01 0.  0.
         14    1    1    2    0    0 -0.98863881888E-02 -0.16542282757E-01  0.38166588001E-02  0.19645729170E-01  0.00000000000E+00 0. -1.
     999901    1    3    3    0    0  0.65193441545E-01 -0.98699935882E-01 -0.43380815411E-01  0.88897342891E+00  0.88000000000E+00 0.  1.
        -11    1    4    4    0    0 -0.38275151704E-01  0.88092340017E-01  0.37762539614E-01  0.10320619229E+00  0.51100000000E-03 0.  1.
         11    1    4    4    0    0 -0.17031901652E-01  0.27149878622E-01  0.18016169969E-02  0.32104649630E-01  0.51100000000E-03 0. -1.
</event>
<event>
 7    1  0.1176534E+005  0.1043930E+01  0.7957747E-01            NaN
         13   -1    0    0    0    0  0.00000000000E+00  0.00000000000E+00  0.74505805969E-08  0.10566000000E+00  0.10566000000E+00 0. -1.
     999900   -1    0    0    0    0 -0.00000000000E+00 -0.00000000000E+00 -0.74505805969E-08  0.93827000000E+00  0.93827000000E+00 0.  1.
     999903    2    1    2    0    0  0.34498244560E-01 -0.77582405908E-01  0.55904465959E-01  0.10362786179E+00  0.20106363198E-01 0.  0.
         14    1    1    2    0    0 -0.16826481743E-01  0.16594963544E-01 -0.52977135356E-01  0.58009483479E-01  0.00000000000E+00 0.  1.
     999901    1    1    2    0    0 -0.17671762817E-01  0.60987442363E-01 -0.29273306025E-02  0.88229265473E+00  0.88000000000E+00 0. -1.
        -11    1    3    3    0    0  0.41089993283E-02 -0.10139288528E-01  0.16522642148E-01  0.19822912801E-01  0.51100000000E-03 0. -1.
         11    1    3    3    0    0  0.30389245232E-01 -0.67443117379E-01  0.39381823810E-01  0.83804948990E-01  0.51100000000E-03 0.  1.
</event>
<event>
 8    1  0.1176534E+005  0.1043930E+01  0.7957747E-01            NaN
         13   -1    0    0    0    0  0.00000000000E+00  0.00000000000E+00  0.74505805969E-08  0.10566000000E+00  0.10566000000E+00 0.  1.
     999900   -1    0    0    0    0 -0.00000000000E+00 -0.00000000000E+00 -0.74505805969E-08  0.93827000000E+00  0.93827000000E+00 0. -1.
     999902    2    1    2    0    0  0.10714471967E-01 -0.17661908691E-01 -0.11041951543E-01  0.10205063448E+01  0.10202374881E+01 0.  0.
     999903    2    3    3    0    0 -0.12229151726E+00 -0.30311125225E-01  0.23476471223E-01  0.12975266542E+00  0.20264006910E-01 0.  0.
         14    1    1    2    0    0 -0.10714471967E-01  0.17661908691E-01  0.11041951543E-01  0.23423655180E-01  0.00000000000E+00 0.  1.
     999901    1    3    3    0    0  0.13300598923E+00  0.12649216534E-01 -0.34518422766E-01  0.89075367940E+00  0.88000000000E+00 0.  1.
        -11    1    4    4    0    0 -0.65656235709E-01 -0.13794444741E-01  0.25015868879E-02  0.67138268157E-01  0.51100000000E-03 0. -1.
         11    1    4    4    0    0 -0.56635281555E-01 -0.16516680484E-01  0.20974884336E-01  0.62614397265E-01  0.51100000000E-03 0.  1.
</event>
<event>
 8    1  0.1176534E+005  0.1043930E+01  0.7957747E-01            NaN
         13   -1    0    0    0    0  0.00000000000E+00  0.00000000000E+00  0.74505805969E-08  0.10566000000E+00  0.10566000000E+00 0. -1.
     999900   -1    0    0    0    0 -0.00000000000E+00 -0.00000000000E+00 -0.74505805969E-08  0.93827000000E+00  0.93827000000E+00 0.  1.
     999902    2    1    2    0    0 -0.17024448569E-01  0.48290392114E-02  0.15258168415E-01  0.10205641452E+01  0.10202966290E+01 0.  0.
     999903    2    3    3    0    0 -0.10288986085E+00  0.78493642034E-01 -0.20884954912E-01  0.13258572871E+00  0.19880110886E-01 0.  0.
         14    1    1    2    0    0  0.17024448569E-01 -0.48290392114E-02 -0.15258168415E-01  0.23365854834E-01  0.00000000000E+00 0.  1.
     999901    1    3    3    0    0  0.85865412283E-01 -0.73664602822E-01  0.36143123327E-01  0.88797841646E+00  0.88000000000E+00 0. -1.
        -11    1    4    4    0    0 -0.86137859009E-01  0.64442834982E-01 -0.24721688082E-01  0.11038130602E+00  0.51100000000E-03 0. -1.
         11    1    4    4    0    0 -0.16752001843E-01  0.14050807052E-01  0.38367331704E-02  0.22204422690E-01  0.51100000000E-03 0.  1.
</event>
<event>
 8    1  0.1176534E+005  0.1043930E+01  0.7957747E-01            NaN
         13   -1    0    0    0    0  0.00000000000E+00  0.00000000000E+00  0.74505805969E-08  0.10566000000E+00  0.10566000000E+00 0.  1.
     999900   -1    0    0    0    0 -0.00000000000E+00 -0.00000000000E+00 -0.74505805969E-08  0.93827000000E+00  0.93827000000E+00 0.  1.
     999902    2    1    2    0    0 -0.10718411694E-01 -0.90950091983E-02  0.21048872446E-01  0.10186187659E+01  0.10183042432E+01 0.  0.
     999903    2    3    3    0    0 -0.77196425565E-01 -0.40181724281E-01 -0.93880608975E-01  0.12811638189E+00  0.51360959284E-02 0.  0.
         14    1    1    2    0    0  0.10718411694E-01  0.90950091983E-02 -0.21048872446E-01  0.25311234123E-01  0.00000000000E+00 0. -1.
     999901    1    3    3    0    0  0.66478013871E-01  0.31086715083E-01  0.11492948142E+00  0.89050238398E+00  0.88000000000E+00 0. -1.
        -11    1    4    4    0    0 -0.60910917770E-01 -0.33779602729E-01 -0.73891395161E-01  0.10154506814E+00  0.51100000000E-03 0. -1.
         11    1    4    4    0    0 -0.16285507796E-01 -0.64021215527E-02 -0.19989213814E-01  0.26571313751E-01  0.51100000000E-03 0.  1.
</event>
<event>
 8    1  0.1176534E+005  0.1043930E+01  0.7957747E-01            NaN
         13   -1    0    0    0    0  0.00000000000E+00  0.00000000000E+00  0.74505805969E-08  0.10566000000E+00  0.10566000000E+00 0.  1.
     999900   -1    0    0    0    0 -0.00000000000E+00 -0.00000000000E+00 -0.74505805969E-08  0.93827000000E+00  0.93827000000E+00 0.  1.
     999902    2    1    2    0    0 -0.81405373534E-02 -0.72587529770E-03  0.24681200337E-01  0.10179308290E+01  0.10175987499E+01 0.  0.
     999903    2    3    3    0    0  0.84884575302E-01 -0.88830327344E-01  0.31795947455E-01  0.12862397211E+00  0.20902768886E-01 0.  0.
         14    1    1    2    0    0  0.81405373534E-02  0.72587529770E-03 -0.24681200337E-01  0.25999171014E-01  0.00000000000E+00 0. -1.
     999901    1    3    3    0    0 -0.93025112656E-01  0.88104452047E-01 -0.71147471177E-02  0.88930685687E+00  0.88000000000E+00 0.  1.
        -11    1    4    4    0    0  0.77175020044E-01 -0.75821784692E-01  0.21454304598E-01  0.11029721238E+00  0.51100000000E-03 0. -1.
         11    1    4    4    0    0  0.77095552589E-02 -0.13008542652E-01  0.10341642856E-01  0.18326759730E-01  0.51100000000E-03 0.  1.
</event>
<event>
 8    1  0.1176534E+005  0.1043930E+01  0.7957747E-01            NaN
         13   -1    0    0    0    0  0.00000000000E+00  0.00000000000E+00  0.74505805969E-08  0.10566000000E+00  0.10566000000E+00 0. -1.
     999900   -1    0    0    0    0 -0.00000000000E+00 -0.00000000000E+00 -0.74505805969E-08  0.93827000000E+00  0.93827000000E+00 0.  1.
     999902    2    1    2    0    0  0.21091426244E-01 -0.52925667405E-02  0.85900356881E-02  0.10205494902E+01  0.10202816345E+01 0.  0.
     999903    2    3    3    0    0 -0.73382902793E-02 -0.10982682636E+00 -0.67630683728E-01  0.13063642803E+00  0.19395480240E-01 0.  0.
         14    1    1    2    0    0 -0.21091426244E-01  0.52925667405E-02 -0.85900356881E-02  0.23380509764E-01  0.00000000000E+00 0. -1.
     999901    1    3    3    0    0  0.28429716523E-01  0.10453425962E+00  0.76220719416E-01  0.88991306221E+00  0.88000000000E+00 0. -1.
        -11    1    4    4    0    0  0.48570585095E-02 -0.29486823992E-01 -0.24444900521E-01  0.38611890513E-01  0.51100000000E-03 0.  1.
         11    1    4    4    0    0 -0.12195348789E-01 -0.80340002370E-01 -0.43185783207E-01  0.92024537517E-01  0.51100000000E-03 0. -1.
</event>
<event>
 8    1  0.1176534E+005  0.1043930E+01  0.7957747E-01            NaN
         13   -1    0    0    0    0  0.00000000000E+00  0.00000000000E+00  0.74505805969E-08  0.10566000000E+00  0.10566000000E+00 0. -1.
     999900   -1    0    0    0    0 -0.00000000000E+00 -0.00000000000E+00 -0.74505805969E-08  0.93827000000E+00  0.93827000000E+00 0.  1.
     999902    2    1    2    0    0  0.20826391588E-01  0.12032289092E-01  0.71339790752E-02  0.10188419904E+01  0.10185330595E+01 0.  0.
     999903    2    3    3    0    0  0.88931939814E-01  0.95099684245E-01  0.98804592077E-02  0.13230597818E+00  0.21316860136E-01 0.  0.
         14    1    1    2    0    0 -0.20826391588E-01 -0.12032289092E-01 -0.71339790752E-02  0.25088009583E-01  0.00000000000E+00 0. -1.
     999901    1    3    3    0    0 -0.68105548226E-01 -0.83067395153E-01 -0.27464801325E-02  0.88653601224E+00  0.88000000000E+00 0.  1.
        -11    1    4    4    0    0  0.40339034324E-01  0.29575121227E-01 -0.82291085141E-03  0.50028629694E-01  0.51100000000E-03 0. -1.
         11    1    4    4    0    0  0.48592905490E-01  0.65524563018E-01  0.10703370059E-01  0.82277348488E-01  0.51100000000E-03 0.  1.
</event>
<event>
 8    1  0.1176534E+005  0.1043930E+01  0.7957747E-01            NaN
         13   -1    0    0    0    0  0.00000000000E+00  0.00000000000E+00  0.74505805969E-08  0.10566000000E+00  0.10566000000E+00 0. -1.
     999900   -1    0    0    0    0 -0.00000000000E+00 -0.00000000000E+00 -0.74505805969E-08  0.93827000000E+00  0.93827000000E+00 0.  1.
     999902    2    1    2    0    0 -0.16823807526E-01  0.10229389575E-01 -0.15103335569E-01  0.10191148503E+01  0.10188126846E+01 0.  0.
     999903    2    3    3    0    0  0.12114180620E+00  0.27353772328E-01  0.20781341395E-01  0.12747845291E+00  0.19882800056E-01 0.  0.
         14    1    1    2    0    0  0.16823807526E-01 -0.10229389575E-01  0.15103335569E-01  0.24815149729E-01  0.00000000000E+00 0. -1.
     999901    1    3    3    0    0 -0.13796561372E+00 -0.17124382753E-01 -0.35884676964E-01  0.89163639736E+00  0.88000000000E+00 0. -1.
        -11    1    4    4    0    0  0.64103890298E-01  0.23005840495E-01  0.16705092117E-01  0.70127731118E-01  0.51100000000E-03 0.  1.
         11    1    4    4    0    0  0.57037915897E-01  0.43479318323E-02  0.40762492784E-02  0.57350721794E-01  0.51100000000E-03 0. -1.
</event>
<event>
 8    1  0.1176534E+005  0.1043930E+01  0.7957747E-01            NaN
         13   -1    0    0    0    0  0.00000000000E+00  0.00000000000E+00  0.74505805969E-08  0.10566000000E+00  0.10566000000E+00 0.  1.
     999900   -1    0    0    0    0 -0.00000000000E+00 -0.00000000000E+00 -0.74505805969E-08  0.93827000000E+00  0.93827000000E+00 0.  1.
     999902    2    1    2    0    0  0.68733616944E-02  0.20076629621E-01  0.20885821620E-03  0.10227083653E+01  0.10224881626E+01 0.  0.
     999903    2    3    3    0    0 -0.68787386408E-01 -0.99073098417E-01 -0.45056983724E-01  0.13031259942E+00  0.20101204620E-01 0.  0.
         14    1    1    2    0    0 -0.68733616944E-02 -0.20076629621E-01 -0.20885821620E-03  0.21221634708E-01  0.00000000000E+00 0.  1.
     999901    1    3    3    0    0  0.75660748102E-01  0.11914972804E+00  0.45265841940E-01  0.89239576587E+00  0.88000000000E+00 0. -1.
        -11    1    4    4    0    0 -0.45200863566E-01 -0.76862259947E-01 -0.26745425646E-01  0.93094059882E-01  0.51100000000E-03 0. -1.
         11    1    4    4    0    0 -0.23586522842E-01 -0.22210838470E-01 -0.18311558078E-01  0.37218539540E-01  0.51100000000E-03 0.  1.
</event>
<event>
 8    1  0.1176534E+005  0.1043930E+01  0.7957747E-01            NaN
         13   -1    0    0    0    0  0.00000000000E+00  0.00000000000E+00  0.74505805969E-08  0.10566000000E+00  0.10566000000E+00 0. -1.
     999900   -1    0    0    0    0 -0.00000000000E+00 -0.00000000000E+00 -0.74505805969E-08  0.93827000000E+00  0.93827000000E+00 0. -1.
     999902    2    1    2    0    0 -0.22879262440E-01  0.77119816973E-03 -0.68996869355E-02  0.10200205651E+01  0.10197403063E+01 0.  0.
     999903    2    3    3    0    0  0.88494118038E-01 -0.98044772933E-04 -0.92563770979E-01  0.12887348368E+00  0.14460448068E-01 0.  0.
         14    1    1    2    0    0  0.22879262440E-01 -0.77119816973E-03  0.68996869355E-02  0.23909434879E-01  0.00000000000E+00 0. -1.
     999901    1    3    3    0    0 -0.11137338048E+00  0.86924294266E-03  0.85664084044E-01  0.89114708144E+00  0.88000000000E+00 0. -1.
        -11    1    4    4    0    0  0.53912165684E-01  0.36168358919E-02 -0.64756231970E-01  0.84339989392E-01  0.51100000000E-03 0. -1.
         11    1    4    4    0    0  0.34581952354E-01 -0.37148806648E-02 -0.27807539009E-01  0.44533494290E-01  0.51100000000E-03 0.  1.
</event>
<event>
 8    1  0.1176534E+005  0.1043930E+01  0.7957747E-01            NaN
         13   -1    0    0    0    0  0.00000000000E+00  0.00000000000E+00  0.74505805969E-08  0.10566000000E+00  0.10566000000E+00 0.  1.
     999900   -1    0    0    0    0 -0.00000000000E+00 -0.00000000000E+00 -0.74505805969E-08  0.93827000000E+00  0.93827000000E+00 0.  1.
     999902    2    1    2    0    0 -0.19906924076E-02 -0.19801877573E-01 -0.11794136675E-01  0.10207960667E+01  0.10205338950E+01 0.  0.
     999903    2    3    3    0    0  0.87810146117E-01  0.73792961557E-01 -0.57932693477E-01  0.13009243979E+00  0.20293422068E-01 0.  0.
         14    1    1    2    0    0  0.19906924076E-02  0.19801877573E-01  0.11794136675E-01  0.23133933336E-01  0.00000000000E+00 0. -1.
     999901    1    3    3    0    0 -0.89800838525E-01 -0.93594839130E-01  0.46138556802E-01  0.89070362688E+00  0.88000000000E+00 0. -1.
        -11    1    4    4    0    0  0.25078215628E-01  0.31726022185E-01 -0.14512333756E-01  0.42968899623E-01  0.51100000000E-03 0. -1.
         11    1    4    4    0    0  0.62731930489E-01  0.42066939372E-01 -0.43420359721E-01  0.87123540162E-01  0.51100000000E-03 0.  1.
</event>
<event>
 8    1  0.1176534E+005  0.1043930E+01  0.7957747E-01            NaN
         13   -1    0    0    0    0  0.00000000000E+00  0.00000000000E+00  0.74505805969E-08  0.10566000000E+00  0.10566000000E+00 0.  1.
     999900   -1    0    0    0    0 -0.00000000000E+00 -0.00000000000E+00 -0.74505805969E-08  0.93827000000E+00  0.93827000000E+00 0.  1.
     999902    2    1    2    0    0 -0.14635350803E-01 -0.87249679137E-02  0.16221584357E-01  0.10204043043E+01  0.10201330727E+01 0.  0.
     999903    2    3    3    0    0  0.84404711774E-01  0.78491825244E-01  0.55874807585E-01  0.12968095719E+00  0.20249309515E-01 0.  0.
         14    1    1    2    0    0  0.14635350803E-01  0.87249679137E-02 -0.16221584357E-01  0.23525695681E-01  0.00000000000E+00 0. -1.
     999901    1    3    3    0    0 -0.99040062577E-01 -0.87216793157E-01 -0.39653223228E-01  0.89072334713E+00  0.88000000000E+00 0.  1.
        -11    1    4    4    0    0  0.37629700134E-01  0.42907928149E-01  0.18354878628E-01  0.59952041839E-01  0.51100000000E-03 0.  1.
         11    1    4    4    0    0  0.46775011640E-01  0.35583897094E-01  0.37519928957E-01  0.69728915353E-01  0.51100000000E-03 0. -1.
</event>
<event>
 8    1  0.1176534E+005  0.1043930E+01  0.7957747E-01            NaN
         13   -1    0    0    0    0  0.00000000000E+00  0.00000000000E+00  0.74505805969E-08  0.10566000000E+00  0.10566000000E+00 0. -1.
     999900   -1    0    0    0    0 -0.00000000000E+00 -0.00000000000E+00 -0.74505805969E-08  0.93827000000E+00  0.93827000000E+00 0. -1.
     999902    2    1    2    0    0  0.45676110375E-02  0.51633606053E-02  0.22492405128E-01  0.10204048719E+01  0.10201336535E+01 0.  0.
     999903    2    3    3    0    0 -0.25325737853E-01  0.73153861408E-01  0.10655669588E+00  0.13328417804E+00  0.20431892774E-01 0.  0.
         14    1    1    2    0    0 -0.45676110375E-02 -0.51633606053E-02 -0.22492405128E-01  0.23525128093E-01  0.00000000000E+00 0.  1.
     999901    1    3    3    0    0  0.29893348890E-01 -0.67990500802E-01 -0.84064290752E-01  0.88712069387E+00  0.88000000000E+00 0. -1.
        -11    1    4    4    0    0 -0.13039023120E-01  0.61729569087E-01  0.87724214214E-01  0.10805718257E+00  0.51100000000E-03 0.  1.
         11    1    4    4    0    0 -0.12286714733E-01  0.11424292321E-01  0.18832481666E-01  0.25226995474E-01  0.51100000000E-03 0. -1.
</event>
<event>
 8    1  0.1176534E+005  0.1043930E+01  0.7957747E-01            NaN
         13   -1    0    0    0    0  0.00000000000E+00  0.00000000000E+00  0.74505805969E-08  0.10566000000E+00  0.10566000000E+00 0.  1.
     999900   -1    0    0    0    0 -0.00000000000E+00 -0.00000000000E+00 -0.74505805969E-08  0.93827000000E+00  0.93827000000E+00 0. -1.
     999902    2    1    2    0    0 -0.16519460410E-01  0.22149782166E-01 -0.22889508216E-01  0.10080491554E+01  0.10074103755E+01 0.  0.
     999903    2    3    3    0    0 -0.98755917029E-01  0.59587477405E-01 -0.38290893543E-01  0.12328838633E+00  0.20746929052E-01 0.  0.
         14    1    1    2    0    0  0.16519460410E-01 -0.22149782166E-01  0.22889508216E-01  0.35880844591E-01  0.00000000000E+00 0.  1.
     999901    1    3    3    0    0  0.82236456619E-01 -0.37437695239E-01  0.15401385327E-01  0.88476076907E+00  0.88000000000E+00 0.  1.
        -11    1    4    4    0    0 -0.31691768590E-01  0.28830054933E-01 -0.19934357838E-01  0.47256534017E-01  0.51100000000E-03 0.  1.
         11    1    4    4    0    0 -0.67064148438E-01  0.30757422471E-01 -0.18356535705E-01  0.76031852318E-01  0.51100000000E-03 0. -1.
</event>
<event>
 7    1  0.1176534E+005  0.1043930E+01  0.7957747E-01            NaN
         13   -1    0    0    0    0  0.00000000000E+00  0.00000000000E+00  0.74505805969E-08  0.10566000000E+00  0.10566000000E+00 0.  1.
     999900   -1    0    0    0    0 -0.00000000000E+00 -0.00000000000E+00 -0.74505805969E-08  0.93827000000E+00  0.93827000000E+00 0.  1.
     999902    2    1    2    0    0 -0.40090355148E-02 -0.22540107035E-01 -0.55184692704E-02  0.10203804290E+01  0.10201086401E+01 0.  0.
         14    1    1    2    0    0  0.40090355148E-02  0.22540107035E-01  0.55184692704E-02  0.23549570994E-01  0.00000000000E+00 0. -1.
     999901    1    3    3    0    0 -0.77539684789E-01 -0.10560329474E+00 -0.52703461510E-01  0.89125872418E+00  0.88000000000E+00 0.  1.
        -11    1    3    3    0    0  0.14246373889E-01  0.24243134101E-01 -0.77339287726E-02  0.29167850371E-01  0.51100000000E-03 0. -1.
         11    1    3    3    0    0  0.59284275385E-01  0.58820053602E-01  0.54918921012E-01  0.99953854452E-01  0.51100000000E-03 0.  1.
</event>
<event>
 8    1  0.1176534E+005  0.1043930E+01  0.7957747E-01            NaN
         13   -1    0    0    0    0  0.00000000000E+00  0.00000000000E+00  0.74505805969E-08  0.10566000000E+00  0.10566000000E+00 0. -1.
     999900   -1    0    0    0    0 -0.00000000000E+00 -0.00000000000E+00 -0.74505805969E-08  0.93827000000E+00  0.93827000000E+00 0.  1.
     999902    2    1    2    0    0  0.22070795440E-01  0.64681620563E-02 -0.11157086122E-01  0.10183675724E+01  0.10180466958E+01 0.  0.
     999903    2    3    3    0    0  0.10648787577E+00  0.74795770407E-01 -0.10142940353E-02  0.13163323695E+00  0.19804174336E-01 0.  0.
         14    1    1    2    0    0 -0.22070795440E-01 -0.64681620563E-02  0.11157086122E-01  0.25562427555E-01  0.00000000000E+00 0. -1.
     999901    1    3    3    0    0 -0.84417080328E-01 -0.68327608351E-01 -0.10142792086E-01  0.88673433549E+00  0.88000000000E+00 0. -1.
        -11    1    4    4    0    0  0.47934422554E-01  0.27991936583E-01  0.81731777129E-02  0.56109886243E-01  0.51100000000E-03 0. -1.
         11    1    4    4    0    0  0.58553453215E-01  0.46803833824E-01 -0.91874717482E-02  0.75523350708E-01  0.51100000000E-03 0.  1.
</event>
<event>
 8    1  0.1176534E+005  0.1043930E+01  0.7957747E-01            NaN
         13   -1    0    0    0    0  0.00000000000E+00  0.00000000000E+00  0.74505805969E-08  0.10566000000E+00  0.10566000000E+00 0.  1.
     999900   -1    0    0    0    0 -0.00000000000E+00 -0.00000000000E+00 -0.74505805969E-08  0.93827000000E+00  0.93827000000E+00 0.  1.
     999902    2    1    2    0    0 -0.45772754184E-02 -0.96759084744E-02  0.21203984277E-01  0.10201774506E+01  0.10199009006E+01 0.  0.
     999903    2    3    3    0    0  0.32129874287E-02  0.12550597412E+00 -0.21794890142E-01  0.12878318720E+00  0.18655273767E-01 0.  0.
         14    1    1    2    0    0  0.45772754184E-02  0.96759084744E-02 -0.21203984277E-01  0.23752549427E-01  0.00000000000E+00 0. -1.
     999901    1    3    3    0    0 -0.77902628471E-02 -0.13518188260E+00  0.42998874419E-01  0.89139426338E+00  0.88000000000E+00 0. -1.
        -11    1    4    4    0    0 -0.70439257706E-03  0.12422270121E-01  0.32970164393E-02  0.12881785678E-01  0.51100000000E-03 0. -1.
         11    1    4    4    0    0  0.39173800057E-02  0.11308370400E+00 -0.25091906581E-01  0.11590140152E+00  0.51100000000E-03 0.  1.
</event>
<event>
 8    1  0.1176534E+005  0.1043930E+01  0.7957747E-01            NaN
         13   -1    0    0    0    0  0.00000000000E+00  0.00000000000E+00  0.74505805969E-08  0.10566000000E+00  0.10566000000E+00 0. -1.
     999900   -1    0    0    0    0 -0.00000000000E+00 -0.00000000000E+00 -0.74505805969E-08  0.93827000000E+00  0.93827000000E+00 0. -1.
     999902    2    1    2    0    0 -0.11209125958E-01 -0.16345727037E-01  0.12283131246E-01  0.10206125685E+01  0.10203461728E+01 0.  0.
     999903    2    3    3    0    0 -0.87652033701E-01 -0.24225114224E-02  0.97426051284E-01  0.13309541889E+00  0.23104274210E-01 0.  0.
         14    1    1    2    0    0  0.11209125958E-01  0.16345727037E-01 -0.12283131246E-01  0.23317431469E-01  0.00000000000E+00 0.  1.
     999901    1    3    3    0    0  0.76442907743E-01 -0.13923215614E-01 -0.85142920039E-01  0.88751714964E+00  0.88000000000E+00 0. -1.
        -11    1    4    4    0    0 -0.52247892564E-01  0.23749834259E-02  0.41676632150E-01  0.66878140016E-01  0.51100000000E-03 0.  1.
         11    1    4    4    0    0 -0.35404141137E-01 -0.47974948484E-02  0.55749419134E-01  0.66217278873E-01  0.51100000000E-03 0. -1.
</event>
<event>
 8    1  0.1176534E+005  0.1043930E+01  0.7957747E-01            NaN
         13   -1    0    0    0    0  0.00000000000E+00  0.00000000000E+00  0.74505805969E-08  0.10566000000E+00  0.10566000000E+00 0.  1.
     999900   -1    0    0    0    0 -0.00000000000E+00 -0.00000000000E+00 -0.74505805969E-08  0.93827000000E+00  0.93827000000E+00 0.  1.
     999902    2    1    2    0    0  0.11728224631E-01 -0.19821593841E-01 -0.28099619947E-02  0.10207277863E+01  0.10204640469E+01 0.  0.
     999903    2    3    3    0    0  0.68216934532E-01 -0.11039842697E+00 -0.26360531443E-01  0.13396413886E+00  0.20252161596E-01 0.  0.
         14    1    1    2    0    0 -0.11728224631E-01  0.19821593841E-01  0.28099619947E-02  0.23202213726E-01  0.00000000000E+00 0.  1.
     999901    1    3    3    0    0 -0.56488709901E-01  0.90576833129E-01  0.23550569449E-01  0.88676364741E+00  0.88000000000E+00 0.  1.
        -11    1    4    4    0    0  0.56980271373E-01 -0.84987273884E-01 -0.13048829961E-01  0.10315096283E+00  0.51100000000E-03 0.  1.
         11    1    4    4    0    0  0.11236663160E-01 -0.25411153086E-01 -0.13311701482E-01  0.30813176037E-01  0.51100000000E-03 0. -1.
</event>
<event>
 8    1  0.1176534E+005  0.1043930E+01  0.7957747E-01            NaN
         13   -1    0    0    0    0  0.00000000000E+00  0.00000000000E+00  0.74505805969E-08  0.10566000000E+00  0.10566000000E+00 0. -1.
     999900   -1    0    0    0    0 -0.00000000000E+00 -0.00000000000E+00 -0.74505805969E-08  0.93827000000E+00  0.93827000000E+00 0. -1.
     999902    2    1    2    0    0  0.20463632094E-01 -0.99648412637E-02 -0.36079461889E-02  0.10208849230E+01  0.10206247843E+01 0.  0.
     999903    2    3    3    0    0  0.28942162088E-03  0.61910644897E-02 -0.12957815042E+00  0.13153881238E+00  0.21761182233E-01 0.  0.
         14    1    1    2    0    0 -0.20463632094E-01  0.99648412637E-02  0.36079461889E-02  0.23045077036E-01  0.00000000000E+00 0.  1.
     999901    1    3    3    0    0  0.20174210473E-01 -0.16155905753E-01  0.12597020423E+00  0.88934611058E+00  0.88000000000E+00 0.  1.
        -11    1    4    4    0    0 -0.79817763896E-02  0.20186998516E-02 -0.10405771546E+00  0.10438416149E+00  0.51100000000E-03 0.  1.
         11    1    4    4    0    0  0.82711980105E-02  0.41723646381E-02 -0.25520434960E-01  0.27154650886E-01  0.51100000000E-03 0. -1.
</event>
<event>
 8    1  0.1176534E+005  0.1043930E+01  0.7957747E-01            NaN
         13   -1    0    0    0    0  0.00000000000E+00  0.00000000000E+00  0.74505805969E-08  0.10566000000E+00  0.10566000000E+00 0.  1.
     999900   -1    0    0    0    0 -0.00000000000E+00 -0.00000000000E+00 -0.74505805969E-08  0.93827000000E+00  0.93827000000E+00 0.  1.
     999902    2    1    2    0    0 -0.12840738032E-01  0.20073883197E-01 -0.15641360899E-02  0.10200492156E+01  0.10197696360E+01 0.  0.
     999903    2    3    3    0    0 -0.47218497708E-01 -0.39617990128E-01  0.11267964520E+00  0.12999495232E+00  0.20070214667E-01 0.  0.
         14    1    1    2    0    0  0.12840738032E-01 -0.20073883197E-01  0.15641360899E-02  0.23880784357E-01  0.00000000000E+00 0. -1.
     999901    1    3    3    0    0  0.34377759675E-01  0.59691873324E-01 -0.11424378129E+00  0.89005426333E+00  0.88000000000E+00 0.  1.
        -11    1    4    4    0    0 -0.43799456030E-01 -0.41655014477E-01  0.10849589563E+00  0.12419803972E+00  0.51100000000E-03 0.  1.
         11    1    4    4    0    0 -0.34190416779E-02  0.20370243497E-02  0.41837495726E-02  0.57969125992E-02  0.51100000000E-03 0. -1.
</event>
<event>
 8    1  0.1176534E+005  0.1043930E+01  0.7957747E-01            NaN
         13   -1    0    0    0    0  0.00000000000E+00  0.00000000000E+00  0.74505805969E-08  0.10566000000E+00  0.10566000000E+00 0.  1.
     999900   -1    0    0    0    0 -0.00000000000E+00 -0.00000000000E+00 -0.74505805969E-08  0.93827000000E+00  0.93827000000E+00 0.  1.
     999902    2    1    2    0    0  0.15873584901E-02 -0.19734059732E-01  0.80792480834E-02  0.10225471314E+01  0.10223235343E+01 0.  0.
     999903    2    3    3    0    0  0.11651665432E+00 -0.61702713823E-01 -0.12082354969E-01  0.13385337018E+00  0.19682118275E-01 0.  0.
         14    1    1    2    0    0 -0.15873584901E-02  0.19734059732E-01 -0.80792480834E-02  0.21382868612E-01  0.00000000000E+00 0.  1.
     999901    1    3    3    0    0 -0.11492929583E+00  0.41968654091E-01  0.20161603053E-01  0.88869376121E+00  0.88000000000E+00 0. -1.
        -11    1    4    4    0    0  0.92640486320E-01 -0.40316774336E-01 -0.12412337217E-01  0.10179405304E+00  0.51100000000E-03 0.  1.
         11    1    4    4    0    0  0.23876168005E-01 -0.21385939487E-01  0.32998224772E-03  0.32059317142E-01  0.51100000000E-03 0. -1.
</event>
<event>
 8    1  0.1176534E+005  0.1043930E+01  0.7957747E-01            NaN
         13   -1    0    0    0    0  0.00000000000E+00  0.00000000000E+00  0.74505805969E-08  0.10566000000E+00  0.10566000000E+00 0. -1.
     999900   -1    0    0    0    0 -0.00000000000E+00 -0.00000000000E+00 -0.74505805969E-08  0.93827000000E+00  0.93827000000E+00 0. -1.
     999902    2    1    2    0    0 -0.57445016560E-02  0.19926665663E-02 -0.20079479343E-01  0.10229501165E+01  0.10227349537E+01 0.  0.
     999903    2    3    3    0    0  0.12030566254E+00 -0.87110455230E-02 -0.52614361971E-01  0.13330876637E+00  0.21298388494E-01 0.  0.
         14    1    1    2    0    0  0.57445016560E-02 -0.19926665663E-02  0.20079479343E-01  0.20979883460E-01  0.00000000000E+00 0. -1.
     999901    1    3    3    0    0 -0.12605016419E+00  0.10703712089E-01  0.32534882629E-01  0.88964135017E+00  0.88000000000E+00 0.  1.
        -11    1    4    4    0    0  0.45460328840E-01  0.92149797379E-03 -0.30194511773E-01  0.54584432936E-01  0.51100000000E-03 0.  1.
         11    1    4    4    0    0  0.74845333699E-01 -0.96325434968E-02 -0.22419850199E-01  0.78724333434E-01  0.51100000000E-03 0. -1.
</event>
<event>
 8    1  0.1176534E+005  0.1043930E+01  0.7957747E-01            NaN
         13   -1    0    0    0    0  0.00000000000E+00  0.00000000000E+00  0.74505805969E-08  0.10566000000E+00  0.10566000000E+00 0. -1.
     999900   -1    0    0    0    0 -0.00000000000E+00 -0.00000000000E+00 -0.74505805969E-08  0.93827000000E+00  0.93827000000E+00 0.  1.
     999902    2    1    2    0    0 -0.26832926283E-02 -0.78989673308E-02  0.22975236574E-01  0.10194871025E+01  0.10191940428E+01 0.  0.
     999903    2    3    3    0    0 -0.34289175995E-02  0.46076728424E-01  0.12316717088E+00  0.13215832721E+00  0.12682629474E-01 0.  0.
         14    1    1    2    0    0  0.26832926283E-02  0.78989673308E-02 -0.22975236574E-01  0.24442897534E-01  0.00000000000E+00 0.  1.
     999901    1    3    3    0    0  0.74562497118E-03 -0.53975695755E-01 -0.10019193431E+00  0.88732877525E+00  0.88000000000E+00 0.  1.
        -11    1    4    4    0    0  0.16136775371E-02  0.14402366246E-01  0.25215613369E-01  0.29088148570E-01  0.51100000000E-03 0. -1.
         11    1    4    4    0    0 -0.50425951365E-02  0.31674362179E-01  0.97951557515E-01  0.10307017864E+00  0.51100000000E-03 0.  1.
</event>
<event>
 8    1  0.1176534E+005  0.1043930E+01  0.7957747E-01            NaN
         13   -1    0    0    0    0  0.00000000000E+00  0.00000000000E+00  0.74505805969E-08  0.10566000000E+00  0.10566000000E+00 0. -1.
     999900   -1    0    0    0    0 -0.00000000000E+00 -0.00000000000E+00 -0.74505805969E-08  0.93827000000E+00  0.93827000000E+00 0. -1.
     999902    2    1    2    0    0 -0.15922980160E-01 -0.43907541932E-02 -0.17364426172E-01  0.10199645391E+01  0.10196829496E+01 0.  0.
     999903    2    3    3    0    0  0.53158628085E-01  0.57889799209E-01 -0.10306405085E+00  0.13092260444E+00  0.18478668306E-01 0.  0.
         14    1    1    2    0    0  0.15922980160E-01  0.43907541932E-02  0.17364426172E-01  0.23965460893E-01  0.00000000000E+00 0. -1.
     999901    1    3    3    0    0 -0.69081608245E-01 -0.62280553402E-01  0.85699624680E-01  0.88904193467E+00  0.88000000000E+00 0. -1.
        -11    1    4    4    0    0  0.15492936951E-01  0.30163396012E-01 -0.41034989958E-01  0.53235261587E-01  0.51100000000E-03 0. -1.
         11    1    4    4    0    0  0.37665691135E-01  0.27726403197E-01 -0.62029060894E-01  0.77687342851E-01  0.51100000000E-03 0.  1.
</event>
<event>
 8    1  0.1176534E+005  0.1043930E+01  0.7957747E-01            NaN
         13   -1    0    0    0    0  0.00000000000E+00  0.00000000000E+00  0.74505805969E-08  0.10566000000E+00  0.10566000000E+00 0. -1.
     999900   -1    0    0    0    0 -0.00000000000E+00 -0.00000000000E+00 -0.74505805969E-08  0.93827000000E+00  0.93827000000E+00 0. -1.
     999902    2    1    2    0    0  0.11270500697E-02 -0.20191625266E-01 -0.12373447913E-01  0.10202218962E+01  0.10199463924E+01 0.  0.
     999903    2    3    3    0    0  0.12247359562E+00  0.16681387606E-01  0.32904426819E-01  0.12997772231E+00  0.23096681094E-01 0.  0.
         14    1    1    2    0    0 -0.11270500697E-02  0.20191625266E-01  0.12373447913E-01  0.23708103805E-01  0.00000000000E+00 0. -1.
     999901    1    3    3    0    0 -0.12134654555E+00 -0.36873012872E-01 -0.45277874732E-01  0.89024417388E+00  0.88000000000E+00 0. -1.
        -11    1    4    4    0    0  0.69164922588E-01 -0.58431646494E-03  0.24131243984E-01  0.73257805042E-01  0.51100000000E-03 0.  1.
         11    1    4    4    0    0  0.53308673028E-01  0.17265704071E-01  0.87731828346E-02  0.56719917270E-01  0.51100000000E-03 0. -1.
</event>
<event>
 8    1  0.1176534E+005  0.1043930E+01  0.7957747E-01            NaN
         13   -1    0    0    0    0  0.00000000000E+00  0.00000000000E+00  0.74505805969E-08  0.10566000000E+00  0.10566000000E+00 0.  1.
     999900   -1    0    0    0    0 -0.00000000000E+00 -0.00000000000E+00 -0.74505805969E-08  0.93827000000E+00  0.93827000000E+00 0.  1.
     999902    2    1    2    0    0  0.20386365976E-01  0.46799692582E-02 -0.14913661638E-01  0.10182410270E+01  0.10179169248E+01 0.  0.
     999903    2    3    3    0    0  0.18036616122E-01 -0.11502661758E+00 -0.52512310848E-01  0.12933785642E+00  0.20354263408E-01 0.  0.
         14    1    1    2    0    0 -0.20386365976E-01 -0.46799692582E-02  0.14913661638E-01  0.25688972993E-01  0.00000000000E+00 0.  1.
     999901    1    3    3    0    0  0.23497498535E-02  0.11970658684E+00  0.37598649209E-01  0.88890317059E+00  0.88000000000E+00 0.  1.
        -11    1    4    4    0    0  0.51042116640E-02 -0.42348224028E-02 -0.30639847862E-02  0.73236480844E-02  0.51100000000E-03 0.  1.
         11    1    4    4    0    0  0.12932404458E-01 -0.11079179518E+00 -0.49448326062E-01  0.12201420834E+00  0.51100000000E-03 0. -1.
</event>
<event>
 8    1  0.1176534E+005  0.1043930E+01  0.7957747E-01            NaN
         13   -1    0    0    0    0  0.00000000000E+00  0.00000000000E+00  0.74505805969E-08  0.10566000000E+00  0.10566000000E+00 0.  1.
     999900   -1    0    0    0    0 -0.00000000000E+00 -0.00000000000E+00 -0.74505805969E-08  0.93827000000E+00  0.93827000000E+00 0.  1.
     999902    2    1    2    0    0  0.10620960314E-01  0.19684759537E-01 -0.68928499652E-02  0.10205247455E+01  0.10202563160E+01 0.  0.
     999903    2    3    3    0    0  0.75519045614E-01  0.42512283029E-01  0.97192731809E-01  0.13172405604E+00  0.19858987014E-01 0.  0.
         14    1    1    2    0    0 -0.10620960314E-01 -0.19684759537E-01  0.68928499652E-02  0.23405254467E-01  0.00000000000E+00 0.  1.
     999901    1    3    3    0    0 -0.64898085301E-01 -0.22827523492E-01 -0.10408558177E+00  0.88880068949E+00  0.88000000000E+00 0.  1.
        -11    1    4    4    0    0  0.15174842739E-01  0.17332832940E-01  0.31569059655E-01  0.39084134868E-01  0.51100000000E-03 0.  1.
         11    1    4    4    0    0  0.60344202875E-01  0.25179450089E-01  0.65623672154E-01  0.92639921176E-01  0.51100000000E-03 0. -1.
</event>
<event>
 8    1  0.1176534E+005  0.1043930E+01  0.7957747E-01            NaN
         13   -1    0    0    0    0  0.00000000000E+00  0.00000000000E+00  0.74505805969E-08  0.10566000000E+00  0.10566000000E+00 0.  1.
     999900   -1    0    0    0    0 -0.00000000000E+00 -0.00000000000E+00 -0.74505805969E-08  0.93827000000E+00  0.93827000000E+00 0.  1.
     999902    2    1    2    0    0 -0.27755645074E-02  0.65967327319E-02 -0.23794016209E-01  0.10190829509E+01  0.10187799983E+01 0.  0.
     999903    2    3    3    0    0  0.33410809843E-01 -0.74329760037E-01  0.95043550670E-01  0.12668118140E+00  0.19330022143E-01 0.  0.
         14    1    1    2    0    0  0.27755645074E-02 -0.65967327319E-02  0.23794016209E-01  0.24847049089E-01  0.00000000000E+00 0.  1.
     999901    1    3    3    0    0 -0.36186374351E-01  0.80926492769E-01 -0.11883756688E+00  0.89240176951E+00  0.88000000000E+00 0. -1.
        -11    1    4    4    0    0  0.24768687063E-01 -0.52235666524E-01  0.53139183332E-01  0.78524433409E-01  0.51100000000E-03 0. -1.
         11    1    4    4    0    0  0.86421227798E-02 -0.22094093513E-01  0.41904367338E-01  0.48156747993E-01  0.51100000000E-03 0.  1.
</event>
<event>
 8    1  0.1176534E+005  0.1043930E+01  0.7957747E-01            NaN
         13   -1    0    0    0    0  0.00000000000E+00  0.00000000000E+00  0.74505805969E-08  0.10566000000E+00  0.10566000000E+00 0.  1.
     999900   -1    0    0    0    0 -0.00000000000E+00 -0.00000000000E+00 -0.74505805969E-08  0.93827000000E+00  0.93827000000E+00 0.  1.
     999902    2    1    2    0    0  0.20361516313E-01 -0.58993376395E-02  0.12772230550E-01  0.10191807898E+01  0.10188802476E+01 0.  0.
     999903    2    3    3    0    0  0.92983086136E-01  0.63693537338E-01 -0.62517824819E-01  0.13025691620E+00  0.18859077204E-01 0.  0.
         14    1    1    2    0    0 -0.20361516313E-01  0.58993376395E-02 -0.12772230550E-01  0.24749210177E-01  0.00000000000E+00 0. -1.
     999901    1    3    3    0    0 -0.72621569823E-01 -0.69592874978E-01  0.75290055369E-01  0.88892387362E+00  0.88000000000E+00 0. -1.
        -11    1    4    4    0    0  0.40798440826E-01  0.35164016320E-01 -0.21438720451E-01  0.57973275508E-01  0.51100000000E-03 0.  1.
         11    1    4    4    0    0  0.52184645310E-01  0.28529521018E-01 -0.41079104367E-01  0.72283640696E-01  0.51100000000E-03 0. -1.
</event>
<event>
 8    1  0.1176534E+005  0.1043930E+01  0.7957747E-01            NaN
         13   -1    0    0    0    0  0.00000000000E+00  0.00000000000E+00  0.74505805969E-08  0.10566000000E+00  0.10566000000E+00 0. -1.
     999900   -1    0    0    0    0 -0.00000000000E+00 -0.00000000000E+00 -0.74505805969E-08  0.93827000000E+00  0.93827000000E+00 0.  1.
     999902    2    1    2    0    0 -0.23400283668E-02  0.20779597710E-01 -0.11178782595E-01  0.10202185556E+01  0.10199429732E+01 0.  0.
     999903    2    3    3    0    0  0.91068209309E-01  0.70505752927E-01  0.59314423183E-01  0.13108016289E+00  0.19983202050E-01 0.  0.
         14    1    1    2    0    0  0.23400283668E-02 -0.20779597710E-01  0.11178782595E-01  0.23711444369E-01  0.00000000000E+00 0.  1.
     999901    1    3    3    0    0 -0.93408237676E-01 -0.49726155217E-01 -0.70493205777E-01  0.88913839274E+00  0.88000000000E+00 0. -1.
        -11    1    4    4    0    0 -0.13934129821E-03  0.39499599681E-04  0.25439634761E-02  0.25988165352E-02  0.51100000000E-03 0. -1.
         11    1    4    4    0    0  0.91207550607E-01  0.70466253328E-01  0.56770459707E-01  0.12848134636E+00  0.51100000000E-03 0.  1.
</event>
<event>
 8    1  0.1176534E+005  0.1043930E+01  0.7957747E-01            NaN
         13   -1    0    0    0    0  0.00000000000E+00  0.00000000000E+00  0.74505805969E-08  0.10566000000E+00  0.10566000000E+00 0.  1.
     999900   -1    0    0    0    0 -0.00000000000E+00 -0.00000000000E+00 -0.74505805969E-08  0.93827000000E+00  0.93827000000E+00 0.  1.
     999902    2    1    2    0    0 -0.45749973865E-02  0.45403775017E-02 -0.23192509107E-01  0.10198584793E+01  0.10195743620E+01 0.  0.
     999903    2    3    3    0    0 -0.32068805291E-01  0.90574258855E-01  0.83447463980E-01  0.12883108240E+00  0.20046543520E-01 0.  0.
         14    1    1    2    0    0  0.45749973865E-02 -0.45403775017E-02  0.23192509107E-01  0.24071520676E-01  0.00000000000E+00 0.  1.
     999901    1    3    3    0    0  0.27493807904E-01 -0.86033881353E-01 -0.10663997309E+00  0.89102739693E+00  0.88000000000E+00 0. -1.
        -11    1    4    4    0    0 -0.12396977634E-01  0.19195943320E-01  0.11483301157E-01  0.25579222445E-01  0.51100000000E-03 0. -1.
         11    1    4    4    0    0 -0.19671827657E-01  0.71378315535E-01  0.71964162823E-01  0.10325185995E+00  0.51100000000E-03 0.  1.
</event>
<event>
 8    1  0.1176534E+005  0.1043930E+01  0.7957747E-01            NaN
         13   -1    0    0    0    0  0.00000000000E+00  0.00000000000E+00  0.74505805969E-08  0.10566000000E+00  0.10566000000E+00 0. -1.
     999900   -1    0    0    0    0 -0.00000000000E+00 -0.00000000000E+00 -0.74505805969E-08  0.93827000000E+00  0.93827000000E+00 0. -1.
     999902    2    1    2    0    0 -0.51574938107E-02 -0.10463435855E-01 -0.85130936703E-02  0.10294885321E+01  0.10293872360E+01 0.  0.
     999903    2    3    3    0    0 -0.83318511764E-01  0.63294654322E-01 -0.89580949170E-01  0.13925182321E+00  0.20448377565E-01 0.  0.
         14    1    1    2    0    0  0.51574938107E-02  0.10463435855E-01  0.85130936703E-02  0.14441467936E-01  0.00000000000E+00 0. -1.
     999901    1    3    3    0    0  0.78161017954E-01 -0.73758090178E-01  0.81067855499E-01  0.89023670885E+00  0.88000000000E+00 0. -1.
        -11    1    4    4    0    0 -0.44425176807E-01  0.38162124469E-01 -0.37428794766E-01  0.69506257826E-01  0.51100000000E-03 0. -1.
         11    1    4    4    0    0 -0.38893334958E-01  0.25132529853E-01 -0.52152154404E-01  0.69745565385E-01  0.51100000000E-03 0.  1.
</event>
<event>
 8    1  0.1176534E+005  0.1043930E+01  0.7957747E-01            NaN
         13   -1    0    0    0    0  0.00000000000E+00  0.00000000000E+00  0.74505805969E-08  0.10566000000E+00  0.10566000000E+00 0. -1.
     999900   -1    0    0    0    0 -0.00000000000E+00 -0.00000000000E+00 -0.74505805969E-08  0.93827000000E+00  0.93827000000E+00 0. -1.
     999902    2    1    2    0    0  0.62707135190E-02  0.22735298621E-01  0.46114339321E-03  0.10203412674E+01  0.10200685632E+01 0.  0.
     999903    2    3    3    0    0 -0.83550472658E-02 -0.25840507524E-01 -0.12560290061E+00  0.12991122244E+00  0.19060389032E-01 0.  0.
         14    1    1    2    0    0 -0.62707135190E-02 -0.22735298621E-01 -0.46114339321E-03  0.23588732578E-01  0.00000000000E+00 0. -1.
     999901    1    3    3    0    0  0.14625760785E-01  0.48575806145E-01  0.12606404400E+00  0.89043004498E+00  0.88000000000E+00 0.  1.
        -11    1    4    4    0    0  0.31937511776E-02 -0.12345342313E-01 -0.28945354377E-01  0.31633877164E-01  0.51100000000E-03 0.  1.
         11    1    4    4    0    0 -0.11548798443E-01 -0.13495165211E-01 -0.96657546231E-01  0.98277345274E-01  0.51100000000E-03 0. -1.
</event>
<event>
 8    1  0.1176534E+005  0.1043930E+01  0.7957747E-01            NaN
         13   -1    0    0    0    0  0.00000000000E+00  0.00000000000E+00  0.74505805969E-08  0.10566000000E+00  0.10566000000E+00 0.  1.
     999900   -1    0    0    0    0 -0.00000000000E+00 -0.00000000000E+00 -0.74505805969E-08  0.93827000000E+00  0.93827000000E+00 0. -1.
     999902    2    1    2    0    0  0.28286492630E-02 -0.36332959593E-02 -0.23002490657E-01  0.10204711707E+01  0.10202014965E+01 0.  0.
     999903    2    3    3    0    0  0.82027439973E-02  0.69200876481E-01 -0.11151779351E+00  0.13302052056E+00  0.20054782666E-01 0.  0.
         14    1    1    2    0    0 -0.28286492630E-02  0.36332959593E-02  0.23002490657E-01  0.23458829310E-01  0.00000000000E+00 0.  1.
     999901    1    3    3    0    0 -0.53740947343E-02 -0.72834172440E-01  0.88515302850E-01  0.88745065013E+00  0.88000000000E+00 0.  1.
        -11    1    4    4    0    0  0.77558168087E-02  0.20672331480E-01 -0.50019151519E-01  0.54677917141E-01  0.51100000000E-03 0.  1.
         11    1    4    4    0    0  0.44692718858E-03  0.48528545001E-01 -0.61498641988E-01  0.78342603423E-01  0.51100000000E-03 0. -1.
</event>
<event>
 8    1  0.1176534E+005  0.1043930E+01  0.7957747E-01            NaN
         13   -1    0    0    0    0  0.00000000000E+00  0.00000000000E+00  0.74505805969E-08  0.10566000000E+00  0.10566000000E+00 0.  1.
     999900   -1    0    0    0    0 -0.00000000000E+00 -0.00000000000E+00 -0.74505805969E-08  0.93827000000E+00  0.93827000000E+00 0.  1.
     999902    2    1    2    0    0 -0.36000040065E-02 -0.15400330171E-01  0.16904789671E-01  0.10207804403E+01  0.10205179103E+01 0.  0.
     999903    2    3    3    0    0  0.51559520213E-01  0.11301630555E+00 -0.26849668253E-01  0.12867738687E+00  0.20146854874E-01 0.  0.
         14    1    1    2    0    0  0.36000040065E-02  0.15400330171E-01 -0.16904789671E-01  0.23149559651E-01  0.00000000000E+00 0. -1.
     999901    1    3    3    0    0 -0.55159524219E-01 -0.12841663572E+00  0.43754457924E-01  0.89210305348E+00  0.88000000000E+00 0.  1.
        -11    1    4    4    0    0  0.45335673097E-01  0.77532687829E-01 -0.19246403747E-01  0.91854918842E-01  0.51100000000E-03 0.  1.
         11    1    4    4    0    0  0.62238471158E-02  0.35483617720E-01 -0.76032645062E-02  0.36822468027E-01  0.51100000000E-03 0. -1.
</event>
<event>
 8    1  0.1176534E+005  0.1043930E+01  0.7957747E-01            NaN
         13   -1    0    0    0    0  0.00000000000E+00  0.00000000000E+00  0.74505805969E-08  0.10566000000E+00  0.10566000000E+00 0. -1.
     999900   -1    0    0    0    0 -0.00000000000E+00 -0.00000000000E+00 -0.74505805969E-08  0.93827000000E+00  0.93827000000E+00 0. -1.
     999902    2    1    2    0    0 -0.44101033810E-02 -0.13210094865E-02 -0.23630284070E-01  0.10198554407E+01  0.10195712509E+01 0.  0.
     999903    2    3    3    0    0  0.73460046422E-01 -0.39575180473E-01 -0.10064590967E+00  0.13224147713E+00  0.19890595993E-01 0.  0.
         14    1    1    2    0    0  0.44101033810E-02  0.13210094865E-02  0.23630284070E-01  0.24074559251E-01  0.00000000000E+00 0. -1.
     999901    1    3    3    0    0 -0.77870149803E-01  0.38254170986E-01  0.77015625605E-01  0.88761396362E+00  0.88000000000E+00 0.  1.
        -11    1    4    4    0    0  0.24985616126E-01 -0.40035708596E-02 -0.24583192124E-01  0.35283197826E-01  0.51100000000E-03 0.  1.
         11    1    4    4    0    0  0.48474430297E-01 -0.35571609613E-01 -0.76062717551E-01  0.96958279302E-01  0.51100000000E-03 0. -1.
</event>
<event>
 8    1  0.1176534E+005  0.1043930E+01  0.7957747E-01            NaN
         13   -1    0    0    0    0  0.00000000000E+00  0.00000000000E+00  0.74505805969E-08  0.10566000000E+00  0.10566000000E+00 0.  1.
     999900   -1    0    0    0    0 -0.00000000000E+00 -0.00000000000E+00 -0.74505805969E-08  0.93827000000E+00  0.93827000000E+00 0.  1.
     999902    2    1    2    0    0 -0.17375945908E-01  0.72792025188E-02  0.14537804835E-01  0.10201338227E+01  0.10198562439E+01 0.  0.
     999903    2    3    3    0    0  0.60870293246E-01 -0.79058312494E-01 -0.77189687113E-01  0.12772664363E+00  0.20010955068E-01 0.  0.
         14    1    1    2    0    0  0.17375945908E-01 -0.72792025188E-02 -0.14537804835E-01  0.23796177317E-01  0.00000000000E+00 0. -1.
     999901    1    3    3    0    0 -0.78246239154E-01  0.86337515013E-01  0.91727491948E-01  0.89240717905E+00  0.88000000000E+00 0. -1.
        -11    1    4    4    0    0  0.41757839213E-01 -0.41867261944E-01 -0.53043205979E-01  0.79438199753E-01  0.51100000000E-03 0. -1.
         11    1    4    4    0    0  0.19112454033E-01 -0.37191050550E-01 -0.24146481134E-01  0.48288443880E-01  0.51100000000E-03 0.  1.
</event>
<event>
 8    1  0.1176534E+005  0.1043930E+01  0.7957747E-01            NaN
         13   -1    0    0    0    0  0.00000000000E+00  0.00000000000E+00  0.74505805969E-08  0.10566000000E+00  0.10566000000E+00 0.  1.
     999900   -1    0    0    0    0 -0.00000000000E+00 -0.00000000000E+00 -0.74505805969E-08  0.93827000000E+00  0.93827000000E+00 0. -1.
     999902    2    1    2    0    0  0.11586770968E-01  0.80533363139E-02  0.17134758358E-01  0.10217329409E+01  0.10214917979E+01 0.  0.
     999903    2    3    3    0    0 -0.39319695322E-01 -0.81238618419E-01  0.94972903926E-01  0.13233803517E+00  0.18648096679E-01 0.  0.
         14    1    1    2    0    0 -0.11586770968E-01 -0.80533363139E-02 -0.17134758358E-01  0.22197059067E-01  0.00000000000E+00 0.  1.
     999901    1    3    3    0    0  0.50906466290E-01  0.89291954733E-01 -0.77838145569E-01  0.88939490576E+00  0.88000000000E+00 0. -1.
        -11    1    4    4    0    0 -0.61492850944E-02 -0.27011711283E-01  0.37603008798E-01  0.46708603546E-01  0.51100000000E-03 0. -1.
         11    1    4    4    0    0 -0.33170410228E-01 -0.54226907136E-01  0.57369895129E-01  0.85629431625E-01  0.51100000000E-03 0.  1.
</event>
<event>
 8    1  0.1176534E+005  0.1043930E+01  0.7957747E-01            NaN
         13   -1    0    0    0    0  0.00000000000E+00  0.00000000000E+00  0.74505805969E-08  0.10566000000E+00  0.10566000000E+00 0. -1.
     999900   -1    0    0    0    0 -0.00000000000E+00 -0.00000000000E+00 -0.74505805969E-08  0.93827000000E+00  0.93827000000E+00 0.  1.
     999902    2    1    2    0    0  0.29131697222E-01  0.46621788945E-02 -0.70561886325E-02  0.10135955065E+01  0.10131414854E+01 0.  0.
     999903    2    3    3    0    0 -0.57591025885E-01  0.57230120826E-01 -0.91984389691E-01  0.12370954837E+00  0.15840183685E-01 0.  0.
         14    1    1    2    0    0 -0.29131697222E-01 -0.46621788945E-02  0.70561886325E-02  0.30334493454E-01  0.00000000000E+00 0. -1.
     999901    1    3    3    0    0  0.86722723108E-01 -0.52567941931E-01  0.84928201058E-01  0.88988595817E+00  0.88000000000E+00 0. -1.
        -11    1    4    4    0    0 -0.21121911834E-01  0.18843362361E-01 -0.43582027646E-01  0.51969815464E-01  0.51100000000E-03 0. -1.
         11    1    4    4    0    0 -0.36469114051E-01  0.38386758465E-01 -0.48402362044E-01  0.71739732907E-01  0.51100000000E-03 0.  1.
</event>
<event>
 8    1  0.1176534E+005  0.1043930E+01  0.7957747E-01            NaN
         13   -1    0    0    0    0  0.00000000000E+00  0.00000000000E+00  0.74505805969E-08  0.10566000000E+00  0.10566000000E+00 0.  1.
     999900   -1    0    0    0    0 -0.00000000000E+00 -0.00000000000E+00 -0.74505805969E-08  0.93827000000E+00  0.93827000000E+00 0.  1.
     999902    2    1    2    0    0 -0.51646987075E-02  0.11333146100E-01 -0.24876971594E-01  0.10161095394E+01  0.10157286143E+01 0.  0.
     999903    2    3    3    0    0 -0.81579150612E-01 -0.23599352295E-02 -0.98434835066E-01  0.12963481994E+00  0.21331729343E-01 0.  0.
         14    1    1    2    0    0  0.51646987075E-02 -0.11333146100E-01  0.24876971594E-01  0.27820460618E-01  0.00000000000E+00 0.  1.
     999901    1    3    3    0    0  0.76414451905E-01  0.13693081330E-01  0.73557863472E-01  0.88647471944E+00  0.88000000000E+00 0. -1.
        -11    1    4    4    0    0 -0.70384726581E-01 -0.76666683771E-02 -0.75121230005E-01  0.10322910374E+00  0.51100000000E-03 0. -1.
         11    1    4    4    0    0 -0.11194424031E-01  0.53067331476E-02 -0.23313605062E-01  0.26405716200E-01  0.51100000000E-03 0.  1.
</event>
<event>
 8    1  0.1176534E+005  0.1043930E+01  0.7957747E-01            NaN
         13   -1    0    0    0    0  0.00000000000E+00  0.00000000000E+00  0.74505805969E-08  0.10566000000E+00  0.10566000000E+00 0. -1.
     999900   -1    0    0    0    0 -0.00000000000E+00 -0.00000000000E+00 -0.74505805969E-08  0.93827000000E+00  0.93827000000E+00 0. -1.
     999902    2    1    2    0    0 -0.95645110269E-02  0.88512622001E-02  0.19781788716E-01  0.10202415244E+01  0.10199664819E+01 0.  0.
     999903    2    3    3    0    0  0.33124970882E-01  0.69070496471E-01 -0.10114949813E+00  0.12890930560E+00  0.22768199752E-01 0.  0.
         14    1    1    2    0    0  0.95645110269E-02 -0.88512622001E-02 -0.19781788716E-01  0.23688475648E-01  0.00000000000E+00 0.  1.
     999901    1    3    3    0    0 -0.42689481909E-01 -0.60219234271E-01  0.12093128685E+00  0.89133221875E+00  0.88000000000E+00 0.  1.
        -11    1    4    4    0    0  0.62728259808E-02  0.14646862405E-01 -0.38569667022E-01  0.41734389409E-01  0.51100000000E-03 0. -1.
         11    1    4    4    0    0  0.26852144902E-01  0.54423634065E-01 -0.62579831110E-01  0.87174916194E-01  0.51100000000E-03 0.  1.
</event>
<event>
 8    1  0.1176534E+005  0.1043930E+01  0.7957747E-01            NaN
         13   -1    0    0    0    0  0.00000000000E+00  0.00000000000E+00  0.74505805969E-08  0.10566000000E+00  0.10566000000E+00 0. -1.
     999900   -1    0    0    0    0 -0.00000000000E+00 -0.00000000000E+00 -0.74505805969E-08  0.93827000000E+00  0.93827000000E+00 0. -1.
     999902    2    1    2    0    0  0.25577613190E-02 -0.23649879890E-01  0.59982148836E-03  0.10201346486E+01  0.10198570893E+01 0.  0.
     999903    2    3    3    0    0  0.90892199709E-01 -0.91974219563E-01  0.21740669928E-01  0.13282516266E+00  0.21194765239E-01 0.  0.
         14    1    1    2    0    0 -0.25577613190E-02  0.23649879890E-01 -0.59982148836E-03  0.23795351386E-01  0.00000000000E+00 0.  1.
     999901    1    3    3    0    0 -0.88334438390E-01  0.68324339673E-01 -0.21140848440E-01  0.88730948596E+00  0.88000000000E+00 0. -1.
        -11    1    4    4    0    0  0.23617358978E-01 -0.35364009604E-01  0.12976816019E-01  0.44464049471E-01  0.51100000000E-03 0. -1.
         11    1    4    4    0    0  0.67274840731E-01 -0.56610209960E-01  0.87638539094E-02  0.88361113186E-01  0.51100000000E-03 0.  1.
</event>
<event>
 8    1  0.1176534E+005  0.1043930E+01  0.7957747E-01            NaN
         13   -1    0    0    0    0  0.00000000000E+00  0.00000000000E+00  0.74505805969E-08  0.10566000000E+00  0.10566000000E+00 0.  1.
     999900   -1    0    0    0    0 -0.00000000000E+00 -0.00000000000E+00 -0.74505805969E-08  0.93827000000E+00  0.93827000000E+00 0.  1.
     999902    2    1    2    0    0 -0.15660904124E-01  0.89577816465E-02 -0.11922247863E-01  0.10223048812E+01  0.10220761343E+01 0.  0.
     999903    2    3    3    0    0 -0.10083966841E+00 -0.84691273123E-01 -0.32396312461E-02  0.13320367480E+00  0.19785684244E-01 0.  0.
         14    1    1    2    0    0  0.15660904124E-01 -0.89577816465E-02  0.11922247863E-01  0.21625118823E-01  0.00000000000E+00 0.  1.
     999901    1    3    3    0    0  0.85178764291E-01  0.93649054770E-01 -0.86826166171E-02  0.88910120637E+00  0.88000000000E+00 0.  1.
        -11    1    4    4    0    0 -0.29112061326E-01 -0.18959938095E-01  0.67674414097E-02  0.35398456908E-01  0.51100000000E-03 0. -1.
         11    1    4    4    0    0 -0.71727607089E-01 -0.65731335028E-01 -0.10007072656E-01  0.97805217894E-01  0.51100000000E-03 0.  1.
</event>
<event>
 8    1  0.1176534E+005  0.1043930E+01  0.7957747E-01            NaN
         13   -1    0    0    0    0  0.00000000000E+00  0.00000000000E+00  0.74505805969E-08  0.10566000000E+00  0.10566000000E+00 0. -1.
     999900   -1    0    0    0    0 -0.00000000000E+00 -0.00000000000E+00 -0.74505805969E-08  0.93827000000E+00  0.93827000000E+00 0.  1.
     999902    2    1    2    0    0 -0.19602710549E-01  0.11026194820E-01 -0.10595677362E-01  0.10190681495E+01  0.10187648314E+01 0.  0.
     999903    2    3    3    0    0  0.43374189713E-01  0.38238209636E-01 -0.11478313828E+00  0.13027030365E+00  0.21253286141E-01 0.  0.
         14    1    1    2    0    0  0.19602710549E-01 -0.11026194820E-01  0.10595677362E-01  0.24861850531E-01  0.00000000000E+00 0. -1.
     999901    1    3    3    0    0 -0.62976900262E-01 -0.27212014816E-01  0.10418746091E+00  0.88879784582E+00  0.88000000000E+00 0. -1.
        -11    1    4    4    0    0  0.14414388481E-01  0.15044936631E-02 -0.33163405816E-01  0.36195451410E-01  0.51100000000E-03 0. -1.
         11    1    4    4    0    0  0.28959801232E-01  0.36733715973E-01 -0.81619732460E-01  0.94074852242E-01  0.51100000000E-03 0.  1.
</event>
<event>
 8    1  0.1176534E+005  0.1043930E+01  0.7957747E-01            NaN
         13   -1    0    0    0    0  0.00000000000E+00  0.00000000000E+00  0.74505805969E-08  0.10566000000E+00  0.10566000000E+00 0.  1.
     999900   -1    0    0    0    0 -0.00000000000E+00 -0.00000000000E+00 -0.74505805969E-08  0.93827000000E+00  0.93827000000E+00 0.  1.
     999902    2    1    2    0    0 -0.21922090637E-01  0.16343255697E-01 -0.53350610382E-02  0.10160706579E+01  0.10156886526E+01 0.  0.
     999903    2    3    3    0    0  0.34624269049E-01 -0.11327533769E+00 -0.32313038243E-01  0.12437212041E+00  0.19853205271E-01 0.  0.
         14    1    1    2    0    0  0.21922090637E-01 -0.16343255697E-01  0.53350610382E-02  0.27859342076E-01  0.00000000000E+00 0.  1.
     999901    1    3    3    0    0 -0.56546359686E-01  0.12961859339E+00  0.26977977204E-01  0.89169853751E+00  0.88000000000E+00 0. -1.
        -11    1    4    4    0    0  0.92122122638E-02 -0.63828311457E-01 -0.18241623725E-01  0.67021908025E-01  0.51100000000E-03 0.  1.
         11    1    4    4    0    0  0.25412056786E-01 -0.49447026233E-01 -0.14071414517E-01  0.57350212388E-01  0.51100000000E-03 0. -1.
</event>
<event>
 8    1  0.1176534E+005  0.1043930E+01  0.7957747E-01            NaN
         13   -1    0    0    0    0  0.00000000000E+00  0.00000000000E+00  0.74505805969E-08  0.10566000000E+00  0.10566000000E+00 0. -1.
     999900   -1    0    0    0    0 -0.00000000000E+00 -0.00000000000E+00 -0.74505805969E-08  0.93827000000E+00  0.93827000000E+00 0.  1.
     999902    2    1    2    0    0 -0.28883608425E-01 -0.14627606156E-01  0.19462253323E-02  0.10114951809E+01  0.10109750162E+01 0.  0.
     999903    2    3    3    0    0  0.82773279028E-01  0.13765954913E-03  0.85169953808E-01  0.12042197258E+00  0.19902155106E-01 0.  0.
         14    1    1    2    0    0  0.28883608425E-01  0.14627606156E-01 -0.19462253323E-02  0.32434819107E-01  0.00000000000E+00 0. -1.
     999901    1    3    3    0    0 -0.11165688745E+00 -0.14765265705E-01 -0.83223728475E-01  0.89107320831E+00  0.88000000000E+00 0. -1.
        -11    1    4    4    0    0  0.47458649475E-01  0.68519123031E-02  0.58590862632E-01  0.75712762578E-01  0.51100000000E-03 0.  1.
         11    1    4    4    0    0  0.35314629553E-01 -0.67142527540E-02  0.26579091175E-01  0.44709210004E-01  0.51100000000E-03 0. -1.
</event>
<event>
 8    1  0.1176534E+005  0.1043930E+01  0.7957747E-01            NaN
         13   -1    0    0    0    0  0.00000000000E+00  0.00000000000E+00  0.74505805969E-08  0.10566000000E+00  0.10566000000E+00 0. -1.
     999900   -1    0    0    0    0 -0.00000000000E+00 -0.00000000000E+00 -0.74505805969E-08  0.93827000000E+00  0.93827000000E+00 0.  1.
     999902    2    1    2    0    0  0.22908736818E-01  0.40936646104E-02  0.76903596022E-03  0.10206456763E+01  0.10203800453E+01 0.  0.
     999903    2    3    3    0    0  0.10049120672E+00  0.82559004452E-01  0.22137749954E-01  0.13349717065E+00  0.20419176127E-01 0.  0.
         14    1    1    2    0    0 -0.22908736818E-01 -0.40936646104E-02 -0.76903596022E-03  0.23284323671E-01  0.00000000000E+00 0.  1.
     999901    1    3    3    0    0 -0.77582469904E-01 -0.78465339842E-01 -0.21368713994E-01  0.88714850568E+00  0.88000000000E+00 0. -1.
        -11    1    4    4    0    0  0.21796176874E-01  0.18480826857E-01 -0.35799725727E-02  0.28804367938E-01  0.51100000000E-03 0.  1.
         11    1    4    4    0    0  0.78695029847E-01  0.64078177595E-01  0.25717722526E-01  0.10469280271E+00  0.51100000000E-03 0. -1.
</event>
<event>
 8    1  0.1176534E+005  0.1043930E+01  0.7957747E-01            NaN
         13   -1    0    0    0    0  0.00000000000E+00  0.00000000000E+00  0.74505805969E-08  0.10566000000E+00  0.10566000000E+00 0. -1.
     999900   -1    0    0    0    0 -0.00000000000E+00 -0.00000000000E+00 -0.74505805969E-08  0.93827000000E+00  0.93827000000E+00 0. -1.
     999902    2    1    2    0    0  0.22649689345E-01 -0.12698145213E-02  0.49709016908E-02  0.10207065050E+01  0.10204422760E+01 0.  0.
     999903    2    3    3    0    0 -0.11777645095E+00  0.24832328777E-01  0.40434728272E-01  0.12848539689E+00  0.19636522404E-01 0.  0.
         14    1    1    2    0    0 -0.22649689345E-01  0.12698145213E-02 -0.49709016908E-02  0.23223494999E-01  0.00000000000E+00 0.  1.
     999901    1    3    3    0    0  0.14042614030E+00 -0.26102143298E-01 -0.35463826581E-01  0.89222110811E+00  0.88000000000E+00 0. -1.
        -11    1    4    4    0    0 -0.29962257062E-01  0.76913265850E-02  0.19582863386E-01  0.36614792261E-01  0.51100000000E-03 0.  1.
         11    1    4    4    0    0 -0.87814193890E-01  0.17141002192E-01  0.20851864886E-01  0.91870604629E-01  0.51100000000E-03 0. -1.
</event>
<event>
 8    1  0.1176534E+005  0.1043930E+01  0.7957747E-01            NaN
         13   -1    0    0    0    0  0.00000000000E+00  0.00000000000E+00  0.74505805969E-08  0.10566000000E+00  0.10566000000E+00 0.  1.
     999900   -1    0    0    0    0 -0.00000000000E+00 -0.00000000000E+00 -0.74505805969E-08  0.93827000000E+00  0.93827000000E+00 0. -1.
     999902    2    1    2    0    0 -0.25099950053E-02  0.19127214198E-01 -0.14252570416E-01  0.10199448762E+01  0.10196628190E+01 0.  0.
     999903    2    3    3    0    0  0.11328311538E+00 -0.35078105703E-01  0.47126515211E-01  0.12858992267E+00  0.15840519142E-01 0.  0.
         14    1    1    2    0    0  0.25099950053E-02 -0.19127214198E-01  0.14252570416E-01  0.23985123751E-01  0.00000000000E+00 0.  1.
     999901    1    3    3    0    0 -0.11579311038E+00  0.54205319901E-01 -0.61379085627E-01  0.89135495358E+00  0.88000000000E+00 0. -1.
        -11    1    4    4    0    0  0.29350747685E-01 -0.15634928758E-01  0.16718272366E-01  0.37224711400E-01  0.51100000000E-03 0. -1.
         11    1    4    4    0    0  0.83932367694E-01 -0.19443176945E-01  0.30408242846E-01  0.91365211269E-01  0.51100000000E-03 0.  1.
</event>
<event>
 8    1  0.1176534E+005  0.1043930E+01  0.7957747E-01            NaN
         13   -1    0    0    0    0  0.00000000000E+00  0.00000000000E+00  0.74505805969E-08  0.10566000000E+00  0.10566000000E+00 0.  1.
     999900   -1    0    0    0    0 -0.00000000000E+00 -0.00000000000E+00 -0.74505805969E-08  0.93827000000E+00  0.93827000000E+00 0. -1.
     999902    2    1    2    0    0  0.18537824960E-01 -0.12370594136E-01 -0.83197181675E-02  0.10201413417E+01  0.10198639403E+01 0.  0.
     999903    2    3    3    0    0  0.11431963928E+00 -0.41605726829E-01  0.48247218642E-01  0.13265688139E+00  0.21680351582E-01 0.  0.
         14    1    1    2    0    0 -0.18537824960E-01  0.12370594136E-01  0.83197181675E-02  0.23788658305E-01  0.00000000000E+00 0.  1.
     999901    1    3    3    0    0 -0.95781814317E-01  0.29235132692E-01 -0.56566936810E-01  0.88748446030E+00  0.88000000000E+00 0. -1.
        -11    1    4    4    0    0  0.67453806975E-01 -0.13102191681E-01  0.26706046038E-01  0.73723520794E-01  0.51100000000E-03 0.  1.
         11    1    4    4    0    0  0.46865832303E-01 -0.28503535148E-01  0.21541172605E-01  0.58933360599E-01  0.51100000000E-03 0. -1.
</event>
<event>
 8    1  0.1176534E+005  0.1043930E+01  0.7957747E-01            NaN
         13   -1    0    0    0    0  0.00000000000E+00  0.00000000000E+00  0.74505805969E-08  0.10566000000E+00  0.10566000000E+00 0.  1.
     999900   -1    0    0    0    0 -0.00000000000E+00 -0.00000000000E+00 -0.74505805969E-08  0.93827000000E+00  0.93827000000E+00 0. -1.
     999902    2    1    2    0    0  0.21112645327E-01 -0.16067336561E-01  0.12252556739E-01  0.10147062384E+01  0.10142853257E+01 0.  0.
     999903    2    3    3    0    0  0.10306644060E+00  0.56519217777E-01  0.44516767892E-01  0.12733584685E+00  0.20385340638E-01 0.  0.
         14    1    1    2    0    0 -0.21112645327E-01  0.16067336561E-01 -0.12252556739E-01  0.29223761625E-01  0.00000000000E+00 0. -1.
     999901    1    3    3    0    0 -0.81953795277E-01 -0.72586554338E-01 -0.32264211153E-01  0.88737039152E+00  0.88000000000E+00 0. -1.
        -11    1    4    4    0    0  0.21279721843E-01  0.46982287619E-02  0.13615598365E-01  0.25701080815E-01  0.51100000000E-03 0.  1.
         11    1    4    4    0    0  0.81786718761E-01  0.51820989015E-01  0.30901169527E-01  0.10163476604E+00  0.51100000000E-03 0. -1.
</event>
<event>
 8    1  0.1176534E+005  0.1043930E+01  0.7957747E-01            NaN
         13   -1    0    0    0    0  0.00000000000E+00  0.00000000000E+00  0.74505805969E-08  0.10566000000E+00  0.10566000000E+00 0. -1.
     999900   -1    0    0    0    0 -0.00000000000E+00 -0.00000000000E+00 -0.74505805969E-08  0.93827000000E+00  0.93827000000E+00 0.  1.
     999902    2    1    2    0    0  0.15036781418E-01  0.35806597348E-02 -0.17074508789E-01  0.10208981792E+01  0.10206383431E+01 0.  0.
     999903    2    3    3    0    0 -0.61752761073E-01 -0.80560326631E-01  0.76466054321E-01  0.12863914933E+00  0.19939998716E-01 0.  0.
         14    1    1    2    0    0 -0.15036781418E-01 -0.35806597348E-02  0.17074508789E-01  0.23031820813E-01  0.00000000000E+00 0. -1.
     999901    1    3    3    0    0  0.76789542491E-01  0.84140986366E-01 -0.93540563110E-01  0.89225902986E+00  0.88000000000E+00 0.  1.
        -11    1    4    4    0    0 -0.34581876084E-01 -0.40666830068E-01  0.51990845807E-01  0.74518496966E-01  0.51100000000E-03 0. -1.
         11    1    4    4    0    0 -0.27170884989E-01 -0.39893496563E-01  0.24475208514E-01  0.54120652360E-01  0.51100000000E-03 0.  1.
</event>
<event>
 8    1  0.1176534E+005  0.1043930E+01  0.7957747E-01            NaN
         13   -1    0    0    0    0  0.00000000000E+00  0.00000000000E+00  0.74505805969E-08  0.10566000000E+00  0.10566000000E+00 0. -1.
     999900   -1    0    0    0    0 -0.00000000000E+00 -0.00000000000E+00 -0.74505805969E-08  0.93827000000E+00  0.93827000000E+00 0. -1.
     999902    2    1    2    0    0  0.96084234171E-02 -0.56479174388E-02  0.20846674321E-01  0.10202909517E+01  0.10200170693E+01 0.  0.
     999903    2    3    3    0    0 -0.56767068115E-01  0.48041847314E-01 -0.10159312902E+00  0.12772173754E+00  0.21474618996E-01 0.  0.
         14    1    1    2    0    0 -0.96084234171E-02  0.56479174388E-02 -0.20846674321E-01  0.23639048251E-01  0.00000000000E+00 0.  1.
     999901    1    3    3    0    0  0.66375491532E-01 -0.53689764753E-01  0.12243980334E+00  0.89256921421E+00  0.88000000000E+00 0.  1.
        -11    1    4    4    0    0 -0.12284244150E-01  0.10434997275E-01 -0.93951513770E-02  0.18663381603E-01  0.51100000000E-03 0. -1.
         11    1    4    4    0    0 -0.44482823966E-01  0.37606850039E-01 -0.92197977639E-01  0.10905835594E+00  0.51100000000E-03 0.  1.
</event>
<event>
 8    1  0.1176534E+005  0.1043930E+01  0.7957747E-01            NaN
         13   -1    0    0    0    0  0.00000000000E+00  0.00000000000E+00  0.74505805969E-08  0.10566000000E+00  0.10566000000E+00 0. -1.
     999900   -1    0    0    0    0 -0.00000000000E+00 -0.00000000000E+00 -0.74505805969E-08  0.93827000000E+00  0.93827000000E+00 0.  1.
     999902    2    1    2    0    0 -0.85865634375E-02  0.11415298069E-01 -0.18534497773E-01  0.10205298780E+01  0.10202615675E+01 0.  0.
     999903    2    3    3    0    0 -0.19670706163E-02 -0.10335609010E-01  0.12640269870E+00  0.12838431221E+00  0.19854349704E-01 0.  0.
         14    1    1    2    0    0  0.85865634375E-02 -0.11415298069E-01  0.18534497773E-01  0.23400121995E-01  0.00000000000E+00 0. -1.
     999901    1    3    3    0    0 -0.66194928212E-02  0.21750907079E-01 -0.14493719648E+00  0.89214556579E+00  0.88000000000E+00 0.  1.
        -11    1    4    4    0    0  0.21534694954E-02 -0.15603269643E-01  0.87705924925E-01  0.89110548435E-01  0.51100000000E-03 0. -1.
         11    1    4    4    0    0 -0.41205401117E-02  0.52676606323E-02  0.38696773777E-01  0.39273763776E-01  0.51100000000E-03 0.  1.
</event>
<event>
 8    1  0.1176534E+005  0.1043930E+01  0.7957747E-01            NaN
         13   -1    0    0    0    0  0.00000000000E+00  0.00000000000E+00  0.74505805969E-08  0.10566000000E+00  0.10566000000E+00 0.  1.
     999900   -1    0    0    0    0 -0.00000000000E+00 -0.00000000000E+00 -0.74505805969E-08  0.93827000000E+00  0.93827000000E+00 0. -1.
     999902    2    1    2    0    0  0.31021288561E-02 -0.21281808162E-01 -0.11209577691E-01  0.10196773054E+01  0.10193888434E+01 0.  0.
     999903    2    3    3    0    0 -0.79915105784E-01 -0.10305048492E+00 -0.59676018116E-02  0.13198059142E+00  0.19427755011E-01 0.  0.
         14    1    1    2    0    0 -0.31021288561E-02  0.21281808162E-01  0.11209577691E-01  0.24252694574E-01  0.00000000000E+00 0. -1.
     999901    1    3    3    0    0  0.83017234640E-01  0.81768676761E-01 -0.52419758793E-02  0.88769671401E+00  0.88000000000E+00 0. -1.
        -11    1    4    4    0    0 -0.47740814392E-01 -0.56901819463E-01  0.57966827562E-02  0.74504127865E-01  0.51100000000E-03 0.  1.
         11    1    4    4    0    0 -0.32174291392E-01 -0.46148665461E-01 -0.11764284568E-01  0.57476463555E-01  0.51100000000E-03 0. -1.
</event>
<event>
 8    1  0.1176534E+005  0.1043930E+01  0.7957747E-01            NaN
         13   -1    0    0    0    0  0.00000000000E+00  0.00000000000E+00  0.74505805969E-08  0.10566000000E+00  0.10566000000E+00 0. -1.
     999900   -1    0    0    0    0 -0.00000000000E+00 -0.00000000000E+00 -0.74505805969E-08  0.93827000000E+00  0.93827000000E+00 0.  1.
     999902    2    1    2    0    0  0.18417809564E-01 -0.92274465363E-02 -0.13976281220E-01  0.10190362675E+01  0.10187321614E+01 0.  0.
     999903    2    3    3    0    0 -0.90638834825E-01  0.17910573884E-02  0.86448578515E-01  0.12656783025E+00  0.18095653138E-01 0.  0.
         14    1    1    2    0    0 -0.18417809564E-01  0.92274465363E-02  0.13976281220E-01  0.24893732453E-01  0.00000000000E+00 0. -1.
     999901    1    3    3    0    0  0.10905664439E+00 -0.11018503925E-01 -0.10042485974E+00  0.89246843729E+00  0.88000000000E+00 0.  1.
        -11    1    4    4    0    0 -0.45228257558E-01  0.84588385941E-02  0.36515723035E-01  0.58743564600E-01  0.51100000000E-03 0.  1.
         11    1    4    4    0    0 -0.45410577266E-01 -0.66677812057E-02  0.49932855480E-01  0.67824265652E-01  0.51100000000E-03 0. -1.
</event>
<event>
 8    1  0.1292290E+005  0.1043930E+01  0.7957747E-01            NaN
         13   -1    0    0    0    0  0.00000000000E+00  0.00000000000E+00  0.74505805969E-08  0.10566000000E+00  0.10566000000E+00 0.  1.
     999900   -1    0    0    0    0 -0.00000000000E+00 -0.00000000000E+00 -0.74505805969E-08  0.93827000000E+00  0.93827000000E+00 0. -1.
     999902    2    1    2    0    0  0.15268014359E-01 -0.12026672681E-01 -0.13274961758E-01  0.10203932685E+01  0.10201217794E+01 0.  0.
     999903    2    3    3    0    0 -0.79717866623E-01 -0.38379739754E-01 -0.95446369716E-01  0.13108514307E+00  0.15664053122E-01 0.  0.
         14    1    1    2    0    0 -0.15268014359E-01  0.12026672681E-01  0.13274961758E-01  0.23536731462E-01  0.00000000000E+00 0.  1.
     999901    1    3    3    0    0  0.94985880982E-01  0.26353067073E-01  0.82171407958E-01  0.88930812546E+00  0.88000000000E+00 0.  1.
        -11    1    4    4    0    0 -0.47560760936E-01 -0.15208209677E-01 -0.48069089930E-01  0.69312438639E-01  0.51100000000E-03 0.  1.
         11    1    4    4    0    0 -0.32157105687E-01 -0.23171530076E-01 -0.47377279786E-01  0.61772704435E-01  0.51100000000E-03 0. -1.
</event>
<event>
 8    1  0.1176534E+005  0.1043930E+01  0.7957747E-01            NaN
         13   -1    0    0    0    0  0.00000000000E+00  0.00000000000E+00  0.74505805969E-08  0.10566000000E+00  0.10566000000E+00 0.  1.
     999900   -1    0    0    0    0 -0.00000000000E+00 -0.00000000000E+00 -0.74505805969E-08  0.93827000000E+00  0.93827000000E+00 0.  1.
     999902    2    1    2    0    0 -0.85950438274E-02 -0.19749210598E-01 -0.56217495821E-02  0.10216699424E+01  0.10214274135E+01 0.  0.
     999903    2    3    3    0    0  0.11168833616E+00 -0.61921230849E-01  0.26758203734E-01  0.13189748147E+00  0.19298209404E-01 0.  0.
         14    1    1    2    0    0  0.85950438274E-02  0.19749210598E-01  0.56217495821E-02  0.22260057637E-01  0.00000000000E+00 0. -1.
     999901    1    3    3    0    0 -0.12028337999E+00  0.42172020251E-01 -0.32379953316E-01  0.88977246090E+00  0.88000000000E+00 0.  1.
        -11    1    4    4    0    0  0.75079573403E-01 -0.33883846097E-01  0.23540581540E-01  0.85670750370E-01  0.51100000000E-03 0.  1.
         11    1    4    4    0    0  0.36608762757E-01 -0.28037384752E-01  0.32176221934E-02  0.46226731096E-01  0.51100000000E-03 0. -1.
</event>
<event>
 8    1  0.1176534E+005  0.1043930E+01  0.7957747E-01            NaN
         13   -1    0    0    0    0  0.00000000000E+00  0.00000000000E+00  0.74505805969E-08  0.10566000000E+00  0.10566000000E+00 0. -1.
     999900   -1    0    0    0    0 -0.00000000000E+00 -0.00000000000E+00 -0.74505805969E-08  0.93827000000E+00  0.93827000000E+00 0. -1.
     999902    2    1    2    0    0  0.16811268475E-01  0.15734247650E-01 -0.60475560820E-02  0.10201233154E+01  0.10198454885E+01 0.  0.
     999903    2    3    3    0    0  0.10024390124E+00  0.86253827143E-01  0.22144905353E-02  0.13333006063E+00  0.16835636792E-01 0.  0.
         14    1    1    2    0    0 -0.16811268475E-01 -0.15734247650E-01  0.60475560820E-02  0.23806684595E-01  0.00000000000E+00 0.  1.
     999901    1    3    3    0    0 -0.83432632766E-01 -0.70519579493E-01 -0.82620466173E-02  0.88679325478E+00  0.88000000000E+00 0. -1.
        -11    1    4    4    0    0  0.76241133788E-01  0.74349812450E-01  0.82538299156E-03  0.10649670169E+00  0.51100000000E-03 0. -1.
         11    1    4    4    0    0  0.24002767454E-01  0.11904014693E-01  0.13891075437E-02  0.26833358940E-01  0.51100000000E-03 0.  1.
</event>
<event>
 8    1  0.1176534E+005  0.1043930E+01  0.7957747E-01            NaN
         13   -1    0    0    0    0  0.00000000000E+00  0.00000000000E+00  0.74505805969E-08  0.10566000000E+00  0.10566000000E+00 0.  1.
     999900   -1    0    0    0    0 -0.00000000000E+00 -0.00000000000E+00 -0.74505805969E-08  0.93827000000E+00  0.93827000000E+00 0. -1.
     999902    2    1    2    0    0  0.12996224503E-01 -0.15472930210E-01 -0.14856438158E-01  0.10188495858E+01  0.10185408442E+01 0.  0.
     999903    2    3    3    0    0  0.41249294332E-01 -0.10554650320E+00  0.59081428007E-01  0.13071767413E+00  0.27475927174E-01 0.  0.
         14    1    1    2    0    0 -0.12996224503E-01  0.15472930210E-01  0.14856438158E-01  0.25080414178E-01  0.00000000000E+00 0.  1.
     999901    1    3    3    0    0 -0.28253069830E-01  0.90073572994E-01 -0.73937866165E-01  0.88813191169E+00  0.88000000000E+00 0. -1.
        -11    1    4    4    0    0  0.22106140648E-01 -0.76810900107E-01  0.52316160950E-01  0.95529250218E-01  0.51100000000E-03 0.  1.
         11    1    4    4    0    0  0.19143153685E-01 -0.28735603097E-01  0.67652670569E-02  0.35188423916E-01  0.51100000000E-03 0. -1.
</event>
<event>
 8    1  0.1176534E+005  0.1043930E+01  0.7957747E-01            NaN
         13   -1    0    0    0    0  0.00000000000E+00  0.00000000000E+00  0.74505805969E-08  0.10566000000E+00  0.10566000000E+00 0.  1.
     999900   -1    0    0    0    0 -0.00000000000E+00 -0.00000000000E+00 -0.74505805969E-08  0.93827000000E+00  0.93827000000E+00 0. -1.
     999902    2    1    2    0    0  0.10489411483E-01 -0.20110380045E-01 -0.13346104339E-02  0.10212091654E+01  0.10209563767E+01 0.  0.
     999903    2    3    3    0    0 -0.76713203194E-01 -0.65007160057E-01 -0.83197241909E-01  0.13198393676E+00  0.19675672753E-01 0.  0.
         14    1    1    2    0    0 -0.10489411483E-01  0.20110380045E-01  0.13346104339E-02  0.22720834575E-01  0.00000000000E+00 0.  1.
     999901    1    3    3    0    0  0.87202614677E-01  0.44896780012E-01  0.81862631475E-01  0.88922522866E+00  0.88000000000E+00 0.  1.
        -11    1    4    4    0    0 -0.51440725807E-02 -0.10141704463E-01 -0.15450593741E-01  0.19191081785E-01  0.51100000000E-03 0.  1.
         11    1    4    4    0    0 -0.71569130614E-01 -0.54865455594E-01 -0.67746648169E-01  0.11279285497E+00  0.51100000000E-03 0. -1.
</event>
<event>
 8    1  0.1176534E+005  0.1043930E+01  0.7957747E-01            NaN
         13   -1    0    0    0    0  0.00000000000E+00  0.00000000000E+00  0.74505805969E-08  0.10566000000E+00  0.10566000000E+00 0.  1.
     999900   -1    0    0    0    0 -0.00000000000E+00 -0.00000000000E+00 -0.74505805969E-08  0.93827000000E+00  0.93827000000E+00 0.  1.
     999902    2    1    2    0    0 -0.20887051704E-01  0.92776155832E-02 -0.58524880619E-02  0.10203377408E+01  0.10200649541E+01 0.  0.
     999903    2    3    3    0    0 -0.28641671994E-01  0.10174515304E-01  0.12531494007E+00  0.13058168836E+00  0.20588273252E-01 0.  0.
         14    1    1    2    0    0  0.20887051704E-01 -0.92776155832E-02  0.58524880619E-02  0.23592259246E-01  0.00000000000E+00 0.  1.
     999901    1    3    3    0    0  0.77546202898E-02 -0.89689972050E-03 -0.13116742813E+00  0.88975605239E+00  0.88000000000E+00 0.  1.
        -11    1    4    4    0    0 -0.19357274103E-01 -0.39130642736E-02  0.71757592179E-01  0.74427342349E-01  0.51100000000E-03 0.  1.
         11    1    4    4    0    0 -0.92843978906E-02  0.14087579577E-01  0.53557347888E-01  0.56154346014E-01  0.51100000000E-03 0. -1.
</event>
<event>
 8    1  0.1176534E+005  0.1043930E+01  0.7957747E-01            NaN
         13   -1    0    0    0    0  0.00000000000E+00  0.00000000000E+00  0.74505805969E-08  0.10566000000E+00  0.10566000000E+00 0.  1.
     999900   -1    0    0    0    0 -0.00000000000E+00 -0.00000000000E+00 -0.74505805969E-08  0.93827000000E+00  0.93827000000E+00 0. -1.
     999902    2    1    2    0    0  0.11074625791E-01 -0.11356973398E-01 -0.18140144603E-01  0.10198324269E+01  0.10195476870E+01 0.  0.
     999903    2    3    3    0    0  0.63289904611E-01 -0.10523281389E+00 -0.46825200143E-01  0.13283640599E+00  0.19322376768E-01 0.  0.
         14    1    1    2    0    0 -0.11074625791E-01  0.11356973398E-01  0.18140144603E-01  0.24097573061E-01  0.00000000000E+00 0.  1.
     999901    1    3    3    0    0 -0.52215278820E-01  0.93875840487E-01  0.28685055540E-01  0.88699602095E+00  0.88000000000E+00 0. -1.
        -11    1    4    4    0    0  0.46604248989E-01 -0.63902056940E-01 -0.23403228355E-01  0.82482732274E-01  0.51100000000E-03 0.  1.
         11    1    4    4    0    0  0.16685655622E-01 -0.41330756945E-01 -0.23421971788E-01  0.50353673715E-01  0.51100000000E-03 0. -1.
</event>
<event>
 8    1  0.1176534E+005  0.1043930E+01  0.7957747E-01            NaN
         13   -1    0    0    0    0  0.00000000000E+00  0.00000000000E+00  0.74505805969E-08  0.10566000000E+00  0.10566000000E+00 0. -1.
     999900   -1    0    0    0    0 -0.00000000000E+00 -0.00000000000E+00 -0.74505805969E-08  0.93827000000E+00  0.93827000000E+00 0. -1.
     999902    2    1    2    0    0 -0.22385854739E-01  0.47247038007E-02 -0.32867153200E-02  0.10208161121E+01  0.10205543997E+01 0.  0.
     999903    2    3    3    0    0 -0.73755962455E-01  0.15737980657E-01 -0.10769454938E+00  0.13308801402E+00  0.20656172827E-01 0.  0.
         14    1    1    2    0    0  0.22385854739E-01 -0.47247038007E-02  0.32867153200E-02  0.23113887946E-01  0.00000000000E+00 0.  1.
     999901    1    3    3    0    0  0.51370107716E-01 -0.11013276856E-01  0.10440783406E+00  0.88772809804E+00  0.88000000000E+00 0.  1.
        -11    1    4    4    0    0 -0.70665464736E-01  0.96672054080E-02 -0.99400244335E-01  0.12234268454E+00  0.51100000000E-03 0. -1.
         11    1    4    4    0    0 -0.30904977191E-02  0.60707752491E-02 -0.82943050436E-02  0.10745329471E-01  0.51100000000E-03 0.  1.
</event>
<event>
 8    1  0.1176534E+005  0.1043930E+01  0.7957747E-01            NaN
         13   -1    0    0    0    0  0.00000000000E+00  0.00000000000E+00  0.74505805969E-08  0.10566000000E+00  0.10566000000E+00 0. -1.
     999900   -1    0    0    0    0 -0.00000000000E+00 -0.00000000000E+00 -0.74505805969E-08  0.93827000000E+00  0.93827000000E+00 0.  1.
     999902    2    1    2    0    0  0.15437772807E-01 -0.13045401372E-01  0.12452505806E-01  0.10201903238E+01  0.10199140770E+01 0.  0.
     999903    2    3    3    0    0 -0.81522665730E-01 -0.90606424963E-01  0.43567209895E-01  0.13092930258E+00  0.19720832199E-01 0.  0.
         14    1    1    2    0    0 -0.15437772807E-01  0.13045401372E-01 -0.12452505806E-01  0.23739676220E-01  0.00000000000E+00 0.  1.
     999901    1    3    3    0    0  0.96960438537E-01  0.77561023592E-01 -0.31114704089E-01  0.88926102120E+00  0.88000000000E+00 0.  1.
        -11    1    4    4    0    0 -0.42174500043E-01 -0.54658511026E-01  0.15773928562E-01  0.70818918552E-01  0.51100000000E-03 0. -1.
         11    1    4    4    0    0 -0.39348165686E-01 -0.35947913937E-01  0.27793281333E-01  0.60110384024E-01  0.51100000000E-03 0.  1.
</event>
<event>
 8    1  0.1176534E+005  0.1043930E+01  0.7957747E-01            NaN
         13   -1    0    0    0    0  0.00000000000E+00  0.00000000000E+00  0.74505805969E-08  0.10566000000E+00  0.10566000000E+00 0. -1.
     999900   -1    0    0    0    0 -0.00000000000E+00 -0.00000000000E+00 -0.74505805969E-08  0.93827000000E+00  0.93827000000E+00 0. -1.
     999902    2    1    2    0    0 -0.15295326084E-01 -0.19004214809E-01 -0.17911134027E-02  0.10194695162E+01  0.10191760295E+01 0.  0.
     999903    2    3    3    0    0 -0.10196479241E+00  0.70518883061E-01 -0.34273612831E-01  0.13009833710E+00  0.19523447984E-01 0.  0.
         14    1    1    2    0    0  0.15295326084E-01  0.19004214809E-01  0.17911134027E-02  0.24460483800E-01  0.00000000000E+00 0.  1.
     999901    1    3    3    0    0  0.86669466322E-01 -0.89523097869E-01  0.32482499429E-01  0.88937117910E+00  0.88000000000E+00 0. -1.
        -11    1    4    4    0    0 -0.43703123263E-01  0.24335227662E-01 -0.22391192187E-01  0.54806869067E-01  0.51100000000E-03 0.  1.
         11    1    4    4    0    0 -0.58261669143E-01  0.46183655398E-01 -0.11882420644E-01  0.75291468033E-01  0.51100000000E-03 0. -1.
</event>
<event>
 8    1  0.1176534E+005  0.1043930E+01  0.7957747E-01            NaN
         13   -1    0    0    0    0  0.00000000000E+00  0.00000000000E+00  0.74505805969E-08  0.10566000000E+00  0.10566000000E+00 0. -1.
     999900   -1    0    0    0    0 -0.00000000000E+00 -0.00000000000E+00 -0.74505805969E-08  0.93827000000E+00  0.93827000000E+00 0. -1.
     999902    2    1    2    0    0 -0.23082377928E-02 -0.63743138647E-02  0.22496159992E-01  0.10204345312E+01  0.10201640042E+01 0.  0.
     999903    2    3    3    0    0  0.93124487062E-01  0.76297825185E-02 -0.85825163872E-01  0.12856176625E+00  0.20779444539E-01 0.  0.
         14    1    1    2    0    0  0.23082377928E-02  0.63743138647E-02 -0.22496159992E-01  0.23495468784E-01  0.00000000000E+00 0.  1.
     999901    1    3    3    0    0 -0.95432724855E-01 -0.14004096383E-01  0.10832132386E+00  0.89187276497E+00  0.88000000000E+00 0.  1.
        -11    1    4    4    0    0  0.60623335577E-01  0.18149344709E-02 -0.42380639682E-01  0.73992314091E-01  0.51100000000E-03 0.  1.
         11    1    4    4    0    0  0.32501151484E-01  0.58148480475E-02 -0.43444524190E-01  0.54569452157E-01  0.51100000000E-03 0. -1.
</event>
<event>
 8    1  0.1176534E+005  0.1043930E+01  0.7957747E-01            NaN
         13   -1    0    0    0    0  0.00000000000E+00  0.00000000000E+00  0.74505805969E-08  0.10566000000E+00  0.10566000000E+00 0. -1.
     999900   -1    0    0    0    0 -0.00000000000E+00 -0.00000000000E+00 -0.74505805969E-08  0.93827000000E+00  0.93827000000E+00 0. -1.
     999902    2    1    2    0    0  0.13321518186E-01  0.12249671105E-02 -0.15841516427E-01  0.10231955592E+01  0.10229854522E+01 0.  0.
     999903    2    3    3    0    0 -0.12312765581E-01  0.74765698737E-01  0.10542275877E+00  0.13147229490E+00  0.20724197353E-01 0.  0.
         14    1    1    2    0    0 -0.13321518186E-01 -0.12249671105E-02  0.15841516427E-01  0.20734440767E-01  0.00000000000E+00 0.  1.
     999901    1    3    3    0    0  0.25634283767E-01 -0.73540731626E-01 -0.12126427520E+00  0.89172326433E+00  0.88000000000E+00 0. -1.
        -11    1    4    4    0    0 -0.73729286958E-02  0.25294238842E-01  0.53183954484E-01  0.59354466822E-01  0.51100000000E-03 0. -1.
         11    1    4    4    0    0 -0.49398368848E-02  0.49471459895E-01  0.52238804286E-01  0.72117828079E-01  0.51100000000E-03 0.  1.
</event>
<event>
 8    1  0.1176534E+005  0.1043930E+01  0.7957747E-01            NaN
         13   -1    0    0    0    0  0.00000000000E+00  0.00000000000E+00  0.74505805969E-08  0.10566000000E+00  0.10566000000E+00 0.  1.
     999900   -1    0    0    0    0 -0.00000000000E+00 -0.00000000000E+00 -0.74505805969E-08  0.93827000000E+00  0.93827000000E+00 0.  1.
     999902    2    1    2    0    0  0.11559901761E-01  0.26381108333E-01 -0.20880375161E-01  0.10083549487E+01  0.10077272043E+01 0.  0.
     999903    2    3    3    0    0 -0.84803076835E-01  0.29541784217E-01 -0.79393610409E-01  0.12115733139E+00  0.17648646448E-01 0.  0.
         14    1    1    2    0    0 -0.11559901761E-01 -0.26381108333E-01  0.20880375161E-01  0.35575051265E-01  0.00000000000E+00 0. -1.
     999901    1    3    3    0    0  0.96362978597E-01 -0.31606758840E-02  0.58513235248E-01  0.88719761734E+00  0.88000000000E+00 0. -1.
        -11    1    4    4    0    0 -0.43928248151E-01  0.17066405903E-01 -0.53005235842E-01  0.70927916534E-01  0.51100000000E-03 0.  1.
         11    1    4    4    0    0 -0.40874828684E-01  0.12475378314E-01 -0.26388374567E-01  0.50229414861E-01  0.51100000000E-03 0. -1.
</event>
<event>
 8    1  0.1176534E+005  0.1043930E+01  0.7957747E-01            NaN
         13   -1    0    0    0    0  0.00000000000E+00  0.00000000000E+00  0.74505805969E-08  0.10566000000E+00  0.10566000000E+00 0. -1.
     999900   -1    0    0    0    0 -0.00000000000E+00 -0.00000000000E+00 -0.74505805969E-08  0.93827000000E+00  0.93827000000E+00 0.  1.
     999902    2    1    2    0    0  0.38914519775E-02  0.57935301381E-02 -0.22668666928E-01  0.10202112975E+01  0.10199355443E+01 0.  0.
     999903    2    3    3    0    0  0.59537573477E-01  0.37879529723E-02  0.11175523269E+00  0.12826382257E+00  0.20082452621E-01 0.  0.
         14    1    1    2    0    0 -0.38914519775E-02 -0.57935301381E-02  0.22668666928E-01  0.23718702542E-01  0.00000000000E+00 0. -1.
     999901    1    3    3    0    0 -0.55646121500E-01  0.20055771658E-02 -0.13442389962E+00  0.89194747489E+00  0.88000000000E+00 0.  1.
        -11    1    4    4    0    0  0.20434324850E-01  0.76515523874E-02  0.26091730898E-01  0.34016869760E-01  0.51100000000E-03 0. -1.
         11    1    4    4    0    0  0.39103248627E-01 -0.38635994151E-02  0.85663501788E-01  0.94246952806E-01  0.51100000000E-03 0.  1.
</event>
<event>
 8    1  0.1176534E+005  0.1043930E+01  0.7957747E-01            NaN
         13   -1    0    0    0    0  0.00000000000E+00  0.00000000000E+00  0.74505805969E-08  0.10566000000E+00  0.10566000000E+00 0. -1.
     999900   -1    0    0    0    0 -0.00000000000E+00 -0.00000000000E+00 -0.74505805969E-08  0.93827000000E+00  0.93827000000E+00 0. -1.
     999902    2    1    2    0    0  0.46334694215E-02  0.52835896698E-02 -0.25671510508E-01  0.10173139933E+01  0.10169657562E+01 0.  0.
     999903    2    3    3    0    0 -0.12109904777E+00 -0.33200963880E-01 -0.35135730531E-02  0.12726865689E+00  0.20437281089E-01 0.  0.
         14    1    1    2    0    0 -0.46334694215E-02 -0.52835896698E-02  0.25671510508E-01  0.26616006658E-01  0.00000000000E+00 0. -1.
     999901    1    3    3    0    0  0.12573251719E+00  0.38484553550E-01 -0.22157937455E-01  0.89004533645E+00  0.88000000000E+00 0. -1.
        -11    1    4    4    0    0 -0.56804835867E-01 -0.73254676252E-02  0.47300643675E-02  0.57472484580E-01  0.51100000000E-03 0. -1.
         11    1    4    4    0    0 -0.64294211903E-01 -0.25875496255E-01 -0.82436374206E-02  0.69796172313E-01  0.51100000000E-03 0.  1.
</event>
<event>
 8    1  0.1176534E+005  0.1043930E+01  0.7957747E-01            NaN
         13   -1    0    0    0    0  0.00000000000E+00  0.00000000000E+00  0.74505805969E-08  0.10566000000E+00  0.10566000000E+00 0. -1.
     999900   -1    0    0    0    0 -0.00000000000E+00 -0.00000000000E+00 -0.74505805969E-08  0.93827000000E+00  0.93827000000E+00 0.  1.
     999902    2    1    2    0    0 -0.12249842579E-01  0.77197656295E-02  0.23595389580E-01  0.10162461449E+01  0.10158690030E+01 0.  0.
     999903    2    3    3    0    0  0.47627667365E-01 -0.91148111533E-01 -0.66639121922E-01  0.12411249996E+00  0.19666396274E-01 0.  0.
         14    1    1    2    0    0  0.12249842579E-01 -0.77197656295E-02 -0.23595389580E-01  0.27683855115E-01  0.00000000000E+00 0.  1.
     999901    1    3    3    0    0 -0.59877509944E-01  0.98867877163E-01  0.90234511502E-01  0.89213364492E+00  0.88000000000E+00 0. -1.
        -11    1    4    4    0    0  0.25928944371E-01 -0.58241766167E-01 -0.51232038933E-01  0.81788730376E-01  0.51100000000E-03 0. -1.
         11    1    4    4    0    0  0.21698722994E-01 -0.32906345366E-01 -0.15407082989E-01  0.42323769589E-01  0.51100000000E-03 0.  1.
</event>
<event>
 8    1  0.1176534E+005  0.1043930E+01  0.7957747E-01            NaN
         13   -1    0    0    0    0  0.00000000000E+00  0.00000000000E+00  0.74505805969E-08  0.10566000000E+00  0.10566000000E+00 0. -1.
     999900   -1    0    0    0    0 -0.00000000000E+00 -0.00000000000E+00 -0.74505805969E-08  0.93827000000E+00  0.93827000000E+00 0.  1.
     999902    2    1    2    0    0  0.22496699691E-02 -0.47407231470E-02  0.22604344178E-01  0.10207245729E+01  0.10204607596E+01 0.  0.
     999903    2    3    3    0    0  0.52261016423E-01  0.11364263500E+00  0.37961305481E-01  0.13125754680E+00  0.11900443311E-01 0.  0.
         14    1    1    2    0    0 -0.22496699691E-02  0.47407231470E-02 -0.22604344178E-01  0.23205427094E-01  0.00000000000E+00 0.  1.
     999901    1    3    3    0    0 -0.50011346454E-01 -0.11838335815E+00 -0.15356961303E-01  0.88946702610E+00  0.88000000000E+00 0.  1.
        -11    1    4    4    0    0  0.45294051983E-02  0.96306998363E-02  0.68315734556E-02  0.12656911458E-01  0.51100000000E-03 0. -1.
         11    1    4    4    0    0  0.47731611224E-01  0.10401193517E+00  0.31129732025E-01  0.11860063535E+00  0.51100000000E-03 0.  1.
</event>
<event>
 8    1  0.1176534E+005  0.1043930E+01  0.7957747E-01            NaN
         13   -1    0    0    0    0  0.00000000000E+00  0.00000000000E+00  0.74505805969E-08  0.10566000000E+00  0.10566000000E+00 0.  1.
     999900   -1    0    0    0    0 -0.00000000000E+00 -0.00000000000E+00 -0.74505805969E-08  0.93827000000E+00  0.93827000000E+00 0.  1.
     999902    2    1    2    0    0 -0.75023528087E-03  0.20555900773E-01 -0.43107301856E-02  0.10229135706E+01  0.10226976497E+01 0.  0.
     999903    2    3    3    0    0 -0.19500235358E-01 -0.12107290251E+00  0.39259689451E-01  0.13032818988E+00  0.20129753129E-01 0.  0.
         14    1    1    2    0    0  0.75023528087E-03 -0.20555900773E-01  0.43107301856E-02  0.21016429390E-01  0.00000000000E+00 0.  1.
     999901    1    3    3    0    0  0.18750000077E-01  0.14162880328E+00 -0.43570419637E-01  0.89258538073E+00  0.88000000000E+00 0.  1.
        -11    1    4    4    0    0  0.11942997006E-02 -0.54652189826E-01  0.15742799196E-01  0.56889234940E-01  0.51100000000E-03 0.  1.
         11    1    4    4    0    0 -0.20694535058E-01 -0.66420712684E-01  0.23516890255E-01  0.73438954942E-01  0.51100000000E-03 0. -1.
</event>
<event>
 8    1  0.1176534E+005  0.1043930E+01  0.7957747E-01            NaN
         13   -1    0    0    0    0  0.00000000000E+00  0.00000000000E+00  0.74505805969E-08  0.10566000000E+00  0.10566000000E+00 0. -1.
     999900   -1    0    0    0    0 -0.00000000000E+00 -0.00000000000E+00 -0.74505805969E-08  0.93827000000E+00  0.93827000000E+00 0. -1.
     999902    2    1    2    0    0 -0.26137601709E-01  0.22016453437E-01 -0.18023195365E-02  0.10097079778E+01  0.10091278679E+01 0.  0.
     999903    2    3    3    0    0  0.45333020586E-02  0.12159117847E+00  0.74745878511E-02  0.12351280114E+00  0.19863964137E-01 0.  0.
         14    1    1    2    0    0  0.26137601709E-01 -0.22016453437E-01  0.18023195365E-02  0.34222022160E-01  0.00000000000E+00 0. -1.
     999901    1    3    3    0    0 -0.30670903767E-01 -0.99574725034E-01 -0.92769073876E-02  0.88619517670E+00  0.88000000000E+00 0.  1.
        -11    1    4    4    0    0  0.12387600303E-01  0.68869989905E-01  0.37574329790E-02  0.70077867936E-01  0.51100000000E-03 0.  1.
         11    1    4    4    0    0 -0.78542982447E-02  0.52721188566E-01  0.37171548720E-02  0.53434933200E-01  0.51100000000E-03 0. -1.
</event>
<event>
 8    1  0.1176534E+005  0.1043930E+01  0.7957747E-01            NaN
         13   -1    0    0    0    0  0.00000000000E+00  0.00000000000E+00  0.74505805969E-08  0.10566000000E+00  0.10566000000E+00 0. -1.
     999900   -1    0    0    0    0 -0.00000000000E+00 -0.00000000000E+00 -0.74505805969E-08  0.93827000000E+00  0.93827000000E+00 0.  1.
     999902    2    1    2    0    0 -0.99050838839E-02 -0.20488858064E-01  0.53010151464E-02  0.10205632554E+01  0.10202957187E+01 0.  0.
     999903    2    3    3    0    0 -0.10452575434E-01  0.18336156889E-01 -0.12661516890E+00  0.12988398589E+00  0.19823667951E-01 0.  0.
         14    1    1    2    0    0  0.99050838839E-02  0.20488858064E-01 -0.53010151464E-02  0.23366744598E-01  0.00000000000E+00 0. -1.
     999901    1    3    3    0    0  0.54749155002E-03 -0.38825014953E-01  0.13191618405E+00  0.89067926952E+00  0.88000000000E+00 0. -1.
        -11    1    4    4    0    0 -0.59058418209E-02  0.11483178663E-01 -0.27049948597E-01  0.29978378875E-01  0.51100000000E-03 0. -1.
         11    1    4    4    0    0 -0.45467336130E-02  0.68529782252E-02 -0.99565220304E-01  0.99905607011E-01  0.51100000000E-03 0.  1.
</event>
<event>
 8    1  0.1176534E+005  0.1043930E+01  0.7957747E-01            NaN
         13   -1    0    0    0    0  0.00000000000E+00  0.00000000000E+00  0.74505805969E-08  0.10566000000E+00  0.10566000000E+00 0.  1.
     999900   -1    0    0    0    0 -0.00000000000E+00 -0.00000000000E+00 -0.74505805969E-08  0.93827000000E+00  0.93827000000E+00 0. -1.
     999902    2    1    2    0    0  0.13501992011E-01 -0.16817296117E-01 -0.97966091579E-02  0.10202424761E+01  0.10199674560E+01 0.  0.
     999903    2    3    3    0    0 -0.54752414359E-01 -0.87818804323E-01  0.76817778113E-01  0.13052233459E+00  0.20618911719E-01 0.  0.
         14    1    1    2    0    0 -0.13501992011E-01  0.16817296117E-01  0.97966091579E-02  0.23687523888E-01  0.00000000000E+00 0. -1.
     999901    1    3    3    0    0  0.68254406370E-01  0.71001508206E-01 -0.86614387271E-01  0.88972014153E+00  0.88000000000E+00 0.  1.
        -11    1    4    4    0    0 -0.34706909075E-01 -0.38949075048E-01  0.44692629231E-01  0.68697104839E-01  0.51100000000E-03 0. -1.
         11    1    4    4    0    0 -0.20045505284E-01 -0.48869729275E-01  0.32125148882E-01  0.61825229746E-01  0.51100000000E-03 0.  1.
</event>
<event>
 8    1  0.1176534E+005  0.1043930E+01  0.7957747E-01            NaN
         13   -1    0    0    0    0  0.00000000000E+00  0.00000000000E+00  0.74505805969E-08  0.10566000000E+00  0.10566000000E+00 0.  1.
     999900   -1    0    0    0    0 -0.00000000000E+00 -0.00000000000E+00 -0.74505805969E-08  0.93827000000E+00  0.93827000000E+00 0. -1.
     999902    2    1    2    0    0 -0.15364881652E-01 -0.15952400971E-01  0.39052138056E-02  0.10214397937E+01  0.10211921674E+01 0.  0.
     999903    2    3    3    0    0  0.11369992571E+00 -0.57052759565E-01 -0.22496066686E-01  0.13068506225E+00  0.19743910400E-01 0.  0.
         14    1    1    2    0    0  0.15364881652E-01  0.15952400971E-01 -0.39052138056E-02  0.22490206308E-01  0.00000000000E+00 0. -1.
     999901    1    3    3    0    0 -0.12906480736E+00  0.41100358593E-01  0.26401280492E-01  0.89075473144E+00  0.88000000000E+00 0. -1.
        -11    1    4    4    0    0  0.87302899036E-01 -0.35330914053E-01 -0.12138870589E-01  0.94961481497E-01  0.51100000000E-03 0. -1.
         11    1    4    4    0    0  0.26397026675E-01 -0.21721845512E-01 -0.10357196097E-01  0.35723580752E-01  0.51100000000E-03 0.  1.
</event>
<event>
 8    1  0.1176534E+005  0.1043930E+01  0.7957747E-01            NaN
         13   -1    0    0    0    0  0.00000000000E+00  0.00000000000E+00  0.74505805969E-08  0.10566000000E+00  0.10566000000E+00 0.  1.
     999900   -1    0    0    0    0 -0.00000000000E+00 -0.00000000000E+00 -0.74505805969E-08  0.93827000000E+00  0.93827000000E+00 0. -1.
     999902    2    1    2    0    0  0.16204101699E-01 -0.14055440909E-01  0.10664194169E-01  0.10199747632E+01  0.10196934168E+01 0.  0.
     999903    2    3    3    0    0 -0.44120930187E-01 -0.43394972896E-02 -0.11877701638E+00  0.12840954632E+00  0.20384902454E-01 0.  0.
         14    1    1    2    0    0 -0.16204101699E-01  0.14055440909E-01 -0.10664194169E-01  0.23955236762E-01  0.00000000000E+00 0.  1.
     999901    1    3    3    0    0  0.60325031886E-01 -0.97159436196E-02  0.12944121055E+00  0.89156521692E+00  0.88000000000E+00 0.  1.
        -11    1    4    4    0    0 -0.31383343016E-01  0.63228466320E-02 -0.82979672537E-01  0.88942564522E-01  0.51100000000E-03 0.  1.
         11    1    4    4    0    0 -0.12737587171E-01 -0.10662343922E-01 -0.35797343844E-01  0.39466981796E-01  0.51100000000E-03 0. -1.
</event>
<event>
 8    1  0.1176534E+005  0.1043930E+01  0.7957747E-01            NaN
         13   -1    0    0    0    0  0.00000000000E+00  0.00000000000E+00  0.74505805969E-08  0.10566000000E+00  0.10566000000E+00 0.  1.
     999900   -1    0    0    0    0 -0.00000000000E+00 -0.00000000000E+00 -0.74505805969E-08  0.93827000000E+00  0.93827000000E+00 0.  1.
     999902    2    1    2    0    0 -0.37858663272E-02 -0.21927005947E-03  0.23518588333E-01  0.10201076395E+01  0.10198294423E+01 0.  0.
     999903    2    3    3    0    0 -0.12729306058E+00 -0.12081928559E-01  0.23114856864E-01  0.13140357587E+00  0.19573116042E-01 0.  0.
         14    1    1    2    0    0  0.37858663272E-02  0.21927005947E-03 -0.23518588333E-01  0.23822360512E-01  0.00000000000E+00 0. -1.
     999901    1    3    3    0    0  0.12350719426E+00  0.11862658500E-01  0.40373146833E-03  0.88870406362E+00  0.88000000000E+00 0.  1.
        -11    1    4    4    0    0 -0.35500018891E-01  0.53439126708E-02  0.54611885307E-02  0.36316586363E-01  0.51100000000E-03 0. -1.
         11    1    4    4    0    0 -0.91793041694E-01 -0.17425841230E-01  0.17653668334E-01  0.95086989503E-01  0.51100000000E-03 0.  1.
</event>
<event>
 8    1  0.1176534E+005  0.1043930E+01  0.7957747E-01            NaN
         13   -1    0    0    0    0  0.00000000000E+00  0.00000000000E+00  0.74505805969E-08  0.10566000000E+00  0.10566000000E+00 0. -1.
     999900   -1    0    0    0    0 -0.00000000000E+00 -0.00000000000E+00 -0.74505805969E-08  0.93827000000E+00  0.93827000000E+00 0. -1.
     999902    2    1    2    0    0  0.55566232320E-02 -0.10065522379E-01 -0.18111141325E-01  0.10224776285E+01  0.10222525601E+01 0.  0.
     999903    2    3    3    0    0  0.18291729737E-01 -0.94228678161E-01 -0.91875037137E-01  0.13529854171E+00  0.25515520276E-01 0.  0.
         14    1    1    2    0    0 -0.55566232320E-02  0.10065522379E-01  0.18111141325E-01  0.21452371492E-01  0.00000000000E+00 0. -1.
     999901    1    3    3    0    0 -0.12735106505E-01  0.84163155782E-01  0.73763895811E-01  0.88717908680E+00  0.88000000000E+00 0. -1.
        -11    1    4    4    0    0  0.15219982034E-01 -0.27705638794E-01 -0.39379095087E-01  0.50499747772E-01  0.51100000000E-03 0. -1.
         11    1    4    4    0    0  0.30717477033E-02 -0.66523039367E-01 -0.52495942049E-01  0.84798793937E-01  0.51100000000E-03 0.  1.
</event>
<event>
 8    1  0.1176534E+005  0.1043930E+01  0.7957747E-01            NaN
         13   -1    0    0    0    0  0.00000000000E+00  0.00000000000E+00  0.74505805969E-08  0.10566000000E+00  0.10566000000E+00 0.  1.
     999900   -1    0    0    0    0 -0.00000000000E+00 -0.00000000000E+00 -0.74505805969E-08  0.93827000000E+00  0.93827000000E+00 0.  1.
     999902    2    1    2    0    0  0.79914988734E-03 -0.50137022233E-02 -0.18591239387E-01  0.10246579987E+01  0.10244767466E+01 0.  0.
     999903    2    3    3    0    0  0.22300510798E-01 -0.66993143203E-01 -0.11552927289E+00  0.13690761605E+00  0.20280247048E-01 0.  0.
         14    1    1    2    0    0 -0.79914988734E-03  0.50137022233E-02  0.18591239387E-01  0.19272001257E-01  0.00000000000E+00 0.  1.
     999901    1    3    3    0    0 -0.21501360910E-01  0.61979440979E-01  0.96938033505E-01  0.88775038269E+00  0.88000000000E+00 0. -1.
        -11    1    4    4    0    0  0.16287825215E-01 -0.39506838923E-01 -0.51194861681E-01  0.66687769159E-01  0.51100000000E-03 0.  1.
         11    1    4    4    0    0  0.60126855827E-02 -0.27486304280E-01 -0.64334411212E-01  0.70219846894E-01  0.51100000000E-03 0. -1.
</event>
<event>
 8    1  0.1176534E+005  0.1043930E+01  0.7957747E-01            NaN
         13   -1    0    0    0    0  0.00000000000E+00  0.00000000000E+00  0.74505805969E-08  0.10566000000E+00  0.10566000000E+00 0.  1.
     999900   -1    0    0    0    0 -0.00000000000E+00 -0.00000000000E+00 -0.74505805969E-08  0.93827000000E+00  0.93827000000E+00 0.  1.
     999902    2    1    2    0    0  0.14555611086E-01 -0.33263475388E-01  0.22539335804E-02  0.10075513686E+01  0.10068944113E+01 0.  0.
     999903    2    3    3    0    0 -0.46623006382E-02 -0.12002063939E+00 -0.16079124009E-01  0.12288632763E+00  0.20391673896E-01 0.  0.
         14    1    1    2    0    0 -0.14555611086E-01  0.33263475388E-01 -0.22539335804E-02  0.36378631441E-01  0.00000000000E+00 0.  1.
     999901    1    3    3    0    0  0.19217911724E-01  0.86757163998E-01  0.18333057589E-01  0.88466504093E+00  0.88000000000E+00 0.  1.
        -11    1    4    4    0    0  0.78747846885E-02 -0.49902565797E-01 -0.45455620576E-02  0.50726734199E-01  0.51100000000E-03 0.  1.
         11    1    4    4    0    0 -0.12537085327E-01 -0.70118073589E-01 -0.11533561951E-01  0.72159593434E-01  0.51100000000E-03 0. -1.
</event>
<event>
 8    1  0.1176534E+005  0.1043930E+01  0.7957747E-01            NaN
         13   -1    0    0    0    0  0.00000000000E+00  0.00000000000E+00  0.74505805969E-08  0.10566000000E+00  0.10566000000E+00 0.  1.
     999900   -1    0    0    0    0 -0.00000000000E+00 -0.00000000000E+00 -0.74505805969E-08  0.93827000000E+00  0.93827000000E+00 0. -1.
     999902    2    1    2    0    0 -0.33937274167E-02  0.11819567160E-01  0.21328590827E-01  0.10193103262E+01  0.10190129600E+01 0.  0.
     999903    2    3    3    0    0 -0.33577879623E-01 -0.80745954683E-02 -0.12078158840E+00  0.12717683626E+00  0.19826308067E-01 0.  0.
         14    1    1    2    0    0  0.33937274167E-02 -0.11819567160E-01 -0.21328590827E-01  0.24619673846E-01  0.00000000000E+00 0. -1.
     999901    1    3    3    0    0  0.30184152206E-01  0.19894162628E-01  0.14211017923E+00  0.89213348989E+00  0.88000000000E+00 0.  1.
        -11    1    4    4    0    0 -0.34534564567E-01 -0.33896802998E-02 -0.10015900406E+00  0.10600100611E+00  0.51100000000E-03 0.  1.
         11    1    4    4    0    0  0.95668494387E-03 -0.46849151686E-02 -0.20622584348E-01  0.21175830147E-01  0.51100000000E-03 0. -1.
</event>
<event>
 8    1  0.1176534E+005  0.1043930E+01  0.7957747E-01            NaN
         13   -1    0    0    0    0  0.00000000000E+00  0.00000000000E+00  0.74505805969E-08  0.10566000000E+00  0.10566000000E+00 0. -1.
     999900   -1    0    0    0    0 -0.00000000000E+00 -0.00000000000E+00 -0.74505805969E-08  0.93827000000E+00  0.93827000000E+00 0. -1.
     999902    2    1    2    0    0  0.14005019488E-01 -0.18274012098E-01  0.35516505532E-02  0.10206341997E+01  0.10203683038E+01 0.  0.
     999903    2    3    3    0    0 -0.54220773713E-02 -0.18540225278E-01  0.12860638898E+00  0.13158067458E+00  0.20018285615E-01 0.  0.
         14    1    1    2    0    0 -0.14005019488E-01  0.18274012098E-01 -0.35516505532E-02  0.23295800280E-01  0.00000000000E+00 0. -1.
     999901    1    3    3    0    0  0.19427096859E-01  0.26621317946E-03 -0.12505473843E+00  0.88905352514E+00  0.88000000000E+00 0. -1.
        -11    1    4    4    0    0  0.23937395263E-02  0.35263876022E-02  0.16021948841E-01  0.16587023968E-01  0.51100000000E-03 0.  1.
         11    1    4    4    0    0 -0.78158168976E-02 -0.22066612880E-01  0.11258444014E+00  0.11499365061E+00  0.51100000000E-03 0. -1.
</event>
<event>
 8    1  0.1176534E+005  0.1043930E+01  0.7957747E-01            NaN
         13   -1    0    0    0    0  0.00000000000E+00  0.00000000000E+00  0.74505805969E-08  0.10566000000E+00  0.10566000000E+00 0. -1.
     999900   -1    0    0    0    0 -0.00000000000E+00 -0.00000000000E+00 -0.74505805969E-08  0.93827000000E+00  0.93827000000E+00 0.  1.
     999902    2    1    2    0    0 -0.23179438464E-01  0.33385169781E-02 -0.51756507071E-02  0.10199462675E+01  0.10196642434E+01 0.  0.
     999903    2    3    3    0    0  0.48952895136E-01  0.94638514299E-01  0.70272109433E-01  0.12908649878E+00  0.19295607581E-01 0.  0.
         14    1    1    2    0    0  0.23179438464E-01 -0.33385169781E-02  0.51756507071E-02  0.23983732474E-01  0.00000000000E+00 0. -1.
     999901    1    3    3    0    0 -0.72132333601E-01 -0.91299997321E-01 -0.75447760140E-01  0.89085976875E+00  0.88000000000E+00 0. -1.
        -11    1    4    4    0    0  0.12953573611E-01  0.44181278955E-01  0.34343962816E-01  0.57441704208E-01  0.51100000000E-03 0. -1.
         11    1    4    4    0    0  0.35999321525E-01  0.50457235345E-01  0.35928146617E-01  0.71644794572E-01  0.51100000000E-03 0.  1.
</event>
<event>
 8    1  0.1176534E+005  0.1043930E+01  0.7957747E-01            NaN
         13   -1    0    0    0    0  0.00000000000E+00  0.00000000000E+00  0.74505805969E-08  0.10566000000E+00  0.10566000000E+00 0.  1.
     999900   -1    0    0    0    0 -0.00000000000E+00 -0.00000000000E+00 -0.74505805969E-08  0.93827000000E+00  0.93827000000E+00 0.  1.
     999902    2    1    2    0    0  0.18213369865E-01 -0.72390238130E-02 -0.13418110183E-01  0.10201776109E+01  0.10199010647E+01 0.  0.
     999903    2    3    3    0    0 -0.29059466309E-01  0.99001240943E-01 -0.76919145881E-01  0.13025958296E+00  0.20132204548E-01 0.  0.
         14    1    1    2    0    0 -0.18213369865E-01  0.72390238130E-02  0.13418110183E-01  0.23752389111E-01  0.00000000000E+00 0.  1.
     999901    1    3    3    0    0  0.47272836174E-01 -0.10624026476E+00  0.63501035699E-01  0.88991802793E+00  0.88000000000E+00 0. -1.
        -11    1    4    4    0    0 -0.80775977990E-02  0.60183870999E-01 -0.39909793490E-01  0.72666351581E-01  0.51100000000E-03 0. -1.
         11    1    4    4    0    0 -0.20981868510E-01  0.38817369943E-01 -0.37009352391E-01  0.57593231381E-01  0.51100000000E-03 0.  1.
</event>
<event>
 8    1  0.1176534E+005  0.1043930E+01  0.7957747E-01            NaN
         13   -1    0    0    0    0  0.00000000000E+00  0.00000000000E+00  0.74505805969E-08  0.10566000000E+00  0.10566000000E+00 0. -1.
     999900   -1    0    0    0    0 -0.00000000000E+00 -0.00000000000E+00 -0.74505805969E-08  0.93827000000E+00  0.93827000000E+00 0. -1.
     999902    2    1    2    0    0 -0.47300960518E-02  0.17921763465E-01  0.15062780295E-01  0.10200458889E+01  0.10197662304E+01 0.  0.
     999903    2    3    3    0    0  0.30557020181E-01 -0.90313812994E-01 -0.81218842014E-01  0.12750442127E+00  0.23886415516E-01 0.  0.
         14    1    1    2    0    0  0.47300960518E-02 -0.17921763465E-01 -0.15062780295E-01  0.23884111132E-01  0.00000000000E+00 0.  1.
     999901    1    3    3    0    0 -0.35287116233E-01  0.10823557646E+00  0.96281622309E-01  0.89254146760E+00  0.88000000000E+00 0.  1.
        -11    1    4    4    0    0  0.19481591679E-01 -0.23526661335E-01 -0.26921411726E-01  0.40719279687E-01  0.51100000000E-03 0.  1.
         11    1    4    4    0    0  0.11075428502E-01 -0.66787151658E-01 -0.54297430288E-01  0.86785141586E-01  0.51100000000E-03 0. -1.
</event>
<event>
 8    1  0.1176534E+005  0.1043930E+01  0.7957747E-01            NaN
         13   -1    0    0    0    0  0.00000000000E+00  0.00000000000E+00  0.74505805969E-08  0.10566000000E+00  0.10566000000E+00 0. -1.
     999900   -1    0    0    0    0 -0.00000000000E+00 -0.00000000000E+00 -0.74505805969E-08  0.93827000000E+00  0.93827000000E+00 0. -1.
     999902    2    1    2    0    0  0.19139005069E-01 -0.15500031980E-02 -0.10434099052E-01  0.10220765232E+01  0.10218428670E+01 0.  0.
     999903    2    3    3    0    0 -0.91325098977E-01  0.89339198443E-01 -0.17445351436E-01  0.13049796642E+00  0.20090118762E-01 0.  0.
         14    1    1    2    0    0 -0.19139005069E-01  0.15500031980E-02  0.10434099052E-01  0.21853476794E-01  0.00000000000E+00 0. -1.
     999901    1    3    3    0    0  0.11046410405E+00 -0.90889201641E-01  0.70112523836E-02  0.89157855678E+00  0.88000000000E+00 0.  1.
        -11    1    4    4    0    0 -0.71439006156E-01  0.78081492185E-01 -0.93305091242E-02  0.10624297880E+00  0.51100000000E-03 0. -1.
         11    1    4    4    0    0 -0.19886092821E-01  0.11257706258E-01 -0.81148423113E-02  0.24254987624E-01  0.51100000000E-03 0.  1.
</event>
<event>
 8    1  0.1176534E+005  0.1043930E+01  0.7957747E-01            NaN
         13   -1    0    0    0    0  0.00000000000E+00  0.00000000000E+00  0.74505805969E-08  0.10566000000E+00  0.10566000000E+00 0.  1.
     999900   -1    0    0    0    0 -0.00000000000E+00 -0.00000000000E+00 -0.74505805969E-08  0.93827000000E+00  0.93827000000E+00 0. -1.
     999902    2    1    2    0    0 -0.36430327635E-02 -0.74387846686E-02  0.21361167409E-01  0.10210191581E+01  0.10207620753E+01 0.  0.
     999903    2    3    3    0    0 -0.12433062464E+00 -0.23862160084E-01 -0.27022234244E-01  0.13131349008E+00  0.22034623366E-01 0.  0.
         14    1    1    2    0    0  0.36430327635E-02  0.74387846686E-02 -0.21361167409E-01  0.22910841934E-01  0.00000000000E+00 0. -1.
     999901    1    3    3    0    0  0.12068759187E+00  0.16423375415E-01  0.48383401653E-01  0.88970566799E+00  0.88000000000E+00 0.  1.
        -11    1    4    4    0    0 -0.87246854938E-01 -0.20439367171E-01 -0.93757701902E-02  0.90099653799E-01  0.51100000000E-03 0.  1.
         11    1    4    4    0    0 -0.37083769698E-01 -0.34227929125E-02 -0.17646464054E-01  0.41213836281E-01  0.51100000000E-03 0. -1.
</event>
<event>
 7    1  0.1176534E+005  0.1043930E+01  0.7957747E-01            NaN
         13   -1    0    0    0    0  0.00000000000E+00  0.00000000000E+00  0.74505805969E-08  0.10566000000E+00  0.10566000000E+00 0. -1.
     999900   -1    0    0    0    0 -0.00000000000E+00 -0.00000000000E+00 -0.74505805969E-08  0.93827000000E+00  0.93827000000E+00 0. -1.
     999903    2    1    2    0    0  0.46623597510E-01  0.10406651676E+00 -0.11728617543E-01  0.11625024369E+00  0.19312144693E-01 0.  0.
         14    1    1    2    0    0 -0.35368012336E-01 -0.43859132460E-02 -0.21018939032E-01  0.41375455643E-01  0.00000000000E+00 0.  1.
     999901    1    1    2    0    0 -0.11255585174E-01 -0.99680603519E-01  0.32747556576E-01  0.88630430066E+00  0.88000000000E+00 0.  1.
        -11    1    3    3    0    0  0.30390831893E-01  0.44459221889E-01 -0.43652774083E-02  0.54032784880E-01  0.51100000000E-03 0. -1.
         11    1    3    3    0    0  0.16232765617E-01  0.59607294876E-01 -0.73633401350E-02  0.62217458812E-01  0.51100000000E-03 0.  1.
</event>
<event>
 8    1  0.1176534E+005  0.1043930E+01  0.7957747E-01            NaN
         13   -1    0    0    0    0  0.00000000000E+00  0.00000000000E+00  0.74505805969E-08  0.10566000000E+00  0.10566000000E+00 0.  1.
     999900   -1    0    0    0    0 -0.00000000000E+00 -0.00000000000E+00 -0.74505805969E-08  0.93827000000E+00  0.93827000000E+00 0.  1.
     999902    2    1    2    0    0 -0.18926977584E-01 -0.11105326881E-01  0.92993212850E-02  0.10200964912E+01  0.10198180304E+01 0.  0.
     999903    2    3    3    0    0 -0.76627048999E-01 -0.72044985617E-01 -0.77081443119E-01  0.13189348697E+00  0.19802990733E-01 0.  0.
         14    1    1    2    0    0  0.18926977584E-01  0.11105326881E-01 -0.92993212850E-02  0.23833508805E-01  0.00000000000E+00 0.  1.
     999901    1    3    3    0    0  0.57700071415E-01  0.60939658736E-01  0.86380764404E-01  0.88820300422E+00  0.88000000000E+00 0. -1.
        -11    1    4    4    0    0 -0.47854772540E-01 -0.53388102592E-01 -0.43323215729E-01  0.83770704278E-01  0.51100000000E-03 0.  1.
         11    1    4    4    0    0 -0.28772276459E-01 -0.18656883026E-01 -0.33758227390E-01  0.48122782696E-01  0.51100000000E-03 0. -1.
</event>
<event>
 8    1  0.1176534E+005  0.1043930E+01  0.7957747E-01            NaN
         13   -1    0    0    0    0  0.00000000000E+00  0.00000000000E+00  0.74505805969E-08  0.10566000000E+00  0.10566000000E+00 0. -1.
     999900   -1    0    0    0    0 -0.00000000000E+00 -0.00000000000E+00 -0.74505805969E-08  0.93827000000E+00  0.93827000000E+00 0. -1.
     999902    2    1    2    0    0 -0.85309171961E-02 -0.21428250013E-01 -0.41010119704E-02  0.10205042717E+01  0.10202353669E+01 0.  0.
     999903    2    3    3    0    0 -0.74414972159E-01 -0.88190838056E-01  0.63294210465E-01  0.13295705163E+00  0.18873486735E-01 0.  0.
         14    1    1    2    0    0  0.85309171961E-02  0.21428250013E-01  0.41010119704E-02  0.23425728292E-01  0.00000000000E+00 0. -1.
     999901    1    3    3    0    0  0.65884054963E-01  0.66762588043E-01 -0.67395222435E-01  0.88754722008E+00  0.88000000000E+00 0. -1.
        -11    1    4    4    0    0 -0.50020755846E-01 -0.64276559688E-01  0.35219200985E-01  0.88736719456E-01  0.51100000000E-03 0.  1.
         11    1    4    4    0    0 -0.24394216312E-01 -0.23914278368E-01  0.28075009479E-01  0.44220332174E-01  0.51100000000E-03 0. -1.
</event>
<event>
 8    1  0.1176534E+005  0.1043930E+01  0.7957747E-01            NaN
         13   -1    0    0    0    0  0.00000000000E+00  0.00000000000E+00  0.74505805969E-08  0.10566000000E+00  0.10566000000E+00 0. -1.
     999900   -1    0    0    0    0 -0.00000000000E+00 -0.00000000000E+00 -0.74505805969E-08  0.93827000000E+00  0.93827000000E+00 0. -1.
     999902    2    1    2    0    0 -0.22388695718E-01 -0.70160515060E-02  0.57668058222E-03  0.10204606320E+01  0.10201907127E+01 0.  0.
     999903    2    3    3    0    0  0.71244321649E-01 -0.39838370928E-01 -0.98433157806E-01  0.12936726163E+00  0.19594709990E-01 0.  0.
         14    1    1    2    0    0  0.22388695718E-01  0.70160515060E-02 -0.57668058222E-03  0.23469368018E-01  0.00000000000E+00 0.  1.
     999901    1    3    3    0    0 -0.93633017367E-01  0.32822319422E-01  0.99009838388E-01  0.89109337036E+00  0.88000000000E+00 0.  1.
        -11    1    4    4    0    0  0.30061974670E-01 -0.22047480143E-01 -0.31607237797E-01  0.48878341869E-01  0.51100000000E-03 0.  1.
         11    1    4    4    0    0  0.41182346979E-01 -0.17790890786E-01 -0.66825920009E-01  0.80488919758E-01  0.51100000000E-03 0. -1.
</event>
<event>
 8    1  0.1176534E+005  0.1043930E+01  0.7957747E-01            NaN
         13   -1    0    0    0    0  0.00000000000E+00  0.00000000000E+00  0.74505805969E-08  0.10566000000E+00  0.10566000000E+00 0. -1.
     999900   -1    0    0    0    0 -0.00000000000E+00 -0.00000000000E+00 -0.74505805969E-08  0.93827000000E+00  0.93827000000E+00 0. -1.
     999902    2    1    2    0    0 -0.93479685996E-02 -0.74743650737E-02 -0.19919989840E-01  0.10206908811E+01  0.10204262924E+01 0.  0.
     999903    2    3    3    0    0  0.11739203115E+00 -0.53080598775E-01  0.44717429121E-02  0.13010797500E+00  0.17596867047E-01 0.  0.
         14    1    1    2    0    0  0.93479685996E-02  0.74743650737E-02  0.19919989840E-01  0.23239118861E-01  0.00000000000E+00 0. -1.
     999901    1    3    3    0    0 -0.12673999975E+00  0.45606233701E-01 -0.24391732752E-01  0.89058290614E+00  0.88000000000E+00 0. -1.
        -11    1    4    4    0    0  0.29183420590E-01 -0.52327680590E-02  0.21185949487E-02  0.29728832208E-01  0.51100000000E-03 0.  1.
         11    1    4    4    0    0  0.88208610557E-01 -0.47847830716E-01  0.23531479634E-02  0.10037914279E+00  0.51100000000E-03 0. -1.
</event>
<event>
 8    1  0.1176534E+005  0.1043930E+01  0.7957747E-01            NaN
         13   -1    0    0    0    0  0.00000000000E+00  0.00000000000E+00  0.74505805969E-08  0.10566000000E+00  0.10566000000E+00 0. -1.
     999900   -1    0    0    0    0 -0.00000000000E+00 -0.00000000000E+00 -0.74505805969E-08  0.93827000000E+00  0.93827000000E+00 0.  1.
     999902    2    1    2    0    0 -0.16677867583E-01 -0.15209716458E-01 -0.67552341929E-03  0.10213480808E+01  0.10210984081E+01 0.  0.
     999903    2    3    3    0    0 -0.14564441645E-01  0.88556061592E-01 -0.92609026777E-01  0.13049255252E+00  0.19939293315E-01 0.  0.
         14    1    1    2    0    0  0.16677867583E-01  0.15209716458E-01  0.67552341929E-03  0.22581919178E-01  0.00000000000E+00 0. -1.
     999901    1    3    3    0    0 -0.21134259389E-02 -0.10376577805E+00  0.91933503358E-01  0.89085552830E+00  0.88000000000E+00 0.  1.
        -11    1    4    4    0    0 -0.34112098834E-02  0.71249658365E-01 -0.71254682474E-01  0.10082480382E+00  0.51100000000E-03 0.  1.
         11    1    4    4    0    0 -0.11153231761E-01  0.17306403228E-01 -0.21354344303E-01  0.29667748701E-01  0.51100000000E-03 0. -1.
</event>
<event>
 7    1  0.1874540E+005  0.1043930E+01  0.7957747E-01            NaN
         13   -1    0    0    0    0  0.00000000000E+00  0.00000000000E+00  0.74505805969E-08  0.10566000000E+00  0.10566000000E+00 0. -1.
     999900   -1    0    0    0    0 -0.00000000000E+00 -0.00000000000E+00 -0.74505805969E-08  0.93827000000E+00  0.93827000000E+00 0. -1.
     999903    2    1    2    0    0 -0.63205528420E-01  0.29585104711E-01 -0.77313166092E-01  0.10587370313E+00  0.19018362719E-01 0.  0.
         14    1    1    2    0    0  0.20976433251E-01  0.45870657933E-01  0.84339350353E-02  0.51139605702E-01  0.00000000000E+00 0.  1.
     999901    1    1    2    0    0  0.42229095169E-01 -0.75455762644E-01  0.68879231056E-01  0.88691669116E+00  0.88000000000E+00 0.  1.
        -11    1    3    3    0    0 -0.21685574768E-01  0.41077300607E-02 -0.14625186037E-01  0.26481970978E-01  0.51100000000E-03 0. -1.
         11    1    3    3    0    0 -0.41519953653E-01  0.25477374650E-01 -0.62687980055E-01  0.79391732156E-01  0.51100000000E-03 0.  1.
</event>
<event>
 8    1  0.1176534E+005  0.1043930E+01  0.7957747E-01            NaN
         13   -1    0    0    0    0  0.00000000000E+00  0.00000000000E+00  0.74505805969E-08  0.10566000000E+00  0.10566000000E+00 0. -1.
     999900   -1    0    0    0    0 -0.00000000000E+00 -0.00000000000E+00 -0.74505805969E-08  0.93827000000E+00  0.93827000000E+00 0. -1.
     999902    2    1    2    0    0 -0.10431573022E-02  0.11520053205E-01  0.20699139739E-01  0.10202181003E+01  0.10199425072E+01 0.  0.
     999903    2    3    3    0    0 -0.88715557923E-01  0.50568696841E-01 -0.78222119191E-01  0.12948993642E+00  0.14876168381E-01 0.  0.
         14    1    1    2    0    0  0.10431573022E-02 -0.11520053205E-01 -0.20699139739E-01  0.23711899733E-01  0.00000000000E+00 0.  1.
     999901    1    3    3    0    0  0.87672400621E-01 -0.39048643636E-01  0.98921258930E-01  0.89072816385E+00  0.88000000000E+00 0. -1.
        -11    1    4    4    0    0 -0.45615836685E-01  0.31648631873E-01 -0.35351368025E-01  0.65821127293E-01  0.51100000000E-03 0. -1.
         11    1    4    4    0    0 -0.43099721238E-01  0.18920064969E-01 -0.42870751166E-01  0.63668809128E-01  0.51100000000E-03 0.  1.
</event>
<event>
 8    1  0.1176534E+005  0.1043930E+01  0.7957747E-01            NaN
         13   -1    0    0    0    0  0.00000000000E+00  0.00000000000E+00  0.74505805969E-08  0.10566000000E+00  0.10566000000E+00 0. -1.
     999900   -1    0    0    0    0 -0.00000000000E+00 -0.00000000000E+00 -0.74505805969E-08  0.93827000000E+00  0.93827000000E+00 0.  1.
     999902    2    1    2    0    0 -0.16607362779E-02 -0.40220890590E-02 -0.22903633255E-01  0.10206166634E+01  0.10203503624E+01 0.  0.
     999903    2    3    3    0    0  0.11237589402E-01 -0.36821175545E-01 -0.12597786538E+00  0.13389999831E+00  0.24014674670E-01 0.  0.
         14    1    1    2    0    0  0.16607362779E-02  0.40220890590E-02  0.22903633255E-01  0.23313336562E-01  0.00000000000E+00 0. -1.
     999901    1    3    3    0    0 -0.12898325680E-01  0.32799086486E-01  0.10307423212E+00  0.88671666512E+00  0.88000000000E+00 0. -1.
        -11    1    4    4    0    0  0.11009839844E-01 -0.11856071452E-01 -0.24282423749E-01  0.29183560917E-01  0.51100000000E-03 0. -1.
         11    1    4    4    0    0  0.22774955753E-03 -0.24965104093E-01 -0.10169544163E+00  0.10471643740E+00  0.51100000000E-03 0.  1.
</event>
<event>
 8    1  0.1176534E+005  0.1043930E+01  0.7957747E-01            NaN
         13   -1    0    0    0    0  0.00000000000E+00  0.00000000000E+00  0.74505805969E-08  0.10566000000E+00  0.10566000000E+00 0.  1.
     999900   -1    0    0    0    0 -0.00000000000E+00 -0.00000000000E+00 -0.74505805969E-08  0.93827000000E+00  0.93827000000E+00 0. -1.
     999902    2    1    2    0    0 -0.10529543271E-01 -0.71357388825E-02  0.18646201836E-01  0.10213585381E+01  0.10211090992E+01 0.  0.
     999903    2    3    3    0    0 -0.64000128259E-01  0.10763441865E+00 -0.32153264102E-01  0.13084639427E+00  0.20143535067E-01 0.  0.
         14    1    1    2    0    0  0.10529543271E-01  0.71357388825E-02 -0.18646201836E-01  0.22571461933E-01  0.00000000000E+00 0.  1.
     999901    1    3    3    0    0  0.53470584988E-01 -0.11477015753E+00  0.50799465939E-01  0.89051214380E+00  0.88000000000E+00 0. -1.
        -11    1    4    4    0    0 -0.38635662690E-01  0.71567042054E-01 -0.11455628272E-01  0.82134331920E-01  0.51100000000E-03 0.  1.
         11    1    4    4    0    0 -0.25364465568E-01  0.36067376594E-01 -0.20697635830E-01  0.48712062345E-01  0.51100000000E-03 0. -1.
</event>
<event>
 8    1  0.1176534E+005  0.1043930E+01  0.7957747E-01            NaN
         13   -1    0    0    0    0  0.00000000000E+00  0.00000000000E+00  0.74505805969E-08  0.10566000000E+00  0.10566000000E+00 0.  1.
     999900   -1    0    0    0    0 -0.00000000000E+00 -0.00000000000E+00 -0.74505805969E-08  0.93827000000E+00  0.93827000000E+00 0. -1.
     999902    2    1    2    0    0  0.13434494633E-01 -0.18447868567E-01 -0.24789925666E-02  0.10209745016E+01  0.10207164043E+01 0.  0.
     999903    2    3    3    0    0 -0.11667149780E+00  0.61030328539E-02  0.51478618349E-01  0.12943552896E+00  0.21307806120E-01 0.  0.
         14    1    1    2    0    0 -0.13434494633E-01  0.18447868567E-01  0.24789925666E-02  0.22955498358E-01  0.00000000000E+00 0. -1.
     999901    1    3    3    0    0  0.13010599243E+00 -0.24550901421E-01 -0.53957610916E-01  0.89153897268E+00  0.88000000000E+00 0. -1.
        -11    1    4    4    0    0 -0.26582065327E-01  0.19696952780E-02  0.21966882636E-01  0.34544043630E-01  0.51100000000E-03 0.  1.
         11    1    4    4    0    0 -0.90089432475E-01  0.41333375759E-02  0.29511735713E-01  0.94891485334E-01  0.51100000000E-03 0. -1.
</event>
<event>
 8    1  0.1176534E+005  0.1043930E+01  0.7957747E-01            NaN
         13   -1    0    0    0    0  0.00000000000E+00  0.00000000000E+00  0.74505805969E-08  0.10566000000E+00  0.10566000000E+00 0.  1.
     999900   -1    0    0    0    0 -0.00000000000E+00 -0.00000000000E+00 -0.74505805969E-08  0.93827000000E+00  0.93827000000E+00 0.  1.
     999902    2    1    2    0    0 -0.19035429149E-01  0.59095856468E-02 -0.13319883559E-01  0.10199573059E+01  0.10196755444E+01 0.  0.
     999903    2    3    3    0    0 -0.37834930854E-01 -0.40057036767E-01  0.11520487562E+00  0.12923570776E+00  0.19840781363E-01 0.  0.
         14    1    1    2    0    0  0.19035429149E-01 -0.59095856468E-02  0.13319883559E-01  0.23972694121E-01  0.00000000000E+00 0.  1.
     999901    1    3    3    0    0  0.18799501705E-01  0.45966622414E-01 -0.12852475918E+00  0.89072159812E+00  0.88000000000E+00 0.  1.
        -11    1    4    4    0    0 -0.37504127310E-01 -0.28858178363E-01  0.94552296247E-01  0.10573434575E+00  0.51100000000E-03 0.  1.
         11    1    4    4    0    0 -0.33080354426E-03 -0.11198858404E-01  0.20652579373E-01  0.23501362010E-01  0.51100000000E-03 0. -1.
</event>
<event>
 8    1  0.1176534E+005  0.1043930E+01  0.7957747E-01            NaN
         13   -1    0    0    0    0  0.00000000000E+00  0.00000000000E+00  0.74505805969E-08  0.10566000000E+00  0.10566000000E+00 0.  1.
     999900   -1    0    0    0    0 -0.00000000000E+00 -0.00000000000E+00 -0.74505805969E-08  0.93827000000E+00  0.93827000000E+00 0.  1.
     999902    2    1    2    0    0  0.20167732343E-01  0.12242522851E-01 -0.58637798919E-02  0.10196194939E+01  0.10193296383E+01 0.  0.
     999903    2    3    3    0    0  0.39909525342E-01  0.11418224999E+00  0.48550292425E-01  0.13184568393E+00  0.19894648788E-01 0.  0.
         14    1    1    2    0    0 -0.20167732343E-01 -0.12242522851E-01  0.58637798919E-02  0.24310506129E-01  0.00000000000E+00 0.  1.
     999901    1    3    3    0    0 -0.19741792998E-01 -0.10193972713E+00 -0.54414072317E-01  0.88777380995E+00  0.88000000000E+00 0.  1.
        -11    1    4    4    0    0  0.27872126688E-01  0.73818484662E-01  0.21495906245E-01  0.81782389487E-01  0.51100000000E-03 0. -1.
         11    1    4    4    0    0  0.12037398654E-01  0.40363765324E-01  0.27054386180E-01  0.50063294439E-01  0.51100000000E-03 0.  1.
</event>
<event>
 8    1  0.1176534E+005  0.1043930E+01  0.7957747E-01            NaN
         13   -1    0    0    0    0  0.00000000000E+00  0.00000000000E+00  0.74505805969E-08  0.10566000000E+00  0.10566000000E+00 0.  1.
     999900   -1    0    0    0    0 -0.00000000000E+00 -0.00000000000E+00 -0.74505805969E-08  0.93827000000E+00  0.93827000000E+00 0.  1.
     999902    2    1    2    0    0 -0.14560164265E-01 -0.62716873958E-02  0.18098324456E-01  0.10198700375E+01  0.10195861963E+01 0.  0.
     999903    2    3    3    0    0  0.62876116793E-01  0.11001415375E+00 -0.94846889794E-02  0.12842200365E+00  0.18593859365E-01 0.  0.
         14    1    1    2    0    0  0.14560164265E-01  0.62716873958E-02 -0.18098324456E-01  0.24059962476E-01  0.00000000000E+00 0. -1.
     999901    1    3    3    0    0 -0.77436281058E-01 -0.11628584115E+00  0.27583013436E-01  0.89144803388E+00  0.88000000000E+00 0.  1.
        -11    1    4    4    0    0  0.54374635473E-02  0.80978606505E-02 -0.58321808492E-02  0.11376150992E-01  0.51100000000E-03 0.  1.
         11    1    4    4    0    0  0.57438653245E-01  0.10191629310E+00 -0.36525081302E-02  0.11704585265E+00  0.51100000000E-03 0. -1.
</event>
<event>
 8    1  0.1176534E+005  0.1043930E+01  0.7957747E-01            NaN
         13   -1    0    0    0    0  0.00000000000E+00  0.00000000000E+00  0.74505805969E-08  0.10566000000E+00  0.10566000000E+00 0. -1.
     999900   -1    0    0    0    0 -0.00000000000E+00 -0.00000000000E+00 -0.74505805969E-08  0.93827000000E+00  0.93827000000E+00 0. -1.
     999902    2    1    2    0    0 -0.12770949098E-01 -0.10493002800E-01 -0.17265615652E-01  0.10200280810E+01  0.10197480004E+01 0.  0.
     999903    2    3    3    0    0  0.25605669389E-01 -0.45640495223E-01  0.11562983314E+00  0.12852972912E+00  0.20271355354E-01 0.  0.
         14    1    1    2    0    0  0.12770949098E-01  0.10493002800E-01  0.17265615652E-01  0.23901919012E-01  0.00000000000E+00 0.  1.
     999901    1    3    3    0    0 -0.38376618487E-01  0.35147492424E-01 -0.13289544879E+00  0.89149835187E+00  0.88000000000E+00 0. -1.
        -11    1    4    4    0    0  0.25133518727E-01 -0.33699996041E-01  0.10239786288E+00  0.11069312057E+00  0.51100000000E-03 0. -1.
         11    1    4    4    0    0  0.47215066231E-03 -0.11940499182E-01  0.13231970254E-01  0.17836608556E-01  0.51100000000E-03 0.  1.
</event>
<event>
 8    1  0.1176534E+005  0.1043930E+01  0.7957747E-01            NaN
         13   -1    0    0    0    0  0.00000000000E+00  0.00000000000E+00  0.74505805969E-08  0.10566000000E+00  0.10566000000E+00 0. -1.
     999900   -1    0    0    0    0 -0.00000000000E+00 -0.00000000000E+00 -0.74505805969E-08  0.93827000000E+00  0.93827000000E+00 0. -1.
     999902    2    1    2    0    0 -0.42410989814E-02  0.14372251298E-01 -0.23398754462E-01  0.10161442080E+01  0.10157642449E+01 0.  0.
     999903    2    3    3    0    0  0.11455277852E+00 -0.44467980522E-01 -0.20325827909E-01  0.12620960303E+00  0.20395692157E-01 0.  0.
         14    1    1    2    0    0  0.42410989814E-02 -0.14372251298E-01  0.23398754462E-01  0.27785792023E-01  0.00000000000E+00 0. -1.
     999901    1    3    3    0    0 -0.11879387750E+00  0.58840231820E-01 -0.30729265529E-02  0.88993460495E+00  0.88000000000E+00 0.  1.
        -11    1    4    4    0    0  0.32759994007E-01 -0.42716732012E-02 -0.10619923993E-02  0.33058332506E-01  0.51100000000E-03 0. -1.
         11    1    4    4    0    0  0.81792784509E-01 -0.40196307321E-01 -0.19263835510E-01  0.93151270520E-01  0.51100000000E-03 0.  1.
</event>
<event>
 8    1  0.1176534E+005  0.1043930E+01  0.7957747E-01            NaN
         13   -1    0    0    0    0  0.00000000000E+00  0.00000000000E+00  0.74505805969E-08  0.10566000000E+00  0.10566000000E+00 0.  1.
     999900   -1    0    0    0    0 -0.00000000000E+00 -0.00000000000E+00 -0.74505805969E-08  0.93827000000E+00  0.93827000000E+00 0.  1.
     999902    2    1    2    0    0  0.91656923932E-02 -0.21610217322E-01 -0.58327167723E-03  0.10204491223E+01  0.10201789351E+01 0.  0.
     999903    2    3    3    0    0 -0.32326635737E-01  0.60414491971E-01  0.10718666112E+00  0.12912200807E+00  0.22104081695E-01 0.  0.
         14    1    1    2    0    0 -0.91656923932E-02  0.21610217322E-01  0.58327167723E-03  0.23480877659E-01  0.00000000000E+00 0. -1.
     999901    1    3    3    0    0  0.41492328131E-01 -0.82024709294E-01 -0.10776993279E+00  0.89132711428E+00  0.88000000000E+00 0. -1.
        -11    1    4    4    0    0 -0.11764849913E-01  0.25841676971E-01  0.25944113314E-01  0.38465076352E-01  0.51100000000E-03 0. -1.
         11    1    4    4    0    0 -0.20561785825E-01  0.34572815000E-01  0.81242547802E-01  0.90656931714E-01  0.51100000000E-03 0.  1.
</event>
<event>
 8    1  0.1176534E+005  0.1043930E+01  0.7957747E-01            NaN
         13   -1    0    0    0    0  0.00000000000E+00  0.00000000000E+00  0.74505805969E-08  0.10566000000E+00  0.10566000000E+00 0. -1.
     999900   -1    0    0    0    0 -0.00000000000E+00 -0.00000000000E+00 -0.74505805969E-08  0.93827000000E+00  0.93827000000E+00 0.  1.
     999902    2    1    2    0    0 -0.10430473997E-01 -0.13829093641E-01 -0.17046324417E-01  0.10196274118E+01  0.10193377473E+01 0.  0.
     999903    2    3    3    0    0  0.12152291710E+00  0.22115814192E-01  0.27146345874E-01  0.12796787701E+00  0.19542897230E-01 0.  0.
         14    1    1    2    0    0  0.10430473997E-01  0.13829093641E-01  0.17046324417E-01  0.24302588234E-01  0.00000000000E+00 0. -1.
     999901    1    3    3    0    0 -0.13195339110E+00 -0.35944907833E-01 -0.44192670291E-01  0.89165953476E+00  0.88000000000E+00 0.  1.
        -11    1    4    4    0    0  0.87613503530E-01  0.13364716162E-01  0.10691694957E-01  0.89271020499E-01  0.51100000000E-03 0. -1.
         11    1    4    4    0    0  0.33909413574E-01  0.87510980308E-02  0.16454650918E-01  0.38696856507E-01  0.51100000000E-03 0.  1.
</event>
<event>
 8    1  0.1176534E+005  0.1043930E+01  0.7957747E-01            NaN
         13   -1    0    0    0    0  0.00000000000E+00  0.00000000000E+00  0.74505805969E-08  0.10566000000E+00  0.10566000000E+00 0. -1.
     999900   -1    0    0    0    0 -0.00000000000E+00 -0.00000000000E+00 -0.74505805969E-08  0.93827000000E+00  0.93827000000E+00 0.  1.
     999902    2    1    2    0    0 -0.31508432820E-02 -0.21770705026E-01 -0.10116683748E-01  0.10197176333E+01  0.10194301413E+01 0.  0.
     999903    2    3    3    0    0 -0.30217684402E-01 -0.11998620340E+00 -0.44841320440E-01  0.13315985268E+00  0.20273255509E-01 0.  0.
         14    1    1    2    0    0  0.31508432820E-02  0.21770705026E-01  0.10116683748E-01  0.24212366691E-01  0.00000000000E+00 0. -1.
     999901    1    3    3    0    0  0.27066841120E-01  0.98215498373E-01  0.34724636692E-01  0.88655778063E+00  0.88000000000E+00 0. -1.
        -11    1    4    4    0    0 -0.84415181215E-02 -0.73264200738E-01 -0.24020085032E-01  0.77563702490E-01  0.51100000000E-03 0.  1.
         11    1    4    4    0    0 -0.21776166280E-01 -0.46722002661E-01 -0.20821235407E-01  0.55596150185E-01  0.51100000000E-03 0. -1.
</event>
<event>
 8    1  0.1176534E+005  0.1043930E+01  0.7957747E-01            NaN
         13   -1    0    0    0    0  0.00000000000E+00  0.00000000000E+00  0.74505805969E-08  0.10566000000E+00  0.10566000000E+00 0.  1.
     999900   -1    0    0    0    0 -0.00000000000E+00 -0.00000000000E+00 -0.74505805969E-08  0.93827000000E+00  0.93827000000E+00 0. -1.
     999902    2    1    2    0    0 -0.55797553347E-02  0.54140593234E-02 -0.30966574948E-01  0.10120023557E+01  0.10114985880E+01 0.  0.
     999903    2    3    3    0    0 -0.11377341660E-01  0.12163895377E+00 -0.68113567038E-02  0.12401287789E+00  0.20182178411E-01 0.  0.
         14    1    1    2    0    0  0.55797553347E-02 -0.54140593234E-02  0.30966574948E-01  0.31927644322E-01  0.00000000000E+00 0.  1.
     999901    1    3    3    0    0  0.57975863256E-02 -0.11622489444E+00 -0.24155218244E-01  0.88798947779E+00  0.88000000000E+00 0. -1.
        -11    1    4    4    0    0 -0.54566764710E-02  0.10285521752E+00 -0.11841289483E-01  0.10367954643E+00  0.51100000000E-03 0.  1.
         11    1    4    4    0    0 -0.59206651892E-02  0.18783736246E-01  0.50299327791E-02  0.20333331464E-01  0.51100000000E-03 0. -1.
</event>
<event>
 8    1  0.1176534E+005  0.1043930E+01  0.7957747E-01            NaN
         13   -1    0    0    0    0  0.00000000000E+00  0.00000000000E+00  0.74505805969E-08  0.10566000000E+00  0.10566000000E+00 0. -1.
     999900   -1    0    0    0    0 -0.00000000000E+00 -0.00000000000E+00 -0.74505805969E-08  0.93827000000E+00  0.93827000000E+00 0. -1.
     999902    2    1    2    0    0 -0.67070577343E-02  0.75079470026E-02  0.21237749533E-01  0.10204268960E+01  0.10201561911E+01 0.  0.
     999903    2    3    3    0    0  0.27589827617E-01  0.47337552350E-01  0.11993298229E+00  0.13335112542E+00  0.19913813271E-01 0.  0.
         14    1    1    2    0    0  0.67070577343E-02 -0.75079470026E-02 -0.21237749533E-01  0.23503103984E-01  0.00000000000E+00 0.  1.
     999901    1    3    3    0    0 -0.34296885351E-01 -0.39829605347E-01 -0.98695232760E-01  0.88707577059E+00  0.88000000000E+00 0. -1.
        -11    1    4    4    0    0  0.17527433235E-01  0.18674815009E-01  0.36781586030E-01  0.44823050134E-01  0.51100000000E-03 0.  1.
         11    1    4    4    0    0  0.10062394382E-01  0.28662737340E-01  0.83151396263E-01  0.88528075287E-01  0.51100000000E-03 0. -1.
</event>
<event>
 8    1  0.1176534E+005  0.1043930E+01  0.7957747E-01            NaN
         13   -1    0    0    0    0  0.00000000000E+00  0.00000000000E+00  0.74505805969E-08  0.10566000000E+00  0.10566000000E+00 0.  1.
     999900   -1    0    0    0    0 -0.00000000000E+00 -0.00000000000E+00 -0.74505805969E-08  0.93827000000E+00  0.93827000000E+00 0. -1.
     999902    2    1    2    0    0 -0.76105121853E-02  0.57510827612E-02 -0.21226935455E-01  0.10206581793E+01  0.10203928368E+01 0.  0.
     999903    2    3    3    0    0  0.57526151767E-01  0.64564861423E-01 -0.98868758166E-01  0.13289126274E+00  0.20178624916E-01 0.  0.
         14    1    1    2    0    0  0.76105121853E-02 -0.57510827612E-02  0.21226935455E-01  0.23271820674E-01  0.00000000000E+00 0.  1.
     999901    1    3    3    0    0 -0.65136663952E-01 -0.58813778662E-01  0.77641822711E-01  0.88776691659E+00  0.88000000000E+00 0.  1.
        -11    1    4    4    0    0  0.19709622151E-01  0.25961444797E-01 -0.51909157750E-01  0.61296717698E-01  0.51100000000E-03 0. -1.
         11    1    4    4    0    0  0.37816529616E-01  0.38603416626E-01 -0.46959600416E-01  0.71594545041E-01  0.51100000000E-03 0.  1.
</event>
<event>
 8    1  0.1176534E+005  0.1043930E+01  0.7957747E-01            NaN
         13   -1    0    0    0    0  0.00000000000E+00  0.00000000000E+00  0.74505805969E-08  0.10566000000E+00  0.10566000000E+00 0.  1.
     999900   -1    0    0    0    0 -0.00000000000E+00 -0.00000000000E+00 -0.74505805969E-08  0.93827000000E+00  0.93827000000E+00 0. -1.
     999902    2    1    2    0    0  0.62597298448E-02  0.12661029799E-01  0.19388099466E-01  0.10199428306E+01  0.10196607247E+01 0.  0.
     999903    2    3    3    0    0  0.45049732306E-01 -0.70375985189E-01  0.99635658892E-01  0.13155131731E+00  0.19905448782E-01 0.  0.
         14    1    1    2    0    0 -0.62597298448E-02 -0.12661029799E-01 -0.19388099466E-01  0.23987169366E-01  0.00000000000E+00 0.  1.
     999901    1    3    3    0    0 -0.38790002461E-01  0.83037014988E-01 -0.80247559426E-01  0.88839151332E+00  0.88000000000E+00 0. -1.
        -11    1    4    4    0    0  0.20451728009E-01 -0.48725530603E-01  0.66572717542E-01  0.84997872638E-01  0.51100000000E-03 0.  1.
         11    1    4    4    0    0  0.24598004297E-01 -0.21650454586E-01  0.33062941351E-01  0.46553444674E-01  0.51100000000E-03 0. -1.
</event>
<event>
 8    1  0.1176534E+005  0.1043930E+01  0.7957747E-01            NaN
         13   -1    0    0    0    0  0.00000000000E+00  0.00000000000E+00  0.74505805969E-08  0.10566000000E+00  0.10566000000E+00 0.  1.
     999900   -1    0    0    0    0 -0.00000000000E+00 -0.00000000000E+00 -0.74505805969E-08  0.93827000000E+00  0.93827000000E+00 0. -1.
     999902    2    1    2    0    0 -0.44278639587E-02 -0.74817072471E-02 -0.22326840494E-01  0.10199702477E+01  0.10196887940E+01 0.  0.
     999903    2    3    3    0    0  0.12139731370E+00  0.39446088165E-01 -0.12797178936E-01  0.12973151134E+00  0.19318271165E-01 0.  0.
         14    1    1    2    0    0  0.44278639587E-02  0.74817072471E-02  0.22326840494E-01  0.23959752274E-01  0.00000000000E+00 0.  1.
     999901    1    3    3    0    0 -0.12582517766E+00 -0.46927795413E-01 -0.95296615578E-02  0.89023873639E+00  0.88000000000E+00 0. -1.
        -11    1    4    4    0    0  0.10041522935E+00  0.39192860817E-01 -0.73389450054E-02  0.10804360166E+00  0.51100000000E-03 0.  1.
         11    1    4    4    0    0  0.20982084347E-01  0.25322734881E-03 -0.54582339308E-02  0.21687909679E-01  0.51100000000E-03 0. -1.
</event>
<event>
 8    1  0.1176534E+005  0.1043930E+01  0.7957747E-01            NaN
         13   -1    0    0    0    0  0.00000000000E+00  0.00000000000E+00  0.74505805969E-08  0.10566000000E+00  0.10566000000E+00 0.  1.
     999900   -1    0    0    0    0 -0.00000000000E+00 -0.00000000000E+00 -0.74505805969E-08  0.93827000000E+00  0.93827000000E+00 0. -1.
     999902    2    1    2    0    0 -0.24237812109E-01 -0.16322253052E-02 -0.21455668000E-01  0.10115188694E+01  0.10109994767E+01 0.  0.
     999903    2    3    3    0    0  0.16324771291E-01  0.11403726267E+00 -0.37757672488E-01  0.12287354706E+00  0.20031757306E-01 0.  0.
         14    1    1    2    0    0  0.24237812109E-01  0.16322253052E-02  0.21455668000E-01  0.32411130567E-01  0.00000000000E+00 0.  1.
     999901    1    3    3    0    0 -0.40562583400E-01 -0.11566948798E+00  0.16302004488E-01  0.88864532237E+00  0.88000000000E+00 0. -1.
        -11    1    4    4    0    0 -0.46013302910E-02  0.27313148711E-01 -0.82254540185E-02  0.28898088998E-01  0.51100000000E-03 0. -1.
         11    1    4    4    0    0  0.20926101582E-01  0.86724113961E-01 -0.29532218470E-01  0.93975458065E-01  0.51100000000E-03 0.  1.
</event>
<event>
 8    1  0.1176534E+005  0.1043930E+01  0.7957747E-01            NaN
         13   -1    0    0    0    0  0.00000000000E+00  0.00000000000E+00  0.74505805969E-08  0.10566000000E+00  0.10566000000E+00 0. -1.
     999900   -1    0    0    0    0 -0.00000000000E+00 -0.00000000000E+00 -0.74505805969E-08  0.93827000000E+00  0.93827000000E+00 0.  1.
     999902    2    1    2    0    0 -0.18162590116E-01  0.11170417209E-03 -0.14975057333E-01  0.10203897260E+01  0.10201181542E+01 0.  0.
     999903    2    3    3    0    0  0.34324301449E-01 -0.30615116053E-01  0.11815214664E+00  0.12830124177E+00  0.19642705634E-01 0.  0.
         14    1    1    2    0    0  0.18162590116E-01 -0.11170417209E-03  0.14975057333E-01  0.23540273993E-01  0.00000000000E+00 0. -1.
     999901    1    3    3    0    0 -0.52486891565E-01  0.30726820225E-01 -0.13312720397E+00  0.89208848423E+00  0.88000000000E+00 0.  1.
        -11    1    4    4    0    0  0.18315296486E-01 -0.27316058629E-01  0.67746404081E-01  0.75309053449E-01  0.51100000000E-03 0.  1.
         11    1    4    4    0    0  0.16009004963E-01 -0.32990574240E-02  0.50405742555E-01  0.52992188324E-01  0.51100000000E-03 0. -1.
</event>
<event>
 8    1  0.1176534E+005  0.1043930E+01  0.7957747E-01            NaN
         13   -1    0    0    0    0  0.00000000000E+00  0.00000000000E+00  0.74505805969E-08  0.10566000000E+00  0.10566000000E+00 0.  1.
     999900   -1    0    0    0    0 -0.00000000000E+00 -0.00000000000E+00 -0.74505805969E-08  0.93827000000E+00  0.93827000000E+00 0.  1.
     999902    2    1    2    0    0 -0.90313496604E-02 -0.15029416226E-01 -0.16804529048E-01  0.10196433612E+01  0.10193540814E+01 0.  0.
     999903    2    3    3    0    0 -0.11845357351E+00  0.25416862662E-01 -0.47081303376E-01  0.13142840543E+00  0.19481032838E-01 0.  0.
         14    1    1    2    0    0  0.90313496604E-02  0.15029416226E-01  0.16804529048E-01  0.24286638823E-01  0.00000000000E+00 0.  1.
     999901    1    3    3    0    0  0.10942222385E+00 -0.40446278888E-01  0.30276774329E-01  0.88821495575E+00  0.88000000000E+00 0. -1.
        -11    1    4    4    0    0 -0.25551166826E-01 -0.19553337391E-02 -0.13125602887E-01  0.28796319702E-01  0.51100000000E-03 0. -1.
         11    1    4    4    0    0 -0.92902406688E-01  0.27372196401E-01 -0.33955700489E-01  0.10263208573E+00  0.51100000000E-03 0.  1.
</event>
<event>
 8    1  0.1176534E+005  0.1043930E+01  0.7957747E-01            NaN
         13   -1    0    0    0    0  0.00000000000E+00  0.00000000000E+00  0.74505805969E-08  0.10566000000E+00  0.10566000000E+00 0. -1.
     999900   -1    0    0    0    0 -0.00000000000E+00 -0.00000000000E+00 -0.74505805969E-08  0.93827000000E+00  0.93827000000E+00 0. -1.
     999902    2    1    2    0    0  0.18936030109E-01 -0.86206037353E-02  0.12151424231E-01  0.10198354953E+01  0.10195508287E+01 0.  0.
     999903    2    3    3    0    0  0.89455190457E-01 -0.90359201314E-01 -0.30245925140E-01  0.13222539761E+00  0.20043039313E-01 0.  0.
         14    1    1    2    0    0 -0.18936030109E-01  0.86206037353E-02 -0.12151424231E-01  0.24094504683E-01  0.00000000000E+00 0.  1.
     999901    1    3    3    0    0 -0.70519160348E-01  0.81738597579E-01  0.42397349371E-01  0.88761009770E+00  0.88000000000E+00 0.  1.
        -11    1    4    4    0    0  0.72934462769E-01 -0.64834925434E-01 -0.16999197870E-01  0.99056737604E-01  0.51100000000E-03 0. -1.
         11    1    4    4    0    0  0.16520727688E-01 -0.25524275880E-01 -0.13246727270E-01  0.33168660011E-01  0.51100000000E-03 0.  1.
</event>
<event>
 8    1  0.1176534E+005  0.1043930E+01  0.7957747E-01            NaN
         13   -1    0    0    0    0  0.00000000000E+00  0.00000000000E+00  0.74505805969E-08  0.10566000000E+00  0.10566000000E+00 0.  1.
     999900   -1    0    0    0    0 -0.00000000000E+00 -0.00000000000E+00 -0.74505805969E-08  0.93827000000E+00  0.93827000000E+00 0. -1.
     999902    2    1    2    0    0  0.22329040917E-01  0.60458050037E-02 -0.53732773435E-02  0.10201811066E+01  0.10199046428E+01 0.  0.
     999903    2    3    3    0    0  0.48233631281E-01 -0.57878516829E-01 -0.10623355259E+00  0.13173855822E+00  0.19826097170E-01 0.  0.
         14    1    1    2    0    0 -0.22329040917E-01 -0.60458050037E-02  0.53732773435E-02  0.23748893360E-01  0.00000000000E+00 0.  1.
     999901    1    3    3    0    0 -0.25904590364E-01  0.63924321832E-01  0.10086027525E+00  0.88844254842E+00  0.88000000000E+00 0.  1.
        -11    1    4    4    0    0  0.16917415112E-01 -0.31336745785E-01 -0.61132849814E-01  0.70750809309E-01  0.51100000000E-03 0.  1.
         11    1    4    4    0    0  0.31316216169E-01 -0.26541771043E-01 -0.45100702774E-01  0.60987748909E-01  0.51100000000E-03 0. -1.
</event>
<event>
 8    1  0.1176534E+005  0.1043930E+01  0.7957747E-01            NaN
         13   -1    0    0    0    0  0.00000000000E+00  0.00000000000E+00  0.74505805969E-08  0.10566000000E+00  0.10566000000E+00 0.  1.
     999900   -1    0    0    0    0 -0.00000000000E+00 -0.00000000000E+00 -0.74505805969E-08  0.93827000000E+00  0.93827000000E+00 0.  1.
     999902    2    1    2    0    0 -0.28501581645E-02 -0.21142228693E-01 -0.89234638907E-02  0.10208054364E+01  0.10205434795E+01 0.  0.
     999903    2    3    3    0    0 -0.12949392836E+00 -0.81387406366E-02 -0.97709045643E-02  0.13164377874E+00  0.19992431682E-01 0.  0.
         14    1    1    2    0    0  0.28501581645E-02  0.21142228693E-01  0.89234638907E-02  0.23124563639E-01  0.00000000000E+00 0.  1.
     999901    1    3    3    0    0  0.12664377019E+00 -0.13003488057E-01  0.84744067357E-03  0.88916165762E+00  0.88000000000E+00 0.  1.
        -11    1    4    4    0    0 -0.16801650922E-01 -0.69526664765E-02 -0.48997061257E-02  0.18838876982E-01  0.51100000000E-03 0. -1.
         11    1    4    4    0    0 -0.11269227743E+00 -0.11860741601E-02 -0.48711984386E-02  0.11280490176E+00  0.51100000000E-03 0.  1.
</event>
<event>
 8    1  0.1176534E+005  0.1043930E+01  0.7957747E-01            NaN
         13   -1    0    0    0    0  0.00000000000E+00  0.00000000000E+00  0.74505805969E-08  0.10566000000E+00  0.10566000000E+00 0.  1.
     999900   -1    0    0    0    0 -0.00000000000E+00 -0.00000000000E+00 -0.74505805969E-08  0.93827000000E+00  0.93827000000E+00 0.  1.
     999902    2    1    2    0    0  0.18369992790E-01 -0.17604664409E-01  0.54226911558E-02  0.10179148809E+01  0.10175823889E+01 0.  0.
     999903    2    3    3    0    0  0.29117453495E-01 -0.42686171658E-01  0.11798710113E+00  0.13032525930E+00  0.19843936854E-01 0.  0.
         14    1    1    2    0    0 -0.18369992790E-01  0.17604664409E-01 -0.54226911558E-02  0.26015119132E-01  0.00000000000E+00 0. -1.
     999901    1    3    3    0    0 -0.10747460705E-01  0.25081507248E-01 -0.11256440998E+00  0.88758962157E+00  0.88000000000E+00 0.  1.
        -11    1    4    4    0    0  0.77731257117E-02 -0.93414295633E-02  0.51715014218E-01  0.53126148046E-01  0.51100000000E-03 0. -1.
         11    1    4    4    0    0  0.21344327783E-01 -0.33344742094E-01  0.66272086913E-01  0.77199111256E-01  0.51100000000E-03 0.  1.
</event>
<event>
 8    1  0.1176534E+005  0.1043930E+01  0.7957747E-01            NaN
         13   -1    0    0    0    0  0.00000000000E+00  0.00000000000E+00  0.74505805969E-08  0.10566000000E+00  0.10566000000E+00 0.  1.
     999900   -1    0    0    0    0 -0.00000000000E+00 -0.00000000000E+00 -0.74505805969E-08  0.93827000000E+00  0.93827000000E+00 0.  1.
     999902    2    1    2    0    0 -0.11914493875E-01  0.54311571709E-02  0.19148373452E-01  0.10207327407E+01  0.10204691152E+01 0.  0.
     999903    2    3    3    0    0  0.13400945287E-01  0.10054522380E+00 -0.78826052044E-01  0.12984186907E+00  0.18879542365E-01 0.  0.
         14    1    1    2    0    0  0.11914493875E-01 -0.54311571709E-02 -0.19148373452E-01  0.23197259286E-01  0.00000000000E+00 0. -1.
     999901    1    3    3    0    0 -0.25315439162E-01 -0.95114066624E-01  0.97974425495E-01  0.89089087165E+00  0.88000000000E+00 0. -1.
        -11    1    4    4    0    0  0.91103099628E-02  0.33909289646E-01 -0.37190877843E-01  0.51149390882E-01  0.51100000000E-03 0. -1.
         11    1    4    4    0    0  0.42906353242E-02  0.66635934149E-01 -0.41635174201E-01  0.78692478187E-01  0.51100000000E-03 0.  1.
</event>
<event>
 7    1  0.1176534E+005  0.1043930E+01  0.7957747E-01            NaN
         13   -1    0    0    0    0  0.00000000000E+00  0.00000000000E+00  0.74505805969E-08  0.10566000000E+00  0.10566000000E+00 0. -1.
     999900   -1    0    0    0    0 -0.00000000000E+00 -0.00000000000E+00 -0.74505805969E-08  0.93827000000E+00  0.93827000000E+00 0. -1.
     999902    2    1    2    0    0  0.74965949820E-02 -0.21893226735E-01 -0.72671131537E-02  0.10196746244E+01  0.10193860978E+01 0.  0.
         14    1    1    2    0    0 -0.74965949820E-02  0.21893226735E-01  0.72671131537E-02  0.24255375626E-01  0.00000000000E+00 0. -1.
     999901    1    3    3    0    0  0.38439923953E-01 -0.13863738156E+00 -0.79994126391E-02  0.89171853290E+00  0.88000000000E+00 0. -1.
        -11    1    3    3    0    0  0.46508400884E-02  0.41205176007E-01 -0.12711242531E-01  0.43374343234E-01  0.51100000000E-03 0. -1.
         11    1    3    3    0    0 -0.35594169060E-01  0.75538978818E-01  0.13443542016E-01  0.84581748237E-01  0.51100000000E-03 0.  1.
</event>
<event>
 8    1  0.1176534E+005  0.1043930E+01  0.7957747E-01            NaN
         13   -1    0    0    0    0  0.00000000000E+00  0.00000000000E+00  0.74505805969E-08  0.10566000000E+00  0.10566000000E+00 0.  1.
     999900   -1    0    0    0    0 -0.00000000000E+00 -0.00000000000E+00 -0.74505805969E-08  0.93827000000E+00  0.93827000000E+00 0. -1.
     999902    2    1    2    0    0  0.14029249444E-01  0.57528171781E-02  0.13553300920E-01  0.10235926769E+01  0.10233906202E+01 0.  0.
     999903    2    3    3    0    0  0.88885786216E-01 -0.96413483260E-01  0.22445045493E-01  0.13448046959E+00  0.19620751500E-01 0.  0.
         14    1    1    2    0    0 -0.14029249444E-01 -0.57528171781E-02 -0.13553300920E-01  0.20337323110E-01  0.00000000000E+00 0. -1.
     999901    1    3    3    0    0 -0.74856536772E-01  0.10216630044E+00 -0.88917445729E-02  0.88911220730E+00  0.88000000000E+00 0. -1.
        -11    1    4    4    0    0  0.50892621379E-01 -0.54117290921E-01  0.22503538792E-01  0.77623517484E-01  0.51100000000E-03 0. -1.
         11    1    4    4    0    0  0.37993164837E-01 -0.42296192339E-01 -0.58493299573E-04  0.56856952109E-01  0.51100000000E-03 0.  1.
</event>
<event>
 8    1  0.1176534E+005  0.1043930E+01  0.7957747E-01            NaN
         13   -1    0    0    0    0  0.00000000000E+00  0.00000000000E+00  0.74505805969E-08  0.10566000000E+00  0.10566000000E+00 0.  1.
     999900   -1    0    0    0    0 -0.00000000000E+00 -0.00000000000E+00 -0.74505805969E-08  0.93827000000E+00  0.93827000000E+00 0. -1.
     999902    2    1    2    0    0  0.19317480509E-01 -0.15810113313E-02  0.15356108574E-01  0.10192019851E+01  0.10189019637E+01 0.  0.
     999903    2    3    3    0    0  0.11692424684E+00  0.34709494289E-01 -0.43444201340E-01  0.13111327440E+00  0.20670355609E-01 0.  0.
         14    1    1    2    0    0 -0.19317480509E-01  0.15810113313E-02 -0.15356108574E-01  0.24728014894E-01  0.00000000000E+00 0. -1.
     999901    1    3    3    0    0 -0.97606766334E-01 -0.36290505620E-01  0.58800309914E-01  0.88808871070E+00  0.88000000000E+00 0.  1.
        -11    1    4    4    0    0  0.83139104490E-01  0.32662032828E-01 -0.26007264301E-01  0.93035251390E-01  0.51100000000E-03 0. -1.
         11    1    4    4    0    0  0.33785142354E-01  0.20474614607E-02 -0.17436937039E-01  0.38078023013E-01  0.51100000000E-03 0.  1.
</event>
<event>
 8    1  0.1176534E+005  0.1043930E+01  0.7957747E-01            NaN
         13   -1    0    0    0    0  0.00000000000E+00  0.00000000000E+00  0.74505805969E-08  0.10566000000E+00  0.10566000000E+00 0. -1.
     999900   -1    0    0    0    0 -0.00000000000E+00 -0.00000000000E+00 -0.74505805969E-08  0.93827000000E+00  0.93827000000E+00 0. -1.
     999902    2    1    2    0    0  0.26280430650E-02  0.29193018141E-02 -0.23076779867E-01  0.10205213114E+01  0.10202528022E+01 0.  0.
     999903    2    3    3    0    0  0.40382361454E-01 -0.83252871841E-01  0.87124351843E-01  0.12867192865E+00  0.20100665439E-01 0.  0.
         14    1    1    2    0    0 -0.26280430650E-02 -0.29193018141E-02  0.23076779867E-01  0.23408688610E-01  0.00000000000E+00 0. -1.
     999901    1    3    3    0    0 -0.37754318389E-01  0.86172173655E-01 -0.11020113171E+00  0.89184938274E+00  0.88000000000E+00 0. -1.
        -11    1    4    4    0    0  0.15129015740E-01 -0.51824848234E-01  0.55504823176E-01  0.77432218931E-01  0.51100000000E-03 0. -1.
         11    1    4    4    0    0  0.25253345714E-01 -0.31428023608E-01  0.31619528667E-01  0.51239709716E-01  0.51100000000E-03 0.  1.
</event>
<event>
 8    1  0.1176534E+005  0.1043930E+01  0.7957747E-01            NaN
         13   -1    0    0    0    0  0.00000000000E+00  0.00000000000E+00  0.74505805969E-08  0.10566000000E+00  0.10566000000E+00 0. -1.
     999900   -1    0    0    0    0 -0.00000000000E+00 -0.00000000000E+00 -0.74505805969E-08  0.93827000000E+00  0.93827000000E+00 0. -1.
     999902    2    1    2    0    0 -0.80036155285E-02  0.72375738169E-02 -0.23953408587E-01  0.10176582258E+01  0.10173190544E+01 0.  0.
     999903    2    3    3    0    0  0.10993647326E+00 -0.60124374089E-01  0.18247835968E-02  0.12686531398E+00  0.19761314350E-01 0.  0.
         14    1    1    2    0    0  0.80036155285E-02 -0.72375738169E-02  0.23953408587E-01  0.26271774193E-01  0.00000000000E+00 0. -1.
     999901    1    3    3    0    0 -0.11794008878E+00  0.67361947906E-01 -0.25778192184E-01  0.89079291183E+00  0.88000000000E+00 0. -1.
        -11    1    4    4    0    0  0.53861390198E-01 -0.27402418482E-01 -0.88156344333E-02  0.61073058088E-01  0.51100000000E-03 0.  1.
         11    1    4    4    0    0  0.56075083057E-01 -0.32721955607E-01  0.10640418030E-01  0.65792255893E-01  0.51100000000E-03 0. -1.
</event>
<event>
 8    1  0.1176534E+005  0.1043930E+01  0.7957747E-01            NaN
         13   -1    0    0    0    0  0.00000000000E+00  0.00000000000E+00  0.74505805969E-08  0.10566000000E+00  0.10566000000E+00 0. -1.
     999900   -1    0    0    0    0 -0.00000000000E+00 -0.00000000000E+00 -0.74505805969E-08  0.93827000000E+00  0.93827000000E+00 0.  1.
     999902    2    1    2    0    0 -0.20095645153E-01  0.84546967319E-02  0.10274039881E-01  0.10198286982E+01  0.10195438691E+01 0.  0.
     999903    2    3    3    0    0  0.62620548198E-01  0.61322866061E-01 -0.91781335892E-01  0.12850815450E+00  0.20216458553E-01 0.  0.
         14    1    1    2    0    0  0.20095645153E-01 -0.84546967319E-02 -0.10274039881E-01  0.24101301758E-01  0.00000000000E+00 0.  1.
     999901    1    3    3    0    0 -0.82716193351E-01 -0.52868169329E-01  0.10205537577E+00  0.89132054374E+00  0.88000000000E+00 0. -1.
        -11    1    4    4    0    0  0.37089105839E-01  0.49357023211E-01 -0.62363702860E-01  0.87756538603E-01  0.51100000000E-03 0.  1.
         11    1    4    4    0    0  0.25531442359E-01  0.11965842850E-01 -0.29417633033E-01  0.40751615898E-01  0.51100000000E-03 0. -1.
</event>
<event>
 8    1  0.1176534E+005  0.1043930E+01  0.7957747E-01            NaN
         13   -1    0    0    0    0  0.00000000000E+00  0.00000000000E+00  0.74505805969E-08  0.10566000000E+00  0.10566000000E+00 0.  1.
     999900   -1    0    0    0    0 -0.00000000000E+00 -0.00000000000E+00 -0.74505805969E-08  0.93827000000E+00  0.93827000000E+00 0.  1.
     999902    2    1    2    0    0  0.20462488849E-01 -0.88969194373E-02 -0.82753900606E-02  0.10201318760E+01  0.10198542512E+01 0.  0.
     999903    2    3    3    0    0 -0.10190590637E+00  0.58184600997E-01 -0.47193846390E-01  0.12828626112E+00  0.21443976040E-01 0.  0.
         14    1    1    2    0    0 -0.20462488849E-01  0.88969194373E-02  0.82753900606E-02  0.23798124002E-01  0.00000000000E+00 0.  1.
     999901    1    3    3    0    0  0.12236839522E+00 -0.67081520435E-01  0.38918456329E-01  0.89184561488E+00  0.88000000000E+00 0.  1.
        -11    1    4    4    0    0 -0.42903474894E-01  0.36811108836E-01 -0.22458309987E-01  0.60830935388E-01  0.51100000000E-03 0.  1.
         11    1    4    4    0    0 -0.59002431478E-01  0.21373492162E-01 -0.24735536403E-01  0.67455325732E-01  0.51100000000E-03 0. -1.
</event>
<event>
 8    1  0.1176534E+005  0.1043930E+01  0.7957747E-01            NaN
         13   -1    0    0    0    0  0.00000000000E+00  0.00000000000E+00  0.74505805969E-08  0.10566000000E+00  0.10566000000E+00 0. -1.
     999900   -1    0    0    0    0 -0.00000000000E+00 -0.00000000000E+00 -0.74505805969E-08  0.93827000000E+00  0.93827000000E+00 0.  1.
     999902    2    1    2    0    0 -0.11788128030E-01 -0.20749505203E-01 -0.67554452667E-02  0.10191280249E+01  0.10188261840E+01 0.  0.
     999903    2    3    3    0    0 -0.69363023276E-01  0.25841868915E-01 -0.10550937032E+00  0.13051226855E+00  0.20547355754E-01 0.  0.
         14    1    1    2    0    0  0.11788128030E-01  0.20749505203E-01  0.67554452667E-02  0.24801975110E-01  0.00000000000E+00 0.  1.
     999901    1    3    3    0    0  0.57574895245E-01 -0.46591374119E-01  0.98753925057E-01  0.88861575634E+00  0.88000000000E+00 0. -1.
        -11    1    4    4    0    0 -0.26979919229E-01  0.12921962797E-01 -0.26703451612E-01  0.40102725756E-01  0.51100000000E-03 0.  1.
         11    1    4    4    0    0 -0.42383104047E-01  0.12919906119E-01 -0.78805918712E-01  0.90409542791E-01  0.51100000000E-03 0. -1.
</event>
<event>
 8    1  0.1176534E+005  0.1043930E+01  0.7957747E-01            NaN
         13   -1    0    0    0    0  0.00000000000E+00  0.00000000000E+00  0.74505805969E-08  0.10566000000E+00  0.10566000000E+00 0. -1.
     999900   -1    0    0    0    0 -0.00000000000E+00 -0.00000000000E+00 -0.74505805969E-08  0.93827000000E+00  0.93827000000E+00 0. -1.
     999902    2    1    2    0    0 -0.17689706982E-01  0.13898112299E-01 -0.64145050886E-02  0.10205370709E+01  0.10202689272E+01 0.  0.
     999903    2    3    3    0    0  0.12248680357E+00 -0.12485462211E-01  0.29919518823E-01  0.12831192639E+00  0.20245222481E-01 0.  0.
         14    1    1    2    0    0  0.17689706982E-01 -0.13898112299E-01  0.64145050886E-02  0.23392929147E-01  0.00000000000E+00 0.  1.
     999901    1    3    3    0    0 -0.14017651055E+00  0.26383574510E-01 -0.36334023912E-01  0.89222514446E+00  0.88000000000E+00 0. -1.
        -11    1    4    4    0    0  0.22496554345E-01 -0.48215670416E-02  0.13532551893E-01  0.26697070024E-01  0.51100000000E-03 0.  1.
         11    1    4    4    0    0  0.99990249222E-01 -0.76638951690E-02  0.16386966930E-01  0.10161485637E+00  0.51100000000E-03 0. -1.
</event>
<event>
 8    1  0.1176534E+005  0.1043930E+01  0.7957747E-01            NaN
         13   -1    0    0    0    0  0.00000000000E+00  0.00000000000E+00  0.74505805969E-08  0.10566000000E+00  0.10566000000E+00 0. -1.
     999900   -1    0    0    0    0 -0.00000000000E+00 -0.00000000000E+00 -0.74505805969E-08  0.93827000000E+00  0.93827000000E+00 0.  1.
     999902    2    1    2    0    0  0.11198959991E-01 -0.20154248857E-01 -0.46551981834E-02  0.10204080672E+01  0.10201369233E+01 0.  0.
     999903    2    3    3    0    0 -0.58064437116E-01 -0.11754259122E+00  0.10350685889E-02  0.13231219033E+00  0.17824273733E-01 0.  0.
         14    1    1    2    0    0 -0.11198959991E-01  0.20154248857E-01  0.46551981834E-02  0.23521932786E-01  0.00000000000E+00 0. -1.
     999901    1    3    3    0    0  0.69263397107E-01  0.97388342362E-01 -0.56902667723E-02  0.88809587689E+00  0.88000000000E+00 0. -1.
        -11    1    4    4    0    0 -0.31273515993E-01 -0.70589171498E-01 -0.75372016221E-02  0.77575347015E-01  0.51100000000E-03 0.  1.
         11    1    4    4    0    0 -0.26790921123E-01 -0.46953419721E-01  0.85722702110E-02  0.54736843312E-01  0.51100000000E-03 0. -1.
</event>
<event>
 8    1  0.1176534E+005  0.1043930E+01  0.7957747E-01            NaN
         13   -1    0    0    0    0  0.00000000000E+00  0.00000000000E+00  0.74505805969E-08  0.10566000000E+00  0.10566000000E+00 0. -1.
     999900   -1    0    0    0    0 -0.00000000000E+00 -0.00000000000E+00 -0.74505805969E-08  0.93827000000E+00  0.93827000000E+00 0.  1.
     999902    2    1    2    0    0  0.12013331845E-02 -0.23162284033E-01  0.12362170857E-01  0.10176477271E+01  0.10173082810E+01 0.  0.
     999903    2    3    3    0    0 -0.92234096042E-01  0.48142549716E-01  0.71707023125E-01  0.12785203688E+00  0.19478516473E-01 0.  0.
         14    1    1    2    0    0 -0.12013331845E-02  0.23162284033E-01 -0.12362170857E-01  0.26282272949E-01  0.00000000000E+00 0.  1.
     999901    1    3    3    0    0  0.93435429226E-01 -0.71304833749E-01 -0.59344852268E-01  0.88979569017E+00  0.88000000000E+00 0.  1.
        -11    1    4    4    0    0 -0.79954610860E-01  0.33873443143E-01  0.55973971336E-01  0.10331261557E+00  0.51100000000E-03 0.  1.
         11    1    4    4    0    0 -0.12279485182E-01  0.14269106573E-01  0.15733051789E-01  0.24539421312E-01  0.51100000000E-03 0. -1.
</event>
<event>
 8    1  0.1176534E+005  0.1043930E+01  0.7957747E-01            NaN
         13   -1    0    0    0    0  0.00000000000E+00  0.00000000000E+00  0.74505805969E-08  0.10566000000E+00  0.10566000000E+00 0. -1.
     999900   -1    0    0    0    0 -0.00000000000E+00 -0.00000000000E+00 -0.74505805969E-08  0.93827000000E+00  0.93827000000E+00 0.  1.
     999902    2    1    2    0    0 -0.14469437128E-01 -0.17859890506E-01  0.38940163089E-02  0.10206168350E+01  0.10203505379E+01 0.  0.
     999903    2    3    3    0    0 -0.70357273921E-01 -0.19851584071E-01  0.10864652670E+00  0.13264132543E+00  0.21105024659E-01 0.  0.
         14    1    1    2    0    0  0.14469437128E-01  0.17859890506E-01 -0.38940163089E-02  0.23313165008E-01  0.00000000000E+00 0. -1.
     999901    1    3    3    0    0  0.55887836794E-01  0.19916935652E-02 -0.10475251039E+00  0.88797550956E+00  0.88000000000E+00 0.  1.
        -11    1    4    4    0    0 -0.42024506700E-01 -0.41364015495E-02  0.74008125558E-01  0.85209346616E-01  0.51100000000E-03 0.  1.
         11    1    4    4    0    0 -0.28332767221E-01 -0.15715182522E-01  0.34638401137E-01  0.47431978816E-01  0.51100000000E-03 0. -1.
</event>
<event>
 8    1  0.1176534E+005  0.1043930E+01  0.7957747E-01            NaN
         13   -1    0    0    0    0  0.00000000000E+00  0.00000000000E+00  0.74505805969E-08  0.10566000000E+00  0.10566000000E+00 0. -1.
     999900   -1    0    0    0    0 -0.00000000000E+00 -0.00000000000E+00 -0.74505805969E-08  0.93827000000E+00  0.93827000000E+00 0.  1.
     999902    2    1    2    0    0 -0.14934977700E-01 -0.15075348246E-01 -0.10505937331E-01  0.10202510135E+01  0.10199761939E+01 0.  0.
     999903    2    3    3    0    0  0.83617971730E-02  0.31882561879E-01  0.12273408242E+00  0.12867898167E+00  0.20204156279E-01 0.  0.
         14    1    1    2    0    0  0.14934977700E-01  0.15075348246E-01  0.10505937331E-01  0.23678986525E-01  0.00000000000E+00 0. -1.
     999901    1    3    3    0    0 -0.23296774873E-01 -0.46957910125E-01 -0.13324001975E+00  0.89157203181E+00  0.88000000000E+00 0.  1.
        -11    1    4    4    0    0  0.13638044107E-02 -0.21427249684E-02  0.21372861949E-01  0.21529319117E-01  0.51100000000E-03 0. -1.
         11    1    4    4    0    0  0.69979927624E-02  0.34025286848E-01  0.10136122047E+00  0.10714966255E+00  0.51100000000E-03 0.  1.
</event>
<event>
 8    1  0.1176534E+005  0.1043930E+01  0.7957747E-01            NaN
         13   -1    0    0    0    0  0.00000000000E+00  0.00000000000E+00  0.74505805969E-08  0.10566000000E+00  0.10566000000E+00 0.  1.
     999900   -1    0    0    0    0 -0.00000000000E+00 -0.00000000000E+00 -0.74505805969E-08  0.93827000000E+00  0.93827000000E+00 0.  1.
     999902    2    1    2    0    0  0.19123373213E-01 -0.10506633859E-01  0.47884809277E-02  0.10215911928E+01  0.10213469258E+01 0.  0.
     999903    2    3    3    0    0  0.56207680852E-01 -0.11004662788E+00  0.48194170653E-01  0.13414118846E+00  0.20040375811E-01 0.  0.
         14    1    1    2    0    0 -0.19123373213E-01  0.10506633859E-01 -0.47884809277E-02  0.22338807213E-01  0.00000000000E+00 0.  1.
     999901    1    3    3    0    0 -0.37084307638E-01  0.99539994017E-01 -0.43405689726E-01  0.88745000433E+00  0.88000000000E+00 0.  1.
        -11    1    4    4    0    0  0.31108679401E-01 -0.77030631144E-01  0.38411519788E-01  0.91526903377E-01  0.51100000000E-03 0.  1.
         11    1    4    4    0    0  0.25099001451E-01 -0.33015996732E-01  0.97826508655E-02  0.42614285081E-01  0.51100000000E-03 0. -1.
</event>
<event>
 8    1  0.1176534E+005  0.1043930E+01  0.7957747E-01            NaN
         13   -1    0    0    0    0  0.00000000000E+00  0.00000000000E+00  0.74505805969E-08  0.10566000000E+00  0.10566000000E+00 0. -1.
     999900   -1    0    0    0    0 -0.00000000000E+00 -0.00000000000E+00 -0.74505805969E-08  0.93827000000E+00  0.93827000000E+00 0. -1.
     999902    2    1    2    0    0  0.23364902065E-01  0.52907661477E-02 -0.17623872539E-02  0.10199088247E+01  0.10196259088E+01 0.  0.
     999903    2    3    3    0    0  0.11504456136E+00  0.43372406487E-01  0.46290352599E-01  0.13302414386E+00  0.20885625757E-01 0.  0.
         14    1    1    2    0    0 -0.23364902065E-01 -0.52907661477E-02  0.17623872539E-02  0.24021175320E-01  0.00000000000E+00 0.  1.
     999901    1    3    3    0    0 -0.91679659298E-01 -0.38081640339E-01 -0.48052739853E-01  0.88688468082E+00  0.88000000000E+00 0.  1.
        -11    1    4    4    0    0  0.78078691664E-01  0.35455921453E-01  0.40277635366E-01  0.94741508800E-01  0.51100000000E-03 0. -1.
         11    1    4    4    0    0  0.36965869699E-01  0.79164850341E-02  0.60127172333E-02  0.38282635064E-01  0.51100000000E-03 0.  1.
</event>
<event>
 8    1  0.1176534E+005  0.1043930E+01  0.7957747E-01            NaN
         13   -1    0    0    0    0  0.00000000000E+00  0.00000000000E+00  0.74505805969E-08  0.10566000000E+00  0.10566000000E+00 0. -1.
     999900   -1    0    0    0    0 -0.00000000000E+00 -0.00000000000E+00 -0.74505805969E-08  0.93827000000E+00  0.93827000000E+00 0.  1.
     999902    2    1    2    0    0  0.17256513528E-01 -0.17388703280E-01  0.38329074941E-02  0.10191339229E+01  0.10188322273E+01 0.  0.
     999903    2    3    3    0    0  0.10063199226E+00 -0.84084157144E-01  0.30372385665E-02  0.13268009604E+00  0.19945919841E-01 0.  0.
         14    1    1    2    0    0 -0.17256513528E-01  0.17388703280E-01 -0.38329074941E-02  0.24796077125E-01  0.00000000000E+00 0. -1.
     999901    1    3    3    0    0 -0.83375478734E-01  0.66695453863E-01  0.79566892763E-03  0.88645382683E+00  0.88000000000E+00 0.  1.
        -11    1    4    4    0    0  0.69812274436E-01 -0.46145349133E-01  0.40944054751E-02  0.83786467796E-01  0.51100000000E-03 0. -1.
         11    1    4    4    0    0  0.30819717826E-01 -0.37938808011E-01 -0.10571669087E-02  0.48893628245E-01  0.51100000000E-03 0.  1.
</event>
<event>
 8    1  0.1176534E+005  0.1043930E+01  0.7957747E-01            NaN
         13   -1    0    0    0    0  0.00000000000E+00  0.00000000000E+00  0.74505805969E-08  0.10566000000E+00  0.10566000000E+00 0.  1.
     999900   -1    0    0    0    0 -0.00000000000E+00 -0.00000000000E+00 -0.74505805969E-08  0.93827000000E+00  0.93827000000E+00 0.  1.
     999902    2    1    2    0    0 -0.14181999373E-01 -0.11435147264E-01 -0.13973434985E-01  0.10209702834E+01  0.10207120902E+01 0.  0.
     999903    2    3    3    0    0  0.63899657907E-01  0.23984444917E-02 -0.11365197951E+00  0.13179992535E+00  0.19118814325E-01 0.  0.
         14    1    1    2    0    0  0.14181999373E-01  0.11435147264E-01  0.13973434985E-01  0.22959716558E-01  0.00000000000E+00 0.  1.
     999901    1    3    3    0    0 -0.78081657280E-01 -0.13833591755E-01  0.99678544520E-01  0.88917035809E+00  0.88000000000E+00 0. -1.
        -11    1    4    4    0    0  0.28562256084E-01 -0.80081030631E-02 -0.56199992164E-01  0.63550235464E-01  0.51100000000E-03 0.  1.
         11    1    4    4    0    0  0.35337401823E-01  0.10406547555E-01 -0.57451987342E-01  0.68249689890E-01  0.51100000000E-03 0. -1.
</event>
<event>
 8    1  0.1176534E+005  0.1043930E+01  0.7957747E-01            NaN
         13   -1    0    0    0    0  0.00000000000E+00  0.00000000000E+00  0.74505805969E-08  0.10566000000E+00  0.10566000000E+00 0. -1.
     999900   -1    0    0    0    0 -0.00000000000E+00 -0.00000000000E+00 -0.74505805969E-08  0.93827000000E+00  0.93827000000E+00 0. -1.
     999902    2    1    2    0    0  0.19892250631E-01  0.98515753524E-02  0.27237073261E-02  0.10215654353E+01  0.10213205985E+01 0.  0.
     999903    2    3    3    0    0 -0.15970835738E-01  0.24600165868E-01  0.12713230392E+00  0.13196935799E+00  0.19825564087E-01 0.  0.
         14    1    1    2    0    0 -0.19892250631E-01 -0.98515753524E-02 -0.27237073261E-02  0.22364564688E-01  0.00000000000E+00 0.  1.
     999901    1    3    3    0    0  0.35863086369E-01 -0.14748590515E-01 -0.12440859660E+00  0.88959607733E+00  0.88000000000E+00 0. -1.
        -11    1    4    4    0    0  0.44776084148E-02  0.37354339165E-02  0.28750851786E-01  0.29340672164E-01  0.51100000000E-03 0.  1.
         11    1    4    4    0    0 -0.20448444152E-01  0.20864731951E-01  0.98381452138E-01  0.10262868582E+00  0.51100000000E-03 0. -1.
</event>
<event>
 8    1  0.1176534E+005  0.1043930E+01  0.7957747E-01            NaN
         13   -1    0    0    0    0  0.00000000000E+00  0.00000000000E+00  0.74505805969E-08  0.10566000000E+00  0.10566000000E+00 0.  1.
     999900   -1    0    0    0    0 -0.00000000000E+00 -0.00000000000E+00 -0.74505805969E-08  0.93827000000E+00  0.93827000000E+00 0.  1.
     999902    2    1    2    0    0 -0.93769052926E-02 -0.18281297946E-01  0.11459724060E-01  0.10204043229E+01  0.10201330917E+01 0.  0.
     999903    2    3    3    0    0  0.15589753676E-01 -0.86141393766E-01 -0.95687548807E-01  0.13096131475E+00  0.18203813467E-01 0.  0.
         14    1    1    2    0    0  0.93769052926E-02  0.18281297946E-01 -0.11459724060E-01  0.23525677100E-01  0.00000000000E+00 0. -1.
     999901    1    3    3    0    0 -0.24966658969E-01  0.67860095820E-01  0.10714727287E+00  0.88944300815E+00  0.88000000000E+00 0. -1.
        -11    1    4    4    0    0  0.13355863151E-01 -0.34806819414E-01 -0.48679490227E-01  0.61317596560E-01  0.51100000000E-03 0.  1.
         11    1    4    4    0    0  0.22338905255E-02 -0.51334574352E-01 -0.47008058581E-01  0.69643718190E-01  0.51100000000E-03 0. -1.
</event>
<event>
 8    1  0.1176534E+005  0.1043930E+01  0.7957747E-01            NaN
         13   -1    0    0    0    0  0.00000000000E+00  0.00000000000E+00  0.74505805969E-08  0.10566000000E+00  0.10566000000E+00 0.  1.
     999900   -1    0    0    0    0 -0.00000000000E+00 -0.00000000000E+00 -0.74505805969E-08  0.93827000000E+00  0.93827000000E+00 0.  1.
     999902    2    1    2    0    0 -0.93940343393E-03  0.22374798258E-01  0.90431597713E-02  0.10197785443E+01  0.10194925142E+01 0.  0.
     999903    2    3    3    0    0 -0.26182341981E-01  0.24246582121E-01 -0.12272274358E+00  0.12960835670E+00  0.21541647080E-01 0.  0.
         14    1    1    2    0    0  0.93940343393E-03 -0.22374798258E-01 -0.90431597713E-02  0.24151455744E-01  0.00000000000E+00 0. -1.
     999901    1    3    3    0    0  0.25242938547E-01 -0.18717838634E-02  0.13176590335E+00  0.89017018755E+00  0.88000000000E+00 0. -1.
        -11    1    4    4    0    0 -0.24771853494E-01  0.94527399633E-02 -0.85766766122E-01  0.89773037770E-01  0.51100000000E-03 0.  1.
         11    1    4    4    0    0 -0.14104884876E-02  0.14793842158E-01 -0.36955977460E-01  0.39835318934E-01  0.51100000000E-03 0. -1.
</event>
<event>
 8    1  0.1176534E+005  0.1043930E+01  0.7957747E-01            NaN
         13   -1    0    0    0    0  0.00000000000E+00  0.00000000000E+00  0.74505805969E-08  0.10566000000E+00  0.10566000000E+00 0.  1.
     999900   -1    0    0    0    0 -0.00000000000E+00 -0.00000000000E+00 -0.74505805969E-08  0.93827000000E+00  0.93827000000E+00 0.  1.
     999902    2    1    2    0    0 -0.22845303754E-01  0.43104388037E-03 -0.91425956992E-02  0.10193194178E+01  0.10190222739E+01 0.  0.
     999903    2    3    3    0    0  0.58510562269E-01 -0.17063336736E-01 -0.11233449395E+00  0.12939054523E+00  0.20204734736E-01 0.  0.
         14    1    1    2    0    0  0.22845303754E-01 -0.43104388037E-03  0.91425956992E-02  0.24610582248E-01  0.00000000000E+00 0. -1.
     999901    1    3    3    0    0 -0.81355866024E-01  0.17494380617E-01  0.10319189825E+00  0.88992887253E+00  0.88000000000E+00 0. -1.
        -11    1    4    4    0    0  0.24199448861E-01 -0.78663074908E-02 -0.27780154395E-01  0.37676122649E-01  0.51100000000E-03 0.  1.
         11    1    4    4    0    0  0.34311113409E-01 -0.91970292456E-02 -0.84554339554E-01  0.91714422578E-01  0.51100000000E-03 0. -1.
</event>
<event>
 8    1  0.1176534E+005  0.1043930E+01  0.7957747E-01            NaN
         13   -1    0    0    0    0  0.00000000000E+00  0.00000000000E+00  0.74505805969E-08  0.10566000000E+00  0.10566000000E+00 0. -1.
     999900   -1    0    0    0    0 -0.00000000000E+00 -0.00000000000E+00 -0.74505805969E-08  0.93827000000E+00  0.93827000000E+00 0.  1.
     999902    2    1    2    0    0 -0.21944105317E-01 -0.60503176439E-02  0.78871038737E-02  0.10198394104E+01  0.10195548374E+01 0.  0.
     999903    2    3    3    0    0 -0.19923223997E-01 -0.12687662496E+00  0.20784864883E-01  0.13148732208E+00  0.19033981301E-01 0.  0.
         14    1    1    2    0    0  0.21944105317E-01  0.60503176439E-02 -0.78871038737E-02  0.24090589642E-01  0.00000000000E+00 0.  1.
     999901    1    3    3    0    0 -0.20208813208E-02  0.12082630732E+00 -0.12897761009E-01  0.88835208827E+00  0.88000000000E+00 0.  1.
        -11    1    4    4    0    0 -0.17575193393E-01 -0.55897281814E-01  0.56199432130E-02  0.58866275741E-01  0.51100000000E-03 0. -1.
         11    1    4    4    0    0 -0.23480306040E-02 -0.70979343150E-01  0.15164921670E-01  0.72621046343E-01  0.51100000000E-03 0.  1.
</event>
<event>
 8    1  0.1176534E+005  0.1043930E+01  0.7957747E-01            NaN
         13   -1    0    0    0    0  0.00000000000E+00  0.00000000000E+00  0.74505805969E-08  0.10566000000E+00  0.10566000000E+00 0. -1.
     999900   -1    0    0    0    0 -0.00000000000E+00 -0.00000000000E+00 -0.74505805969E-08  0.93827000000E+00  0.93827000000E+00 0.  1.
     999902    2    1    2    0    0  0.18952644969E-01  0.11867524524E-01 -0.78098405094E-02  0.10202438332E+01  0.10199688449E+01 0.  0.
     999903    2    3    3    0    0  0.14789990015E-01  0.11717457475E+00  0.54691101783E-01  0.13175451400E+00  0.20481957244E-01 0.  0.
         14    1    1    2    0    0 -0.18952644969E-01 -0.11867524524E-01  0.78098405094E-02  0.23686166816E-01  0.00000000000E+00 0. -1.
     999901    1    3    3    0    0  0.41626549544E-02 -0.10530705022E+00 -0.62500942292E-01  0.88848931919E+00  0.88000000000E+00 0.  1.
        -11    1    4    4    0    0  0.57017243029E-02  0.10081403726E+00  0.48623254588E-01  0.11207346598E+00  0.51100000000E-03 0.  1.
         11    1    4    4    0    0  0.90882657121E-02  0.16360537485E-01  0.60678471948E-02  0.19681048017E-01  0.51100000000E-03 0. -1.
</event>
<event>
 8    1  0.1176534E+005  0.1043930E+01  0.7957747E-01            NaN
         13   -1    0    0    0    0  0.00000000000E+00  0.00000000000E+00  0.74505805969E-08  0.10566000000E+00  0.10566000000E+00 0.  1.
     999900   -1    0    0    0    0 -0.00000000000E+00 -0.00000000000E+00 -0.74505805969E-08  0.93827000000E+00  0.93827000000E+00 0. -1.
     999902    2    1    2    0    0 -0.60135858799E-02  0.76728983663E-02  0.21776982126E-01  0.10200705462E+01  0.10197914717E+01 0.  0.
     999903    2    3    3    0    0 -0.89938552399E-01 -0.52070212785E-01 -0.73670888012E-01  0.12893479042E+00  0.19913065401E-01 0.  0.
         14    1    1    2    0    0  0.60135858799E-02 -0.76728983663E-02 -0.21776982126E-01  0.23859453786E-01  0.00000000000E+00 0. -1.
     999901    1    3    3    0    0  0.83924966520E-01  0.59743111151E-01  0.95447870138E-01  0.89113575579E+00  0.88000000000E+00 0.  1.
        -11    1    4    4    0    0 -0.19658347678E-01 -0.15531501174E-01 -0.27684007993E-01  0.37340910296E-01  0.51100000000E-03 0. -1.
         11    1    4    4    0    0 -0.70280204721E-01 -0.36538711611E-01 -0.45986880020E-01  0.91593880127E-01  0.51100000000E-03 0.  1.
</event>
<event>
 8    1  0.1176534E+005  0.1043930E+01  0.7957747E-01            NaN
         13   -1    0    0    0    0  0.00000000000E+00  0.00000000000E+00  0.74505805969E-08  0.10566000000E+00  0.10566000000E+00 0. -1.
     999900   -1    0    0    0    0 -0.00000000000E+00 -0.00000000000E+00 -0.74505805969E-08  0.93827000000E+00  0.93827000000E+00 0. -1.
     999902    2    1    2    0    0  0.82342338033E-02  0.11358490328E-01 -0.18568666997E-01  0.10206574131E+01  0.10203920529E+01 0.  0.
     999903    2    3    3    0    0  0.53883724323E-01  0.90260087145E-01 -0.80248739378E-01  0.13380129773E+00  0.20312262912E-01 0.  0.
         14    1    1    2    0    0 -0.82342338033E-02 -0.11358490328E-01  0.18568666997E-01  0.23272586941E-01  0.00000000000E+00 0. -1.
     999901    1    3    3    0    0 -0.45649490519E-01 -0.78901596817E-01  0.61680072381E-01  0.88685611533E+00  0.88000000000E+00 0.  1.
        -11    1    4    4    0    0  0.21488376394E-01  0.41377900993E-01 -0.23581750741E-01  0.52251709059E-01  0.51100000000E-03 0. -1.
         11    1    4    4    0    0  0.32395347928E-01  0.48882186152E-01 -0.56666988637E-01  0.81549588672E-01  0.51100000000E-03 0.  1.
</event>
<event>
 8    1  0.1176534E+005  0.1043930E+01  0.7957747E-01            NaN
         13   -1    0    0    0    0  0.00000000000E+00  0.00000000000E+00  0.74505805969E-08  0.10566000000E+00  0.10566000000E+00 0.  1.
     999900   -1    0    0    0    0 -0.00000000000E+00 -0.00000000000E+00 -0.74505805969E-08  0.93827000000E+00  0.93827000000E+00 0. -1.
     999902    2    1    2    0    0  0.68892854200E-02 -0.14378805513E-02 -0.22093862303E-01  0.10207423200E+01  0.10204789147E+01 0.  0.
     999903    2    3    3    0    0  0.10257468147E+00  0.74511289583E-01  0.26876499421E-01  0.13095466676E+00  0.18795770029E-01 0.  0.
         14    1    1    2    0    0 -0.68892854200E-02  0.14378805513E-02  0.22093862303E-01  0.23187680038E-01  0.00000000000E+00 0.  1.
     999901    1    3    3    0    0 -0.95685396052E-01 -0.75949170135E-01 -0.48970361724E-01  0.88978765320E+00  0.88000000000E+00 0. -1.
        -11    1    4    4    0    0  0.69487042238E-01  0.41295866120E-01  0.11715067604E-01  0.81678035772E-01  0.51100000000E-03 0. -1.
         11    1    4    4    0    0  0.33087639234E-01  0.33215423463E-01  0.15161431817E-01  0.49276630989E-01  0.51100000000E-03 0.  1.
</event>
<event>
 8    1  0.1176534E+005  0.1043930E+01  0.7957747E-01            NaN
         13   -1    0    0    0    0  0.00000000000E+00  0.00000000000E+00  0.74505805969E-08  0.10566000000E+00  0.10566000000E+00 0. -1.
     999900   -1    0    0    0    0 -0.00000000000E+00 -0.00000000000E+00 -0.74505805969E-08  0.93827000000E+00  0.93827000000E+00 0.  1.
     999902    2    1    2    0    0  0.12305859934E-01  0.12199280302E-01 -0.16533168119E-01  0.10199800047E+01  0.10196987828E+01 0.  0.
     999903    2    3    3    0    0 -0.75760708809E-01 -0.85175858381E-01 -0.57674958231E-01  0.12928910145E+00  0.19866028740E-01 0.  0.
         14    1    1    2    0    0 -0.12305859934E-01 -0.12199280302E-01  0.16533168119E-01  0.23949995337E-01  0.00000000000E+00 0. -1.
     999901    1    3    3    0    0  0.88066568743E-01  0.97375138682E-01  0.41141790112E-01  0.89069090321E+00  0.88000000000E+00 0. -1.
        -11    1    4    4    0    0 -0.53419167242E-01 -0.55912438296E-01 -0.48708607303E-01  0.91392547461E-01  0.51100000000E-03 0. -1.
         11    1    4    4    0    0 -0.22341541567E-01 -0.29263420085E-01 -0.89663509284E-02  0.37896553994E-01  0.51100000000E-03 0.  1.
</event>
<event>
 8    1  0.1176534E+005  0.1043930E+01  0.7957747E-01            NaN
         13   -1    0    0    0    0  0.00000000000E+00  0.00000000000E+00  0.74505805969E-08  0.10566000000E+00  0.10566000000E+00 0.  1.
     999900   -1    0    0    0    0 -0.00000000000E+00 -0.00000000000E+00 -0.74505805969E-08  0.93827000000E+00  0.93827000000E+00 0.  1.
     999902    2    1    2    0    0  0.47708843519E-02  0.51425416859E-02  0.23747134559E-01  0.10191684679E+01  0.10188676226E+01 0.  0.
     999903    2    3    3    0    0  0.72703318827E-01  0.82533227368E-01 -0.64042680640E-01  0.12882517144E+00  0.19923696072E-01 0.  0.
         14    1    1    2    0    0 -0.47708843519E-02 -0.51425416859E-02 -0.23747134559E-01  0.24761532107E-01  0.00000000000E+00 0. -1.
     999901    1    3    3    0    0 -0.67932434475E-01 -0.77390685682E-01  0.87789815199E-01  0.89034329645E+00  0.88000000000E+00 0. -1.
        -11    1    4    4    0    0  0.27248299380E-01  0.44224801540E-01 -0.24558966875E-01  0.57460480901E-01  0.51100000000E-03 0. -1.
         11    1    4    4    0    0  0.45455019447E-01  0.38308425828E-01 -0.39483713764E-01  0.71364690540E-01  0.51100000000E-03 0.  1.
</event>
<event>
 8    1  0.1176534E+005  0.1043930E+01  0.7957747E-01            NaN
         13   -1    0    0    0    0  0.00000000000E+00  0.00000000000E+00  0.74505805969E-08  0.10566000000E+00  0.10566000000E+00 0. -1.
     999900   -1    0    0    0    0 -0.00000000000E+00 -0.00000000000E+00 -0.74505805969E-08  0.93827000000E+00  0.93827000000E+00 0. -1.
     999902    2    1    2    0    0  0.30456642091E-01  0.43636673047E-02  0.49584972342E-02  0.10127653512E+01  0.10122857409E+01 0.  0.
     999903    2    3    3    0    0  0.78515906535E-01 -0.95856646177E-01  0.18666645216E-02  0.12576852846E+00  0.21470773589E-01 0.  0.
         14    1    1    2    0    0 -0.30456642091E-01 -0.43636673047E-02 -0.49584972342E-02  0.31164648797E-01  0.00000000000E+00 0. -1.
     999901    1    3    3    0    0 -0.48059264444E-01  0.10022031348E+00  0.30918327126E-02  0.88699682275E+00  0.88000000000E+00 0. -1.
        -11    1    4    4    0    0  0.74115272527E-01 -0.79028160532E-01  0.20712282593E-02  0.10836546907E+00  0.51100000000E-03 0. -1.
         11    1    4    4    0    0  0.44006340075E-02 -0.16828485644E-01 -0.20456373768E-03  0.17403059388E-01  0.51100000000E-03 0.  1.
</event>
<event>
 8    1  0.1176534E+005  0.1043930E+01  0.7957747E-01            NaN
         13   -1    0    0    0    0  0.00000000000E+00  0.00000000000E+00  0.74505805969E-08  0.10566000000E+00  0.10566000000E+00 0. -1.
     999900   -1    0    0    0    0 -0.00000000000E+00 -0.00000000000E+00 -0.74505805969E-08  0.93827000000E+00  0.93827000000E+00 0. -1.
     999902    2    1    2    0    0 -0.24131675577E-01  0.61217039861E-02 -0.12033633894E-01  0.10162782122E+01  0.10159019555E+01 0.  0.
     999903    2    3    3    0    0 -0.91271842858E-01 -0.57255653644E-01 -0.69541680731E-01  0.12958115737E+00  0.18613753371E-01 0.  0.
         14    1    1    2    0    0  0.24131675577E-01 -0.61217039861E-02  0.12033633894E-01  0.27651787836E-01  0.00000000000E+00 0.  1.
     999901    1    3    3    0    0  0.67140167281E-01  0.63377357630E-01  0.57508046837E-01  0.88669705479E+00  0.88000000000E+00 0.  1.
        -11    1    4    4    0    0 -0.78331353794E-01 -0.55000668849E-01 -0.56934245926E-01  0.11136715872E+00  0.51100000000E-03 0. -1.
         11    1    4    4    0    0 -0.12940489063E-01 -0.22549847956E-02 -0.12607434804E-01  0.18213998654E-01  0.51100000000E-03 0.  1.
</event>
<event>
 8    1  0.1176534E+005  0.1043930E+01  0.7957747E-01            NaN
         13   -1    0    0    0    0  0.00000000000E+00  0.00000000000E+00  0.74505805969E-08  0.10566000000E+00  0.10566000000E+00 0.  1.
     999900   -1    0    0    0    0 -0.00000000000E+00 -0.00000000000E+00 -0.74505805969E-08  0.93827000000E+00  0.93827000000E+00 0. -1.
     999902    2    1    2    0    0  0.18250312693E-01  0.13890883582E-01 -0.28619711003E-02  0.10208167692E+01  0.10205550719E+01 0.  0.
     999903    2    3    3    0    0  0.11668908403E+00 -0.27681308183E-02 -0.61079937543E-01  0.13325998448E+00  0.20086309125E-01 0.  0.
         14    1    1    2    0    0 -0.18250312693E-01 -0.13890883582E-01  0.28619711003E-02  0.23113230814E-01  0.00000000000E+00 0. -1.
     999901    1    3    3    0    0 -0.98438771332E-01  0.16659014400E-01  0.58217966443E-01  0.88755678471E+00  0.88000000000E+00 0.  1.
        -11    1    4    4    0    0  0.62760350939E-01 -0.11400359092E-01 -0.31395676711E-01  0.71096972330E-01  0.51100000000E-03 0.  1.
         11    1    4    4    0    0  0.53928733086E-01  0.86322282739E-02 -0.29684260832E-01  0.62163012149E-01  0.51100000000E-03 0. -1.
</event>
<event>
 8    1  0.1176534E+005  0.1043930E+01  0.7957747E-01            NaN
         13   -1    0    0    0    0  0.00000000000E+00  0.00000000000E+00  0.74505805969E-08  0.10566000000E+00  0.10566000000E+00 0.  1.
     999900   -1    0    0    0    0 -0.00000000000E+00 -0.00000000000E+00 -0.74505805969E-08  0.93827000000E+00  0.93827000000E+00 0. -1.
     999902    2    1    2    0    0 -0.82688581309E-02  0.31713218972E-03  0.22687759186E-01  0.10197802794E+01  0.10194942909E+01 0.  0.
     999903    2    3    3    0    0  0.98502045467E-01  0.11054018649E-01  0.83711543948E-01  0.13116382171E+00  0.19273848783E-01 0.  0.
         14    1    1    2    0    0  0.82688581309E-02 -0.31713218972E-03 -0.22687759186E-01  0.24149720588E-01  0.00000000000E+00 0. -1.
     999901    1    3    3    0    0 -0.10677090360E+00 -0.10736886459E-01 -0.61023784761E-01  0.88861645770E+00  0.88000000000E+00 0.  1.
        -11    1    4    4    0    0  0.27394411826E-01 -0.12185595582E-03  0.34085389064E-01  0.43732636746E-01  0.51100000000E-03 0.  1.
         11    1    4    4    0    0  0.71107633640E-01  0.11175874605E-01  0.49626154884E-01  0.87431184967E-01  0.51100000000E-03 0. -1.
</event>
<event>
 8    1  0.1176534E+005  0.1043930E+01  0.7957747E-01            NaN
         13   -1    0    0    0    0  0.00000000000E+00  0.00000000000E+00  0.74505805969E-08  0.10566000000E+00  0.10566000000E+00 0. -1.
     999900   -1    0    0    0    0 -0.00000000000E+00 -0.00000000000E+00 -0.74505805969E-08  0.93827000000E+00  0.93827000000E+00 0. -1.
     999902    2    1    2    0    0  0.14384007910E-01 -0.13455214374E-01 -0.14280483950E-01  0.10196015249E+01  0.10193112356E+01 0.  0.
     999903    2    3    3    0    0  0.11667489773E+00 -0.53456204799E-02 -0.59007164315E-01  0.13251096158E+00  0.20873477850E-01 0.  0.
         14    1    1    2    0    0 -0.14384007910E-01  0.13455214374E-01  0.14280483950E-01  0.24328475071E-01  0.00000000000E+00 0. -1.
     999901    1    3    3    0    0 -0.10229088982E+00 -0.81095938942E-02  0.44726680365E-01  0.88709056335E+00  0.88000000000E+00 0. -1.
        -11    1    4    4    0    0  0.87724651823E-01 -0.12080227728E-01 -0.39569231625E-01  0.96992430900E-01  0.51100000000E-03 0. -1.
         11    1    4    4    0    0  0.28950245911E-01  0.67346072479E-02 -0.19437932691E-01  0.35518530676E-01  0.51100000000E-03 0.  1.
</event>
<event>
 8    1  0.1176534E+005  0.1043930E+01  0.7957747E-01            NaN
         13   -1    0    0    0    0  0.00000000000E+00  0.00000000000E+00  0.74505805969E-08  0.10566000000E+00  0.10566000000E+00 0.  1.
     999900   -1    0    0    0    0 -0.00000000000E+00 -0.00000000000E+00 -0.74505805969E-08  0.93827000000E+00  0.93827000000E+00 0. -1.
     999902    2    1    2    0    0  0.45501094123E-02  0.21514501383E-01  0.48432264594E-02  0.10214125821E+01  0.10211643496E+01 0.  0.
     999903    2    3    3    0    0 -0.10355365644E+00 -0.60808491084E-01  0.45653489484E-01  0.13004903292E+00  0.20186072180E-01 0.  0.
         14    1    1    2    0    0 -0.45501094123E-02 -0.21514501383E-01 -0.48432264594E-02  0.22517417879E-01  0.00000000000E+00 0.  1.
     999901    1    3    3    0    0  0.10810376586E+00  0.82322992467E-01 -0.40810263024E-01  0.89136354920E+00  0.88000000000E+00 0. -1.
        -11    1    4    4    0    0 -0.52746400363E-01 -0.19323207864E-01  0.21306910832E-01  0.60081733361E-01  0.51100000000E-03 0. -1.
         11    1    4    4    0    0 -0.50807256080E-01 -0.41485283220E-01  0.24346578651E-01  0.69967299556E-01  0.51100000000E-03 0.  1.
</event>
<event>
 8    1  0.1176534E+005  0.1043930E+01  0.7957747E-01            NaN
         13   -1    0    0    0    0  0.00000000000E+00  0.00000000000E+00  0.74505805969E-08  0.10566000000E+00  0.10566000000E+00 0.  1.
     999900   -1    0    0    0    0 -0.00000000000E+00 -0.00000000000E+00 -0.74505805969E-08  0.93827000000E+00  0.93827000000E+00 0.  1.
     999902    2    1    2    0    0 -0.91857326084E-02 -0.38637515687E-02  0.21175392305E-01  0.10205269340E+01  0.10202585552E+01 0.  0.
     999903    2    3    3    0    0  0.87142496777E-01 -0.23842064866E-02 -0.91737558063E-01  0.12809730023E+00  0.19840352393E-01 0.  0.
         14    1    1    2    0    0  0.91857326084E-02  0.38637515687E-02 -0.21175392305E-01  0.23403066017E-01  0.00000000000E+00 0. -1.
     999901    1    3    3    0    0 -0.96328229385E-01 -0.14795450821E-02  0.11291295037E+00  0.89242963375E+00  0.88000000000E+00 0. -1.
        -11    1    4    4    0    0  0.36676217870E-01 -0.11422229048E-02 -0.24948486820E-01  0.44374967560E-01  0.51100000000E-03 0.  1.
         11    1    4    4    0    0  0.50466278907E-01 -0.12419835818E-02 -0.66789071243E-01  0.83722332675E-01  0.51100000000E-03 0. -1.
</event>
<event>
 8    1  0.1176534E+005  0.1043930E+01  0.7957747E-01            NaN
         13   -1    0    0    0    0  0.00000000000E+00  0.00000000000E+00  0.74505805969E-08  0.10566000000E+00  0.10566000000E+00 0.  1.
     999900   -1    0    0    0    0 -0.00000000000E+00 -0.00000000000E+00 -0.74505805969E-08  0.93827000000E+00  0.93827000000E+00 0. -1.
     999902    2    1    2    0    0  0.52847852240E-02  0.17621908128E-01 -0.12319395231E-01  0.10217889047E+01  0.10215489894E+01 0.  0.
     999903    2    3    3    0    0  0.74405002338E-01  0.79573613198E-01  0.73304530151E-01  0.13277423962E+00  0.19681978476E-01 0.  0.
         14    1    1    2    0    0 -0.52847852240E-02 -0.17621908128E-01  0.12319395231E-01  0.22141095270E-01  0.00000000000E+00 0.  1.
     999901    1    3    3    0    0 -0.69120217114E-01 -0.61951705071E-01 -0.85623925382E-01  0.88901466511E+00  0.88000000000E+00 0. -1.
        -11    1    4    4    0    0  0.17745058715E-01  0.20478344488E-01  0.28966624363E-01  0.39668326783E-01  0.51100000000E-03 0. -1.
         11    1    4    4    0    0  0.56659943623E-01  0.59095268710E-01  0.44337905788E-01  0.93105912841E-01  0.51100000000E-03 0.  1.
</event>
<event>
 8    1  0.1176534E+005  0.1043930E+01  0.7957747E-01            NaN
         13   -1    0    0    0    0  0.00000000000E+00  0.00000000000E+00  0.74505805969E-08  0.10566000000E+00  0.10566000000E+00 0.  1.
     999900   -1    0    0    0    0 -0.00000000000E+00 -0.00000000000E+00 -0.74505805969E-08  0.93827000000E+00  0.93827000000E+00 0.  1.
     999902    2    1    2    0    0 -0.19996835970E-02 -0.91251175867E-03  0.23603672069E-01  0.10202242044E+01  0.10199487548E+01 0.  0.
     999903    2    3    3    0    0 -0.10481226881E+00  0.60938372159E-01 -0.41552330129E-01  0.12969556127E+00  0.19880784220E-01 0.  0.
         14    1    1    2    0    0  0.19996835970E-02  0.91251175867E-03 -0.23603672069E-01  0.23705795649E-01  0.00000000000E+00 0. -1.
     999901    1    3    3    0    0  0.10281258521E+00 -0.61850883918E-01  0.65156002198E-01  0.89052864308E+00  0.88000000000E+00 0. -1.
        -11    1    4    4    0    0 -0.16805966394E-01  0.84012813517E-02  0.75460042681E-03  0.18810969608E-01  0.51100000000E-03 0.  1.
         11    1    4    4    0    0 -0.88006302412E-01  0.52537090807E-01 -0.42306930556E-01  0.11088459167E+00  0.51100000000E-03 0. -1.
</event>
<event>
 8    1  0.1176534E+005  0.1043930E+01  0.7957747E-01            NaN
         13   -1    0    0    0    0  0.00000000000E+00  0.00000000000E+00  0.74505805969E-08  0.10566000000E+00  0.10566000000E+00 0. -1.
     999900   -1    0    0    0    0 -0.00000000000E+00 -0.00000000000E+00 -0.74505805969E-08  0.93827000000E+00  0.93827000000E+00 0.  1.
     999902    2    1    2    0    0 -0.89921065499E-02 -0.63927970347E-02 -0.20613550675E-01  0.10205495743E+01  0.10202817206E+01 0.  0.
     999903    2    3    3    0    0  0.10357389971E+00 -0.18792777122E-01  0.70972537454E-01  0.12857823126E+00  0.20360238440E-01 0.  0.
         14    1    1    2    0    0  0.89921065499E-02  0.63927970347E-02  0.20613550675E-01  0.23380425692E-01  0.00000000000E+00 0. -1.
     999901    1    3    3    0    0 -0.11256600626E+00  0.12399980087E-01 -0.91586088128E-01  0.89197134304E+00  0.88000000000E+00 0.  1.
        -11    1    4    4    0    0  0.92301377321E-01 -0.10046622889E-01  0.59665289790E-01  0.11036614886E+00  0.51100000000E-03 0.  1.
         11    1    4    4    0    0  0.11272522389E-01 -0.87461542332E-02  0.11307247664E-01  0.18212082408E-01  0.51100000000E-03 0. -1.
</event>
<event>
 8    1  0.1176534E+005  0.1043930E+01  0.7957747E-01            NaN
         13   -1    0    0    0    0  0.00000000000E+00  0.00000000000E+00  0.74505805969E-08  0.10566000000E+00  0.10566000000E+00 0. -1.
     999900   -1    0    0    0    0 -0.00000000000E+00 -0.00000000000E+00 -0.74505805969E-08  0.93827000000E+00  0.93827000000E+00 0.  1.
     999902    2    1    2    0    0 -0.16650376531E-01  0.61800106915E-02 -0.16281761645E-01  0.10198359482E+01  0.10195512924E+01 0.  0.
     999903    2    3    3    0    0 -0.56756424667E-01  0.11689480134E+00  0.15263599048E-02  0.13181376988E+00  0.22064764499E-01 0.  0.
         14    1    1    2    0    0  0.16650376531E-01 -0.61800106915E-02  0.16281761645E-01  0.24094051819E-01  0.00000000000E+00 0. -1.
     999901    1    3    3    0    0  0.40106048135E-01 -0.11071479065E+00 -0.17808121550E-01  0.88802217830E+00  0.88000000000E+00 0.  1.
        -11    1    4    4    0    0 -0.43490549706E-01  0.66398719128E-01  0.46221096159E-02  0.79510017192E-01  0.51100000000E-03 0. -1.
         11    1    4    4    0    0 -0.13265874960E-01  0.50496082217E-01 -0.30957497111E-02  0.52303752685E-01  0.51100000000E-03 0.  1.
</event>
<event>
 8    1  0.1176534E+005  0.1043930E+01  0.7957747E-01            NaN
         13   -1    0    0    0    0  0.00000000000E+00  0.00000000000E+00  0.74505805969E-08  0.10566000000E+00  0.10566000000E+00 0. -1.
     999900   -1    0    0    0    0 -0.00000000000E+00 -0.00000000000E+00 -0.74505805969E-08  0.93827000000E+00  0.93827000000E+00 0. -1.
     999902    2    1    2    0    0  0.15638466189E-01 -0.17675977555E-01  0.31226156236E-02  0.10201234350E+01  0.10198456109E+01 0.  0.
     999903    2    3    3    0    0 -0.80548708945E-01 -0.10112050640E+00 -0.24980351846E-02  0.13094035278E+00  0.20632122494E-01 0.  0.
         14    1    1    2    0    0 -0.15638466189E-01  0.17675977555E-01 -0.31226156236E-02  0.23806564968E-01  0.00000000000E+00 0.  1.
     999901    1    3    3    0    0  0.96187175134E-01  0.83444528843E-01  0.56206508083E-02  0.88918308226E+00  0.88000000000E+00 0.  1.
        -11    1    4    4    0    0 -0.62775196553E-01 -0.81589332146E-01 -0.10141631097E-01  0.10344398593E+00  0.51100000000E-03 0.  1.
         11    1    4    4    0    0 -0.17773512392E-01 -0.19531174251E-01  0.76435959128E-02  0.27496366848E-01  0.51100000000E-03 0. -1.
</event>
<event>
 8    1  0.1176534E+005  0.1043930E+01  0.7957747E-01            NaN
         13   -1    0    0    0    0  0.00000000000E+00  0.00000000000E+00  0.74505805969E-08  0.10566000000E+00  0.10566000000E+00 0. -1.
     999900   -1    0    0    0    0 -0.00000000000E+00 -0.00000000000E+00 -0.74505805969E-08  0.93827000000E+00  0.93827000000E+00 0. -1.
     999902    2    1    2    0    0  0.19687675415E-01  0.63384421617E-02 -0.11526036545E-01  0.10202523749E+01  0.10199775873E+01 0.  0.
     999903    2    3    3    0    0 -0.72385432126E-01 -0.79613639313E-01  0.65868294193E-01  0.12792110240E+00  0.21146959828E-01 0.  0.
         14    1    1    2    0    0 -0.19687675415E-01 -0.63384421617E-02  0.11526036545E-01  0.23677625107E-01  0.00000000000E+00 0. -1.
     999901    1    3    3    0    0  0.92073107541E-01  0.85952081475E-01 -0.77394330738E-01  0.89233127249E+00  0.88000000000E+00 0. -1.
        -11    1    4    4    0    0 -0.48291054207E-01 -0.59684124545E-01  0.36460600006E-01  0.84993276869E-01  0.51100000000E-03 0. -1.
         11    1    4    4    0    0 -0.24094377919E-01 -0.19929514768E-01  0.29407694188E-01  0.42927825529E-01  0.51100000000E-03 0.  1.
</event>
<event>
 8    1  0.1176534E+005  0.1043930E+01  0.7957747E-01            NaN
         13   -1    0    0    0    0  0.00000000000E+00  0.00000000000E+00  0.74505805969E-08  0.10566000000E+00  0.10566000000E+00 0.  1.
     999900   -1    0    0    0    0 -0.00000000000E+00 -0.00000000000E+00 -0.74505805969E-08  0.93827000000E+00  0.93827000000E+00 0. -1.
     999902    2    1    2    0    0  0.34130402676E-01 -0.11727953222E-01  0.84398458328E-02  0.10068670769E+01  0.10061846998E+01 0.  0.
     999903    2    3    3    0    0 -0.16378504711E-01  0.70906563089E-01 -0.88416278790E-01  0.11627136506E+00  0.20139410915E-01 0.  0.
         14    1    1    2    0    0 -0.34130402676E-01  0.11727953222E-01 -0.84398458328E-02  0.37062923134E-01  0.00000000000E+00 0.  1.
     999901    1    3    3    0    0  0.50508907387E-01 -0.82634516311E-01  0.96856124622E-01  0.89059571181E+00  0.88000000000E+00 0. -1.
        -11    1    4    4    0    0 -0.19845672357E-01  0.47625904412E-01 -0.65876046680E-01  0.83677907057E-01  0.51100000000E-03 0.  1.
         11    1    4    4    0    0  0.34671676461E-02  0.23280658677E-01 -0.22540232110E-01  0.32593458002E-01  0.51100000000E-03 0. -1.
</event>
<event>
 8    1  0.1176534E+005  0.1043930E+01  0.7957747E-01            NaN
         13   -1    0    0    0    0  0.00000000000E+00  0.00000000000E+00  0.74505805969E-08  0.10566000000E+00  0.10566000000E+00 0.  1.
     999900   -1    0    0    0    0 -0.00000000000E+00 -0.00000000000E+00 -0.74505805969E-08  0.93827000000E+00  0.93827000000E+00 0. -1.
     999902    2    1    2    0    0 -0.12408434501E-01  0.19223703689E-01  0.75588299143E-02  0.10198331965E+01  0.10195484749E+01 0.  0.
     999903    2    3    3    0    0 -0.88975325956E-01  0.22731757616E-01 -0.91392455867E-01  0.13097654197E+00  0.19207605868E-01 0.  0.
         14    1    1    2    0    0  0.12408434501E-01 -0.19223703689E-01 -0.75588299143E-02  0.24096803522E-01  0.00000000000E+00 0. -1.
     999901    1    3    3    0    0  0.76566891455E-01 -0.35080539266E-02  0.98951285781E-01  0.88885665451E+00  0.88000000000E+00 0.  1.
        -11    1    4    4    0    0 -0.32253469359E-01  0.28240455071E-02 -0.21907155133E-01  0.39095346088E-01  0.51100000000E-03 0. -1.
         11    1    4    4    0    0 -0.56721856597E-01  0.19907712109E-01 -0.69485300734E-01  0.91881195880E-01  0.51100000000E-03 0.  1.
</event>
<event>
 8    1  0.1176534E+005  0.1043930E+01  0.7957747E-01            NaN
         13   -1    0    0    0    0  0.00000000000E+00  0.00000000000E+00  0.74505805969E-08  0.10566000000E+00  0.10566000000E+00 0. -1.
     999900   -1    0    0    0    0 -0.00000000000E+00 -0.00000000000E+00 -0.74505805969E-08  0.93827000000E+00  0.93827000000E+00 0.  1.
     999902    2    1    2    0    0  0.71688721853E-02  0.70783481176E-02  0.22478406420E-01  0.10192972069E+01  0.10189995199E+01 0.  0.
     999903    2    3    3    0    0  0.11508722242E-01 -0.10635281746E+00 -0.66488806846E-01  0.12755698203E+00  0.20165558774E-01 0.  0.
         14    1    1    2    0    0 -0.71688721853E-02 -0.70783481176E-02 -0.22478406420E-01  0.24632793095E-01  0.00000000000E+00 0.  1.
     999901    1    3    3    0    0 -0.43398500567E-02  0.11343116557E+00  0.88967213265E-01  0.89174022487E+00  0.88000000000E+00 0. -1.
        -11    1    4    4    0    0  0.47095513995E-02 -0.36861479169E-01 -0.34664332376E-01  0.50821507071E-01  0.51100000000E-03 0.  1.
         11    1    4    4    0    0  0.67991708426E-02 -0.69491338287E-01 -0.31824474470E-01  0.76735474960E-01  0.51100000000E-03 0. -1.
</event>
<event>
 8    1  0.1176534E+005  0.1043930E+01  0.7957747E-01            NaN
         13   -1    0    0    0    0  0.00000000000E+00  0.00000000000E+00  0.74505805969E-08  0.10566000000E+00  0.10566000000E+00 0.  1.
     999900   -1    0    0    0    0 -0.00000000000E+00 -0.00000000000E+00 -0.74505805969E-08  0.93827000000E+00  0.93827000000E+00 0.  1.
     999902    2    1    2    0    0 -0.22592231656E-02  0.94213829116E-02 -0.21988195377E-01  0.10199019480E+01  0.10196188682E+01 0.  0.
     999903    2    3    3    0    0  0.11377391494E-01  0.24661014510E-01  0.12302437097E+00  0.12779946063E+00  0.21449839442E-01 0.  0.
         14    1    1    2    0    0  0.22592231656E-02 -0.94213829116E-02  0.21988195377E-01  0.24028051965E-01  0.00000000000E+00 0.  1.
     999901    1    3    3    0    0 -0.13636614660E-01 -0.15239631598E-01 -0.14501256635E+00  0.89210248740E+00  0.88000000000E+00 0.  1.
        -11    1    4    4    0    0  0.97531499098E-02  0.14878861283E-01  0.10995492178E+00  0.11138604217E+00  0.51100000000E-03 0. -1.
         11    1    4    4    0    0  0.16242415841E-02  0.97821532273E-02  0.13069449190E-01  0.16413418462E-01  0.51100000000E-03 0.  1.
</event>
<event>
 8    1  0.1176534E+005  0.1043930E+01  0.7957747E-01            NaN
         13   -1    0    0    0    0  0.00000000000E+00  0.00000000000E+00  0.74505805969E-08  0.10566000000E+00  0.10566000000E+00 0. -1.
     999900   -1    0    0    0    0 -0.00000000000E+00 -0.00000000000E+00 -0.74505805969E-08  0.93827000000E+00  0.93827000000E+00 0. -1.
     999902    2    1    2    0    0  0.14636166315E-01 -0.16259779935E-01  0.34999877905E-03  0.10220503221E+01  0.10218160992E+01 0.  0.
     999903    2    3    3    0    0 -0.67152613002E-01  0.39735033260E-02  0.11027222079E+00  0.13121830362E+00  0.23087190494E-01 0.  0.
         14    1    1    2    0    0 -0.14636166315E-01  0.16259779935E-01 -0.34999877905E-03  0.21879677947E-01  0.00000000000E+00 0. -1.
     999901    1    3    3    0    0  0.81788779318E-01 -0.20233283261E-01 -0.10992222201E+00  0.89083201843E+00  0.88000000000E+00 0. -1.
        -11    1    4    4    0    0 -0.11109498576E-01 -0.77621973944E-02  0.16664512587E-01  0.21485803866E-01  0.51100000000E-03 0. -1.
         11    1    4    4    0    0 -0.56043114426E-01  0.11735700720E-01  0.93607708204E-01  0.10973249975E+00  0.51100000000E-03 0.  1.
</event>
<event>
 8    1  0.1176534E+005  0.1043930E+01  0.7957747E-01            NaN
         13   -1    0    0    0    0  0.00000000000E+00  0.00000000000E+00  0.74505805969E-08  0.10566000000E+00  0.10566000000E+00 0. -1.
     999900   -1    0    0    0    0 -0.00000000000E+00 -0.00000000000E+00 -0.74505805969E-08  0.93827000000E+00  0.93827000000E+00 0. -1.
     999902    2    1    2    0    0 -0.16250083397E-01  0.23902031979E-02 -0.17923594383E-01  0.10196188191E+01  0.10193289473E+01 0.  0.
     999903    2    3    3    0    0 -0.76533186158E-01  0.94597056741E-01 -0.48102964346E-01  0.13223674203E+00  0.19150170637E-01 0.  0.
         14    1    1    2    0    0  0.16250083397E-01 -0.23902031979E-02  0.17923594383E-01  0.24311180912E-01  0.00000000000E+00 0.  1.
     999901    1    3    3    0    0  0.60283102761E-01 -0.92206853543E-01  0.30179369963E-01  0.88738207706E+00  0.88000000000E+00 0.  1.
        -11    1    4    4    0    0 -0.51241652453E-01  0.55107038681E-01 -0.21244173545E-01  0.78192510440E-01  0.51100000000E-03 0. -1.
         11    1    4    4    0    0 -0.25291533705E-01  0.39490018059E-01 -0.26858790800E-01  0.54044231586E-01  0.51100000000E-03 0.  1.
</event>
<event>
 8    1  0.1176534E+005  0.1043930E+01  0.7957747E-01            NaN
         13   -1    0    0    0    0  0.00000000000E+00  0.00000000000E+00  0.74505805969E-08  0.10566000000E+00  0.10566000000E+00 0.  1.
     999900   -1    0    0    0    0 -0.00000000000E+00 -0.00000000000E+00 -0.74505805969E-08  0.93827000000E+00  0.93827000000E+00 0.  1.
     999902    2    1    2    0    0 -0.99608465331E-02 -0.36278292842E-02  0.21392597714E-01  0.10200548488E+01  0.10197754026E+01 0.  0.
     999903    2    3    3    0    0  0.59511128848E-01  0.32262644768E-01 -0.10612688567E+00  0.12743191599E+00  0.19837455678E-01 0.  0.
         14    1    1    2    0    0  0.99608465331E-02  0.36278292842E-02 -0.21392597714E-01  0.23875151223E-01  0.00000000000E+00 0. -1.
     999901    1    3    3    0    0 -0.69471975381E-01 -0.35890474052E-01  0.12751948338E+00  0.89262293278E+00  0.88000000000E+00 0. -1.
        -11    1    4    4    0    0  0.15349371690E-01  0.18947362485E-01 -0.38244630823E-01  0.45359879456E-01  0.51100000000E-03 0.  1.
         11    1    4    4    0    0  0.44161757158E-01  0.13315282283E-01 -0.67882254844E-01  0.82072036537E-01  0.51100000000E-03 0. -1.
</event>
<event>
 8    1  0.1176534E+005  0.1043930E+01  0.7957747E-01            NaN
         13   -1    0    0    0    0  0.00000000000E+00  0.00000000000E+00  0.74505805969E-08  0.10566000000E+00  0.10566000000E+00 0. -1.
     999900   -1    0    0    0    0 -0.00000000000E+00 -0.00000000000E+00 -0.74505805969E-08  0.93827000000E+00  0.93827000000E+00 0. -1.
     999902    2    1    2    0    0 -0.19581126529E-01 -0.31575106374E-02 -0.14147904277E-01  0.10195670448E+01  0.10192759221E+01 0.  0.
     999903    2    3    3    0    0  0.59319603669E-02 -0.81097392174E-01  0.97704272041E-01  0.12870428767E+00  0.20166648652E-01 0.  0.
         14    1    1    2    0    0  0.19581126529E-01  0.31575106374E-02  0.14147904277E-01  0.24362955178E-01  0.00000000000E+00 0. -1.
     999901    1    3    3    0    0 -0.25513086896E-01  0.77939881537E-01 -0.11185217632E+00  0.89086275715E+00  0.88000000000E+00 0. -1.
        -11    1    4    4    0    0  0.16174713001E-02 -0.34228153025E-01  0.26377254392E-01  0.43245847699E-01  0.51100000000E-03 0. -1.
         11    1    4    4    0    0  0.43144890668E-02 -0.46869239149E-01  0.71327017649E-01  0.85458439969E-01  0.51100000000E-03 0.  1.
</event>
<event>
 8    1  0.1176534E+005  0.1043930E+01  0.7957747E-01            NaN
         13   -1    0    0    0    0  0.00000000000E+00  0.00000000000E+00  0.74505805969E-08  0.10566000000E+00  0.10566000000E+00 0. -1.
     999900   -1    0    0    0    0 -0.00000000000E+00 -0.00000000000E+00 -0.74505805969E-08  0.93827000000E+00  0.93827000000E+00 0.  1.
     999902    2    1    2    0    0  0.82217193245E-02 -0.60542458774E-02  0.19500523142E-01  0.10219181631E+01  0.10216810711E+01 0.  0.
     999903    2    3    3    0    0  0.72489263395E-01 -0.10949345170E+00 -0.80330176284E-02  0.13310542555E+00  0.20224135741E-01 0.  0.
         14    1    1    2    0    0 -0.82217193245E-02  0.60542458774E-02 -0.19500523142E-01  0.22011836921E-01  0.00000000000E+00 0.  1.
     999901    1    3    3    0    0 -0.64267544071E-01  0.10343920582E+00  0.27533540771E-01  0.88881273753E+00  0.88000000000E+00 0. -1.
        -11    1    4    4    0    0  0.13781780166E-01 -0.28013884075E-01 -0.95945579782E-02  0.32665453147E-01  0.51100000000E-03 0.  1.
         11    1    4    4    0    0  0.58707483230E-01 -0.81479567625E-01  0.15615403498E-02  0.10043997241E+00  0.51100000000E-03 0. -1.
</event>
<event>
 8    1  0.1176534E+005  0.1043930E+01  0.7957747E-01            NaN
         13   -1    0    0    0    0  0.00000000000E+00  0.00000000000E+00  0.74505805969E-08  0.10566000000E+00  0.10566000000E+00 0.  1.
     999900   -1    0    0    0    0 -0.00000000000E+00 -0.00000000000E+00 -0.74505805969E-08  0.93827000000E+00  0.93827000000E+00 0.  1.
     999902    2    1    2    0    0 -0.19132652593E-01 -0.11362469374E-01  0.69825979330E-02  0.10206078908E+01  0.10203413869E+01 0.  0.
     999903    2    3    3    0    0  0.11911923738E-01  0.97152544328E-01  0.83608336456E-01  0.13009636488E+00  0.18820186870E-01 0.  0.
         14    1    1    2    0    0  0.19132652593E-01  0.11362469374E-01 -0.69825979330E-02  0.23322109241E-01  0.00000000000E+00 0.  1.
     999901    1    3    3    0    0 -0.31044576331E-01 -0.10851501370E+00 -0.76625738522E-01  0.89051152588E+00  0.88000000000E+00 0.  1.
        -11    1    4    4    0    0  0.13665198679E-01  0.36262905128E-01  0.32331946821E-01  0.50471297283E-01  0.51100000000E-03 0. -1.
         11    1    4    4    0    0 -0.17532749408E-02  0.60889639200E-01  0.51276389634E-01  0.79625067597E-01  0.51100000000E-03 0.  1.
</event>
<event>
 8    1  0.1176534E+005  0.1043930E+01  0.7957747E-01            NaN
         13   -1    0    0    0    0  0.00000000000E+00  0.00000000000E+00  0.74505805969E-08  0.10566000000E+00  0.10566000000E+00 0.  1.
     999900   -1    0    0    0    0 -0.00000000000E+00 -0.00000000000E+00 -0.74505805969E-08  0.93827000000E+00  0.93827000000E+00 0.  1.
     999902    2    1    2    0    0 -0.13555686635E-01 -0.12107088773E-01 -0.14591477926E-01  0.10206222874E+01  0.10203561163E+01 0.  0.
     999903    2    3    3    0    0  0.50790027954E-01 -0.87390246744E-01  0.79453826816E-01  0.13008736714E+00  0.19827514399E-01 0.  0.
         14    1    1    2    0    0  0.13555686635E-01  0.12107088773E-01  0.14591477926E-01  0.23307712603E-01  0.00000000000E+00 0.  1.
     999901    1    3    3    0    0 -0.64345714589E-01  0.75283157972E-01 -0.94045304742E-01  0.89053492026E+00  0.88000000000E+00 0.  1.
        -11    1    4    4    0    0  0.37249344451E-01 -0.67802061198E-01  0.70421683482E-01  0.10461408983E+00  0.51100000000E-03 0.  1.
         11    1    4    4    0    0  0.13540683503E-01 -0.19588185546E-01  0.90321433337E-02  0.25473277310E-01  0.51100000000E-03 0. -1.
</event>
<event>
 8    1  0.1176534E+005  0.1043930E+01  0.7957747E-01            NaN
         13   -1    0    0    0    0  0.00000000000E+00  0.00000000000E+00  0.74505805969E-08  0.10566000000E+00  0.10566000000E+00 0.  1.
     999900   -1    0    0    0    0 -0.00000000000E+00 -0.00000000000E+00 -0.74505805969E-08  0.93827000000E+00  0.93827000000E+00 0. -1.
     999902    2    1    2    0    0 -0.13203286117E-01 -0.64000853203E-02 -0.17420381567E-01  0.10211537503E+01  0.10208997131E+01 0.  0.
     999903    2    3    3    0    0  0.11606210435E+00 -0.18354453350E-01  0.50009941583E-01  0.12907791464E+00  0.18783390718E-01 0.  0.
         14    1    1    2    0    0  0.13203286117E-01  0.64000853203E-02  0.17420381567E-01  0.22776249699E-01  0.00000000000E+00 0.  1.
     999901    1    3    3    0    0 -0.12926539047E+00  0.11954368030E-01 -0.67430323151E-01  0.89207583566E+00  0.88000000000E+00 0.  1.
        -11    1    4    4    0    0  0.13059615216E-01  0.26328855810E-03  0.76629970947E-06  0.13072260403E-01  0.51100000000E-03 0.  1.
         11    1    4    4    0    0  0.10300248914E+00 -0.18617741908E-01  0.50009175284E-01  0.11600565424E+00  0.51100000000E-03 0. -1.
</event>
<event>
 8    1  0.1176534E+005  0.1043930E+01  0.7957747E-01            NaN
         13   -1    0    0    0    0  0.00000000000E+00  0.00000000000E+00  0.74505805969E-08  0.10566000000E+00  0.10566000000E+00 0.  1.
     999900   -1    0    0    0    0 -0.00000000000E+00 -0.00000000000E+00 -0.74505805969E-08  0.93827000000E+00  0.93827000000E+00 0.  1.
     999902    2    1    2    0    0 -0.77324737172E-02  0.21994122956E-01  0.24544939288E-02  0.10204873650E+01  0.10202180674E+01 0.  0.
     999903    2    3    3    0    0 -0.91132646107E-01  0.31143155976E-01  0.88564145198E-01  0.13231273940E+00  0.19697660806E-01 0.  0.
         14    1    1    2    0    0  0.77324737172E-02 -0.21994122956E-01 -0.24544939288E-02  0.23442634981E-01  0.00000000000E+00 0. -1.
     999901    1    3    3    0    0  0.83400172389E-01 -0.91490330202E-02 -0.86109651269E-01  0.88817462562E+00  0.88000000000E+00 0.  1.
        -11    1    4    4    0    0 -0.33711995570E-01  0.10626415804E-01  0.45697736601E-01  0.57775112372E-01  0.51100000000E-03 0. -1.
         11    1    4    4    0    0 -0.57420650536E-01  0.20516740172E-01  0.42866408597E-01  0.74537627024E-01  0.51100000000E-03 0.  1.
</event>
<event>
 8    1  0.1176534E+005  0.1043930E+01  0.7957747E-01            NaN
         13   -1    0    0    0    0  0.00000000000E+00  0.00000000000E+00  0.74505805969E-08  0.10566000000E+00  0.10566000000E+00 0. -1.
     999900   -1    0    0    0    0 -0.00000000000E+00 -0.00000000000E+00 -0.74505805969E-08  0.93827000000E+00  0.93827000000E+00 0. -1.
     999902    2    1    2    0    0 -0.12623338107E-01 -0.93319863876E-02  0.41949182132E-02  0.10276809393E+01  0.10275524712E+01 0.  0.
     999903    2    3    3    0    0 -0.63017786468E-01  0.11188116592E+00 -0.42509158604E-01  0.13671881917E+00  0.19909049447E-01 0.  0.
         14    1    1    2    0    0  0.12623338107E-01  0.93319863876E-02 -0.41949182132E-02  0.16249060703E-01  0.00000000000E+00 0. -1.
     999901    1    3    3    0    0  0.50394448360E-01 -0.12121315231E+00  0.46704076817E-01  0.89096212013E+00  0.88000000000E+00 0. -1.
        -11    1    4    4    0    0 -0.53241783318E-01  0.98151197149E-01 -0.29706540963E-01  0.11554689390E+00  0.51100000000E-03 0. -1.
         11    1    4    4    0    0 -0.97760031492E-02  0.13729968771E-01 -0.12802617641E-01  0.21171925267E-01  0.51100000000E-03 0.  1.
</event>
<event>
 8    1  0.1176534E+005  0.1043930E+01  0.7957747E-01            NaN
         13   -1    0    0    0    0  0.00000000000E+00  0.00000000000E+00  0.74505805969E-08  0.10566000000E+00  0.10566000000E+00 0.  1.
     999900   -1    0    0    0    0 -0.00000000000E+00 -0.00000000000E+00 -0.74505805969E-08  0.93827000000E+00  0.93827000000E+00 0.  1.
     999902    2    1    2    0    0 -0.95144971299E-02  0.15564660546E-01  0.14448443727E-01  0.10206589485E+01  0.10203936237E+01 0.  0.
     999903    2    3    3    0    0  0.16366952946E-01  0.12739835620E+00 -0.24650246722E-01  0.13234293907E+00  0.20218816689E-01 0.  0.
         14    1    1    2    0    0  0.95144971299E-02 -0.15564660546E-01 -0.14448443727E-01  0.23271051538E-01  0.00000000000E+00 0. -1.
     999901    1    3    3    0    0 -0.25881450076E-01 -0.11183369565E+00  0.39098690449E-01  0.88831600939E+00  0.88000000000E+00 0.  1.
        -11    1    4    4    0    0  0.11332939040E-01  0.88142647353E-01 -0.26447810160E-01  0.92721678010E-01  0.51100000000E-03 0. -1.
         11    1    4    4    0    0  0.50340139064E-02  0.39255708845E-01  0.17975634375E-02  0.39621261064E-01  0.51100000000E-03 0.  1.
</event>
<event>
 8    1  0.1176534E+005  0.1043930E+01  0.7957747E-01            NaN
         13   -1    0    0    0    0  0.00000000000E+00  0.00000000000E+00  0.74505805969E-08  0.10566000000E+00  0.10566000000E+00 0.  1.
     999900   -1    0    0    0    0 -0.00000000000E+00 -0.00000000000E+00 -0.74505805969E-08  0.93827000000E+00  0.93827000000E+00 0. -1.
     999902    2    1    2    0    0  0.21447284433E-01 -0.70751994248E-02  0.49276663081E-02  0.10208144998E+01  0.10205527505E+01 0.  0.
     999903    2    3    3    0    0  0.86610013563E-01  0.84498013167E-01  0.50542949177E-01  0.13249440623E+00  0.18946484921E-01 0.  0.
         14    1    1    2    0    0 -0.21447284433E-01  0.70751994248E-02 -0.49276663081E-02  0.23115500248E-01  0.00000000000E+00 0.  1.
     999901    1    3    3    0    0 -0.65162729130E-01 -0.91573212592E-01 -0.45615282869E-01  0.88832009353E+00  0.88000000000E+00 0. -1.
        -11    1    4    4    0    0  0.21680192171E-01  0.27227787374E-01  0.67029108132E-02  0.35448177277E-01  0.51100000000E-03 0.  1.
         11    1    4    4    0    0  0.64929821392E-01  0.57270225793E-01  0.43840038364E-01  0.97046228948E-01  0.51100000000E-03 0. -1.
</event>
<event>
 8    1  0.1176534E+005  0.1043930E+01  0.7957747E-01            NaN
         13   -1    0    0    0    0  0.00000000000E+00  0.00000000000E+00  0.74505805969E-08  0.10566000000E+00  0.10566000000E+00 0.  1.
     999900   -1    0    0    0    0 -0.00000000000E+00 -0.00000000000E+00 -0.74505805969E-08  0.93827000000E+00  0.93827000000E+00 0.  1.
     999902    2    1    2    0    0  0.17245796254E-01 -0.14308815242E-01 -0.25480154876E-02  0.10213766839E+01  0.10211276504E+01 0.  0.
     999903    2    3    3    0    0  0.14950789494E-02 -0.48775638768E-01  0.12096832293E+00  0.13194296923E+00  0.19857335646E-01 0.  0.
         14    1    1    2    0    0 -0.17245796254E-01  0.14308815242E-01  0.25480154876E-02  0.22553316053E-01  0.00000000000E+00 0. -1.
     999901    1    3    3    0    0  0.15750717305E-01  0.34466823526E-01 -0.12351633842E+00  0.88943371472E+00  0.88000000000E+00 0.  1.
        -11    1    4    4    0    0  0.41267301860E-02 -0.59600872140E-03  0.67572677492E-02  0.79565643879E-02  0.51100000000E-03 0. -1.
         11    1    4    4    0    0 -0.26316512365E-02 -0.48179630047E-01  0.11421105518E+00  0.12398640484E+00  0.51100000000E-03 0.  1.
</event>
<event>
 8    1  0.1176534E+005  0.1043930E+01  0.7957747E-01            NaN
         13   -1    0    0    0    0  0.00000000000E+00  0.00000000000E+00  0.74505805969E-08  0.10566000000E+00  0.10566000000E+00 0. -1.
     999900   -1    0    0    0    0 -0.00000000000E+00 -0.00000000000E+00 -0.74505805969E-08  0.93827000000E+00  0.93827000000E+00 0.  1.
     999902    2    1    2    0    0  0.16649385208E-01 -0.16524576066E-01  0.36696783869E-02  0.10201869972E+01  0.10199106721E+01 0.  0.
     999903    2    3    3    0    0  0.56315800402E-01 -0.68813434458E-01  0.97085529382E-01  0.13281217763E+00  0.17513319937E-01 0.  0.
         14    1    1    2    0    0 -0.16649385208E-01  0.16524576066E-01 -0.36696783869E-02  0.23743002789E-01  0.00000000000E+00 0. -1.
     999901    1    3    3    0    0 -0.39666415194E-01  0.52288858392E-01 -0.93415850995E-01  0.88737481958E+00  0.88000000000E+00 0.  1.
        -11    1    4    4    0    0  0.12458210877E-01 -0.68536560695E-02  0.20718225567E-01  0.25133356549E-01  0.51100000000E-03 0.  1.
         11    1    4    4    0    0  0.43857589525E-01 -0.61959778388E-01  0.76367303814E-01  0.10767882108E+00  0.51100000000E-03 0. -1.
</event>
<event>
 8    1  0.1176534E+005  0.1043930E+01  0.7957747E-01            NaN
         13   -1    0    0    0    0  0.00000000000E+00  0.00000000000E+00  0.74505805969E-08  0.10566000000E+00  0.10566000000E+00 0.  1.
     999900   -1    0    0    0    0 -0.00000000000E+00 -0.00000000000E+00 -0.74505805969E-08  0.93827000000E+00  0.93827000000E+00 0. -1.
     999902    2    1    2    0    0 -0.12655992870E-01 -0.51018272795E-02 -0.19524328552E-01  0.10201097942E+01  0.10198316479E+01 0.  0.
     999903    2    3    3    0    0  0.28286846654E-01 -0.12415153430E+00 -0.24283861460E-01  0.13113746508E+00  0.19838842144E-01 0.  0.
         14    1    1    2    0    0  0.12655992870E-01  0.51018272795E-02  0.19524328552E-01  0.23820205761E-01  0.00000000000E+00 0.  1.
     999901    1    3    3    0    0 -0.40942839524E-01  0.11904970702E+00  0.47595329084E-02  0.88897232916E+00  0.88000000000E+00 0. -1.
        -11    1    4    4    0    0  0.16259540436E-01 -0.62198806337E-01 -0.23868179870E-02  0.64335232852E-01  0.51100000000E-03 0. -1.
         11    1    4    4    0    0  0.12027306218E-01 -0.61952727966E-01 -0.21897043473E-01  0.66802232232E-01  0.51100000000E-03 0.  1.
</event>
<event>
 8    1  0.1176534E+005  0.1043930E+01  0.7957747E-01            NaN
         13   -1    0    0    0    0  0.00000000000E+00  0.00000000000E+00  0.74505805969E-08  0.10566000000E+00  0.10566000000E+00 0. -1.
     999900   -1    0    0    0    0 -0.00000000000E+00 -0.00000000000E+00 -0.74505805969E-08  0.93827000000E+00  0.93827000000E+00 0. -1.
     999902    2    1    2    0    0  0.34287945377E-02 -0.13454998026E-01 -0.19519025289E-01  0.10199761704E+01  0.10196948574E+01 0.  0.
     999903    2    3    3    0    0  0.57321593786E-01  0.14720340934E-01 -0.11689942886E+00  0.13251843815E+00  0.19829433468E-01 0.  0.
         14    1    1    2    0    0 -0.34287945377E-02  0.13454998026E-01  0.19519025289E-01  0.23953829592E-01  0.00000000000E+00 0. -1.
     999901    1    3    3    0    0 -0.53892799249E-01 -0.28175338961E-01  0.97380403571E-01  0.88745773225E+00  0.88000000000E+00 0.  1.
        -11    1    4    4    0    0  0.27902803109E-01  0.17151653068E-01 -0.65819652528E-01  0.73520292466E-01  0.51100000000E-03 0. -1.
         11    1    4    4    0    0  0.29418790677E-01 -0.24313121335E-02 -0.51079776332E-01  0.58998145689E-01  0.51100000000E-03 0.  1.
</event>
<event>
 8    1  0.1176534E+005  0.1043930E+01  0.7957747E-01            NaN
         13   -1    0    0    0    0  0.00000000000E+00  0.00000000000E+00  0.74505805969E-08  0.10566000000E+00  0.10566000000E+00 0.  1.
     999900   -1    0    0    0    0 -0.00000000000E+00 -0.00000000000E+00 -0.74505805969E-08  0.93827000000E+00  0.93827000000E+00 0. -1.
     999902    2    1    2    0    0  0.86030482756E-02  0.19892917884E-01 -0.97327264019E-02  0.10201714945E+01  0.10198948042E+01 0.  0.
     999903    2    3    3    0    0 -0.11626971214E-01  0.56049223678E-01  0.11538047014E+00  0.13035699466E+00  0.20089580180E-01 0.  0.
         14    1    1    2    0    0 -0.86030482756E-02 -0.19892917884E-01  0.97327264019E-02  0.23758505525E-01  0.00000000000E+00 0. -1.
     999901    1    3    3    0    0  0.20230019490E-01 -0.36156305794E-01 -0.12511319654E+00  0.88981449982E+00  0.88000000000E+00 0. -1.
        -11    1    4    4    0    0 -0.53436654703E-02  0.67273782938E-02  0.33265908429E-01  0.34361230536E-01  0.51100000000E-03 0.  1.
         11    1    4    4    0    0 -0.62833057437E-02  0.49321845384E-01  0.82114561711E-01  0.95995764121E-01  0.51100000000E-03 0. -1.
</event>
<event>
 8    1  0.1176534E+005  0.1043930E+01  0.7957747E-01            NaN
         13   -1    0    0    0    0  0.00000000000E+00  0.00000000000E+00  0.74505805969E-08  0.10566000000E+00  0.10566000000E+00 0.  1.
     999900   -1    0    0    0    0 -0.00000000000E+00 -0.00000000000E+00 -0.74505805969E-08  0.93827000000E+00  0.93827000000E+00 0. -1.
     999902    2    1    2    0    0 -0.12213162641E-01 -0.19308497480E-01  0.37631610410E-02  0.10207752856E+01  0.10205126373E+01 0.  0.
     999903    2    3    3    0    0 -0.63302436090E-01 -0.28707313228E-01  0.11138063210E+00  0.13269872830E+00  0.19287276563E-01 0.  0.
         14    1    1    2    0    0  0.12213162641E-01  0.19308497480E-01 -0.37631610410E-02  0.23154714372E-01  0.00000000000E+00 0. -1.
     999901    1    3    3    0    0  0.51089273449E-01  0.93988157479E-02 -0.10761747106E+00  0.88807655733E+00  0.88000000000E+00 0. -1.
        -11    1    4    4    0    0 -0.15490106656E-01 -0.16550794541E-01  0.38743877178E-01  0.44891216780E-01  0.51100000000E-03 0.  1.
         11    1    4    4    0    0 -0.47812329433E-01 -0.12156518686E-01  0.72636754924E-01  0.87807511520E-01  0.51100000000E-03 0. -1.
</event>
<event>
 8    1  0.1176534E+005  0.1043930E+01  0.7957747E-01            NaN
         13   -1    0    0    0    0  0.00000000000E+00  0.00000000000E+00  0.74505805969E-08  0.10566000000E+00  0.10566000000E+00 0. -1.
     999900   -1    0    0    0    0 -0.00000000000E+00 -0.00000000000E+00 -0.74505805969E-08  0.93827000000E+00  0.93827000000E+00 0.  1.
     999902    2    1    2    0    0  0.15229711424E-01  0.18571788422E-01  0.96007198588E-03  0.10198930041E+01  0.10196097109E+01 0.  0.
     999903    2    3    3    0    0  0.22495475541E-01 -0.46051255023E-01 -0.11734525782E+00  0.12959806410E+00  0.19974588245E-01 0.  0.
         14    1    1    2    0    0 -0.15229711424E-01 -0.18571788422E-01 -0.96007198588E-03  0.24036995933E-01  0.00000000000E+00 0. -1.
     999901    1    3    3    0    0 -0.72657641161E-02  0.64623043445E-01  0.11830532981E+00  0.89029493997E+00  0.88000000000E+00 0. -1.
        -11    1    4    4    0    0  0.55085928309E-02 -0.33252050292E-01 -0.70125721020E-01  0.77806949003E-01  0.51100000000E-03 0. -1.
         11    1    4    4    0    0  0.16986882710E-01 -0.12799204731E-01 -0.47219536803E-01  0.51791115096E-01  0.51100000000E-03 0.  1.
</event>
<event>
 8    1  0.1176534E+005  0.1043930E+01  0.7957747E-01            NaN
         13   -1    0    0    0    0  0.00000000000E+00  0.00000000000E+00  0.74505805969E-08  0.10566000000E+00  0.10566000000E+00 0.  1.
     999900   -1    0    0    0    0 -0.00000000000E+00 -0.00000000000E+00 -0.74505805969E-08  0.93827000000E+00  0.93827000000E+00 0. -1.
     999902    2    1    2    0    0  0.55135211537E-02  0.37954719903E-02 -0.22692956560E-01  0.10202704396E+01  0.10199960760E+01 0.  0.
     999903    2    3    3    0    0  0.12868081415E-01  0.51349100620E-01  0.11482555828E+00  0.12829130354E+00  0.21712486654E-01 0.  0.
         14    1    1    2    0    0 -0.55135211537E-02 -0.37954719903E-02  0.22692956560E-01  0.23659560448E-01  0.00000000000E+00 0.  1.
     999901    1    3    3    0    0 -0.73545602617E-02 -0.47553628629E-01 -0.13751851484E+00  0.89197913601E+00  0.88000000000E+00 0. -1.
        -11    1    4    4    0    0  0.89510447623E-02  0.24108775487E-01  0.79193171604E-01  0.83265682051E-01  0.51100000000E-03 0.  1.
         11    1    4    4    0    0  0.39170366531E-02  0.27240325132E-01  0.35632386676E-01  0.45025621491E-01  0.51100000000E-03 0. -1.
</event>
<event>
 8    1  0.1176534E+005  0.1043930E+01  0.7957747E-01            NaN
         13   -1    0    0    0    0  0.00000000000E+00  0.00000000000E+00  0.74505805969E-08  0.10566000000E+00  0.10566000000E+00 0.  1.
     999900   -1    0    0    0    0 -0.00000000000E+00 -0.00000000000E+00 -0.74505805969E-08  0.93827000000E+00  0.93827000000E+00 0.  1.
     999902    2    1    2    0    0 -0.94872154800E-02  0.17343476760E-02  0.21590149360E-01  0.10202836521E+01  0.10200095985E+01 0.  0.
     999903    2    3    3    0    0 -0.11894557277E+00  0.21124869543E-02  0.55127236978E-01  0.13286829771E+00  0.21504892393E-01 0.  0.
         14    1    1    2    0    0  0.94872154800E-02 -0.17343476760E-02 -0.21590149360E-01  0.23646347896E-01  0.00000000000E+00 0. -1.
     999901    1    3    3    0    0  0.10945835729E+00 -0.37813927834E-03 -0.33537087618E-01  0.88741535439E+00  0.88000000000E+00 0.  1.
        -11    1    4    4    0    0 -0.78008231791E-01 -0.84563781208E-02  0.38883752634E-01  0.87572837672E-01  0.51100000000E-03 0.  1.
         11    1    4    4    0    0 -0.40937340978E-01  0.10568865075E-01  0.16243484344E-01  0.45295460037E-01  0.51100000000E-03 0. -1.
</event>
<event>
 8    1  0.1176534E+005  0.1043930E+01  0.7957747E-01            NaN
         13   -1    0    0    0    0  0.00000000000E+00  0.00000000000E+00  0.74505805969E-08  0.10566000000E+00  0.10566000000E+00 0.  1.
     999900   -1    0    0    0    0 -0.00000000000E+00 -0.00000000000E+00 -0.74505805969E-08  0.93827000000E+00  0.93827000000E+00 0.  1.
     999902    2    1    2    0    0 -0.24630880274E-02 -0.18595336923E-01  0.15143374765E-01  0.10198224253E+01  0.10195374461E+01 0.  0.
     999903    2    3    3    0    0 -0.11920037453E-01 -0.34488600597E-01 -0.12224676738E+00  0.12896997912E+00  0.18905885750E-01 0.  0.
         14    1    1    2    0    0  0.24630880274E-02  0.18595336923E-01 -0.15143374765E-01  0.24107574685E-01  0.00000000000E+00 0. -1.
     999901    1    3    3    0    0  0.94569494260E-02  0.15893263674E-01  0.13739014215E+00  0.89085244619E+00  0.88000000000E+00 0. -1.
        -11    1    4    4    0    0 -0.90085822771E-02 -0.19944852568E-01 -0.98987557352E-01  0.10137923520E+00  0.51100000000E-03 0. -1.
         11    1    4    4    0    0 -0.29114551764E-02 -0.14543748030E-01 -0.23259210031E-01  0.27590743923E-01  0.51100000000E-03 0.  1.
</event>
<event>
 8    1  0.1176534E+005  0.1043930E+01  0.7957747E-01            NaN
         13   -1    0    0    0    0  0.00000000000E+00  0.00000000000E+00  0.74505805969E-08  0.10566000000E+00  0.10566000000E+00 0. -1.
     999900   -1    0    0    0    0 -0.00000000000E+00 -0.00000000000E+00 -0.74505805969E-08  0.93827000000E+00  0.93827000000E+00 0.  1.
     999902    2    1    2    0    0 -0.14651209976E-01 -0.19996124074E-01 -0.44785220455E-02  0.10187395238E+01  0.10184280324E+01 0.  0.
     999903    2    3    3    0    0 -0.41530918607E-01  0.98869151322E-01  0.66077221683E-01  0.12754393056E+00  0.20033190296E-01 0.  0.
         14    1    1    2    0    0  0.14651209976E-01  0.19996124074E-01  0.44785220455E-02  0.25190476206E-01  0.00000000000E+00 0. -1.
     999901    1    3    3    0    0  0.26879708631E-01 -0.11886527540E+00 -0.70555743728E-01  0.89119559324E+00  0.88000000000E+00 0.  1.
        -11    1    4    4    0    0 -0.34257209097E-01  0.56808364231E-01  0.38054604298E-01  0.76479805511E-01  0.51100000000E-03 0. -1.
         11    1    4    4    0    0 -0.72737095102E-02  0.42060787091E-01  0.28022617384E-01  0.51064125047E-01  0.51100000000E-03 0.  1.
</event>
<event>
 8    1  0.1176534E+005  0.1043930E+01  0.7957747E-01            NaN
         13   -1    0    0    0    0  0.00000000000E+00  0.00000000000E+00  0.74505805969E-08  0.10566000000E+00  0.10566000000E+00 0.  1.
     999900   -1    0    0    0    0 -0.00000000000E+00 -0.00000000000E+00 -0.74505805969E-08  0.93827000000E+00  0.93827000000E+00 0. -1.
     999902    2    1    2    0    0 -0.14687620143E-01  0.16145930943E-01 -0.87539523919E-02  0.10204130071E+01  0.10201419784E+01 0.  0.
     999903    2    3    3    0    0  0.56397821280E-02 -0.90362833612E-01 -0.90941702578E-01  0.12995686194E+00  0.20521789810E-01 0.  0.
         14    1    1    2    0    0  0.14687620143E-01 -0.16145930943E-01  0.87539523919E-02  0.23516992877E-01  0.00000000000E+00 0. -1.
     999901    1    3    3    0    0 -0.20327402272E-01  0.10650876456E+00  0.82187750186E-01  0.89045614518E+00  0.88000000000E+00 0.  1.
        -11    1    4    4    0    0 -0.50897442598E-02 -0.12597582911E-01 -0.80960929349E-02  0.15824425223E-01  0.51100000000E-03 0.  1.
         11    1    4    4    0    0  0.10729526388E-01 -0.77765250701E-01 -0.82845609643E-01  0.11413243672E+00  0.51100000000E-03 0. -1.
</event>
<event>
 8    1  0.1176534E+005  0.1043930E+01  0.7957747E-01            NaN
         13   -1    0    0    0    0  0.00000000000E+00  0.00000000000E+00  0.74505805969E-08  0.10566000000E+00  0.10566000000E+00 0.  1.
     999900   -1    0    0    0    0 -0.00000000000E+00 -0.00000000000E+00 -0.74505805969E-08  0.93827000000E+00  0.93827000000E+00 0. -1.
     999902    2    1    2    0    0 -0.80441320516E-02  0.20295754138E-01 -0.83791503196E-02  0.10205454783E+01  0.10202775296E+01 0.  0.
     999903    2    3    3    0    0  0.29998582872E-01  0.25265794333E-02 -0.12657784929E+00  0.13165070150E+00  0.20091209473E-01 0.  0.
         14    1    1    2    0    0  0.80441320516E-02 -0.20295754138E-01  0.83791503196E-02  0.23384521731E-01  0.00000000000E+00 0. -1.
     999901    1    3    3    0    0 -0.38042714923E-01  0.17769174705E-01  0.11819869897E+00  0.88889477677E+00  0.88000000000E+00 0.  1.
        -11    1    4    4    0    0  0.24486680245E-01 -0.66213278628E-02 -0.93954155479E-01  0.97319494166E-01  0.51100000000E-03 0.  1.
         11    1    4    4    0    0  0.55119026264E-02  0.91479072961E-02 -0.32623693807E-01  0.34331207335E-01  0.51100000000E-03 0. -1.
</event>
<event>
 8    1  0.1176534E+005  0.1043930E+01  0.7957747E-01            NaN
         13   -1    0    0    0    0  0.00000000000E+00  0.00000000000E+00  0.74505805969E-08  0.10566000000E+00  0.10566000000E+00 0.  1.
     999900   -1    0    0    0    0 -0.00000000000E+00 -0.00000000000E+00 -0.74505805969E-08  0.93827000000E+00  0.93827000000E+00 0. -1.
     999902    2    1    2    0    0 -0.82717707669E-02 -0.22577063892E-01  0.34629772823E-02  0.10196372394E+01  0.10193478120E+01 0.  0.
     999903    2    3    3    0    0 -0.69214948945E-01  0.48551962243E-01  0.96552187395E-01  0.12978387488E+00  0.19326849000E-01 0.  0.
         14    1    1    2    0    0  0.82717707669E-02  0.22577063892E-01 -0.34629772823E-02  0.24292760593E-01  0.00000000000E+00 0. -1.
     999901    1    3    3    0    0  0.60943178178E-01 -0.71129026134E-01 -0.93089210113E-01  0.88985336453E+00  0.88000000000E+00 0. -1.
        -11    1    4    4    0    0 -0.42813162634E-01  0.38644486690E-01  0.73024209248E-01  0.93054604957E-01  0.51100000000E-03 0. -1.
         11    1    4    4    0    0 -0.26401786310E-01  0.99074755526E-02  0.23527978147E-01  0.36729269920E-01  0.51100000000E-03 0.  1.
</event>
<event>
 8    1  0.1176534E+005  0.1043930E+01  0.7957747E-01            NaN
         13   -1    0    0    0    0  0.00000000000E+00  0.00000000000E+00  0.74505805969E-08  0.10566000000E+00  0.10566000000E+00 0. -1.
     999900   -1    0    0    0    0 -0.00000000000E+00 -0.00000000000E+00 -0.74505805969E-08  0.93827000000E+00  0.93827000000E+00 0. -1.
     999902    2    1    2    0    0 -0.16614323855E-01 -0.16978773088E-01 -0.56196644544E-03  0.10201680493E+01  0.10198912778E+01 0.  0.
     999903    2    3    3    0    0  0.34231300231E-01 -0.60521163955E-01  0.10905813900E+00  0.13084370760E+00  0.19794063147E-01 0.  0.
         14    1    1    2    0    0  0.16614323855E-01  0.16978773088E-01  0.56196644544E-03  0.23761950657E-01  0.00000000000E+00 0. -1.
     999901    1    3    3    0    0 -0.50845624086E-01  0.43542390867E-01 -0.10962010544E+00  0.88932434174E+00  0.88000000000E+00 0. -1.
        -11    1    4    4    0    0  0.22723466561E-01 -0.49628834393E-01  0.95425344981E-01  0.10993468389E+00  0.51100000000E-03 0. -1.
         11    1    4    4    0    0  0.11507833670E-01 -0.10892329562E-01  0.13632794018E-01  0.20909023717E-01  0.51100000000E-03 0.  1.
</event>
<event>
 8    1  0.1176534E+005  0.1043930E+01  0.7957747E-01            NaN
         13   -1    0    0    0    0  0.00000000000E+00  0.00000000000E+00  0.74505805969E-08  0.10566000000E+00  0.10566000000E+00 0.  1.
     999900   -1    0    0    0    0 -0.00000000000E+00 -0.00000000000E+00 -0.74505805969E-08  0.93827000000E+00  0.93827000000E+00 0. -1.
     999902    2    1    2    0    0 -0.74206810948E-03 -0.16140900498E-01  0.17116976248E-01  0.10203913040E+01  0.10201197690E+01 0.  0.
     999903    2    3    3    0    0  0.11314091072E+00  0.58661096317E-01 -0.92206513046E-02  0.12951626100E+00  0.21153050704E-01 0.  0.
         14    1    1    2    0    0  0.74206810948E-03  0.16140900498E-01 -0.17116976248E-01  0.23538696010E-01  0.00000000000E+00 0. -1.
     999901    1    3    3    0    0 -0.11388297883E+00 -0.74801996815E-01  0.26337627553E-01  0.89087504299E+00  0.88000000000E+00 0. -1.
        -11    1    4    4    0    0  0.58656485001E-02  0.68203614605E-02  0.35578487532E-02  0.96872375592E-02  0.51100000000E-03 0.  1.
         11    1    4    4    0    0  0.10727526222E+00  0.51840734856E-01 -0.12778500058E-01  0.11982902344E+00  0.51100000000E-03 0. -1.
</event>
<event>
 8    1  0.1176534E+005  0.1043930E+01  0.7957747E-01            NaN
         13   -1    0    0    0    0  0.00000000000E+00  0.00000000000E+00  0.74505805969E-08  0.10566000000E+00  0.10566000000E+00 0. -1.
     999900   -1    0    0    0    0 -0.00000000000E+00 -0.00000000000E+00 -0.74505805969E-08  0.93827000000E+00  0.93827000000E+00 0.  1.
     999902    2    1    2    0    0 -0.16065405877E-01  0.48596232785E-02  0.16749113953E-01  0.10202182725E+01  0.10199426834E+01 0.  0.
     999903    2    3    3    0    0 -0.94684229335E-01  0.44028022622E-01 -0.76279507668E-01  0.13096611062E+00  0.20736170816E-01 0.  0.
         14    1    1    2    0    0  0.16065405877E-01 -0.48596232785E-02 -0.16749113953E-01  0.23711727533E-01  0.00000000000E+00 0.  1.
     999901    1    3    3    0    0  0.78618823459E-01 -0.39168399344E-01  0.93028621620E-01  0.88925216185E+00  0.88000000000E+00 0. -1.
        -11    1    4    4    0    0 -0.22593510473E-01  0.11305899422E-01 -0.82511881898E-02  0.26582575210E-01  0.51100000000E-03 0. -1.
         11    1    4    4    0    0 -0.72090718862E-01  0.32722123200E-01 -0.68028319478E-01  0.10438353541E+00  0.51100000000E-03 0.  1.
</event>
<event>
 8    1  0.1176534E+005  0.1043930E+01  0.7957747E-01            NaN
         13   -1    0    0    0    0  0.00000000000E+00  0.00000000000E+00  0.74505805969E-08  0.10566000000E+00  0.10566000000E+00 0.  1.
     999900   -1    0    0    0    0 -0.00000000000E+00 -0.00000000000E+00 -0.74505805969E-08  0.93827000000E+00  0.93827000000E+00 0. -1.
     999902    2    1    2    0    0  0.16325397211E-01 -0.44745412312E-02 -0.16846740987E-01  0.10200479399E+01  0.10197683300E+01 0.  0.
     999903    2    3    3    0    0  0.28440481000E-01 -0.12613316562E+00 -0.12981414811E-01  0.13158717154E+00  0.20693722607E-01 0.  0.
         14    1    1    2    0    0 -0.16325397211E-01  0.44745412312E-02  0.16846740987E-01  0.23882060112E-01  0.00000000000E+00 0.  1.
     999901    1    3    3    0    0 -0.12115083789E-01  0.12165862439E+00 -0.38653261753E-02  0.88846076835E+00  0.88000000000E+00 0. -1.
        -11    1    4    4    0    0 -0.15320311303E-02 -0.20913266498E-01  0.23685731262E-02  0.21108839254E-01  0.51100000000E-03 0.  1.
         11    1    4    4    0    0  0.29972512131E-01 -0.10521989912E+00 -0.15349987938E-01  0.11047833229E+00  0.51100000000E-03 0. -1.
</event>
<event>
 8    1  0.1176534E+005  0.1043930E+01  0.7957747E-01            NaN
         13   -1    0    0    0    0  0.00000000000E+00  0.00000000000E+00  0.74505805969E-08  0.10566000000E+00  0.10566000000E+00 0. -1.
     999900   -1    0    0    0    0 -0.00000000000E+00 -0.00000000000E+00 -0.74505805969E-08  0.93827000000E+00  0.93827000000E+00 0.  1.
     999902    2    1    2    0    0  0.59464559231E-02  0.38735049330E-02 -0.22698155688E-01  0.10201482707E+01  0.10198710328E+01 0.  0.
     999903    2    3    3    0    0  0.68822469039E-01  0.11024507216E+00  0.52805807718E-03  0.13121196229E+00  0.18049709748E-01 0.  0.
         14    1    1    2    0    0 -0.59464559231E-02 -0.38735049330E-02  0.22698155688E-01  0.23781729334E-01  0.00000000000E+00 0. -1.
     999901    1    3    3    0    0 -0.62876013116E-01 -0.10637156723E+00 -0.23226213765E-01  0.88893630837E+00  0.88000000000E+00 0. -1.
        -11    1    4    4    0    0  0.36395754127E-01  0.51158080699E-01  0.84265420680E-02  0.63348779559E-01  0.51100000000E-03 0. -1.
         11    1    4    4    0    0  0.32426714912E-01  0.59086991464E-01 -0.78984839908E-02  0.67863182733E-01  0.51100000000E-03 0.  1.
</event>
<event>
 8    1  0.1176534E+005  0.1043930E+01  0.7957747E-01            NaN
         13   -1    0    0    0    0  0.00000000000E+00  0.00000000000E+00  0.74505805969E-08  0.10566000000E+00  0.10566000000E+00 0.  1.
     999900   -1    0    0    0    0 -0.00000000000E+00 -0.00000000000E+00 -0.74505805969E-08  0.93827000000E+00  0.93827000000E+00 0. -1.
     999902    2    1    2    0    0  0.16048269185E-01 -0.14401461154E-01 -0.12558837100E-01  0.10189765751E+01  0.10186709906E+01 0.  0.
     999903    2    3    3    0    0  0.29595007123E-01 -0.79455804890E-01 -0.99245122081E-01  0.13222402008E+00  0.21083354861E-01 0.  0.
         14    1    1    2    0    0 -0.16048269185E-01  0.14401461154E-01  0.12558837100E-01  0.24953424946E-01  0.00000000000E+00 0.  1.
     999901    1    3    3    0    0 -0.13546737937E-01  0.65054343736E-01  0.86686284981E-01  0.88675255497E+00  0.88000000000E+00 0.  1.
        -11    1    4    4    0    0  0.64717623114E-02 -0.42901506889E-01 -0.58188604251E-01  0.72585107195E-01  0.51100000000E-03 0.  1.
         11    1    4    4    0    0  0.23123244811E-01 -0.36554298001E-01 -0.41056517830E-01  0.59638912886E-01  0.51100000000E-03 0. -1.
</event>
<event>
 7    1  0.1176534E+005  0.1043930E+01  0.7957747E-01            NaN
         13   -1    0    0    0    0  0.00000000000E+00  0.00000000000E+00  0.74505805969E-08  0.10566000000E+00  0.10566000000E+00 0.  1.
     999900   -1    0    0    0    0 -0.00000000000E+00 -0.00000000000E+00 -0.74505805969E-08  0.93827000000E+00  0.93827000000E+00 0. -1.
     999902    2    1    2    0    0 -0.17914982423E-01 -0.76562897582E-02 -0.14340253452E-01  0.10197389224E+01  0.10194519418E+01 0.  0.
         14    1    1    2    0    0  0.17914982423E-01  0.76562897582E-02  0.14340253452E-01  0.24191077635E-01  0.00000000000E+00 0.  1.
     999901    1    3    3    0    0 -0.60551429584E-02 -0.12303033060E+00  0.17214581520E-01  0.88874600917E+00  0.88000000000E+00 0.  1.
        -11    1    3    3    0    0 -0.14848374085E-02  0.21403279587E-01  0.14428610049E-01  0.25860220961E-01  0.51100000000E-03 0.  1.
         11    1    3    3    0    0 -0.10375002056E-01  0.93970761256E-01 -0.45983445021E-01  0.10513269223E+00  0.51100000000E-03 0. -1.
</event>
<event>
 8    1  0.1176534E+005  0.1043930E+01  0.7957747E-01            NaN
         13   -1    0    0    0    0  0.00000000000E+00  0.00000000000E+00  0.74505805969E-08  0.10566000000E+00  0.10566000000E+00 0.  1.
     999900   -1    0    0    0    0 -0.00000000000E+00 -0.00000000000E+00 -0.74505805969E-08  0.93827000000E+00  0.93827000000E+00 0. -1.
     999902    2    1    2    0    0 -0.25852547990E-02  0.21407610527E-01 -0.10265979415E-01  0.10200477961E+01  0.10197681828E+01 0.  0.
     999903    2    3    3    0    0  0.82023508973E-01 -0.83907855412E-02  0.97157371302E-01  0.12898867144E+00  0.20006530328E-01 0.  0.
         14    1    1    2    0    0  0.25852547990E-02 -0.21407610527E-01  0.10265979415E-01  0.23882203923E-01  0.00000000000E+00 0.  1.
     999901    1    3    3    0    0 -0.84608763772E-01  0.29798396069E-01 -0.10742335072E+00  0.89105912463E+00  0.88000000000E+00 0.  1.
        -11    1    4    4    0    0  0.36995481055E-01 -0.11100342949E-01  0.55251867900E-01  0.67415971843E-01  0.51100000000E-03 0. -1.
         11    1    4    4    0    0  0.45028027918E-01  0.27095574081E-02  0.41905503403E-01  0.61572699600E-01  0.51100000000E-03 0.  1.
</event>
<event>
 8    1  0.1176534E+005  0.1043930E+01  0.7957747E-01            NaN
         13   -1    0    0    0    0  0.00000000000E+00  0.00000000000E+00  0.74505805969E-08  0.10566000000E+00  0.10566000000E+00 0.  1.
     999900   -1    0    0    0    0 -0.00000000000E+00 -0.00000000000E+00 -0.74505805969E-08  0.93827000000E+00  0.93827000000E+00 0. -1.
     999902    2    1    2    0    0 -0.16941020185E-01  0.11466685991E-01 -0.15396803656E-01  0.10183263945E+01  0.10180044701E+01 0.  0.
     999903    2    3    3    0    0  0.25362724525E-01 -0.11257291334E+00 -0.51465659622E-01  0.12789032638E+00  0.19781123527E-01 0.  0.
         14    1    1    2    0    0  0.16941020185E-01 -0.11466685991E-01  0.15396803656E-01  0.25603605515E-01  0.00000000000E+00 0.  1.
     999901    1    3    3    0    0 -0.42303744709E-01  0.12403959933E+00  0.36068855966E-01  0.89043606811E+00  0.88000000000E+00 0.  1.
        -11    1    4    4    0    0  0.23756149878E-01 -0.62518381167E-01 -0.26639153870E-01  0.71991723696E-01  0.51100000000E-03 0. -1.
         11    1    4    4    0    0  0.16065746462E-02 -0.50054532169E-01 -0.24826505752E-01  0.55898602680E-01  0.51100000000E-03 0.  1.
</event>
<event>
 8    1  0.1176534E+005  0.1043930E+01  0.7957747E-01            NaN
         13   -1    0    0    0    0  0.00000000000E+00  0.00000000000E+00  0.74505805969E-08  0.10566000000E+00  0.10566000000E+00 0. -1.
     999900   -1    0    0    0    0 -0.00000000000E+00 -0.00000000000E+00 -0.74505805969E-08  0.93827000000E+00  0.93827000000E+00 0.  1.
     999902    2    1    2    0    0  0.16519766847E-01 -0.17264907212E-01 -0.41907153227E-03  0.10200311436E+01  0.10197511356E+01 0.  0.
     999903    2    3    3    0    0 -0.10883829386E+00  0.47412558890E-01  0.42735546777E-01  0.12775308204E+00  0.20019941599E-01 0.  0.
         14    1    1    2    0    0 -0.16519766847E-01  0.17264907212E-01  0.41907153227E-03  0.23898856430E-01  0.00000000000E+00 0.  1.
     999901    1    3    3    0    0  0.12535806071E+00 -0.64677466102E-01 -0.43154618309E-01  0.89227806153E+00  0.88000000000E+00 0.  1.
        -11    1    4    4    0    0 -0.30823031691E-01  0.94659461790E-02  0.31772463475E-02  0.32404003380E-01  0.51100000000E-03 0. -1.
         11    1    4    4    0    0 -0.78015262168E-01  0.37946612711E-01  0.39558300429E-01  0.95349078660E-01  0.51100000000E-03 0.  1.
</event>
<event>
 8    1  0.1176534E+005  0.1043930E+01  0.7957747E-01            NaN
         13   -1    0    0    0    0  0.00000000000E+00  0.00000000000E+00  0.74505805969E-08  0.10566000000E+00  0.10566000000E+00 0.  1.
     999900   -1    0    0    0    0 -0.00000000000E+00 -0.00000000000E+00 -0.74505805969E-08  0.93827000000E+00  0.93827000000E+00 0. -1.
     999902    2    1    2    0    0 -0.82384120652E-02  0.15310733977E-01  0.15918249475E-01  0.10203571199E+01  0.10200847864E+01 0.  0.
     999903    2    3    3    0    0 -0.12197900928E+00  0.43397858414E-01 -0.16747632252E-01  0.13199184042E+00  0.19470745511E-01 0.  0.
         14    1    1    2    0    0  0.82384120652E-02 -0.15310733977E-01 -0.15918249475E-01  0.23572880066E-01  0.00000000000E+00 0.  1.
     999901    1    3    3    0    0  0.11374059722E+00 -0.28087124437E-01  0.32665881727E-01  0.88836527951E+00  0.88000000000E+00 0.  1.
        -11    1    4    4    0    0 -0.72352970392E-01  0.32608776375E-01 -0.17182392448E-01  0.81202095740E-01  0.51100000000E-03 0. -1.
         11    1    4    4    0    0 -0.49626038892E-01  0.10789082038E-01  0.43476019579E-03  0.50789744681E-01  0.51100000000E-03 0.  1.
</event>
<event>
 8    1  0.1176534E+005  0.1043930E+01  0.7957747E-01            NaN
         13   -1    0    0    0    0  0.00000000000E+00  0.00000000000E+00  0.74505805969E-08  0.10566000000E+00  0.10566000000E+00 0.  1.
     999900   -1    0    0    0    0 -0.00000000000E+00 -0.00000000000E+00 -0.74505805969E-08  0.93827000000E+00  0.93827000000E+00 0.  1.
     999902    2    1    2    0    0 -0.60563556428E-02  0.26334539639E-01 -0.26943429647E-01  0.10057706522E+01  0.10050465009E+01 0.  0.
     999903    2    3    3    0    0  0.38439740654E-01 -0.69216506720E-01 -0.84650313316E-01  0.11760400712E+00  0.19912018549E-01 0.  0.
         14    1    1    2    0    0  0.60563556428E-02 -0.26334539639E-01  0.26943429647E-01  0.38159347778E-01  0.00000000000E+00 0.  1.
     999901    1    3    3    0    0 -0.44496096297E-01  0.95551046359E-01  0.57706883669E-01  0.88816664510E+00  0.88000000000E+00 0. -1.
        -11    1    4    4    0    0  0.29812801565E-01 -0.65637427302E-01 -0.72187457105E-01  0.10202139523E+00  0.51100000000E-03 0. -1.
         11    1    4    4    0    0  0.86269390887E-02 -0.35790794182E-02 -0.12462856210E-01  0.15582611894E-01  0.51100000000E-03 0.  1.
</event>
<event>
 8    1  0.1176534E+005  0.1043930E+01  0.7957747E-01            NaN
         13   -1    0    0    0    0  0.00000000000E+00  0.00000000000E+00  0.74505805969E-08  0.10566000000E+00  0.10566000000E+00 0.  1.
     999900   -1    0    0    0    0 -0.00000000000E+00 -0.00000000000E+00 -0.74505805969E-08  0.93827000000E+00  0.93827000000E+00 0. -1.
     999902    2    1    2    0    0 -0.20942782315E-01  0.77153870894E-02  0.63526780003E-02  0.10207247453E+01  0.10204609359E+01 0.  0.
     999903    2    3    3    0    0  0.11593824184E+00  0.22986636612E-01 -0.46174064822E-01  0.12846430989E+00  0.20024316957E-01 0.  0.
         14    1    1    2    0    0  0.20942782315E-01 -0.77153870894E-02 -0.63526780003E-02  0.23205254724E-01  0.00000000000E+00 0. -1.
     999901    1    3    3    0    0 -0.13688102416E+00 -0.15271249523E-01  0.52526742822E-01  0.89226043538E+00  0.88000000000E+00 0.  1.
        -11    1    4    4    0    0  0.22268352257E-01  0.12042915988E-01 -0.13215916722E-01  0.28562788967E-01  0.51100000000E-03 0. -1.
         11    1    4    4    0    0  0.93669889587E-01  0.10943720624E-01 -0.32958148100E-01  0.99901520927E-01  0.51100000000E-03 0.  1.
</event>
<event>
 8    1  0.1176534E+005  0.1043930E+01  0.7957747E-01            NaN
         13   -1    0    0    0    0  0.00000000000E+00  0.00000000000E+00  0.74505805969E-08  0.10566000000E+00  0.10566000000E+00 0.  1.
     999900   -1    0    0    0    0 -0.00000000000E+00 -0.00000000000E+00 -0.74505805969E-08  0.93827000000E+00  0.93827000000E+00 0.  1.
     999902    2    1    2    0    0  0.67318595474E-02  0.92897032140E-03  0.23993253156E-01  0.10189929369E+01  0.10186877580E+01 0.  0.
     999903    2    3    3    0    0 -0.10510758949E+00 -0.64225695345E-01  0.34132230259E-01  0.12946722526E+00  0.20596309455E-01 0.  0.
         14    1    1    2    0    0 -0.67318595474E-02 -0.92897032140E-03 -0.23993253156E-01  0.24937063096E-01  0.00000000000E+00 0. -1.
     999901    1    3    3    0    0  0.11183944904E+00  0.65154665666E-01 -0.10138977103E-01  0.88952571164E+00  0.88000000000E+00 0. -1.
        -11    1    4    4    0    0 -0.19965449953E-01 -0.19444959966E-01  0.16251451161E-02  0.27921817232E-01  0.51100000000E-03 0.  1.
         11    1    4    4    0    0 -0.85142139537E-01 -0.44780735378E-01  0.32507085143E-01  0.10154540803E+00  0.51100000000E-03 0. -1.
</event>
<event>
 8    1  0.1176534E+005  0.1043930E+01  0.7957747E-01            NaN
         13   -1    0    0    0    0  0.00000000000E+00  0.00000000000E+00  0.74505805969E-08  0.10566000000E+00  0.10566000000E+00 0. -1.
     999900   -1    0    0    0    0 -0.00000000000E+00 -0.00000000000E+00 -0.74505805969E-08  0.93827000000E+00  0.93827000000E+00 0. -1.
     999902    2    1    2    0    0 -0.18049766338E-01 -0.11543583825E-01  0.95727685267E-02  0.10204632940E+01  0.10201934366E+01 0.  0.
     999903    2    3    3    0    0 -0.12476274324E+00  0.29581655900E-01 -0.26516706237E-01  0.13232963574E+00  0.19161949782E-01 0.  0.
         14    1    1    2    0    0  0.18049766338E-01  0.11543583825E-01 -0.95727685267E-02  0.23466705982E-01  0.00000000000E+00 0.  1.
     999901    1    3    3    0    0  0.10671297690E+00 -0.41125239725E-01  0.36089474764E-01  0.88813365828E+00  0.88000000000E+00 0. -1.
        -11    1    4    4    0    0 -0.37160128436E-01  0.56327112505E-02 -0.16187251826E-01  0.40925430041E-01  0.51100000000E-03 0.  1.
         11    1    4    4    0    0 -0.87602614800E-01  0.23948944650E-01 -0.10329454410E-01  0.91404205697E-01  0.51100000000E-03 0. -1.
</event>
<event>
 8    1  0.1176534E+005  0.1043930E+01  0.7957747E-01            NaN
         13   -1    0    0    0    0  0.00000000000E+00  0.00000000000E+00  0.74505805969E-08  0.10566000000E+00  0.10566000000E+00 0. -1.
     999900   -1    0    0    0    0 -0.00000000000E+00 -0.00000000000E+00 -0.74505805969E-08  0.93827000000E+00  0.93827000000E+00 0. -1.
     999902    2    1    2    0    0 -0.18219130735E-03 -0.74149992484E-02 -0.23055892377E-01  0.10197103885E+01  0.10194227224E+01 0.  0.
     999903    2    3    3    0    0  0.56768445118E-01  0.27877866474E-01  0.10861465022E+00  0.12739536950E+00  0.20799185753E-01 0.  0.
         14    1    1    2    0    0  0.18219130735E-03  0.74149992484E-02  0.23055892377E-01  0.24219611492E-01  0.00000000000E+00 0. -1.
     999901    1    3    3    0    0 -0.56950636425E-01 -0.35292865722E-01 -0.13167054259E+00  0.89231501901E+00  0.88000000000E+00 0. -1.
        -11    1    4    4    0    0  0.17795186473E-01  0.19937270415E-01  0.40799116028E-01  0.48774915714E-01  0.51100000000E-03 0. -1.
         11    1    4    4    0    0  0.38973258645E-01  0.79405960586E-02  0.67815534189E-01  0.78620453786E-01  0.51100000000E-03 0.  1.
</event>
<event>
 8    1  0.1176534E+005  0.1043930E+01  0.7957747E-01            NaN
         13   -1    0    0    0    0  0.00000000000E+00  0.00000000000E+00  0.74505805969E-08  0.10566000000E+00  0.10566000000E+00 0.  1.
     999900   -1    0    0    0    0 -0.00000000000E+00 -0.00000000000E+00 -0.74505805969E-08  0.93827000000E+00  0.93827000000E+00 0. -1.
     999902    2    1    2    0    0  0.12867964244E-02  0.48590277298E-02 -0.22618906757E-01  0.10207593086E+01  0.10204962936E+01 0.  0.
     999903    2    3    3    0    0 -0.48928406403E-01  0.10499781279E+00  0.55994727637E-01  0.13018115576E+00  0.19829123719E-01 0.  0.
         14    1    1    2    0    0 -0.12867964244E-02 -0.48590277298E-02  0.22618906757E-01  0.23170691366E-01  0.00000000000E+00 0.  1.
     999901    1    3    3    0    0  0.50215202827E-01 -0.10013878506E+00 -0.78613634393E-01  0.89057815288E+00  0.88000000000E+00 0.  1.
        -11    1    4    4    0    0 -0.36884577032E-01  0.82787027354E-01  0.34406955562E-01  0.96944642106E-01  0.51100000000E-03 0.  1.
         11    1    4    4    0    0 -0.12043829371E-01  0.22210785436E-01  0.21587772074E-01  0.33236513652E-01  0.51100000000E-03 0. -1.
</event>
<event>
 8    1  0.1176534E+005  0.1043930E+01  0.7957747E-01            NaN
         13   -1    0    0    0    0  0.00000000000E+00  0.00000000000E+00  0.74505805969E-08  0.10566000000E+00  0.10566000000E+00 0. -1.
     999900   -1    0    0    0    0 -0.00000000000E+00 -0.00000000000E+00 -0.74505805969E-08  0.93827000000E+00  0.93827000000E+00 0. -1.
     999902    2    1    2    0    0  0.20402954543E-01  0.32358539537E-02 -0.89917112699E-02  0.10213999717E+01  0.10211514579E+01 0.  0.
     999903    2    3    3    0    0  0.60340360590E-01  0.11643540592E+00 -0.13260184676E-01  0.13324043936E+00  0.19468418452E-01 0.  0.
         14    1    1    2    0    0 -0.20402954543E-01 -0.32358539537E-02  0.89917112699E-02  0.22530028328E-01  0.00000000000E+00 0.  1.
     999901    1    3    3    0    0 -0.39937406047E-01 -0.11319955196E+00  0.42684734061E-02  0.88815953231E+00  0.88000000000E+00 0. -1.
        -11    1    4    4    0    0  0.23308103727E-01  0.64869328194E-01 -0.10166600927E-01  0.69677244026E-01  0.51100000000E-03 0.  1.
         11    1    4    4    0    0  0.37032256863E-01  0.51566077723E-01 -0.30935837495E-02  0.63563195337E-01  0.51100000000E-03 0. -1.
</event>
<event>
 8    1  0.1233135E+005  0.1043930E+01  0.7957747E-01            NaN
         13   -1    0    0    0    0  0.00000000000E+00  0.00000000000E+00  0.74505805969E-08  0.10566000000E+00  0.10566000000E+00 0. -1.
     999900   -1    0    0    0    0 -0.00000000000E+00 -0.00000000000E+00 -0.74505805969E-08  0.93827000000E+00  0.93827000000E+00 0.  1.
     999902    2    1    2    0    0  0.15904620442E-01 -0.35690939312E-02 -0.19834589283E-01  0.10182569341E+01  0.10179332382E+01 0.  0.
     999903    2    3    3    0    0 -0.12227181652E+00 -0.25444045836E-01  0.83791242968E-02  0.12675973558E+00  0.20000606434E-01 0.  0.
         14    1    1    2    0    0 -0.15904620442E-01  0.35690939312E-02  0.19834589283E-01  0.25673065943E-01  0.00000000000E+00 0. -1.
     999901    1    3    3    0    0  0.13817643696E+00  0.21874951904E-01 -0.28213713580E-01  0.89149719847E+00  0.88000000000E+00 0.  1.
        -11    1    4    4    0    0 -0.48257268893E-01 -0.82516100933E-03  0.67734619293E-02  0.48739981527E-01  0.51100000000E-03 0.  1.
         11    1    4    4    0    0 -0.74014547626E-01 -0.24618884826E-01  0.16056623676E-02  0.78019754057E-01  0.51100000000E-03 0. -1.
</event>
<event>
 8    1  0.1176534E+005  0.1043930E+01  0.7957747E-01            NaN
         13   -1    0    0    0    0  0.00000000000E+00  0.00000000000E+00  0.74505805969E-08  0.10566000000E+00  0.10566000000E+00 0. -1.
     999900   -1    0    0    0    0 -0.00000000000E+00 -0.00000000000E+00 -0.74505805969E-08  0.93827000000E+00  0.93827000000E+00 0. -1.
     999902    2    1    2    0    0  0.24503201725E-01  0.18797024231E-02 -0.15578207888E-01  0.10148332521E+01  0.10144160433E+01 0.  0.
     999903    2    3    3    0    0 -0.10937280325E+00 -0.50678940007E-01  0.28862189638E-02  0.12296659692E+00  0.24118222315E-01 0.  0.
         14    1    1    2    0    0 -0.24503201725E-01 -0.18797024231E-02  0.15578207888E-01  0.29096747877E-01  0.00000000000E+00 0. -1.
     999901    1    3    3    0    0  0.13387600497E+00  0.52558642430E-01 -0.18464426852E-01  0.89186665520E+00  0.88000000000E+00 0.  1.
        -11    1    4    4    0    0 -0.87041071847E-01 -0.28887270778E-01  0.13068881810E-02  0.91720181416E-01  0.51100000000E-03 0.  1.
         11    1    4    4    0    0 -0.22331731403E-01 -0.21791669229E-01  0.15793307828E-02  0.31246415506E-01  0.51100000000E-03 0. -1.
</event>
<event>
 8    1  0.1176534E+005  0.1043930E+01  0.7957747E-01            NaN
         13   -1    0    0    0    0  0.00000000000E+00  0.00000000000E+00  0.74505805969E-08  0.10566000000E+00  0.10566000000E+00 0. -1.
     999900   -1    0    0    0    0 -0.00000000000E+00 -0.00000000000E+00 -0.74505805969E-08  0.93827000000E+00  0.93827000000E+00 0. -1.
     999902    2    1    2    0    0  0.17920162404E-01  0.25073834629E-02  0.18685146160E-01  0.10179193507E+01  0.10175869744E+01 0.  0.
     999903    2    3    3    0    0  0.17775535469E-01 -0.12085937862E+00  0.36655295924E-01  0.12913236538E+00  0.20213807400E-01 0.  0.
         14    1    1    2    0    0 -0.17920162404E-01 -0.25073834629E-02 -0.18685146160E-01  0.26010649347E-01  0.00000000000E+00 0.  1.
     999901    1    3    3    0    0  0.14462693522E-03  0.12336676208E+00 -0.17970149764E-01  0.88878698527E+00  0.88000000000E+00 0.  1.
        -11    1    4    4    0    0  0.63759733500E-02 -0.97048616157E-01  0.31473077876E-01  0.10222476552E+00  0.51100000000E-03 0. -1.
         11    1    4    4    0    0  0.11399562119E-01 -0.23810762459E-01  0.51822180478E-02  0.26907599860E-01  0.51100000000E-03 0.  1.
</event>
<event>
 8    1  0.1176534E+005  0.1043930E+01  0.7957747E-01            NaN
         13   -1    0    0    0    0  0.00000000000E+00  0.00000000000E+00  0.74505805969E-08  0.10566000000E+00  0.10566000000E+00 0.  1.
     999900   -1    0    0    0    0 -0.00000000000E+00 -0.00000000000E+00 -0.74505805969E-08  0.93827000000E+00  0.93827000000E+00 0. -1.
     999902    2    1    2    0    0  0.67887686485E-02  0.17701188728E-01  0.15390768414E-01  0.10195108433E+01  0.10192183595E+01 0.  0.
     999903    2    3    3    0    0  0.66855607195E-01 -0.10624245231E+00 -0.16721409887E-01  0.12821894764E+00  0.20083876616E-01 0.  0.
         14    1    1    2    0    0 -0.67887686485E-02 -0.17701188728E-01 -0.15390768414E-01  0.24419156712E-01  0.00000000000E+00 0. -1.
     999901    1    3    3    0    0 -0.60066838547E-01  0.12394364104E+00  0.32112178301E-01  0.89129189564E+00  0.88000000000E+00 0.  1.
        -11    1    4    4    0    0  0.45229405977E-01 -0.71425605800E-01 -0.20687647034E-01  0.87037671095E-01  0.51100000000E-03 0. -1.
         11    1    4    4    0    0  0.21626201219E-01 -0.34816846510E-01  0.39662371464E-02  0.41181276548E-01  0.51100000000E-03 0.  1.
</event>
<event>
 8    1  0.1176534E+005  0.1043930E+01  0.7957747E-01            NaN
         13   -1    0    0    0    0  0.00000000000E+00  0.00000000000E+00  0.74505805969E-08  0.10566000000E+00  0.10566000000E+00 0. -1.
     999900   -1    0    0    0    0 -0.00000000000E+00 -0.00000000000E+00 -0.74505805969E-08  0.93827000000E+00  0.93827000000E+00 0.  1.
     999902    2    1    2    0    0  0.40607708799E-02  0.21278422920E-01  0.10010765658E-01  0.10200662918E+01  0.10197871165E+01 0.  0.
     999903    2    3    3    0    0  0.23334152114E-01  0.10023493001E+00  0.82824384041E-01  0.13332652370E+00  0.18015534413E-01 0.  0.
         14    1    1    2    0    0 -0.40607708799E-02 -0.21278422920E-01 -0.10010765658E-01  0.23863708244E-01  0.00000000000E+00 0. -1.
     999901    1    3    3    0    0 -0.19273381234E-01 -0.78956507090E-01 -0.72813618383E-01  0.88673976806E+00  0.88000000000E+00 0.  1.
        -11    1    4    4    0    0 -0.15121993948E-02  0.20319954905E-01  0.11737615581E-01  0.23520630410E-01  0.51100000000E-03 0. -1.
         11    1    4    4    0    0  0.24846351509E-01  0.79914975105E-01  0.71086768460E-01  0.10980589329E+00  0.51100000000E-03 0.  1.
</event>
<event>
 8    1  0.1176534E+005  0.1043930E+01  0.7957747E-01            NaN
         13   -1    0    0    0    0  0.00000000000E+00  0.00000000000E+00  0.74505805969E-08  0.10566000000E+00  0.10566000000E+00 0. -1.
     999900   -1    0    0    0    0 -0.00000000000E+00 -0.00000000000E+00 -0.74505805969E-08  0.93827000000E+00  0.93827000000E+00 0. -1.
     999902    2    1    2    0    0 -0.16716278580E-01  0.13285341746E-02 -0.14677765224E-01  0.10216446738E+01  0.10214015879E+01 0.  0.
     999903    2    3    3    0    0 -0.49294121612E-01 -0.41855760758E-01 -0.11604882575E+00  0.13417507368E+00  0.18809713054E-01 0.  0.
         14    1    1    2    0    0  0.16716278580E-01 -0.13285341746E-02  0.14677765224E-01  0.22285326217E-01  0.00000000000E+00 0. -1.
     999901    1    3    3    0    0  0.32577843032E-01  0.43184294933E-01  0.10137106053E+00  0.88746960010E+00  0.88000000000E+00 0.  1.
        -11    1    4    4    0    0 -0.20425418110E-01 -0.77774979624E-02 -0.28798239995E-01  0.36156423044E-01  0.51100000000E-03 0. -1.
         11    1    4    4    0    0 -0.28868703502E-01 -0.34078262796E-01 -0.87250585760E-01  0.98018650641E-01  0.51100000000E-03 0.  1.
</event>
<event>
 8    1  0.1176534E+005  0.1043930E+01  0.7957747E-01            NaN
         13   -1    0    0    0    0  0.00000000000E+00  0.00000000000E+00  0.74505805969E-08  0.10566000000E+00  0.10566000000E+00 0.  1.
     999900   -1    0    0    0    0 -0.00000000000E+00 -0.00000000000E+00 -0.74505805969E-08  0.93827000000E+00  0.93827000000E+00 0. -1.
     999902    2    1    2    0    0  0.22691354286E-01  0.23193264843E-03 -0.45666820192E-02  0.10207825177E+01  0.10205200353E+01 0.  0.
     999903    2    3    3    0    0  0.79619835313E-01 -0.64852346379E-02 -0.10460281375E+00  0.13326170108E+00  0.20869975736E-01 0.  0.
         14    1    1    2    0    0 -0.22691354286E-01 -0.23193264843E-03  0.45666820192E-02  0.23147482298E-01  0.00000000000E+00 0.  1.
     999901    1    3    3    0    0 -0.56928481027E-01  0.67171672863E-02  0.10003613173E+00  0.88752081662E+00  0.88000000000E+00 0.  1.
        -11    1    4    4    0    0  0.28515105816E-01 -0.60704765015E-02 -0.23737288885E-01  0.37598962077E-01  0.51100000000E-03 0.  1.
         11    1    4    4    0    0  0.51104729497E-01 -0.41475813640E-03 -0.80865524861E-01  0.95662739001E-01  0.51100000000E-03 0. -1.
</event>
<event>
 8    1  0.1176534E+005  0.1043930E+01  0.7957747E-01            NaN
         13   -1    0    0    0    0  0.00000000000E+00  0.00000000000E+00  0.74505805969E-08  0.10566000000E+00  0.10566000000E+00 0. -1.
     999900   -1    0    0    0    0 -0.00000000000E+00 -0.00000000000E+00 -0.74505805969E-08  0.93827000000E+00  0.93827000000E+00 0.  1.
     999902    2    1    2    0    0  0.14091529073E-02  0.26049412510E-02 -0.23532971921E-01  0.10202113955E+01  0.10199356447E+01 0.  0.
     999903    2    3    3    0    0 -0.19697328347E-01  0.10156789665E-01 -0.13017876800E+00  0.13348943246E+00  0.19538982076E-01 0.  0.
         14    1    1    2    0    0 -0.14091529073E-02 -0.26049412510E-02  0.23532971921E-01  0.23718604476E-01  0.00000000000E+00 0. -1.
     999901    1    3    3    0    0  0.21106481254E-01 -0.75518484145E-02  0.10664579607E+00  0.88672196307E+00  0.88000000000E+00 0. -1.
        -11    1    4    4    0    0 -0.91140988090E-02  0.15223006296E-01 -0.82118913227E-01  0.84015378047E-01  0.51100000000E-03 0.  1.
         11    1    4    4    0    0 -0.10583229538E-01 -0.50662166308E-02 -0.48059854768E-01  0.49474054410E-01  0.51100000000E-03 0. -1.
</event>
<event>
 7    1  0.1176534E+005  0.1043930E+01  0.7957747E-01            NaN
         13   -1    0    0    0    0  0.00000000000E+00  0.00000000000E+00  0.74505805969E-08  0.10566000000E+00  0.10566000000E+00 0.  1.
     999900   -1    0    0    0    0 -0.00000000000E+00 -0.00000000000E+00 -0.74505805969E-08  0.93827000000E+00  0.93827000000E+00 0. -1.
     999903    2    1    2    0    0 -0.40957272995E-02 -0.39225655976E-01 -0.89937941958E-01  0.10024024343E+00  0.20095918244E-01 0.  0.
         14    1    1    2    0    0  0.53817088984E-01  0.10655491419E-01 -0.11356282399E-01  0.56024849077E-01  0.00000000000E+00 0. -1.
     999901    1    1    2    0    0 -0.49721361685E-01  0.28570164557E-01  0.10129422436E+00  0.88766490750E+00  0.88000000000E+00 0.  1.
        -11    1    3    3    0    0 -0.28635786644E-02 -0.17213996921E-01 -0.18329092667E-01  0.25312813589E-01  0.51100000000E-03 0.  1.
         11    1    3    3    0    0 -0.12321486352E-02 -0.22011659054E-01 -0.71608849291E-01  0.74927429839E-01  0.51100000000E-03 0. -1.
</event>
<event>
 8    1  0.1176534E+005  0.1043930E+01  0.7957747E-01            NaN
         13   -1    0    0    0    0  0.00000000000E+00  0.00000000000E+00  0.74505805969E-08  0.10566000000E+00  0.10566000000E+00 0. -1.
     999900   -1    0    0    0    0 -0.00000000000E+00 -0.00000000000E+00 -0.74505805969E-08  0.93827000000E+00  0.93827000000E+00 0. -1.
     999902    2    1    2    0    0  0.48618835061E-02  0.21965586104E-01 -0.76393252960E-02  0.10201711243E+01  0.10198944252E+01 0.  0.
     999903    2    3    3    0    0  0.65121131960E-01  0.29433929607E-01  0.10728743370E+00  0.13062342286E+00  0.21089502870E-01 0.  0.
         14    1    1    2    0    0 -0.48618835061E-02 -0.21965586104E-01  0.76393252960E-02  0.23758875712E-01  0.00000000000E+00 0. -1.
     999901    1    3    3    0    0 -0.60259248454E-01 -0.74683435024E-02 -0.11492675899E+00  0.88954770143E+00  0.88000000000E+00 0. -1.
        -11    1    4    4    0    0  0.48505529191E-01  0.26768184921E-01  0.94256401892E-01  0.10933367507E+00  0.51100000000E-03 0. -1.
         11    1    4    4    0    0  0.16615602769E-01  0.26657446854E-02  0.13031031805E-01  0.21289747791E-01  0.51100000000E-03 0.  1.
</event>
<event>
 8    1  0.1176534E+005  0.1043930E+01  0.7957747E-01            NaN
         13   -1    0    0    0    0  0.00000000000E+00  0.00000000000E+00  0.74505805969E-08  0.10566000000E+00  0.10566000000E+00 0.  1.
     999900   -1    0    0    0    0 -0.00000000000E+00 -0.00000000000E+00 -0.74505805969E-08  0.93827000000E+00  0.93827000000E+00 0.  1.
     999902    2    1    2    0    0 -0.22529771393E-01  0.31921684046E-02  0.25074071829E-03  0.10211738270E+01  0.10209202425E+01 0.  0.
     999903    2    3    3    0    0 -0.12359341757E+00 -0.35932738243E-01 -0.31343773472E-01  0.13396312361E+00  0.19929671539E-01 0.  0.
         14    1    1    2    0    0  0.22529771393E-01 -0.31921684046E-02 -0.25074071829E-03  0.22756172988E-01  0.00000000000E+00 0.  1.
     999901    1    3    3    0    0  0.10106364618E+00  0.39124906648E-01  0.31594514191E-01  0.88721070340E+00  0.88000000000E+00 0. -1.
        -11    1    4    4    0    0 -0.70007837595E-01 -0.28115618715E-01 -0.24790216685E-01  0.79412853524E-01  0.51100000000E-03 0. -1.
         11    1    4    4    0    0 -0.53585579977E-01 -0.78171195290E-02 -0.65535567872E-02  0.54550270089E-01  0.51100000000E-03 0.  1.
</event>
<event>
 8    1  0.1176534E+005  0.1043930E+01  0.7957747E-01            NaN
         13   -1    0    0    0    0  0.00000000000E+00  0.00000000000E+00  0.74505805969E-08  0.10566000000E+00  0.10566000000E+00 0.  1.
     999900   -1    0    0    0    0 -0.00000000000E+00 -0.00000000000E+00 -0.74505805969E-08  0.93827000000E+00  0.93827000000E+00 0. -1.
     999902    2    1    2    0    0 -0.86906087484E-02 -0.49063006535E-02  0.22155413402E-01  0.10196306006E+01  0.10193410131E+01 0.  0.
     999903    2    3    3    0    0 -0.22321452770E-01  0.97038427130E-01  0.83799896846E-01  0.13149853288E+00  0.18834485521E-01 0.  0.
         14    1    1    2    0    0  0.86906087484E-02  0.49063006535E-02 -0.22155413402E-01  0.24299399366E-01  0.00000000000E+00 0.  1.
     999901    1    3    3    0    0  0.13630844021E-01 -0.10194472778E+00 -0.61644483444E-01  0.88813206775E+00  0.88000000000E+00 0. -1.
        -11    1    4    4    0    0 -0.25393697410E-01  0.77584581720E-01  0.67346448285E-01  0.10583011106E+00  0.51100000000E-03 0.  1.
         11    1    4    4    0    0  0.30722446403E-02  0.19453845410E-01  0.16453448562E-01  0.25668421824E-01  0.51100000000E-03 0. -1.
</event>
<event>
 8    1  0.1176534E+005  0.1043930E+01  0.7957747E-01            NaN
         13   -1    0    0    0    0  0.00000000000E+00  0.00000000000E+00  0.74505805969E-08  0.10566000000E+00  0.10566000000E+00 0.  1.
     999900   -1    0    0    0    0 -0.00000000000E+00 -0.00000000000E+00 -0.74505805969E-08  0.93827000000E+00  0.93827000000E+00 0.  1.
     999902    2    1    2    0    0 -0.17459671845E-01  0.13242760601E-02 -0.16667889941E-01  0.10197553769E+01  0.10194687912E+01 0.  0.
     999903    2    3    3    0    0 -0.34540742925E-01 -0.12421571446E+00 -0.71258790385E-02  0.13063046879E+00  0.19772065715E-01 0.  0.
         14    1    1    2    0    0  0.17459671845E-01 -0.13242760601E-02  0.16667889941E-01  0.24174623122E-01  0.00000000000E+00 0.  1.
     999901    1    3    3    0    0  0.17081071080E-01  0.12553999052E+00 -0.95420109026E-02  0.88912490809E+00  0.88000000000E+00 0.  1.
        -11    1    4    4    0    0 -0.23021047420E-01 -0.58830963631E-01 -0.10984640345E-01  0.64124678171E-01  0.51100000000E-03 0. -1.
         11    1    4    4    0    0 -0.11519695505E-01 -0.65384750833E-01  0.38587613062E-02  0.66505790619E-01  0.51100000000E-03 0.  1.
</event>
<event>
 8    1  0.1176534E+005  0.1043930E+01  0.7957747E-01            NaN
         13   -1    0    0    0    0  0.00000000000E+00  0.00000000000E+00  0.74505805969E-08  0.10566000000E+00  0.10566000000E+00 0.  1.
     999900   -1    0    0    0    0 -0.00000000000E+00 -0.00000000000E+00 -0.74505805969E-08  0.93827000000E+00  0.93827000000E+00 0. -1.
     999902    2    1    2    0    0 -0.11166785626E-01 -0.12265001782E-01  0.17302886819E-01  0.10199609103E+01  0.10196792345E+01 0.  0.
     999903    2    3    3    0    0  0.43117625892E-02 -0.71548488108E-01  0.11019811015E+00  0.13295265793E+00  0.19874816327E-01 0.  0.
         14    1    1    2    0    0  0.11166785626E-01  0.12265001782E-01 -0.17302886819E-01  0.23969089724E-01  0.00000000000E+00 0. -1.
     999901    1    3    3    0    0 -0.15478548215E-01  0.59283486326E-01 -0.92895223331E-01  0.88700825234E+00  0.88000000000E+00 0. -1.
        -11    1    4    4    0    0 -0.37013893165E-02 -0.12418246815E-01  0.10182269392E-01  0.16487961299E-01  0.51100000000E-03 0. -1.
         11    1    4    4    0    0  0.80131519056E-02 -0.59130241293E-01  0.10001584076E+00  0.11646469663E+00  0.51100000000E-03 0.  1.
</event>
<event>
 8    1  0.1176534E+005  0.1043930E+01  0.7957747E-01            NaN
         13   -1    0    0    0    0  0.00000000000E+00  0.00000000000E+00  0.74505805969E-08  0.10566000000E+00  0.10566000000E+00 0.  1.
     999900   -1    0    0    0    0 -0.00000000000E+00 -0.00000000000E+00 -0.74505805969E-08  0.93827000000E+00  0.93827000000E+00 0. -1.
     999902    2    1    2    0    0 -0.17959238886E-01  0.15140013387E-01  0.20203723738E-02  0.10203538220E+01  0.10200814114E+01 0.  0.
     999903    2    3    3    0    0  0.60016079649E-01  0.11131971011E+00  0.28482692853E-01  0.13129199128E+00  0.20792198212E-01 0.  0.
         14    1    1    2    0    0  0.17959238886E-01 -0.15140013387E-01 -0.20203723738E-02  0.23576178046E-01  0.00000000000E+00 0.  1.
     999901    1    3    3    0    0 -0.77975318535E-01 -0.96179696720E-01 -0.26462320479E-01  0.88906183068E+00  0.88000000000E+00 0.  1.
        -11    1    4    4    0    0  0.23245262090E-01  0.33006958724E-01  0.17778459316E-01  0.44115034518E-01  0.51100000000E-03 0. -1.
         11    1    4    4    0    0  0.36770817559E-01  0.78312751383E-01  0.10704233537E-01  0.87176956759E-01  0.51100000000E-03 0.  1.
</event>
<event>
 8    1  0.1176534E+005  0.1043930E+01  0.7957747E-01            NaN
         13   -1    0    0    0    0  0.00000000000E+00  0.00000000000E+00  0.74505805969E-08  0.10566000000E+00  0.10566000000E+00 0. -1.
     999900   -1    0    0    0    0 -0.00000000000E+00 -0.00000000000E+00 -0.74505805969E-08  0.93827000000E+00  0.93827000000E+00 0.  1.
     999902    2    1    2    0    0 -0.80635354718E-02  0.19355673654E-01  0.11225820399E-01  0.10201459349E+01  0.10198686420E+01 0.  0.
     999903    2    3    3    0    0  0.59425309433E-01  0.11508636385E-01  0.11493905290E+00  0.13145433783E+00  0.20135564093E-01 0.  0.
         14    1    1    2    0    0  0.80635354718E-02 -0.19355673654E-01 -0.11225820399E-01  0.23784065055E-01  0.00000000000E+00 0.  1.
     999901    1    3    3    0    0 -0.67488844904E-01  0.78470372696E-02 -0.10371323250E+00  0.88869159711E+00  0.88000000000E+00 0.  1.
        -11    1    4    4    0    0  0.14214918693E-01 -0.49949608849E-03  0.12925958123E-01  0.19226412150E-01  0.51100000000E-03 0.  1.
         11    1    4    4    0    0  0.45210390740E-01  0.12008132473E-01  0.10201309478E+00  0.11222792568E+00  0.51100000000E-03 0. -1.
</event>
<event>
 8    1  0.1176534E+005  0.1043930E+01  0.7957747E-01            NaN
         13   -1    0    0    0    0  0.00000000000E+00  0.00000000000E+00  0.74505805969E-08  0.10566000000E+00  0.10566000000E+00 0. -1.
     999900   -1    0    0    0    0 -0.00000000000E+00 -0.00000000000E+00 -0.74505805969E-08  0.93827000000E+00  0.93827000000E+00 0.  1.
     999902    2    1    2    0    0 -0.10951306844E-01  0.27055375824E-01  0.17578311434E-01  0.10098577016E+01  0.10092827434E+01 0.  0.
     999903    2    3    3    0    0 -0.20218285595E-01  0.60366261876E-01  0.10585422899E+00  0.12476554280E+00  0.17562978958E-01 0.  0.
         14    1    1    2    0    0  0.10951306844E-01 -0.27055375824E-01 -0.17578311434E-01  0.34072298358E-01  0.00000000000E+00 0.  1.
     999901    1    3    3    0    0  0.92669787511E-02 -0.33310886052E-01 -0.88275917555E-01  0.88509215884E+00  0.88000000000E+00 0.  1.
        -11    1    4    4    0    0 -0.77920124743E-02  0.73741184769E-02  0.25930741464E-01  0.28067019000E-01  0.51100000000E-03 0.  1.
         11    1    4    4    0    0 -0.12426273120E-01  0.52992143399E-01  0.79923487525E-01  0.96698523799E-01  0.51100000000E-03 0. -1.
</event>
<event>
 8    1  0.1176534E+005  0.1043930E+01  0.7957747E-01            NaN
         13   -1    0    0    0    0  0.00000000000E+00  0.00000000000E+00  0.74505805969E-08  0.10566000000E+00  0.10566000000E+00 0. -1.
     999900   -1    0    0    0    0 -0.00000000000E+00 -0.00000000000E+00 -0.74505805969E-08  0.93827000000E+00  0.93827000000E+00 0. -1.
     999902    2    1    2    0    0 -0.17737055622E-01  0.44856858329E-02 -0.15208959598E-01  0.10201384685E+01  0.10198609993E+01 0.  0.
     999903    2    3    3    0    0  0.45766158348E-01  0.62153523449E-01 -0.10454251361E+00  0.13146601952E+00  0.19914201232E-01 0.  0.
         14    1    1    2    0    0  0.17737055622E-01 -0.44856858329E-02  0.15208959598E-01  0.23791531509E-01  0.00000000000E+00 0. -1.
     999901    1    3    3    0    0 -0.63503213970E-01 -0.57667837616E-01  0.89333554011E-01  0.88867244897E+00  0.88000000000E+00 0. -1.
        -11    1    4    4    0    0  0.16615207938E-01  0.17966636986E-01 -0.19511357614E-01  0.31302066647E-01  0.51100000000E-03 0. -1.
         11    1    4    4    0    0  0.29150950410E-01  0.44186886462E-01 -0.85031155996E-01  0.10016395288E+00  0.51100000000E-03 0.  1.
</event>
<event>
 8    1  0.1176534E+005  0.1043930E+01  0.7957747E-01            NaN
         13   -1    0    0    0    0  0.00000000000E+00  0.00000000000E+00  0.74505805969E-08  0.10566000000E+00  0.10566000000E+00 0. -1.
     999900   -1    0    0    0    0 -0.00000000000E+00 -0.00000000000E+00 -0.74505805969E-08  0.93827000000E+00  0.93827000000E+00 0. -1.
     999902    2    1    2    0    0  0.14022723603E-01 -0.26574419753E-02  0.19394948873E-01  0.10198496591E+01  0.10195653311E+01 0.  0.
     999903    2    3    3    0    0 -0.73831189638E-01  0.10018707584E+00  0.28637534894E-01  0.12946730849E+00  0.21288044393E-01 0.  0.
         14    1    1    2    0    0 -0.14022723603E-01  0.26574419753E-02 -0.19394948873E-01  0.24080340880E-01  0.00000000000E+00 0.  1.
     999901    1    3    3    0    0  0.87853913241E-01 -0.10284451782E+00 -0.92425860211E-02  0.89038235063E+00  0.88000000000E+00 0.  1.
        -11    1    4    4    0    0 -0.17745934770E-01  0.39094968616E-01  0.14613755708E-01  0.45355900926E-01  0.51100000000E-03 0.  1.
         11    1    4    4    0    0 -0.56085254868E-01  0.61092107225E-01  0.14023779186E-01  0.84111407564E-01  0.51100000000E-03 0. -1.
</event>
<event>
 8    1  0.1176534E+005  0.1043930E+01  0.7957747E-01            NaN
         13   -1    0    0    0    0  0.00000000000E+00  0.00000000000E+00  0.74505805969E-08  0.10566000000E+00  0.10566000000E+00 0.  1.
     999900   -1    0    0    0    0 -0.00000000000E+00 -0.00000000000E+00 -0.74505805969E-08  0.93827000000E+00  0.93827000000E+00 0. -1.
     999902    2    1    2    0    0 -0.13186487722E-01  0.10134730855E-01 -0.17007804189E-01  0.10201421537E+01  0.10198647715E+01 0.  0.
     999903    2    3    3    0    0  0.40602408875E-01  0.45107411097E-01 -0.11577755722E+00  0.13229543390E+00  0.20356938155E-01 0.  0.
         14    1    1    2    0    0  0.13186487722E-01 -0.10134730855E-01  0.17007804189E-01  0.23787846294E-01  0.00000000000E+00 0.  1.
     999901    1    3    3    0    0 -0.53788896597E-01 -0.34972680242E-01  0.98769753035E-01  0.88784671981E+00  0.88000000000E+00 0. -1.
        -11    1    4    4    0    0  0.22497899965E-01  0.38710109081E-01 -0.82809126441E-01  0.94139474137E-01  0.51100000000E-03 0. -1.
         11    1    4    4    0    0  0.18104508910E-01  0.63973020166E-02 -0.32968430783E-01  0.38155959760E-01  0.51100000000E-03 0.  1.
</event>
<event>
 8    1  0.1176534E+005  0.1043930E+01  0.7957747E-01            NaN
         13   -1    0    0    0    0  0.00000000000E+00  0.00000000000E+00  0.74505805969E-08  0.10566000000E+00  0.10566000000E+00 0.  1.
     999900   -1    0    0    0    0 -0.00000000000E+00 -0.00000000000E+00 -0.74505805969E-08  0.93827000000E+00  0.93827000000E+00 0.  1.
     999902    2    1    2    0    0 -0.74259676034E-02 -0.14438679352E-01 -0.16677226400E-01  0.10206544691E+01  0.10203890410E+01 0.  0.
     999903    2    3    3    0    0  0.11993907529E+00  0.40460665607E-01  0.16234713666E-01  0.12918434175E+00  0.20064420813E-01 0.  0.
         14    1    1    2    0    0  0.74259676034E-02  0.14438679352E-01  0.16677226400E-01  0.23275530857E-01  0.00000000000E+00 0.  1.
     999901    1    3    3    0    0 -0.12736504290E+00 -0.54899344959E-01 -0.32911940066E-01  0.89147012739E+00  0.88000000000E+00 0.  1.
        -11    1    4    4    0    0  0.84688448580E-01  0.19449207411E-01  0.14587256409E-01  0.88110465680E-01  0.51100000000E-03 0.  1.
         11    1    4    4    0    0  0.35250626714E-01  0.21011458195E-01  0.16474572575E-02  0.41073876073E-01  0.51100000000E-03 0. -1.
</event>
<event>
 8    1  0.1176534E+005  0.1043930E+01  0.7957747E-01            NaN
         13   -1    0    0    0    0  0.00000000000E+00  0.00000000000E+00  0.74505805969E-08  0.10566000000E+00  0.10566000000E+00 0.  1.
     999900   -1    0    0    0    0 -0.00000000000E+00 -0.00000000000E+00 -0.74505805969E-08  0.93827000000E+00  0.93827000000E+00 0.  1.
     999902    2    1    2    0    0  0.21053904907E-01 -0.37804261480E-02  0.85071662830E-02  0.10209097825E+01  0.10206502112E+01 0.  0.
     999903    2    3    3    0    0  0.76571525759E-01 -0.90502868930E-01  0.58927871182E-01  0.13347232796E+00  0.16982358134E-01 0.  0.
         14    1    1    2    0    0 -0.21053904907E-01  0.37804261480E-02 -0.85071662830E-02  0.23020217459E-01  0.00000000000E+00 0. -1.
     999901    1    3    3    0    0 -0.55517620852E-01  0.86722442782E-01 -0.50420704899E-01  0.88743745458E+00  0.88000000000E+00 0.  1.
        -11    1    4    4    0    0  0.58637746192E-01 -0.69131318204E-01  0.36707244839E-01  0.97801878202E-01  0.51100000000E-03 0. -1.
         11    1    4    4    0    0  0.17933779568E-01 -0.21371550726E-01  0.22220626343E-01  0.35670449760E-01  0.51100000000E-03 0.  1.
</event>
<event>
 8    1  0.1176534E+005  0.1043930E+01  0.7957747E-01            NaN
         13   -1    0    0    0    0  0.00000000000E+00  0.00000000000E+00  0.74505805969E-08  0.10566000000E+00  0.10566000000E+00 0. -1.
     999900   -1    0    0    0    0 -0.00000000000E+00 -0.00000000000E+00 -0.74505805969E-08  0.93827000000E+00  0.93827000000E+00 0.  1.
     999902    2    1    2    0    0  0.16640791129E-01 -0.69192579222E-02  0.14647690926E-01  0.10207061565E+01  0.10204419194E+01 0.  0.
     999903    2    3    3    0    0 -0.47449098019E-01  0.10401899032E+00  0.59131783029E-01  0.13031655450E+00  0.20358520678E-01 0.  0.
         14    1    1    2    0    0 -0.16640791129E-01  0.69192579222E-02 -0.14647690926E-01  0.23223843546E-01  0.00000000000E+00 0. -1.
     999901    1    3    3    0    0  0.64089889148E-01 -0.11093824824E+00 -0.44484092103E-01  0.89038960195E+00  0.88000000000E+00 0.  1.
        -11    1    4    4    0    0 -0.29754352755E-01  0.43739830587E-01  0.21661088921E-01  0.57166057953E-01  0.51100000000E-03 0. -1.
         11    1    4    4    0    0 -0.17694745264E-01  0.60279159729E-01  0.37470694107E-01  0.73150496550E-01  0.51100000000E-03 0.  1.
</event>
<event>
 8    1  0.1176534E+005  0.1043930E+01  0.7957747E-01            NaN
         13   -1    0    0    0    0  0.00000000000E+00  0.00000000000E+00  0.74505805969E-08  0.10566000000E+00  0.10566000000E+00 0.  1.
     999900   -1    0    0    0    0 -0.00000000000E+00 -0.00000000000E+00 -0.74505805969E-08  0.93827000000E+00  0.93827000000E+00 0.  1.
     999902    2    1    2    0    0  0.13257198848E-01  0.90977846871E-02 -0.17820281499E-01  0.10199282201E+01  0.10196457663E+01 0.  0.
     999903    2    3    3    0    0 -0.30708834298E-01  0.70212737448E-01  0.10159560116E+00  0.12867729998E+00  0.19060964074E-01 0.  0.
         14    1    1    2    0    0 -0.13257198848E-01 -0.90977846871E-02  0.17820281499E-01  0.24001779938E-01  0.00000000000E+00 0.  1.
     999901    1    3    3    0    0  0.43966033146E-01 -0.61114952761E-01 -0.11941588265E+00  0.89125092008E+00  0.88000000000E+00 0. -1.
        -11    1    4    4    0    0 -0.27421989367E-02  0.21097819151E-01  0.18603724328E-01  0.28266540429E-01  0.51100000000E-03 0. -1.
         11    1    4    4    0    0 -0.27966635361E-01  0.49114918297E-01  0.82991876828E-01  0.10041075955E+00  0.51100000000E-03 0.  1.
</event>
<event>
 8    1  0.1176534E+005  0.1043930E+01  0.7957747E-01            NaN
         13   -1    0    0    0    0  0.00000000000E+00  0.00000000000E+00  0.74505805969E-08  0.10566000000E+00  0.10566000000E+00 0.  1.
     999900   -1    0    0    0    0 -0.00000000000E+00 -0.00000000000E+00 -0.74505805969E-08  0.93827000000E+00  0.93827000000E+00 0.  1.
     999902    2    1    2    0    0  0.20369471150E-01 -0.53721393997E-02 -0.45199145463E-02  0.10223845860E+01  0.10221575401E+01 0.  0.
     999903    2    3    3    0    0 -0.35587738347E-02  0.11402950491E+00  0.61897846254E-01  0.13151948257E+00  0.21228237399E-01 0.  0.
         14    1    1    2    0    0 -0.20369471150E-01  0.53721393997E-02  0.45199145463E-02  0.21545413994E-01  0.00000000000E+00 0.  1.
     999901    1    3    3    0    0  0.23928244985E-01 -0.11940164431E+00 -0.66417760801E-01  0.89086510344E+00  0.88000000000E+00 0.  1.
        -11    1    4    4    0    0  0.64225906148E-02  0.71940516610E-01  0.44860844221E-01  0.85026137544E-01  0.51100000000E-03 0. -1.
         11    1    4    4    0    0 -0.99813644495E-02  0.42088988300E-01  0.17037002033E-01  0.46493345025E-01  0.51100000000E-03 0.  1.
</event>
<event>
 8    1  0.1176534E+005  0.1043930E+01  0.7957747E-01            NaN
         13   -1    0    0    0    0  0.00000000000E+00  0.00000000000E+00  0.74505805969E-08  0.10566000000E+00  0.10566000000E+00 0.  1.
     999900   -1    0    0    0    0 -0.00000000000E+00 -0.00000000000E+00 -0.74505805969E-08  0.93827000000E+00  0.93827000000E+00 0. -1.
     999902    2    1    2    0    0  0.61062675585E-02 -0.23249616005E-01  0.48688369170E-02  0.10194037544E+01  0.10191086683E+01 0.  0.
     999903    2    3    3    0    0 -0.98771404708E-01  0.27707759888E-01 -0.74500782672E-01  0.12817117156E+00  0.18814150343E-01 0.  0.
         14    1    1    2    0    0 -0.61062675585E-02  0.23249616005E-01 -0.48688369170E-02  0.24526245551E-01  0.00000000000E+00 0. -1.
     999901    1    3    3    0    0  0.10487767227E+00 -0.50957375893E-01  0.79369619589E-01  0.89123258289E+00  0.88000000000E+00 0.  1.
        -11    1    4    4    0    0 -0.59642163349E-01  0.12862544566E-01 -0.54381638880E-01  0.81732835934E-01  0.51100000000E-03 0.  1.
         11    1    4    4    0    0 -0.39129241359E-01  0.14845215322E-01 -0.20119143792E-01  0.46438335621E-01  0.51100000000E-03 0. -1.
</event>
<event>
 8    1  0.1176534E+005  0.1043930E+01  0.7957747E-01            NaN
         13   -1    0    0    0    0  0.00000000000E+00  0.00000000000E+00  0.74505805969E-08  0.10566000000E+00  0.10566000000E+00 0.  1.
     999900   -1    0    0    0    0 -0.00000000000E+00 -0.00000000000E+00 -0.74505805969E-08  0.93827000000E+00  0.93827000000E+00 0. -1.
     999902    2    1    2    0    0  0.11719362239E-01  0.16387039095E-01  0.12660696052E-01  0.10201356367E+01  0.10198581007E+01 0.  0.
     999903    2    3    3    0    0 -0.46422484292E-01 -0.11581738431E+00  0.21595246710E-01  0.12831821697E+00  0.20748411299E-01 0.  0.
         14    1    1    2    0    0 -0.11719362239E-01 -0.16387039095E-01 -0.12660696052E-01  0.23794363326E-01  0.00000000000E+00 0. -1.
     999901    1    3    3    0    0  0.58141846530E-01  0.13220442340E+00 -0.89345506582E-02  0.89181741970E+00  0.88000000000E+00 0.  1.
        -11    1    4    4    0    0 -0.16805425825E-01 -0.66067417604E-01  0.65016043461E-02  0.68482537818E-01  0.51100000000E-03 0.  1.
         11    1    4    4    0    0 -0.29617058467E-01 -0.49749966702E-01  0.15093642364E-01  0.59835679155E-01  0.51100000000E-03 0. -1.
</event>
<event>
 7    1  0.1176534E+005  0.1043930E+01  0.7957747E-01            NaN
         13   -1    0    0    0    0  0.00000000000E+00  0.00000000000E+00  0.74505805969E-08  0.10566000000E+00  0.10566000000E+00 0. -1.
     999900   -1    0    0    0    0 -0.00000000000E+00 -0.00000000000E+00 -0.74505805969E-08  0.93827000000E+00  0.93827000000E+00 0. -1.
     999903    2    1    2    0    0  0.30337407081E-01 -0.12964976436E-01  0.15051740745E-01  0.42546347697E-01  0.22252818260E-01 0.  0.
         14    1    1    2    0    0 -0.11256318541E+00  0.67440529352E-02 -0.32504547670E-01  0.11735628905E+00  0.00000000000E+00 0.  1.
     999901    1    1    2    0    0  0.82225778332E-01  0.62209235010E-02  0.17452806925E-01  0.88402736325E+00  0.88000000000E+00 0. -1.
        -11    1    3    3    0    0  0.14698618012E-01  0.31429506950E-02  0.13204906368E-01  0.20013949728E-01  0.51100000000E-03 0. -1.
         11    1    3    3    0    0  0.15638789068E-01 -0.16107927131E-01  0.18468343766E-02  0.22532397968E-01  0.51100000000E-03 0.  1.
</event>
<event>
 7    1  0.1176534E+005  0.1043930E+01  0.7957747E-01            NaN
         13   -1    0    0    0    0  0.00000000000E+00  0.00000000000E+00  0.74505805969E-08  0.10566000000E+00  0.10566000000E+00 0.  1.
     999900   -1    0    0    0    0 -0.00000000000E+00 -0.00000000000E+00 -0.74505805969E-08  0.93827000000E+00  0.93827000000E+00 0.  1.
     999903    2    1    2    0    0 -0.44596183503E-01 -0.24235620597E-01  0.16129874609E-01  0.56676809238E-01  0.19388217086E-01 0.  0.
         14    1    1    2    0    0 -0.74474959186E-01  0.82585729441E-02 -0.62939681036E-01  0.97857687597E-01  0.00000000000E+00 0. -1.
     999901    1    1    2    0    0  0.11907114269E+00  0.15977047653E-01  0.46809806428E-01  0.88939550317E+00  0.88000000000E+00 0. -1.
        -11    1    3    3    0    0 -0.25763468649E-01 -0.35599768307E-02  0.45752190705E-02  0.26412563344E-01  0.51100000000E-03 0.  1.
         11    1    3    3    0    0 -0.18832714854E-01 -0.20675643766E-01  0.11554655538E-01  0.30264245894E-01  0.51100000000E-03 0. -1.
</event>
<event>
 8    1  0.1176534E+005  0.1043930E+01  0.7957747E-01            NaN
         13   -1    0    0    0    0  0.00000000000E+00  0.00000000000E+00  0.74505805969E-08  0.10566000000E+00  0.10566000000E+00 0. -1.
     999900   -1    0    0    0    0 -0.00000000000E+00 -0.00000000000E+00 -0.74505805969E-08  0.93827000000E+00  0.93827000000E+00 0. -1.
     999902    2    1    2    0    0  0.20602756279E-01  0.13799612012E-02 -0.18685910191E-03  0.10232802355E+01  0.10230718584E+01 0.  0.
     999903    2    3    3    0    0 -0.12306878839E+00 -0.38510922596E-01 -0.87426103174E-02  0.13069634795E+00  0.19392892949E-01 0.  0.
         14    1    1    2    0    0 -0.20602756279E-01 -0.13799612012E-02  0.18685910191E-03  0.20649764539E-01  0.00000000000E+00 0.  1.
     999901    1    3    3    0    0  0.14367154467E+00  0.39890883797E-01  0.85557512154E-02  0.89258388751E+00  0.88000000000E+00 0.  1.
        -11    1    4    4    0    0 -0.20936079329E-01 -0.14506432915E-01 -0.23768963338E-02  0.25586456784E-01  0.51100000000E-03 0. -1.
         11    1    4    4    0    0 -0.10213270907E+00 -0.24004489681E-01 -0.63657139835E-02  0.10510989117E+00  0.51100000000E-03 0.  1.
</event>
<event>
 8    1  0.1176534E+005  0.1043930E+01  0.7957747E-01            NaN
         13   -1    0    0    0    0  0.00000000000E+00  0.00000000000E+00  0.74505805969E-08  0.10566000000E+00  0.10566000000E+00 0. -1.
     999900   -1    0    0    0    0 -0.00000000000E+00 -0.00000000000E+00 -0.74505805969E-08  0.93827000000E+00  0.93827000000E+00 0. -1.
     999902    2    1    2    0    0 -0.21884925015E-01  0.48175597740E-03 -0.13284593144E-01  0.10183240935E+01  0.10180021105E+01 0.  0.
     999903    2    3    3    0    0 -0.46850050984E-01  0.69235442993E-01 -0.99537383538E-01  0.13108688124E+00  0.16958946584E-01 0.  0.
         14    1    1    2    0    0  0.21884925015E-01 -0.48175597740E-03  0.13284593144E-01  0.25605906481E-01  0.00000000000E+00 0. -1.
     999901    1    3    3    0    0  0.24965125969E-01 -0.68753687015E-01  0.86252790395E-01  0.88723721227E+00  0.88000000000E+00 0.  1.
        -11    1    4    4    0    0 -0.20550869527E-01  0.19104433465E-01 -0.40685297084E-01  0.49425419939E-01  0.51100000000E-03 0. -1.
         11    1    4    4    0    0 -0.26299181457E-01  0.50131009528E-01 -0.58852086454E-01  0.81661461306E-01  0.51100000000E-03 0.  1.
</event>
<event>
 8    1  0.1176534E+005  0.1043930E+01  0.7957747E-01            NaN
         13   -1    0    0    0    0  0.00000000000E+00  0.00000000000E+00  0.74505805969E-08  0.10566000000E+00  0.10566000000E+00 0.  1.
     999900   -1    0    0    0    0 -0.00000000000E+00 -0.00000000000E+00 -0.74505805969E-08  0.93827000000E+00  0.93827000000E+00 0.  1.
     999902    2    1    2    0    0  0.12814720949E-01  0.20407798301E-01 -0.86246192526E-03  0.10198169507E+01  0.10195318405E+01 0.  0.
     999903    2    3    3    0    0  0.75816652513E-01 -0.83900834409E-01  0.59653378135E-01  0.12936105562E+00  0.19703867020E-01 0.  0.
         14    1    1    2    0    0 -0.12814720949E-01 -0.20407798301E-01  0.86246192526E-03  0.24113049269E-01  0.00000000000E+00 0. -1.
     999901    1    3    3    0    0 -0.63001931564E-01  0.10430863271E+00 -0.60515840060E-01  0.89045589511E+00  0.88000000000E+00 0.  1.
        -11    1    4    4    0    0  0.63278249705E-02 -0.46234735560E-02 -0.70076427525E-03  0.78847998168E-02  0.51100000000E-03 0.  1.
         11    1    4    4    0    0  0.69488827543E-01 -0.79277360853E-01  0.60354142410E-01  0.12147625580E+00  0.51100000000E-03 0. -1.
</event>
<event>
 8    1  0.1176534E+005  0.1043930E+01  0.7957747E-01            NaN
         13   -1    0    0    0    0  0.00000000000E+00  0.00000000000E+00  0.74505805969E-08  0.10566000000E+00  0.10566000000E+00 0.  1.
     999900   -1    0    0    0    0 -0.00000000000E+00 -0.00000000000E+00 -0.74505805969E-08  0.93827000000E+00  0.93827000000E+00 0. -1.
     999902    2    1    2    0    0  0.71532708375E-02 -0.17847893856E-01  0.16973160197E-01  0.10182822951E+01  0.10179592466E+01 0.  0.
     999903    2    3    3    0    0  0.98714193904E-01 -0.72541248958E-01  0.43907606857E-01  0.13143381305E+00  0.18445714798E-01 0.  0.
         14    1    1    2    0    0 -0.71532708375E-02  0.17847893856E-01 -0.16973160197E-01  0.25647704884E-01  0.00000000000E+00 0. -1.
     999901    1    3    3    0    0 -0.91560923066E-01  0.54693355102E-01 -0.26934446660E-01  0.88684848207E+00  0.88000000000E+00 0.  1.
        -11    1    4    4    0    0  0.27100768873E-01 -0.22989913447E-01  0.44305190692E-02  0.35817292110E-01  0.51100000000E-03 0.  1.
         11    1    4    4    0    0  0.71613425031E-01 -0.49551335511E-01  0.39477087788E-01  0.95616520940E-01  0.51100000000E-03 0. -1.
</event>
<event>
 8    1  0.1176534E+005  0.1043930E+01  0.7957747E-01            NaN
         13   -1    0    0    0    0  0.00000000000E+00  0.00000000000E+00  0.74505805969E-08  0.10566000000E+00  0.10566000000E+00 0. -1.
     999900   -1    0    0    0    0 -0.00000000000E+00 -0.00000000000E+00 -0.74505805969E-08  0.93827000000E+00  0.93827000000E+00 0.  1.
     999902    2    1    2    0    0  0.21307624419E-02  0.43385914118E-02  0.22380359949E-01  0.10210336240E+01  0.10207768695E+01 0.  0.
     999903    2    3    3    0    0 -0.79222405355E-01 -0.96147857947E-01  0.37085487772E-01  0.13146513015E+00  0.19676049981E-01 0.  0.
         14    1    1    2    0    0 -0.21307624419E-02 -0.43385914118E-02 -0.22380359949E-01  0.22896376033E-01  0.00000000000E+00 0.  1.
     999901    1    3    3    0    0  0.81353167796E-01  0.10048644936E+00 -0.14705127823E-01  0.88956849382E+00  0.88000000000E+00 0.  1.
        -11    1    4    4    0    0 -0.42825421802E-01 -0.52161052787E-01  0.30257458084E-01  0.73963281911E-01  0.51100000000E-03 0. -1.
         11    1    4    4    0    0 -0.36396983553E-01 -0.43986805161E-01  0.68280296878E-02  0.57501848235E-01  0.51100000000E-03 0.  1.
</event>
<event>
 8    1  0.1176534E+005  0.1043930E+01  0.7957747E-01            NaN
         13   -1    0    0    0    0  0.00000000000E+00  0.00000000000E+00  0.74505805969E-08  0.10566000000E+00  0.10566000000E+00 0.  1.
     999900   -1    0    0    0    0 -0.00000000000E+00 -0.00000000000E+00 -0.74505805969E-08  0.93827000000E+00  0.93827000000E+00 0.  1.
     999902    2    1    2    0    0 -0.75756507963E-02 -0.10293017675E-02  0.22683702511E-01  0.10199925752E+01  0.10197116520E+01 0.  0.
     999903    2    3    3    0    0 -0.48087775966E-02  0.97897641595E-01 -0.80572298948E-01  0.12844560640E+00  0.19982639323E-01 0.  0.
         14    1    1    2    0    0  0.75756507963E-02  0.10293017675E-02 -0.22683702511E-01  0.23937424814E-01  0.00000000000E+00 0. -1.
     999901    1    3    3    0    0 -0.27668731997E-02 -0.98926943363E-01  0.10325600146E+00  0.89154696878E+00  0.88000000000E+00 0. -1.
        -11    1    4    4    0    0  0.55530755085E-02  0.11064940069E-01 -0.74934789057E-02  0.14480431397E-01  0.51100000000E-03 0.  1.
         11    1    4    4    0    0 -0.10361853105E-01  0.86832701526E-01 -0.73078820042E-01  0.11396517501E+00  0.51100000000E-03 0. -1.
</event>
<event>
 8    1  0.1176534E+005  0.1043930E+01  0.7957747E-01            NaN
         13   -1    0    0    0    0  0.00000000000E+00  0.00000000000E+00  0.74505805969E-08  0.10566000000E+00  0.10566000000E+00 0. -1.
     999900   -1    0    0    0    0 -0.00000000000E+00 -0.00000000000E+00 -0.74505805969E-08  0.93827000000E+00  0.93827000000E+00 0.  1.
     999902    2    1    2    0    0 -0.19794167422E-01 -0.14452553719E-01  0.32603201692E-02  0.10192052136E+01  0.10189052716E+01 0.  0.
     999903    2    3    3    0    0 -0.24377565255E-01  0.12237580492E+00  0.23294927912E-01  0.12839412661E+00  0.19294941398E-01 0.  0.
         14    1    1    2    0    0  0.19794167422E-01  0.14452553719E-01 -0.32603201692E-02  0.24724786360E-01  0.00000000000E+00 0.  1.
     999901    1    3    3    0    0  0.45833978333E-02 -0.13682835864E+00 -0.20034607743E-01  0.89081108703E+00  0.88000000000E+00 0.  1.
        -11    1    4    4    0    0 -0.22314548365E-01  0.75729629455E-01  0.20742618086E-01  0.81629854662E-01  0.51100000000E-03 0.  1.
         11    1    4    4    0    0 -0.20630168902E-02  0.46646175469E-01  0.25523098266E-02  0.46764271950E-01  0.51100000000E-03 0. -1.
</event>
<event>
 8    1  0.1176534E+005  0.1043930E+01  0.7957747E-01            NaN
         13   -1    0    0    0    0  0.00000000000E+00  0.00000000000E+00  0.74505805969E-08  0.10566000000E+00  0.10566000000E+00 0.  1.
     999900   -1    0    0    0    0 -0.00000000000E+00 -0.00000000000E+00 -0.74505805969E-08  0.93827000000E+00  0.93827000000E+00 0.  1.
     999902    2    1    2    0    0 -0.18653533012E-01 -0.39474704958E-02 -0.14787724754E-01  0.10198008968E+01  0.10195154023E+01 0.  0.
     999903    2    3    3    0    0  0.12523887189E+00  0.88919894114E-04  0.14267389041E-01  0.12763190146E+00  0.20038985494E-01 0.  0.
         14    1    1    2    0    0  0.18653533012E-01  0.39474704958E-02  0.14787724754E-01  0.24129103186E-01  0.00000000000E+00 0.  1.
     999901    1    3    3    0    0 -0.14389240491E+00 -0.40363903899E-02 -0.29055113795E-01  0.89216899536E+00  0.88000000000E+00 0. -1.
        -11    1    4    4    0    0  0.91571157372E-01 -0.53163875763E-02  0.32156378709E-02  0.91783126375E-01  0.51100000000E-03 0.  1.
         11    1    4    4    0    0  0.33667714523E-01  0.54053074704E-02  0.11051751170E-01  0.35848775083E-01  0.51100000000E-03 0. -1.
</event>
<event>
 8    1  0.1176534E+005  0.1043930E+01  0.7957747E-01            NaN
         13   -1    0    0    0    0  0.00000000000E+00  0.00000000000E+00  0.74505805969E-08  0.10566000000E+00  0.10566000000E+00 0.  1.
     999900   -1    0    0    0    0 -0.00000000000E+00 -0.00000000000E+00 -0.74505805969E-08  0.93827000000E+00  0.93827000000E+00 0. -1.
     999902    2    1    2    0    0  0.96684838513E-02  0.76720770169E-02  0.20727138627E-01  0.10198062644E+01  0.10195208984E+01 0.  0.
     999903    2    3    3    0    0 -0.87587031528E-02  0.11554350123E+00  0.60553505833E-01  0.13213405858E+00  0.19122416451E-01 0.  0.
         14    1    1    2    0    0 -0.96684838513E-02 -0.76720770169E-02 -0.20727138627E-01  0.24123735643E-01  0.00000000000E+00 0. -1.
     999901    1    3    3    0    0  0.18427187004E-01 -0.10787142421E+00 -0.39826367206E-01  0.88767220578E+00  0.88000000000E+00 0. -1.
        -11    1    4    4    0    0 -0.17221096839E-02  0.62136406757E-01  0.22211549133E-01  0.66011459175E-01  0.51100000000E-03 0.  1.
         11    1    4    4    0    0 -0.70365934690E-02  0.53407094473E-01  0.38341956699E-01  0.66122599406E-01  0.51100000000E-03 0. -1.
</event>
<event>
 8    1  0.1176534E+005  0.1043930E+01  0.7957747E-01            NaN
         13   -1    0    0    0    0  0.00000000000E+00  0.00000000000E+00  0.74505805969E-08  0.10566000000E+00  0.10566000000E+00 0.  1.
     999900   -1    0    0    0    0 -0.00000000000E+00 -0.00000000000E+00 -0.74505805969E-08  0.93827000000E+00  0.93827000000E+00 0.  1.
     999902    2    1    2    0    0 -0.14803087782E-02  0.24317298470E-01 -0.10258373209E-01  0.10174959965E+01  0.10171525679E+01 0.  0.
     999903    2    3    3    0    0 -0.17214472247E-01 -0.10905943559E+00  0.55079101676E-01  0.12491216141E+00  0.19469003064E-01 0.  0.
         14    1    1    2    0    0  0.14803087782E-02 -0.24317298470E-01  0.10258373209E-01  0.26434003477E-01  0.00000000000E+00 0.  1.
     999901    1    3    3    0    0  0.15734163469E-01  0.13337673406E+00 -0.65337474884E-01  0.89258383512E+00  0.88000000000E+00 0.  1.
        -11    1    4    4    0    0 -0.99182371677E-02 -0.94348613322E-01  0.52036807856E-01  0.10820407921E+00  0.51100000000E-03 0. -1.
         11    1    4    4    0    0 -0.72962350797E-02 -0.14710822265E-01  0.30422938193E-02  0.16708082198E-01  0.51100000000E-03 0.  1.
</event>
<event>
 8    1  0.1176534E+005  0.1043930E+01  0.7957747E-01            NaN
         13   -1    0    0    0    0  0.00000000000E+00  0.00000000000E+00  0.74505805969E-08  0.10566000000E+00  0.10566000000E+00 0. -1.
     999900   -1    0    0    0    0 -0.00000000000E+00 -0.00000000000E+00 -0.74505805969E-08  0.93827000000E+00  0.93827000000E+00 0.  1.
     999902    2    1    2    0    0 -0.62674767340E-02  0.22136551478E-01  0.36139235187E-02  0.10206411911E+01  0.10203754566E+01 0.  0.
     999903    2    3    3    0    0 -0.12446408610E+00  0.28484240787E-01 -0.28639415274E-01  0.13213063435E+00  0.18320145292E-01 0.  0.
         14    1    1    2    0    0  0.62674767340E-02 -0.22136551478E-01 -0.36139235187E-02  0.23288808882E-01  0.00000000000E+00 0. -1.
     999901    1    3    3    0    0  0.11819660937E+00 -0.63476893087E-02  0.32253338793E-01  0.88851055677E+00  0.88000000000E+00 0.  1.
        -11    1    4    4    0    0 -0.10649437277E+00  0.17667861903E-01 -0.22505677017E-01  0.11027226031E+00  0.51100000000E-03 0.  1.
         11    1    4    4    0    0 -0.17969713337E-01  0.10816378885E-01 -0.61337382571E-02  0.21858374038E-01  0.51100000000E-03 0. -1.
</event>
<event>
 8    1  0.1176534E+005  0.1043930E+01  0.7957747E-01            NaN
         13   -1    0    0    0    0  0.00000000000E+00  0.00000000000E+00  0.74505805969E-08  0.10566000000E+00  0.10566000000E+00 0.  1.
     999900   -1    0    0    0    0 -0.00000000000E+00 -0.00000000000E+00 -0.74505805969E-08  0.93827000000E+00  0.93827000000E+00 0.  1.
     999902    2    1    2    0    0 -0.19641077700E-01 -0.10538164860E-01 -0.83678169012E-02  0.10201214887E+01  0.10198436186E+01 0.  0.
     999903    2    3    3    0    0 -0.69578491370E-01  0.12148397208E-01 -0.11020779343E+00  0.13255188228E+00  0.20868486933E-01 0.  0.
         14    1    1    2    0    0  0.19641077700E-01  0.10538164860E-01  0.83678169012E-02  0.23808511325E-01  0.00000000000E+00 0.  1.
     999901    1    3    3    0    0  0.49937413670E-01 -0.22686562068E-01  0.10183997653E+00  0.88756960640E+00  0.88000000000E+00 0. -1.
        -11    1    4    4    0    0 -0.13338913166E-01  0.93441037019E-02 -0.16254390524E-01  0.23015325562E-01  0.51100000000E-03 0. -1.
         11    1    4    4    0    0 -0.56239578204E-01  0.28042935066E-02 -0.93953402904E-01  0.10953655671E+00  0.51100000000E-03 0.  1.
</event>
<event>
 8    1  0.1176534E+005  0.1043930E+01  0.7957747E-01            NaN
         13   -1    0    0    0    0  0.00000000000E+00  0.00000000000E+00  0.74505805969E-08  0.10566000000E+00  0.10566000000E+00 0.  1.
     999900   -1    0    0    0    0 -0.00000000000E+00 -0.00000000000E+00 -0.74505805969E-08  0.93827000000E+00  0.93827000000E+00 0. -1.
     999902    2    1    2    0    0 -0.16345515709E-01 -0.91359052351E-02 -0.13800626390E-01  0.10206684881E+01  0.10204033833E+01 0.  0.
     999903    2    3    3    0    0  0.96606993600E-01  0.81499345246E-01  0.11839825873E-01  0.12846310209E+00  0.19685848566E-01 0.  0.
         14    1    1    2    0    0  0.16345515709E-01  0.91359052351E-02  0.13800626390E-01  0.23261511925E-01  0.00000000000E+00 0.  1.
     999901    1    3    3    0    0 -0.11295250931E+00 -0.90635250482E-01 -0.25640452263E-01  0.89220538599E+00  0.88000000000E+00 0. -1.
        -11    1    4    4    0    0  0.73248116115E-01  0.50247329587E-01  0.10158164554E-01  0.89406543794E-01  0.51100000000E-03 0. -1.
         11    1    4    4    0    0  0.23358877485E-01  0.31252015659E-01  0.16816613186E-02  0.39056558296E-01  0.51100000000E-03 0.  1.
</event>
<event>
 8    1  0.1176534E+005  0.1043930E+01  0.7957747E-01            NaN
         13   -1    0    0    0    0  0.00000000000E+00  0.00000000000E+00  0.74505805969E-08  0.10566000000E+00  0.10566000000E+00 0.  1.
     999900   -1    0    0    0    0 -0.00000000000E+00 -0.00000000000E+00 -0.74505805969E-08  0.93827000000E+00  0.93827000000E+00 0. -1.
     999902    2    1    2    0    0 -0.33552951766E-02  0.20850542162E-01  0.79794605607E-02  0.10213540193E+01  0.10211044794E+01 0.  0.
     999903    2    3    3    0    0 -0.66920569592E-01  0.32187145502E-01  0.10902041437E+00  0.13322208256E+00  0.18662731927E-01 0.  0.
         14    1    1    2    0    0  0.33552951766E-02 -0.20850542162E-01 -0.79794605607E-02  0.22575980709E-01  0.00000000000E+00 0. -1.
     999901    1    3    3    0    0  0.63565274415E-01 -0.11336603340E-01 -0.10104095381E+00  0.88813193673E+00  0.88000000000E+00 0. -1.
        -11    1    4    4    0    0 -0.15342708117E-01  0.12358187323E-01  0.41725983747E-01  0.46145880931E-01  0.51100000000E-03 0.  1.
         11    1    4    4    0    0 -0.51577861474E-01  0.19828958179E-01  0.67294430624E-01  0.87076201633E-01  0.51100000000E-03 0. -1.
</event>
<event>
 8    1  0.1176534E+005  0.1043930E+01  0.7957747E-01            NaN
         13   -1    0    0    0    0  0.00000000000E+00  0.00000000000E+00  0.74505805969E-08  0.10566000000E+00  0.10566000000E+00 0.  1.
     999900   -1    0    0    0    0 -0.00000000000E+00 -0.00000000000E+00 -0.74505805969E-08  0.93827000000E+00  0.93827000000E+00 0. -1.
     999902    2    1    2    0    0  0.17956765569E-01 -0.67489254653E-02  0.13224260938E-01  0.10206303326E+01  0.10203643473E+01 0.  0.
     999903    2    3    3    0    0  0.90378214700E-01 -0.14440998521E-01 -0.93551655815E-01  0.13118942353E+00  0.90547451991E-02 0.  0.
         14    1    1    2    0    0 -0.17956765569E-01  0.67489254653E-02 -0.13224260938E-01  0.23299667423E-01  0.00000000000E+00 0. -1.
     999901    1    3    3    0    0 -0.72421449131E-01  0.76920730555E-02  0.10677591675E+00  0.88944090904E+00  0.88000000000E+00 0. -1.
        -11    1    4    4    0    0  0.48027059894E-01 -0.88476173856E-02 -0.56057534164E-01  0.74347744236E-01  0.51100000000E-03 0.  1.
         11    1    4    4    0    0  0.42351154806E-01 -0.55933811351E-02 -0.37494121651E-01  0.56841679297E-01  0.51100000000E-03 0. -1.
</event>
<event>
 8    1  0.1176534E+005  0.1043930E+01  0.7957747E-01            NaN
         13   -1    0    0    0    0  0.00000000000E+00  0.00000000000E+00  0.74505805969E-08  0.10566000000E+00  0.10566000000E+00 0.  1.
     999900   -1    0    0    0    0 -0.00000000000E+00 -0.00000000000E+00 -0.74505805969E-08  0.93827000000E+00  0.93827000000E+00 0. -1.
     999902    2    1    2    0    0 -0.16773416110E-02  0.67259344022E-02 -0.21430975902E-01  0.10214058264E+01  0.10211574432E+01 0.  0.
     999903    2    3    3    0    0 -0.32579985974E-01  0.11702992371E+00  0.43425072897E-01  0.13161469891E+00  0.26062108185E-01 0.  0.
         14    1    1    2    0    0  0.16773416110E-02 -0.67259344022E-02  0.21430975902E-01  0.22524173605E-01  0.00000000000E+00 0.  1.
     999901    1    3    3    0    0  0.30902644363E-01 -0.11030398931E+00 -0.64856048800E-01  0.88979112749E+00  0.88000000000E+00 0. -1.
        -11    1    4    4    0    0 -0.17249469184E-01  0.86249870552E-01  0.41261461534E-01  0.97156336316E-01  0.51100000000E-03 0. -1.
         11    1    4    4    0    0 -0.15330516790E-01  0.30780053159E-01  0.21636113632E-02  0.34458362594E-01  0.51100000000E-03 0.  1.
</event>
<event>
 8    1  0.1176534E+005  0.1043930E+01  0.7957747E-01            NaN
         13   -1    0    0    0    0  0.00000000000E+00  0.00000000000E+00  0.74505805969E-08  0.10566000000E+00  0.10566000000E+00 0. -1.
     999900   -1    0    0    0    0 -0.00000000000E+00 -0.00000000000E+00 -0.74505805969E-08  0.93827000000E+00  0.93827000000E+00 0. -1.
     999902    2    1    2    0    0 -0.58718003693E-02  0.69149039026E-02 -0.22250470550E-01  0.10199013218E+01  0.10196182270E+01 0.  0.
     999903    2    3    3    0    0  0.55982227128E-01 -0.11089753056E+00  0.24755671159E-01  0.12865765828E+00  0.22531705231E-01 0.  0.
         14    1    1    2    0    0  0.58718003693E-02 -0.69149039026E-02  0.22250470550E-01  0.24028678184E-01  0.00000000000E+00 0. -1.
     999901    1    3    3    0    0 -0.61854027498E-01  0.11781243447E+00 -0.47006141709E-01  0.89124366353E+00  0.88000000000E+00 0. -1.
        -11    1    4    4    0    0  0.30852494944E-02 -0.19822940501E-01 -0.14597226925E-02  0.20121124369E-01  0.51100000000E-03 0.  1.
         11    1    4    4    0    0  0.52896977634E-01 -0.91074590063E-01  0.26215393852E-01  0.10853653391E+00  0.51100000000E-03 0. -1.
</event>
<event>
 8    1  0.1176534E+005  0.1043930E+01  0.7957747E-01            NaN
         13   -1    0    0    0    0  0.00000000000E+00  0.00000000000E+00  0.74505805969E-08  0.10566000000E+00  0.10566000000E+00 0.  1.
     999900   -1    0    0    0    0 -0.00000000000E+00 -0.00000000000E+00 -0.74505805969E-08  0.93827000000E+00  0.93827000000E+00 0. -1.
     999902    2    1    2    0    0  0.50064755316E-02  0.21540881808E-01  0.10466970402E-01  0.10194630456E+01  0.10191694018E+01 0.  0.
     999903    2    3    3    0    0 -0.97868265189E-01  0.14261133769E-01  0.82652053294E-01  0.13050472648E+00  0.20458358982E-01 0.  0.
         14    1    1    2    0    0 -0.50064755316E-02 -0.21540881808E-01 -0.10466970402E-01  0.24466954361E-01  0.00000000000E+00 0.  1.
     999901    1    3    3    0    0  0.10287474072E+00  0.72797480388E-02 -0.72185082892E-01  0.88895831916E+00  0.88000000000E+00 0. -1.
        -11    1    4    4    0    0 -0.50737104056E-01  0.17439280696E-01  0.41025353076E-01  0.67540528242E-01  0.51100000000E-03 0.  1.
         11    1    4    4    0    0 -0.47131161133E-01 -0.31781469268E-02  0.41626700218E-01  0.62964198238E-01  0.51100000000E-03 0. -1.
</event>
<event>
 8    1  0.1176534E+005  0.1043930E+01  0.7957747E-01            NaN
         13   -1    0    0    0    0  0.00000000000E+00  0.00000000000E+00  0.74505805969E-08  0.10566000000E+00  0.10566000000E+00 0. -1.
     999900   -1    0    0    0    0 -0.00000000000E+00 -0.00000000000E+00 -0.74505805969E-08  0.93827000000E+00  0.93827000000E+00 0.  1.
     999902    2    1    2    0    0 -0.20103568496E-01 -0.21179957634E-02 -0.11527787442E-01  0.10206592188E+01  0.10203939003E+01 0.  0.
     999903    2    3    3    0    0 -0.49264826276E-01  0.42447294559E-01 -0.11435554475E+00  0.13307260801E+00  0.20058226835E-01 0.  0.
         14    1    1    2    0    0  0.20103568496E-01  0.21179957634E-02  0.11527787442E-01  0.23270781156E-01  0.00000000000E+00 0. -1.
     999901    1    3    3    0    0  0.29161257780E-01 -0.44565290322E-01  0.10282775731E+00  0.88758661083E+00  0.88000000000E+00 0. -1.
        -11    1    4    4    0    0 -0.28177783989E-01  0.33073030564E-01 -0.87244518207E-01  0.97466301558E-01  0.51100000000E-03 0.  1.
         11    1    4    4    0    0 -0.21087042287E-01  0.93742639945E-02 -0.27111026545E-01  0.35606306452E-01  0.51100000000E-03 0. -1.
</event>
<event>
 8    1  0.1176534E+005  0.1043930E+01  0.7957747E-01            NaN
         13   -1    0    0    0    0  0.00000000000E+00  0.00000000000E+00  0.74505805969E-08  0.10566000000E+00  0.10566000000E+00 0. -1.
     999900   -1    0    0    0    0 -0.00000000000E+00 -0.00000000000E+00 -0.74505805969E-08  0.93827000000E+00  0.93827000000E+00 0. -1.
     999902    2    1    2    0    0 -0.12377841673E-01 -0.13200952583E-01 -0.14553755777E-01  0.10207074265E+01  0.10204432187E+01 0.  0.
     999903    2    3    3    0    0  0.52798995831E-01 -0.64981293032E-01 -0.10088236497E+00  0.13257351058E+00  0.19702328342E-01 0.  0.
         14    1    1    2    0    0  0.12377841673E-01  0.13200952583E-01  0.14553755777E-01  0.23222573518E-01  0.00000000000E+00 0.  1.
     999901    1    3    3    0    0 -0.65176837504E-01  0.51780340450E-01  0.86328609191E-01  0.88813391590E+00  0.88000000000E+00 0. -1.
        -11    1    4    4    0    0  0.22979877352E-01 -0.32894290033E-01 -0.62807552876E-01  0.74532938350E-01  0.51100000000E-03 0.  1.
         11    1    4    4    0    0  0.29819118480E-01 -0.32087003000E-01 -0.38074812092E-01  0.58040572234E-01  0.51100000000E-03 0. -1.
</event>
<event>
 8    1  0.1176534E+005  0.1043930E+01  0.7957747E-01            NaN
         13   -1    0    0    0    0  0.00000000000E+00  0.00000000000E+00  0.74505805969E-08  0.10566000000E+00  0.10566000000E+00 0.  1.
     999900   -1    0    0    0    0 -0.00000000000E+00 -0.00000000000E+00 -0.74505805969E-08  0.93827000000E+00  0.93827000000E+00 0. -1.
     999902    2    1    2    0    0  0.18327713555E-01 -0.92684334876E-02  0.11774553810E-01  0.10202561946E+01  0.10199814967E+01 0.  0.
     999903    2    3    3    0    0 -0.64905973192E-01 -0.61025228519E-01 -0.90880847651E-01  0.12888380113E+00  0.20367666821E-01 0.  0.
         14    1    1    2    0    0 -0.18327713555E-01  0.92684334876E-02 -0.11774553810E-01  0.23673805374E-01  0.00000000000E+00 0. -1.
     999901    1    3    3    0    0  0.83233686747E-01  0.51756795031E-01  0.10265540146E+00  0.89137239350E+00  0.88000000000E+00 0. -1.
        -11    1    4    4    0    0 -0.34145382334E-01 -0.33956328499E-01 -0.34750173255E-01  0.59386657106E-01  0.51100000000E-03 0.  1.
         11    1    4    4    0    0 -0.30760590858E-01 -0.27068900019E-01 -0.56130674395E-01  0.69497144022E-01  0.51100000000E-03 0. -1.
</event>
<event>
 7    1  0.1331288E+005  0.1043930E+01  0.7957747E-01            NaN
         13   -1    0    0    0    0  0.00000000000E+00  0.00000000000E+00  0.74505805969E-08  0.10566000000E+00  0.10566000000E+00 0.  1.
     999900   -1    0    0    0    0 -0.00000000000E+00 -0.00000000000E+00 -0.74505805969E-08  0.93827000000E+00  0.93827000000E+00 0. -1.
     999903    2    1    2    0    0 -0.20592623883E-01  0.82884166666E-01  0.43644582588E-01  0.98023039091E-01  0.20244143873E-01 0.  0.
         14    1    1    2    0    0  0.12845645426E-01  0.37822515002E-01 -0.41542217368E-01  0.57630799676E-01  0.00000000000E+00 0. -1.
     999901    1    1    2    0    0  0.77469784567E-02 -0.12070668167E+00 -0.21023652203E-02  0.88827616123E+00  0.88000000000E+00 0. -1.
        -11    1    3    3    0    0 -0.12240446213E-01  0.48239393140E-01  0.36379867471E-01  0.61649196688E-01  0.51100000000E-03 0. -1.
         11    1    3    3    0    0 -0.83521776705E-02  0.34644773526E-01  0.72647151169E-02  0.36373842404E-01  0.51100000000E-03 0.  1.
</event>
<event>
 8    1  0.1176534E+005  0.1043930E+01  0.7957747E-01            NaN
         13   -1    0    0    0    0  0.00000000000E+00  0.00000000000E+00  0.74505805969E-08  0.10566000000E+00  0.10566000000E+00 0.  1.
     999900   -1    0    0    0    0 -0.00000000000E+00 -0.00000000000E+00 -0.74505805969E-08  0.93827000000E+00  0.93827000000E+00 0.  1.
     999902    2    1    2    0    0 -0.16869877967E-01  0.12515550527E-01 -0.10262640894E-01  0.10205515145E+01  0.10202837057E+01 0.  0.
     999903    2    3    3    0    0  0.12471082212E+00  0.13803865905E-01 -0.24931998808E-01  0.12911338176E+00  0.17473549052E-01 0.  0.
         14    1    1    2    0    0  0.16869877967E-01 -0.12515550527E-01  0.10262640894E-01  0.23378485531E-01  0.00000000000E+00 0.  1.
     999901    1    3    3    0    0 -0.14158070009E+00 -0.12883153785E-02  0.14669357914E-01  0.89143813271E+00  0.88000000000E+00 0. -1.
        -11    1    4    4    0    0  0.64470640051E-01  0.10383139052E-01 -0.21201222843E-01  0.68658764745E-01  0.51100000000E-03 0. -1.
         11    1    4    4    0    0  0.60240182067E-01  0.34207268529E-02 -0.37307759648E-02  0.60454617011E-01  0.51100000000E-03 0.  1.
</event>
<event>
 8    1  0.1176534E+005  0.1043930E+01  0.7957747E-01            NaN
         13   -1    0    0    0    0  0.00000000000E+00  0.00000000000E+00  0.74505805969E-08  0.10566000000E+00  0.10566000000E+00 0. -1.
     999900   -1    0    0    0    0 -0.00000000000E+00 -0.00000000000E+00 -0.74505805969E-08  0.93827000000E+00  0.93827000000E+00 0. -1.
     999902    2    1    2    0    0 -0.15655414337E-01 -0.43207999482E-02 -0.17179728714E-01  0.10202888412E+01  0.10200149093E+01 0.  0.
     999903    2    3    3    0    0 -0.53560212690E-01  0.64588463411E-01  0.96293167950E-01  0.12952436134E+00  0.21536480635E-01 0.  0.
         14    1    1    2    0    0  0.15655414337E-01  0.43207999482E-02  0.17179728714E-01  0.23641158790E-01  0.00000000000E+00 0. -1.
     999901    1    3    3    0    0  0.37904798353E-01 -0.68909263360E-01 -0.11347289666E+00  0.89076447987E+00  0.88000000000E+00 0. -1.
        -11    1    4    4    0    0 -0.34391953819E-01  0.54911517075E-01  0.77185219353E-01  0.10077648735E+00  0.51100000000E-03 0. -1.
         11    1    4    4    0    0 -0.19168258870E-01  0.96769463360E-02  0.19107948598E-01  0.28747873993E-01  0.51100000000E-03 0.  1.
</event>
<event>
 8    1  0.1176534E+005  0.1043930E+01  0.7957747E-01            NaN
         13   -1    0    0    0    0  0.00000000000E+00  0.00000000000E+00  0.74505805969E-08  0.10566000000E+00  0.10566000000E+00 0.  1.
     999900   -1    0    0    0    0 -0.00000000000E+00 -0.00000000000E+00 -0.74505805969E-08  0.93827000000E+00  0.93827000000E+00 0.  1.
     999902    2    1    2    0    0 -0.15739164998E-01 -0.16523942007E-01 -0.15151846956E-01  0.10165376573E+01  0.10161685235E+01 0.  0.
     999903    2    3    3    0    0 -0.21978024931E-01 -0.27795895343E-01  0.11916565960E+00  0.12625277428E+00  0.21992344319E-01 0.  0.
         14    1    1    2    0    0  0.15739164998E-01  0.16523942007E-01  0.15151846956E-01  0.27392342734E-01  0.00000000000E+00 0.  1.
     999901    1    3    3    0    0  0.62388599338E-02  0.11271953336E-01 -0.13431750655E+00  0.89028488299E+00  0.88000000000E+00 0.  1.
        -11    1    4    4    0    0 -0.12774247810E-02 -0.13898370788E-01  0.66900980272E-01  0.68343242585E-01  0.51100000000E-03 0.  1.
         11    1    4    4    0    0 -0.20700600150E-01 -0.13897524554E-01  0.52264679325E-01  0.57909531696E-01  0.51100000000E-03 0. -1.
</event>
<event>
 8    1  0.1176534E+005  0.1043930E+01  0.7957747E-01            NaN
         13   -1    0    0    0    0  0.00000000000E+00  0.00000000000E+00  0.74505805969E-08  0.10566000000E+00  0.10566000000E+00 0. -1.
     999900   -1    0    0    0    0 -0.00000000000E+00 -0.00000000000E+00 -0.74505805969E-08  0.93827000000E+00  0.93827000000E+00 0.  1.
     999902    2    1    2    0    0  0.12247740068E-01 -0.39331340758E-02  0.18204563588E-01  0.10216391316E+01  0.10213959234E+01 0.  0.
     999903    2    3    3    0    0 -0.10774497877E-01  0.12268471529E+00  0.42999317808E-01  0.13193306602E+00  0.19742426593E-01 0.  0.
         14    1    1    2    0    0 -0.12247740068E-01  0.39331340758E-02 -0.18204563588E-01  0.22290868442E-01  0.00000000000E+00 0.  1.
     999901    1    3    3    0    0  0.23022237945E-01 -0.12661784936E+00 -0.24794754220E-01  0.88970606554E+00  0.88000000000E+00 0. -1.
        -11    1    4    4    0    0 -0.10188885804E-01  0.50061647831E-01  0.26075671361E-01  0.57360123216E-01  0.51100000000E-03 0. -1.
         11    1    4    4    0    0 -0.58561207228E-03  0.72623067458E-01  0.16923646448E-01  0.74572942805E-01  0.51100000000E-03 0.  1.
</event>
<event>
 8    1  0.1176534E+005  0.1043930E+01  0.7957747E-01            NaN
         13   -1    0    0    0    0  0.00000000000E+00  0.00000000000E+00  0.74505805969E-08  0.10566000000E+00  0.10566000000E+00 0.  1.
     999900   -1    0    0    0    0 -0.00000000000E+00 -0.00000000000E+00 -0.74505805969E-08  0.93827000000E+00  0.93827000000E+00 0. -1.
     999902    2    1    2    0    0  0.11365406419E-01  0.42915229987E-02  0.20402787938E-01  0.10201841922E+01  0.10199078010E+01 0.  0.
     999903    2    3    3    0    0 -0.34945744352E-01 -0.22649766810E-01  0.12414720654E+00  0.13247170486E+00  0.20050105006E-01 0.  0.
         14    1    1    2    0    0 -0.11365406419E-01 -0.42915229987E-02 -0.20402787938E-01  0.23745807806E-01  0.00000000000E+00 0. -1.
     999901    1    3    3    0    0  0.46311150771E-01  0.26941289809E-01 -0.10374441860E+00  0.88771248734E+00  0.88000000000E+00 0. -1.
        -11    1    4    4    0    0 -0.82116723555E-02 -0.67515659358E-02  0.62719695819E-01  0.63616323142E-01  0.51100000000E-03 0. -1.
         11    1    4    4    0    0 -0.26734071996E-01 -0.15898200875E-01  0.61427510723E-01  0.68855381715E-01  0.51100000000E-03 0.  1.
</event>
<event>
 8    1  0.1176534E+005  0.1043930E+01  0.7957747E-01            NaN
         13   -1    0    0    0    0  0.00000000000E+00  0.00000000000E+00  0.74505805969E-08  0.10566000000E+00  0.10566000000E+00 0. -1.
     999900   -1    0    0    0    0 -0.00000000000E+00 -0.00000000000E+00 -0.74505805969E-08  0.93827000000E+00  0.93827000000E+00 0.  1.
     999902    2    1    2    0    0 -0.16057075415E-01 -0.16381171633E-01 -0.15349631591E-02  0.10209402508E+01  0.10206813740E+01 0.  0.
     999903    2    3    3    0    0 -0.14311203307E-01 -0.27898154792E-01  0.12624023877E+00  0.13163592092E+00  0.20206439819E-01 0.  0.
         14    1    1    2    0    0  0.16057075415E-01  0.16381171633E-01  0.15349631591E-02  0.22989749169E-01  0.00000000000E+00 0.  1.
     999901    1    3    3    0    0 -0.17458721078E-02  0.11516983159E-01 -0.12777520193E+00  0.88930432991E+00  0.88000000000E+00 0.  1.
        -11    1    4    4    0    0 -0.33880340391E-02 -0.42969257167E-02  0.63222603316E-01  0.63461019818E-01  0.51100000000E-03 0.  1.
         11    1    4    4    0    0 -0.10923169268E-01 -0.23601229075E-01  0.63017635457E-01  0.68174901102E-01  0.51100000000E-03 0. -1.
</event>
<event>
 8    1  0.1176534E+005  0.1043930E+01  0.7957747E-01            NaN
         13   -1    0    0    0    0  0.00000000000E+00  0.00000000000E+00  0.74505805969E-08  0.10566000000E+00  0.10566000000E+00 0. -1.
     999900   -1    0    0    0    0 -0.00000000000E+00 -0.00000000000E+00 -0.74505805969E-08  0.93827000000E+00  0.93827000000E+00 0. -1.
     999902    2    1    2    0    0  0.61051811964E-03 -0.11499136106E-01 -0.17548493398E-01  0.10229406578E+01  0.10227252989E+01 0.  0.
     999903    2    3    3    0    0  0.72013287360E-01  0.81614237437E-01  0.69607698417E-01  0.13088423723E+00  0.20944081922E-01 0.  0.
         14    1    1    2    0    0 -0.61051811964E-03  0.11499136106E-01  0.17548493398E-01  0.20989342155E-01  0.00000000000E+00 0. -1.
     999901    1    3    3    0    0 -0.71402769241E-01 -0.93113373543E-01 -0.87156191816E-01  0.89205642061E+00  0.88000000000E+00 0. -1.
        -11    1    4    4    0    0  0.52094444268E-01  0.43817666791E-01  0.41078603791E-01  0.79508061585E-01  0.51100000000E-03 0.  1.
         11    1    4    4    0    0  0.19918843092E-01  0.37796570645E-01  0.28529094627E-01  0.51376175645E-01  0.51100000000E-03 0. -1.
</event>
<event>
 8    1  0.1176534E+005  0.1043930E+01  0.7957747E-01            NaN
         13   -1    0    0    0    0  0.00000000000E+00  0.00000000000E+00  0.74505805969E-08  0.10566000000E+00  0.10566000000E+00 0.  1.
     999900   -1    0    0    0    0 -0.00000000000E+00 -0.00000000000E+00 -0.74505805969E-08  0.93827000000E+00  0.93827000000E+00 0.  1.
     999902    2    1    2    0    0  0.15209872676E-01 -0.16284926395E-01 -0.59799931558E-02  0.10208583860E+01  0.10205976410E+01 0.  0.
     999903    2    3    3    0    0  0.95867418735E-01  0.54222275584E-01  0.68579984308E-01  0.13123144424E+00  0.19694175903E-01 0.  0.
         14    1    1    2    0    0 -0.15209872676E-01  0.16284926395E-01  0.59799931558E-02  0.23071614002E-01  0.00000000000E+00 0.  1.
     999901    1    3    3    0    0 -0.80657546059E-01 -0.70507201979E-01 -0.74559977464E-01  0.88962694176E+00  0.88000000000E+00 0.  1.
        -11    1    4    4    0    0  0.25085210689E-01  0.16639260696E-01  0.29181644407E-01  0.41928060808E-01  0.51100000000E-03 0.  1.
         11    1    4    4    0    0  0.70782208046E-01  0.37583014888E-01  0.39398339901E-01  0.89303383429E-01  0.51100000000E-03 0. -1.
</event>
<event>
 8    1  0.1176534E+005  0.1043930E+01  0.7957747E-01            NaN
         13   -1    0    0    0    0  0.00000000000E+00  0.00000000000E+00  0.74505805969E-08  0.10566000000E+00  0.10566000000E+00 0. -1.
     999900   -1    0    0    0    0 -0.00000000000E+00 -0.00000000000E+00 -0.74505805969E-08  0.93827000000E+00  0.93827000000E+00 0.  1.
     999902    2    1    2    0    0  0.12415015776E-01 -0.20767791172E-01 -0.24177454427E-02  0.10196137655E+01  0.10193237717E+01 0.  0.
     999903    2    3    3    0    0  0.40475704343E-01 -0.35899246638E-01 -0.11812758386E+00  0.13146674508E+00  0.20058425738E-01 0.  0.
         14    1    1    2    0    0 -0.12415015776E-01  0.20767791172E-01  0.24177454427E-02  0.24316234493E-01  0.00000000000E+00 0. -1.
     999901    1    3    3    0    0 -0.28060688566E-01  0.15131455466E-01  0.11570983841E+00  0.88814702043E+00  0.88000000000E+00 0. -1.
        -11    1    4    4    0    0  0.33724742339E-01 -0.26913187612E-01 -0.10810644308E+00  0.11639992298E+00  0.51100000000E-03 0.  1.
         11    1    4    4    0    0  0.67509620033E-02 -0.89860590256E-02 -0.10021140780E-01  0.15066822104E-01  0.51100000000E-03 0. -1.
</event>
<event>
 8    1  0.1176534E+005  0.1043930E+01  0.7957747E-01            NaN
         13   -1    0    0    0    0  0.00000000000E+00  0.00000000000E+00  0.74505805969E-08  0.10566000000E+00  0.10566000000E+00 0.  1.
     999900   -1    0    0    0    0 -0.00000000000E+00 -0.00000000000E+00 -0.74505805969E-08  0.93827000000E+00  0.93827000000E+00 0.  1.
     999902    2    1    2    0    0 -0.47505878537E-02  0.80201602402E-02  0.27245949972E-01  0.10151335967E+01  0.10147250791E+01 0.  0.
     999903    2    3    3    0    0  0.51863545574E-01 -0.84578721073E-01 -0.70163826262E-01  0.12313114295E+00  0.19872806313E-01 0.  0.
         14    1    1    2    0    0  0.47505878537E-02 -0.80201602402E-02 -0.27245949972E-01  0.28796403336E-01  0.00000000000E+00 0. -1.
     999901    1    3    3    0    0 -0.56614133427E-01  0.92598881313E-01  0.97409776234E-01  0.89200245371E+00  0.88000000000E+00 0. -1.
        -11    1    4    4    0    0  0.14447260274E-01 -0.12884949313E-01 -0.72813245263E-02  0.20688742255E-01  0.51100000000E-03 0. -1.
         11    1    4    4    0    0  0.37416285300E-01 -0.71693771760E-01 -0.62882501736E-01  0.10244240070E+00  0.51100000000E-03 0.  1.
</event>
<event>
 8    1  0.1176534E+005  0.1043930E+01  0.7957747E-01            NaN
         13   -1    0    0    0    0  0.00000000000E+00  0.00000000000E+00  0.74505805969E-08  0.10566000000E+00  0.10566000000E+00 0. -1.
     999900   -1    0    0    0    0 -0.00000000000E+00 -0.00000000000E+00 -0.74505805969E-08  0.93827000000E+00  0.93827000000E+00 0.  1.
     999902    2    1    2    0    0  0.16140990696E-01  0.10084945594E-01  0.14423802075E-01  0.10200493850E+01  0.10197698093E+01 0.  0.
     999903    2    3    3    0    0 -0.96402859491E-01  0.33071935949E-01 -0.75091179266E-01  0.12808108293E+00  0.19463153299E-01 0.  0.
         14    1    1    2    0    0 -0.16140990696E-01 -0.10084945594E-01 -0.14423802075E-01  0.23880615038E-01  0.00000000000E+00 0. -1.
     999901    1    3    3    0    0  0.11254385019E+00 -0.22986990355E-01  0.89514981340E-01  0.89196830203E+00  0.88000000000E+00 0. -1.
        -11    1    4    4    0    0 -0.37942297435E-01  0.20747698045E-01 -0.39280082307E-01  0.58423205114E-01  0.51100000000E-03 0. -1.
         11    1    4    4    0    0 -0.58460562056E-01  0.12324237904E-01 -0.35811096959E-01  0.69657877819E-01  0.51100000000E-03 0.  1.
</event>
<event>
 8    1  0.1176534E+005  0.1043930E+01  0.7957747E-01            NaN
         13   -1    0    0    0    0  0.00000000000E+00  0.00000000000E+00  0.74505805969E-08  0.10566000000E+00  0.10566000000E+00 0. -1.
     999900   -1    0    0    0    0 -0.00000000000E+00 -0.00000000000E+00 -0.74505805969E-08  0.93827000000E+00  0.93827000000E+00 0.  1.
     999902    2    1    2    0    0  0.16358220282E-01  0.16193354709E-01  0.89157911893E-02  0.10192458464E+01  0.10189469014E+01 0.  0.
     999903    2    3    3    0    0 -0.10658857379E+00  0.12817355714E-01 -0.65845211482E-01  0.12755278312E+00  0.20216625223E-01 0.  0.
         14    1    1    2    0    0 -0.16358220282E-01 -0.16193354709E-01 -0.89157911893E-02  0.24684153622E-01  0.00000000000E+00 0.  1.
     999901    1    3    3    0    0  0.12294679408E+00  0.33759989946E-02  0.74761002671E-01  0.89169306326E+00  0.88000000000E+00 0. -1.
        -11    1    4    4    0    0 -0.75365024261E-01  0.49001922104E-02 -0.36120491338E-01  0.83718873506E-01  0.51100000000E-03 0.  1.
         11    1    4    4    0    0 -0.31223549533E-01  0.79171635039E-02 -0.29724720144E-01  0.43833909614E-01  0.51100000000E-03 0. -1.
</event>
<event>
 8    1  0.1176534E+005  0.1043930E+01  0.7957747E-01            NaN
         13   -1    0    0    0    0  0.00000000000E+00  0.00000000000E+00  0.74505805969E-08  0.10566000000E+00  0.10566000000E+00 0. -1.
     999900   -1    0    0    0    0 -0.00000000000E+00 -0.00000000000E+00 -0.74505805969E-08  0.93827000000E+00  0.93827000000E+00 0.  1.
     999902    2    1    2    0    0  0.37238310117E-02  0.89831573072E-02  0.21474384093E-01  0.10203564300E+01  0.10200840803E+01 0.  0.
     999903    2    3    3    0    0  0.47399617984E-01  0.10571082785E+00 -0.57094358610E-01  0.13050427148E+00  0.18710857232E-01 0.  0.
         14    1    1    2    0    0 -0.37238310117E-02 -0.89831573072E-02 -0.21474384093E-01  0.23573570048E-01  0.00000000000E+00 0.  1.
     999901    1    3    3    0    0 -0.43675786972E-01 -0.96727670543E-01  0.78568742704E-01  0.88985215848E+00  0.88000000000E+00 0. -1.
        -11    1    4    4    0    0  0.13195961123E-01  0.16611516366E-01 -0.51216544363E-02  0.21830445051E-01  0.51100000000E-03 0. -1.
         11    1    4    4    0    0  0.34203656861E-01  0.89099311484E-01 -0.51972704174E-01  0.10867382642E+00  0.51100000000E-03 0.  1.
</event>
<event>
 8    1  0.1176534E+005  0.1043930E+01  0.7957747E-01            NaN
         13   -1    0    0    0    0  0.00000000000E+00  0.00000000000E+00  0.74505805969E-08  0.10566000000E+00  0.10566000000E+00 0. -1.
     999900   -1    0    0    0    0 -0.00000000000E+00 -0.00000000000E+00 -0.74505805969E-08  0.93827000000E+00  0.93827000000E+00 0. -1.
     999902    2    1    2    0    0  0.57696889310E-02  0.95380944386E-02  0.18871854116E-01  0.10220117101E+01  0.10217766508E+01 0.  0.
     999903    2    3    3    0    0 -0.53398938101E-01 -0.81006629651E-01 -0.82988179879E-01  0.12955737509E+00  0.22012605567E-01 0.  0.
         14    1    1    2    0    0 -0.57696889310E-02 -0.95380944386E-02 -0.18871854116E-01  0.21918289934E-01  0.00000000000E+00 0.  1.
     999901    1    3    3    0    0  0.59168627032E-01  0.90544724089E-01  0.10186003399E+00  0.89245433497E+00  0.88000000000E+00 0.  1.
        -11    1    4    4    0    0 -0.36782702938E-01 -0.44360269943E-01 -0.37165937514E-01  0.68573820202E-01  0.51100000000E-03 0.  1.
         11    1    4    4    0    0 -0.16616235163E-01 -0.36646359707E-01 -0.45822242365E-01  0.60983554891E-01  0.51100000000E-03 0. -1.
</event>
<event>
 8    1  0.1176534E+005  0.1043930E+01  0.7957747E-01            NaN
         13   -1    0    0    0    0  0.00000000000E+00  0.00000000000E+00  0.74505805969E-08  0.10566000000E+00  0.10566000000E+00 0.  1.
     999900   -1    0    0    0    0 -0.00000000000E+00 -0.00000000000E+00 -0.74505805969E-08  0.93827000000E+00  0.93827000000E+00 0. -1.
     999902    2    1    2    0    0 -0.24055433032E-01 -0.14024835929E-01  0.14589116124E-01  0.10124943166E+01  0.10120061951E+01 0.  0.
     999903    2    3    3    0    0  0.10008871823E+00 -0.25731564476E-01 -0.58931942083E-01  0.12066800852E+00  0.20197266036E-01 0.  0.
         14    1    1    2    0    0  0.24055433032E-01  0.14024835929E-01 -0.14589116124E-01  0.31435683394E-01  0.00000000000E+00 0. -1.
     999901    1    3    3    0    0 -0.12414415127E+00  0.11706728546E-01  0.73521058207E-01  0.89182630808E+00  0.88000000000E+00 0.  1.
        -11    1    4    4    0    0  0.11615475645E-01 -0.64004106143E-02 -0.14949023941E-01  0.19990471938E-01  0.51100000000E-03 0. -1.
         11    1    4    4    0    0  0.88473242589E-01 -0.19331153861E-01 -0.43982918141E-01  0.10067753659E+00  0.51100000000E-03 0.  1.
</event>
<event>
 8    1  0.1176534E+005  0.1043930E+01  0.7957747E-01            NaN
         13   -1    0    0    0    0  0.00000000000E+00  0.00000000000E+00  0.74505805969E-08  0.10566000000E+00  0.10566000000E+00 0.  1.
     999900   -1    0    0    0    0 -0.00000000000E+00 -0.00000000000E+00 -0.74505805969E-08  0.93827000000E+00  0.93827000000E+00 0. -1.
     999902    2    1    2    0    0 -0.78759253199E-03 -0.83864969930E-02 -0.20662973680E-01  0.10216160556E+01  0.10213723380E+01 0.  0.
     999903    2    3    3    0    0 -0.32075016469E-01  0.49023527379E-01  0.11325565401E+00  0.12908649718E+00  0.20108895320E-01 0.  0.
         14    1    1    2    0    0  0.78759253199E-03  0.83864969930E-02  0.20662973680E-01  0.22313944410E-01  0.00000000000E+00 0.  1.
     999901    1    3    3    0    0  0.31287423937E-01 -0.57410024372E-01 -0.13391862769E+00  0.89252955841E+00  0.88000000000E+00 0. -1.
        -11    1    4    4    0    0 -0.23605969912E-01  0.36322066516E-01  0.99535627282E-01  0.10855476291E+00  0.51100000000E-03 0. -1.
         11    1    4    4    0    0 -0.84690465576E-02  0.12701460863E-01  0.13720026726E-01  0.20531734267E-01  0.51100000000E-03 0.  1.
</event>
<event>
 8    1  0.1176534E+005  0.1043930E+01  0.7957747E-01            NaN
         13   -1    0    0    0    0  0.00000000000E+00  0.00000000000E+00  0.74505805969E-08  0.10566000000E+00  0.10566000000E+00 0. -1.
     999900   -1    0    0    0    0 -0.00000000000E+00 -0.00000000000E+00 -0.74505805969E-08  0.93827000000E+00  0.93827000000E+00 0. -1.
     999902    2    1    2    0    0 -0.75647515186E-03 -0.19116341641E-01 -0.14458204454E-01  0.10199498739E+01  0.10196679356E+01 0.  0.
     999903    2    3    3    0    0 -0.11681690439E+00 -0.91233491220E-02 -0.55720187008E-01  0.13131472134E+00  0.20233441392E-01 0.  0.
         14    1    1    2    0    0  0.75647515186E-03  0.19116341641E-01  0.14458204454E-01  0.23980126113E-01  0.00000000000E+00 0. -1.
     999901    1    3    3    0    0  0.11606042924E+00 -0.99929925187E-02  0.41261982554E-01  0.88863515254E+00  0.88000000000E+00 0.  1.
        -11    1    4    4    0    0 -0.58187831836E-01  0.53860287385E-02 -0.29621084357E-01  0.65517194986E-01  0.51100000000E-03 0.  1.
         11    1    4    4    0    0 -0.58629072553E-01 -0.14509377861E-01 -0.26099102650E-01  0.65797526356E-01  0.51100000000E-03 0. -1.
</event>
<event>
 8    1  0.1176534E+005  0.1043930E+01  0.7957747E-01            NaN
         13   -1    0    0    0    0  0.00000000000E+00  0.00000000000E+00  0.74505805969E-08  0.10566000000E+00  0.10566000000E+00 0.  1.
     999900   -1    0    0    0    0 -0.00000000000E+00 -0.00000000000E+00 -0.74505805969E-08  0.93827000000E+00  0.93827000000E+00 0.  1.
     999902    2    1    2    0    0  0.19953200621E-01 -0.11359577831E-01 -0.67857152637E-02  0.10199880670E+01  0.10197070367E+01 0.  0.
     999903    2    3    3    0    0 -0.96624305281E-01  0.71580317012E-02 -0.82522343713E-01  0.12888243150E+00  0.20328555036E-01 0.  0.
         14    1    1    2    0    0 -0.19953200621E-01  0.11359577831E-01  0.67857152637E-02  0.23941932988E-01  0.00000000000E+00 0. -1.
     999901    1    3    3    0    0  0.11657750590E+00 -0.18517609533E-01  0.75736628449E-01  0.89110563551E+00  0.88000000000E+00 0. -1.
        -11    1    4    4    0    0 -0.67035041985E-01 -0.24837943991E-02 -0.48553838505E-01  0.82810642089E-01  0.51100000000E-03 0.  1.
         11    1    4    4    0    0 -0.29589263296E-01  0.96418261003E-02 -0.33968505208E-01  0.46071789416E-01  0.51100000000E-03 0. -1.
</event>
<event>
 8    1  0.1176534E+005  0.1043930E+01  0.7957747E-01            NaN
         13   -1    0    0    0    0  0.00000000000E+00  0.00000000000E+00  0.74505805969E-08  0.10566000000E+00  0.10566000000E+00 0. -1.
     999900   -1    0    0    0    0 -0.00000000000E+00 -0.00000000000E+00 -0.74505805969E-08  0.93827000000E+00  0.93827000000E+00 0. -1.
     999902    2    1    2    0    0  0.18650878428E-01 -0.20672645751E-01  0.75540991180E-02  0.10150807719E+01  0.10146707326E+01 0.  0.
     999903    2    3    3    0    0  0.73425718203E-01 -0.37772275738E-01  0.96645125011E-01  0.12872311761E+00  0.20280037270E-01 0.  0.
         14    1    1    2    0    0 -0.18650878428E-01  0.20672645751E-01 -0.75540991180E-02  0.28849228100E-01  0.00000000000E+00 0.  1.
     999901    1    3    3    0    0 -0.54774839776E-01  0.17099629986E-01 -0.89091025893E-01  0.88635765429E+00  0.88000000000E+00 0.  1.
        -11    1    4    4    0    0  0.31267959716E-01 -0.63130961350E-02  0.43511222336E-01  0.53953944043E-01  0.51100000000E-03 0.  1.
         11    1    4    4    0    0  0.42157758487E-01 -0.31459179603E-01  0.53133902675E-01  0.74769173570E-01  0.51100000000E-03 0. -1.
</event>
<event>
 8    1  0.1176534E+005  0.1043930E+01  0.7957747E-01            NaN
         13   -1    0    0    0    0  0.00000000000E+00  0.00000000000E+00  0.74505805969E-08  0.10566000000E+00  0.10566000000E+00 0.  1.
     999900   -1    0    0    0    0 -0.00000000000E+00 -0.00000000000E+00 -0.74505805969E-08  0.93827000000E+00  0.93827000000E+00 0.  1.
     999902    2    1    2    0    0  0.69615150250E-02  0.21298387877E-01 -0.70186615718E-02  0.10204492498E+01  0.10201790656E+01 0.  0.
     999903    2    3    3    0    0 -0.45570106477E-01 -0.82918636863E-01  0.84006613622E-01  0.12808925510E+00  0.19940190450E-01 0.  0.
         14    1    1    2    0    0 -0.69615150250E-02 -0.21298387877E-01  0.70186615718E-02  0.23480750156E-01  0.00000000000E+00 0. -1.
     999901    1    3    3    0    0  0.52531621502E-01  0.10421702474E+00 -0.91025275194E-01  0.89235999475E+00  0.88000000000E+00 0.  1.
        -11    1    4    4    0    0 -0.30836878556E-01 -0.35486375775E-01  0.41683283411E-01  0.62832739727E-01  0.51100000000E-03 0. -1.
         11    1    4    4    0    0 -0.14733227921E-01 -0.47432261088E-01  0.42323330211E-01  0.65256515369E-01  0.51100000000E-03 0.  1.
</event>
<event>
 8    1  0.1176534E+005  0.1043930E+01  0.7957747E-01            NaN
         13   -1    0    0    0    0  0.00000000000E+00  0.00000000000E+00  0.74505805969E-08  0.10566000000E+00  0.10566000000E+00 0.  1.
     999900   -1    0    0    0    0 -0.00000000000E+00 -0.00000000000E+00 -0.74505805969E-08  0.93827000000E+00  0.93827000000E+00 0. -1.
     999902    2    1    2    0    0  0.29241802216E-02 -0.20685966352E-01 -0.56173829720E-02  0.10222963451E+01  0.10220674156E+01 0.  0.
     999903    2    3    3    0    0  0.34556018985E-02 -0.11815035335E+00  0.60757520365E-01  0.13443080518E+00  0.20216773225E-01 0.  0.
         14    1    1    2    0    0 -0.29241802216E-02  0.20685966352E-01  0.56173829720E-02  0.21633654923E-01  0.00000000000E+00 0.  1.
     999901    1    3    3    0    0 -0.53142167688E-03  0.97464386997E-01 -0.66374903337E-01  0.88786553990E+00  0.88000000000E+00 0. -1.
        -11    1    4    4    0    0 -0.15842346931E-02 -0.39733760968E-01  0.30928356570E-01  0.50379618114E-01  0.51100000000E-03 0. -1.
         11    1    4    4    0    0  0.50398365915E-02 -0.78416592381E-01  0.29829163795E-01  0.84051187066E-01  0.51100000000E-03 0.  1.
</event>
<event>
 7    1  0.1176534E+005  0.1043930E+01  0.7957747E-01            NaN
         13   -1    0    0    0    0  0.00000000000E+00  0.00000000000E+00  0.74505805969E-08  0.10566000000E+00  0.10566000000E+00 0.  1.
     999900   -1    0    0    0    0 -0.00000000000E+00 -0.00000000000E+00 -0.74505805969E-08  0.93827000000E+00  0.93827000000E+00 0. -1.
     999903    2    1    2    0    0  0.75500474748E-01  0.46389899228E-01 -0.20384064810E-01  0.93021651768E-01  0.19625828949E-01 0.  0.
         14    1    1    2    0    0  0.41170040790E-01  0.20895808471E-01  0.39045198208E-01  0.60465978644E-01  0.00000000000E+00 0.  1.
     999901    1    1    2    0    0 -0.11667051554E+00 -0.67285707700E-01 -0.18661133398E-01  0.89044236959E+00  0.88000000000E+00 0. -1.
        -11    1    3    3    0    0  0.25114052188E-01  0.18654744800E-01  0.18805029937E-02  0.31345055963E-01  0.51100000000E-03 0.  1.
         11    1    3    3    0    0  0.50386422560E-01  0.27735154428E-01 -0.22264567804E-01  0.61676595805E-01  0.51100000000E-03 0. -1.
</event>
<event>
 8    1  0.1176534E+005  0.1043930E+01  0.7957747E-01            NaN
         13   -1    0    0    0    0  0.00000000000E+00  0.00000000000E+00  0.74505805969E-08  0.10566000000E+00  0.10566000000E+00 0. -1.
     999900   -1    0    0    0    0 -0.00000000000E+00 -0.00000000000E+00 -0.74505805969E-08  0.93827000000E+00  0.93827000000E+00 0.  1.
     999902    2    1    2    0    0  0.11063288774E-02  0.12820140133E-01  0.18849398770E-01  0.10211072090E+01  0.10208521207E+01 0.  0.
     999903    2    3    3    0    0  0.70984651044E-02  0.13112632242E+00  0.40971039497E-02  0.13304758897E+00  0.20985090705E-01 0.  0.
         14    1    1    2    0    0 -0.11063288774E-02 -0.12820140133E-01 -0.18849398770E-01  0.22822791035E-01  0.00000000000E+00 0.  1.
     999901    1    3    3    0    0 -0.59921362270E-02 -0.11830618229E+00  0.14752294820E-01  0.88805962000E+00  0.88000000000E+00 0.  1.
        -11    1    4    4    0    0  0.13361127089E-01  0.70995838571E-01  0.65474994426E-02  0.72540055703E-01  0.51100000000E-03 0. -1.
         11    1    4    4    0    0 -0.62626619842E-02  0.60130483849E-01 -0.24503954928E-02  0.60507533267E-01  0.51100000000E-03 0.  1.
</event>
<event>
 8    1  0.1176534E+005  0.1043930E+01  0.7957747E-01            NaN
         13   -1    0    0    0    0  0.00000000000E+00  0.00000000000E+00  0.74505805969E-08  0.10566000000E+00  0.10566000000E+00 0. -1.
     999900   -1    0    0    0    0 -0.00000000000E+00 -0.00000000000E+00 -0.74505805969E-08  0.93827000000E+00  0.93827000000E+00 0.  1.
     999902    2    1    2    0    0  0.43277481244E-02  0.29093216952E-01  0.14305764412E-01  0.10112222093E+01  0.10106931072E+01 0.  0.
     999903    2    3    3    0    0  0.51062600323E-01  0.10430329186E+00  0.44941922304E-01  0.12624804248E+00  0.20790045868E-01 0.  0.
         14    1    1    2    0    0 -0.43277481244E-02 -0.29093216952E-01 -0.14305764412E-01  0.32707790691E-01  0.00000000000E+00 0.  1.
     999901    1    3    3    0    0 -0.46734852199E-01 -0.75210074903E-01 -0.30636157892E-01  0.88497416682E+00  0.88000000000E+00 0.  1.
        -11    1    4    4    0    0  0.41504598927E-01  0.69278031204E-01  0.23634455173E-01  0.84148237842E-01  0.51100000000E-03 0. -1.
         11    1    4    4    0    0  0.95580013957E-02  0.35025260651E-01  0.21307467131E-01  0.42099804642E-01  0.51100000000E-03 0.  1.
</event>
<event>
 8    1  0.1176534E+005  0.1043930E+01  0.7957747E-01            NaN
         13   -1    0    0    0    0  0.00000000000E+00  0.00000000000E+00  0.74505805969E-08  0.10566000000E+00  0.10566000000E+00 0. -1.
     999900   -1    0    0    0    0 -0.00000000000E+00 -0.00000000000E+00 -0.74505805969E-08  0.93827000000E+00  0.93827000000E+00 0.  1.
     999902    2    1    2    0    0  0.74669842311E-02  0.17517902613E-01 -0.15985797689E-01  0.10190668044E+01  0.10187634531E+01 0.  0.
     999903    2    3    3    0    0 -0.65534916916E-01 -0.57215342793E-01 -0.93827541942E-01  0.12947494708E+00  0.19792258804E-01 0.  0.
         14    1    1    2    0    0 -0.74669842311E-02 -0.17517902613E-01  0.15985797689E-01  0.24863195555E-01  0.00000000000E+00 0. -1.
     999901    1    3    3    0    0  0.73001901147E-01  0.74733245406E-01  0.77841744252E-01  0.88959185736E+00  0.88000000000E+00 0.  1.
        -11    1    4    4    0    0 -0.51541418798E-01 -0.47736194125E-01 -0.85394691897E-01  0.11057927747E+00  0.51100000000E-03 0.  1.
         11    1    4    4    0    0 -0.13993498118E-01 -0.94791486680E-02 -0.84328500450E-02  0.18895669608E-01  0.51100000000E-03 0. -1.
</event>
<event>
 8    1  0.1176534E+005  0.1043930E+01  0.7957747E-01            NaN
         13   -1    0    0    0    0  0.00000000000E+00  0.00000000000E+00  0.74505805969E-08  0.10566000000E+00  0.10566000000E+00 0. -1.
     999900   -1    0    0    0    0 -0.00000000000E+00 -0.00000000000E+00 -0.74505805969E-08  0.93827000000E+00  0.93827000000E+00 0. -1.
     999902    2    1    2    0    0  0.91450202237E-02  0.18817570482E-01  0.98736578673E-02  0.10207951459E+01  0.10205329531E+01 0.  0.
     999903    2    3    3    0    0  0.96995062880E-01 -0.12880231886E-01  0.87105001772E-01  0.13248942087E+00  0.19804613409E-01 0.  0.
         14    1    1    2    0    0 -0.91450202237E-02 -0.18817570482E-01 -0.98736578673E-02  0.23134854083E-01  0.00000000000E+00 0.  1.
     999901    1    3    3    0    0 -0.87850042657E-01  0.31697802368E-01 -0.77231343904E-01  0.88830572505E+00  0.88000000000E+00 0.  1.
        -11    1    4    4    0    0  0.13969046608E-01 -0.48531607614E-02  0.54720791549E-02  0.15776317815E-01  0.51100000000E-03 0.  1.
         11    1    4    4    0    0  0.83026016272E-01 -0.80270711244E-02  0.81632922617E-01  0.11671310306E+00  0.51100000000E-03 0. -1.
</event>
<event>
 8    1  0.1176534E+005  0.1043930E+01  0.7957747E-01            NaN
         13   -1    0    0    0    0  0.00000000000E+00  0.00000000000E+00  0.74505805969E-08  0.10566000000E+00  0.10566000000E+00 0. -1.
     999900   -1    0    0    0    0 -0.00000000000E+00 -0.00000000000E+00 -0.74505805969E-08  0.93827000000E+00  0.93827000000E+00 0. -1.
     999902    2    1    2    0    0 -0.17615048702E-01 -0.11136802776E-01 -0.12433221924E-01  0.10196626696E+01  0.10193738551E+01 0.  0.
     999903    2    3    3    0    0  0.63415447032E-01  0.96630501436E-01  0.50035827386E-01  0.12720420267E+00  0.17842433240E-01 0.  0.
         14    1    1    2    0    0  0.17615048702E-01  0.11136802776E-01  0.12433221924E-01  0.24267330390E-01  0.00000000000E+00 0. -1.
     999901    1    3    3    0    0 -0.81030495734E-01 -0.10776730421E+00 -0.62469049310E-01  0.89245846694E+00  0.88000000000E+00 0. -1.
        -11    1    4    4    0    0  0.30955299466E-01  0.38789833433E-01  0.13296086647E-01  0.51380237289E-01  0.51100000000E-03 0. -1.
         11    1    4    4    0    0  0.32460147566E-01  0.57840668004E-01  0.36739740739E-01  0.75823965379E-01  0.51100000000E-03 0.  1.
</event>
<event>
 8    1  0.1176534E+005  0.1043930E+01  0.7957747E-01            NaN
         13   -1    0    0    0    0  0.00000000000E+00  0.00000000000E+00  0.74505805969E-08  0.10566000000E+00  0.10566000000E+00 0.  1.
     999900   -1    0    0    0    0 -0.00000000000E+00 -0.00000000000E+00 -0.74505805969E-08  0.93827000000E+00  0.93827000000E+00 0.  1.
     999902    2    1    2    0    0  0.16854626621E-01  0.11259829165E-01 -0.11706997838E-01  0.10205223946E+01  0.10202539105E+01 0.  0.
     999903    2    3    3    0    0 -0.80959930115E-01  0.98665695988E-01  0.19349418026E-01  0.13025728015E+00  0.17410606141E-01 0.  0.
         14    1    1    2    0    0 -0.16854626621E-01 -0.11259829165E-01  0.11706997838E-01  0.23407605382E-01  0.00000000000E+00 0.  1.
     999901    1    3    3    0    0  0.97814556736E-01 -0.87405866823E-01 -0.31056415864E-01  0.89026511446E+00  0.88000000000E+00 0. -1.
        -11    1    4    4    0    0 -0.35519733536E-01  0.47841359502E-01  0.17302112148E-01  0.62048943224E-01  0.51100000000E-03 0.  1.
         11    1    4    4    0    0 -0.45440196579E-01  0.50824336486E-01  0.20473058781E-02  0.68208336930E-01  0.51100000000E-03 0. -1.
</event>
<event>
 8    1  0.1176534E+005  0.1043930E+01  0.7957747E-01            NaN
         13   -1    0    0    0    0  0.00000000000E+00  0.00000000000E+00  0.74505805969E-08  0.10566000000E+00  0.10566000000E+00 0. -1.
     999900   -1    0    0    0    0 -0.00000000000E+00 -0.00000000000E+00 -0.74505805969E-08  0.93827000000E+00  0.93827000000E+00 0. -1.
     999902    2    1    2    0    0 -0.35048516675E-02  0.21464605945E-01  0.85853815412E-02  0.10205479113E+01  0.10202800191E+01 0.  0.
     999903    2    3    3    0    0 -0.11782293717E+00  0.56353696326E-01 -0.60694470450E-02  0.13234712476E+00  0.20516813355E-01 0.  0.
         14    1    1    2    0    0  0.35048516675E-02 -0.21464605945E-01 -0.85853815412E-02  0.23382088653E-01  0.00000000000E+00 0.  1.
     999901    1    3    3    0    0  0.11431808550E+00 -0.34889090381E-01  0.14654828586E-01  0.88820078659E+00  0.88000000000E+00 0. -1.
        -11    1    4    4    0    0 -0.91318589214E-01  0.35434110199E-01 -0.94525842794E-02  0.98408705774E-01  0.51100000000E-03 0.  1.
         11    1    4    4    0    0 -0.26504347958E-01  0.20919586127E-01  0.33831372344E-02  0.33938418981E-01  0.51100000000E-03 0. -1.
</event>
<event>
 8    1  0.1176534E+005  0.1043930E+01  0.7957747E-01            NaN
         13   -1    0    0    0    0  0.00000000000E+00  0.00000000000E+00  0.74505805969E-08  0.10566000000E+00  0.10566000000E+00 0. -1.
     999900   -1    0    0    0    0 -0.00000000000E+00 -0.00000000000E+00 -0.74505805969E-08  0.93827000000E+00  0.93827000000E+00 0.  1.
     999902    2    1    2    0    0  0.15332104600E-02 -0.23594476309E-01  0.16726248417E-02  0.10202266728E+01  0.10199512813E+01 0.  0.
     999903    2    3    3    0    0  0.45493010873E-01 -0.11197234396E+00  0.52613857657E-01  0.13324407954E+00  0.19451140435E-01 0.  0.
         14    1    1    2    0    0 -0.15332104600E-02  0.23594476309E-01 -0.16726248417E-02  0.23703327202E-01  0.00000000000E+00 0.  1.
     999901    1    3    3    0    0 -0.43959800413E-01  0.88377867652E-01 -0.50941232816E-01  0.88698259326E+00  0.88000000000E+00 0.  1.
        -11    1    4    4    0    0  0.21025528789E-01 -0.74669469082E-01  0.29468675547E-01  0.82983531097E-01  0.51100000000E-03 0. -1.
         11    1    4    4    0    0  0.24467482084E-01 -0.37302874879E-01  0.23145182111E-01  0.50260548442E-01  0.51100000000E-03 0.  1.
</event>
<event>
 8    1  0.1176534E+005  0.1043930E+01  0.7957747E-01            NaN
         13   -1    0    0    0    0  0.00000000000E+00  0.00000000000E+00  0.74505805969E-08  0.10566000000E+00  0.10566000000E+00 0.  1.
     999900   -1    0    0    0    0 -0.00000000000E+00 -0.00000000000E+00 -0.74505805969E-08  0.93827000000E+00  0.93827000000E+00 0.  1.
     999902    2    1    2    0    0  0.18478027381E-01 -0.14186357150E-01 -0.10725629672E-03  0.10206340405E+01  0.10203681409E+01 0.  0.
     999903    2    3    3    0    0 -0.88211758886E-01  0.26665821870E-01 -0.87822719649E-01  0.12892466322E+00  0.20404858177E-01 0.  0.
         14    1    1    2    0    0 -0.18478027381E-01  0.14186357150E-01  0.10725629672E-03  0.23295959500E-01  0.00000000000E+00 0. -1.
     999901    1    3    3    0    0  0.10668978627E+00 -0.40852179020E-01  0.87715463353E-01  0.89170937728E+00  0.88000000000E+00 0. -1.
        -11    1    4    4    0    0 -0.75182413328E-01  0.24411071642E-01 -0.64142623803E-01  0.10179800097E+00  0.51100000000E-03 0.  1.
         11    1    4    4    0    0 -0.13029345558E-01  0.22547502275E-02 -0.23680095846E-01  0.27126662244E-01  0.51100000000E-03 0. -1.
</event>
<event>
 8    1  0.1176534E+005  0.1043930E+01  0.7957747E-01            NaN
         13   -1    0    0    0    0  0.00000000000E+00  0.00000000000E+00  0.74505805969E-08  0.10566000000E+00  0.10566000000E+00 0.  1.
     999900   -1    0    0    0    0 -0.00000000000E+00 -0.00000000000E+00 -0.74505805969E-08  0.93827000000E+00  0.93827000000E+00 0. -1.
     999902    2    1    2    0    0  0.95790354648E-03 -0.62245937076E-03  0.23378646261E-01  0.10205234595E+01  0.10202550002E+01 0.  0.
     999903    2    3    3    0    0  0.83409253284E-01 -0.80024231997E-01  0.61717932716E-01  0.13228206924E+00  0.18123503631E-01 0.  0.
         14    1    1    2    0    0 -0.95790354648E-03  0.62245937076E-03 -0.23378646261E-01  0.23406540451E-01  0.00000000000E+00 0. -1.
     999901    1    3    3    0    0 -0.82451349738E-01  0.79401772627E-01 -0.38339286456E-01  0.88824139031E+00  0.88000000000E+00 0.  1.
        -11    1    4    4    0    0  0.21997067324E-01 -0.11613937184E-01  0.10124383849E-01  0.26861101562E-01  0.51100000000E-03 0. -1.
         11    1    4    4    0    0  0.61412185960E-01 -0.68410294813E-01  0.51593548868E-01  0.10542096768E+00  0.51100000000E-03 0.  1.
</event>
<event>
 8    1  0.1176534E+005  0.1043930E+01  0.7957747E-01            NaN
         13   -1    0    0    0    0  0.00000000000E+00  0.00000000000E+00  0.74505805969E-08  0.10566000000E+00  0.10566000000E+00 0. -1.
     999900   -1    0    0    0    0 -0.00000000000E+00 -0.00000000000E+00 -0.74505805969E-08  0.93827000000E+00  0.93827000000E+00 0. -1.
     999902    2    1    2    0    0  0.19409041852E-01 -0.16000416742E-01 -0.50983311231E-02  0.10182645130E+01  0.10179410107E+01 0.  0.
     999903    2    3    3    0    0  0.11357454625E+00  0.30380473370E-01 -0.53312403623E-01  0.13071568283E+00  0.20548154152E-01 0.  0.
         14    1    1    2    0    0 -0.19409041852E-01  0.16000416742E-01  0.50983311231E-02  0.25665486977E-01  0.00000000000E+00 0. -1.
     999901    1    3    3    0    0 -0.94165504402E-01 -0.46380890112E-01  0.48214072500E-01  0.88754883019E+00  0.88000000000E+00 0. -1.
        -11    1    4    4    0    0  0.50267670369E-01  0.13283961615E-01 -0.34832187653E-01  0.62584700513E-01  0.51100000000E-03 0. -1.
         11    1    4    4    0    0  0.63306875884E-01  0.17096511755E-01 -0.18480215970E-01  0.68130982319E-01  0.51100000000E-03 0.  1.
</event>
<event>
 8    1  0.1176534E+005  0.1043930E+01  0.7957747E-01            NaN
         13   -1    0    0    0    0  0.00000000000E+00  0.00000000000E+00  0.74505805969E-08  0.10566000000E+00  0.10566000000E+00 0. -1.
     999900   -1    0    0    0    0 -0.00000000000E+00 -0.00000000000E+00 -0.74505805969E-08  0.93827000000E+00  0.93827000000E+00 0. -1.
     999902    2    1    2    0    0 -0.21290021624E-01 -0.11111491844E-02 -0.15982697860E-01  0.10172851824E+01  0.10169361809E+01 0.  0.
     999903    2    3    3    0    0 -0.54092982626E-01 -0.15740014467E-01 -0.11634085147E+00  0.13085312244E+00  0.20335857697E-01 0.  0.
         14    1    1    2    0    0  0.21290021624E-01  0.11111491844E-02  0.15982697860E-01  0.26644817585E-01  0.00000000000E+00 0. -1.
     999901    1    3    3    0    0  0.32802961002E-01  0.14628865282E-01  0.10035815361E+00  0.88643205997E+00  0.88000000000E+00 0.  1.
        -11    1    4    4    0    0 -0.15606624818E-01  0.38509204908E-02 -0.40511021003E-01  0.43586698321E-01  0.51100000000E-03 0. -1.
         11    1    4    4    0    0 -0.38486357808E-01 -0.19590934957E-01 -0.75829830465E-01  0.87266424122E-01  0.51100000000E-03 0.  1.
</event>
<event>
 8    1  0.1176534E+005  0.1043930E+01  0.7957747E-01            NaN
         13   -1    0    0    0    0  0.00000000000E+00  0.00000000000E+00  0.74505805969E-08  0.10566000000E+00  0.10566000000E+00 0. -1.
     999900   -1    0    0    0    0 -0.00000000000E+00 -0.00000000000E+00 -0.74505805969E-08  0.93827000000E+00  0.93827000000E+00 0. -1.
     999902    2    1    2    0    0 -0.61299460055E-02  0.59041834775E-03  0.22833895924E-01  0.10202802297E+01  0.10200060958E+01 0.  0.
     999903    2    3    3    0    0  0.10054062558E+00  0.77362755068E-01  0.23177795308E-01  0.13052030658E+00  0.20122797324E-01 0.  0.
         14    1    1    2    0    0  0.61299460055E-02 -0.59041834775E-03 -0.22833895924E-01  0.23649770293E-01  0.00000000000E+00 0.  1.
     999901    1    3    3    0    0 -0.10667057158E+00 -0.76772336721E-01 -0.34389938417E-03  0.88975992312E+00  0.88000000000E+00 0.  1.
        -11    1    4    4    0    0  0.48429305117E-01  0.24779423787E-01  0.10627638286E-01  0.55431266032E-01  0.51100000000E-03 0.  1.
         11    1    4    4    0    0  0.52111320461E-01  0.52583331282E-01  0.12550157023E-01  0.75089040553E-01  0.51100000000E-03 0. -1.
</event>
<event>
 8    1  0.1176534E+005  0.1043930E+01  0.7957747E-01            NaN
         13   -1    0    0    0    0  0.00000000000E+00  0.00000000000E+00  0.74505805969E-08  0.10566000000E+00  0.10566000000E+00 0.  1.
     999900   -1    0    0    0    0 -0.00000000000E+00 -0.00000000000E+00 -0.74505805969E-08  0.93827000000E+00  0.93827000000E+00 0.  1.
     999902    2    1    2    0    0  0.71230572788E-02 -0.31819862173E-02 -0.23716613864E-01  0.10189632070E+01  0.10186572909E+01 0.  0.
     999903    2    3    3    0    0 -0.65984385780E-01  0.50395750587E-01 -0.99472153645E-01  0.13107009745E+00  0.19773473431E-01 0.  0.
         14    1    1    2    0    0 -0.71230572788E-02  0.31819862173E-02  0.23716613864E-01  0.24966793035E-01  0.00000000000E+00 0.  1.
     999901    1    3    3    0    0  0.73107443059E-01 -0.53577736804E-01  0.75755539781E-01  0.88789310951E+00  0.88000000000E+00 0.  1.
        -11    1    4    4    0    0 -0.46993820494E-01  0.40202203439E-01 -0.60413300305E-01  0.86456140908E-01  0.51100000000E-03 0. -1.
         11    1    4    4    0    0 -0.18990565286E-01  0.10193547148E-01 -0.39058853340E-01  0.44613956544E-01  0.51100000000E-03 0.  1.
</event>
<event>
 8    1  0.1176534E+005  0.1043930E+01  0.7957747E-01            NaN
         13   -1    0    0    0    0  0.00000000000E+00  0.00000000000E+00  0.74505805969E-08  0.10566000000E+00  0.10566000000E+00 0. -1.
     999900   -1    0    0    0    0 -0.00000000000E+00 -0.00000000000E+00 -0.74505805969E-08  0.93827000000E+00  0.93827000000E+00 0.  1.
     999902    2    1    2    0    0 -0.17190862207E-01  0.28015368845E-02 -0.16478719609E-01  0.10199524573E+01  0.10196705805E+01 0.  0.
     999903    2    3    3    0    0  0.42671384961E-01  0.76597884753E-01  0.91722458414E-01  0.12824797460E+00  0.18613182682E-01 0.  0.
         14    1    1    2    0    0  0.17190862207E-01 -0.28015368845E-02  0.16478719609E-01  0.23977542666E-01  0.00000000000E+00 0. -1.
     999901    1    3    3    0    0 -0.59862247168E-01 -0.73796347868E-01 -0.10820117802E+00  0.89170448273E+00  0.88000000000E+00 0.  1.
        -11    1    4    4    0    0  0.37521012429E-01  0.51751795040E-01  0.70485113673E-01  0.95155068357E-01  0.51100000000E-03 0. -1.
         11    1    4    4    0    0  0.51503725317E-02  0.24846089713E-01  0.21237344740E-01  0.33092906247E-01  0.51100000000E-03 0.  1.
</event>
<event>
 8    1  0.1176534E+005  0.1043930E+01  0.7957747E-01            NaN
         13   -1    0    0    0    0  0.00000000000E+00  0.00000000000E+00  0.74505805969E-08  0.10566000000E+00  0.10566000000E+00 0. -1.
     999900   -1    0    0    0    0 -0.00000000000E+00 -0.00000000000E+00 -0.74505805969E-08  0.93827000000E+00  0.93827000000E+00 0.  1.
     999902    2    1    2    0    0 -0.17564128892E-01 -0.15907428187E-01 -0.29194480701E-02  0.10200539017E+01  0.10197744330E+01 0.  0.
     999903    2    3    3    0    0 -0.20774808207E-01 -0.12948294985E+00 -0.18459756531E-02  0.13274850895E+00  0.20526374339E-01 0.  0.
         14    1    1    2    0    0  0.17564128892E-01  0.15907428187E-01  0.29194480701E-02  0.23876098347E-01  0.00000000000E+00 0. -1.
     999901    1    3    3    0    0  0.32106793151E-02  0.11357552166E+00 -0.10734724170E-02  0.88730539271E+00  0.88000000000E+00 0.  1.
        -11    1    4    4    0    0 -0.15747497985E-01 -0.91680936807E-01 -0.10574900746E-01  0.93624075501E-01  0.51100000000E-03 0.  1.
         11    1    4    4    0    0 -0.50273102223E-02 -0.37802013043E-01  0.87289250925E-02  0.39124433445E-01  0.51100000000E-03 0. -1.
</event>
<event>
 8    1  0.1176534E+005  0.1043930E+01  0.7957747E-01            NaN
         13   -1    0    0    0    0  0.00000000000E+00  0.00000000000E+00  0.74505805969E-08  0.10566000000E+00  0.10566000000E+00 0.  1.
     999900   -1    0    0    0    0 -0.00000000000E+00 -0.00000000000E+00 -0.74505805969E-08  0.93827000000E+00  0.93827000000E+00 0.  1.
     999902    2    1    2    0    0  0.52053193180E-02  0.23756407337E-01 -0.10747386540E-01  0.10173411197E+01  0.10169936014E+01 0.  0.
     999903    2    3    3    0    0  0.62989133056E-01 -0.66579796828E-01 -0.85240365746E-01  0.12770703600E+00  0.25350874977E-01 0.  0.
         14    1    1    2    0    0 -0.52053193180E-02 -0.23756407337E-01  0.10747386540E-01  0.26588880311E-01  0.00000000000E+00 0.  1.
     999901    1    3    3    0    0 -0.57783813738E-01  0.90336204165E-01  0.74492979207E-01  0.88963408369E+00  0.88000000000E+00 0. -1.
        -11    1    4    4    0    0  0.11183048449E-01 -0.26192564498E-01 -0.17950756192E-01  0.33669003200E-01  0.51100000000E-03 0. -1.
         11    1    4    4    0    0  0.51806084607E-01 -0.40387232329E-01 -0.67289609555E-01  0.94038032798E-01  0.51100000000E-03 0.  1.
</event>
<event>
 8    1  0.1176534E+005  0.1043930E+01  0.7957747E-01            NaN
         13   -1    0    0    0    0  0.00000000000E+00  0.00000000000E+00  0.74505805969E-08  0.10566000000E+00  0.10566000000E+00 0. -1.
     999900   -1    0    0    0    0 -0.00000000000E+00 -0.00000000000E+00 -0.74505805969E-08  0.93827000000E+00  0.93827000000E+00 0. -1.
     999902    2    1    2    0    0 -0.77487316975E-02 -0.11835388896E-01  0.19468182396E-01  0.10198648925E+01  0.10195809284E+01 0.  0.
     999903    2    3    3    0    0  0.12365000416E+00 -0.12170962569E-01 -0.25847744154E-01  0.12895565268E+00  0.22891016184E-01 0.  0.
         14    1    1    2    0    0  0.77487316975E-02  0.11835388896E-01 -0.19468182396E-01  0.24065107501E-01  0.00000000000E+00 0.  1.
     999901    1    3    3    0    0 -0.13139873586E+00  0.33557367309E-03  0.45315926550E-01  0.89090923982E+00  0.88000000000E+00 0.  1.
        -11    1    4    4    0    0  0.10899477053E+00 -0.16812614655E-01 -0.26965739582E-01  0.11353385507E+00  0.51100000000E-03 0.  1.
         11    1    4    4    0    0  0.14655233631E-01  0.46416520857E-02  0.11179954285E-02  0.15421797614E-01  0.51100000000E-03 0. -1.
</event>
<event>
 8    1  0.1176534E+005  0.1043930E+01  0.7957747E-01            NaN
         13   -1    0    0    0    0  0.00000000000E+00  0.00000000000E+00  0.74505805969E-08  0.10566000000E+00  0.10566000000E+00 0. -1.
     999900   -1    0    0    0    0 -0.00000000000E+00 -0.00000000000E+00 -0.74505805969E-08  0.93827000000E+00  0.93827000000E+00 0. -1.
     999902    2    1    2    0    0  0.11964845272E-01 -0.10010959819E-01 -0.18956340636E-01  0.10193796499E+01  0.10190839764E+01 0.  0.
     999903    2    3    3    0    0 -0.30501054281E-01  0.62561153282E-02 -0.12638255513E+00  0.13168129917E+00  0.19948960337E-01 0.  0.
         14    1    1    2    0    0 -0.11964845272E-01  0.10010959819E-01  0.18956340636E-01  0.24550350083E-01  0.00000000000E+00 0. -1.
     999901    1    3    3    0    0  0.42465899553E-01 -0.16267075147E-01  0.10742621449E+00  0.88769835075E+00  0.88000000000E+00 0.  1.
        -11    1    4    4    0    0 -0.18816352864E-01 -0.19765762350E-03 -0.10339164085E+00  0.10509132563E+00  0.51100000000E-03 0. -1.
         11    1    4    4    0    0 -0.11684701417E-01  0.64537729517E-02 -0.22990914282E-01  0.26589973543E-01  0.51100000000E-03 0.  1.
</event>
<event>
 8    1  0.1176534E+005  0.1043930E+01  0.7957747E-01            NaN
         13   -1    0    0    0    0  0.00000000000E+00  0.00000000000E+00  0.74505805969E-08  0.10566000000E+00  0.10566000000E+00 0. -1.
     999900   -1    0    0    0    0 -0.00000000000E+00 -0.00000000000E+00 -0.74505805969E-08  0.93827000000E+00  0.93827000000E+00 0. -1.
     999902    2    1    2    0    0  0.19845587990E-01 -0.11267580296E-01 -0.31213622399E-02  0.10208963587E+01  0.10206364811E+01 0.  0.
     999903    2    3    3    0    0  0.85064898409E-01  0.87981973881E-01  0.44284999795E-01  0.13165432439E+00  0.19870461859E-01 0.  0.
         14    1    1    2    0    0 -0.19845587990E-01  0.11267580296E-01  0.31213622399E-02  0.23033641280E-01  0.00000000000E+00 0.  1.
     999901    1    3    3    0    0 -0.65219310420E-01 -0.99249554178E-01 -0.47406362035E-01  0.88924203433E+00  0.88000000000E+00 0. -1.
        -11    1    4    4    0    0  0.30028651274E-01  0.25954034963E-01  0.23629293287E-01  0.46194550008E-01  0.51100000000E-03 0. -1.
         11    1    4    4    0    0  0.55036247136E-01  0.62027938918E-01  0.20655706508E-01  0.85459774383E-01  0.51100000000E-03 0.  1.
</event>
<event>
 8    1  0.1176534E+005  0.1043930E+01  0.7957747E-01            NaN
         13   -1    0    0    0    0  0.00000000000E+00  0.00000000000E+00  0.74505805969E-08  0.10566000000E+00  0.10566000000E+00 0. -1.
     999900   -1    0    0    0    0 -0.00000000000E+00 -0.00000000000E+00 -0.74505805969E-08  0.93827000000E+00  0.93827000000E+00 0.  1.
     999902    2    1    2    0    0  0.18346772475E-01  0.21006788049E-02  0.14638538079E-01  0.10203651170E+01  0.10200929705E+01 0.  0.
     999903    2    3    3    0    0  0.61014241624E-01 -0.11033499180E+00  0.32459213187E-01  0.13200715461E+00  0.21811470635E-01 0.  0.
         14    1    1    2    0    0 -0.18346772475E-01 -0.21006788049E-02 -0.14638538079E-01  0.23564882957E-01  0.00000000000E+00 0.  1.
     999901    1    3    3    0    0 -0.42667469149E-01  0.11243567061E+00 -0.17820675107E-01  0.88835796243E+00  0.88000000000E+00 0.  1.
        -11    1    4    4    0    0  0.26033052126E-01 -0.63871820178E-01  0.10170616222E-01  0.69721099900E-01  0.51100000000E-03 0. -1.
         11    1    4    4    0    0  0.34981189498E-01 -0.46463171626E-01  0.22288596965E-01  0.62286054714E-01  0.51100000000E-03 0.  1.
</event>
<event>
 8    1  0.1176534E+005  0.1043930E+01  0.7957747E-01            NaN
         13   -1    0    0    0    0  0.00000000000E+00  0.00000000000E+00  0.74505805969E-08  0.10566000000E+00  0.10566000000E+00 0.  1.
     999900   -1    0    0    0    0 -0.00000000000E+00 -0.00000000000E+00 -0.74505805969E-08  0.93827000000E+00  0.93827000000E+00 0.  1.
     999902    2    1    2    0    0  0.13634112007E-01 -0.14829442677E-01  0.12783634106E-01  0.10200716119E+01  0.10197925626E+01 0.  0.
     999903    2    3    3    0    0  0.12076244134E+00  0.12833450207E-01  0.47733851992E-01  0.13245500983E+00  0.22749600461E-01 0.  0.
         14    1    1    2    0    0 -0.13634112007E-01  0.14829442677E-01 -0.12783634106E-01  0.23858388069E-01  0.00000000000E+00 0. -1.
     999901    1    3    3    0    0 -0.10712832933E+00 -0.27662892884E-01 -0.34950217886E-01  0.88761660210E+00  0.88000000000E+00 0.  1.
        -11    1    4    4    0    0  0.29770124180E-01 -0.48357573562E-02  0.57984254021E-02  0.30716896019E-01  0.51100000000E-03 0. -1.
         11    1    4    4    0    0  0.90992317161E-01  0.17669207563E-01  0.41935426590E-01  0.10173811381E+00  0.51100000000E-03 0.  1.
</event>
<event>
 8    1  0.1176534E+005  0.1043930E+01  0.7957747E-01            NaN
         13   -1    0    0    0    0  0.00000000000E+00  0.00000000000E+00  0.74505805969E-08  0.10566000000E+00  0.10566000000E+00 0.  1.
     999900   -1    0    0    0    0 -0.00000000000E+00 -0.00000000000E+00 -0.74505805969E-08  0.93827000000E+00  0.93827000000E+00 0. -1.
     999902    2    1    2    0    0 -0.19947418070E-01  0.31568928853E-03  0.12211960408E-01  0.10205391658E+01  0.10202710708E+01 0.  0.
     999903    2    3    3    0    0  0.94979813064E-01  0.30389125028E-01  0.80747525843E-01  0.12991589880E+00  0.20330125977E-01 0.  0.
         14    1    1    2    0    0  0.19947418070E-01 -0.31568928853E-03 -0.12211960408E-01  0.23390834197E-01  0.00000000000E+00 0.  1.
     999901    1    3    3    0    0 -0.11492723113E+00 -0.30073435740E-01 -0.68535565435E-01  0.89062326700E+00  0.88000000000E+00 0. -1.
        -11    1    4    4    0    0  0.83889476137E-01  0.25932631289E-01  0.78420715295E-01  0.11772856612E+00  0.51100000000E-03 0. -1.
         11    1    4    4    0    0  0.11090336928E-01  0.44564937393E-02  0.23268105478E-02  0.12187332684E-01  0.51100000000E-03 0.  1.
</event>
<event>
 8    1  0.1176534E+005  0.1043930E+01  0.7957747E-01            NaN
         13   -1    0    0    0    0  0.00000000000E+00  0.00000000000E+00  0.74505805969E-08  0.10566000000E+00  0.10566000000E+00 0. -1.
     999900   -1    0    0    0    0 -0.00000000000E+00 -0.00000000000E+00 -0.74505805969E-08  0.93827000000E+00  0.93827000000E+00 0. -1.
     999902    2    1    2    0    0  0.76856573294E-02  0.11311098078E-01 -0.19694141854E-01  0.10199535638E+01  0.10196717133E+01 0.  0.
     999903    2    3    3    0    0 -0.66106549460E-01  0.87439038841E-02  0.10740173199E+00  0.12776230551E+00  0.18480880312E-01 0.  0.
         14    1    1    2    0    0 -0.76856573294E-02 -0.11311098078E-01  0.19694141854E-01  0.23976436175E-01  0.00000000000E+00 0.  1.
     999901    1    3    3    0    0  0.73792206789E-01  0.25671941934E-02 -0.12709587385E+00  0.89219125832E+00  0.88000000000E+00 0. -1.
        -11    1    4    4    0    0 -0.19403388963E-01  0.57104246688E-02  0.19104241712E-01  0.27826850802E-01  0.51100000000E-03 0. -1.
         11    1    4    4    0    0 -0.46703160497E-01  0.30334792154E-02  0.88297490280E-01  0.99935454706E-01  0.51100000000E-03 0.  1.
</event>
<event>
 8    1  0.1176534E+005  0.1043930E+01  0.7957747E-01            NaN
         13   -1    0    0    0    0  0.00000000000E+00  0.00000000000E+00  0.74505805969E-08  0.10566000000E+00  0.10566000000E+00 0.  1.
     999900   -1    0    0    0    0 -0.00000000000E+00 -0.00000000000E+00 -0.74505805969E-08  0.93827000000E+00  0.93827000000E+00 0. -1.
     999902    2    1    2    0    0 -0.16982312657E-01 -0.46509324782E-02 -0.15449571899E-01  0.10205052399E+01  0.10202363575E+01 0.  0.
     999903    2    3    3    0    0  0.93588874659E-01  0.56082121272E-01 -0.68447371519E-01  0.12993056132E+00  0.17112168490E-01 0.  0.
         14    1    1    2    0    0  0.16982312657E-01  0.46509324782E-02  0.15449571899E-01  0.23424760147E-01  0.00000000000E+00 0.  1.
     999901    1    3    3    0    0 -0.11057118732E+00 -0.60733053750E-01  0.52997799620E-01  0.89057467853E+00  0.88000000000E+00 0. -1.
        -11    1    4    4    0    0  0.44381097118E-01  0.33171252935E-01 -0.42114611835E-01  0.69598243180E-01  0.51100000000E-03 0.  1.
         11    1    4    4    0    0  0.49207777540E-01  0.22910868337E-01 -0.26332759684E-01  0.60332318139E-01  0.51100000000E-03 0. -1.
</event>
<event>
 8    1  0.1176534E+005  0.1043930E+01  0.7957747E-01            NaN
         13   -1    0    0    0    0  0.00000000000E+00  0.00000000000E+00  0.74505805969E-08  0.10566000000E+00  0.10566000000E+00 0. -1.
     999900   -1    0    0    0    0 -0.00000000000E+00 -0.00000000000E+00 -0.74505805969E-08  0.93827000000E+00  0.93827000000E+00 0.  1.
     999902    2    1    2    0    0 -0.85204500633E-02 -0.20205405732E-01 -0.98929664044E-02  0.10198732489E+01  0.10195894843E+01 0.  0.
     999903    2    3    3    0    0  0.23288840526E-01 -0.92412815819E-01 -0.90212144961E-01  0.13269969682E+00  0.19709891332E-01 0.  0.
         14    1    1    2    0    0  0.85204500633E-02  0.20205405732E-01  0.98929664044E-02  0.24056751118E-01  0.00000000000E+00 0. -1.
     999901    1    3    3    0    0 -0.31809290589E-01  0.72207410087E-01  0.80319178556E-01  0.88717355206E+00  0.88000000000E+00 0. -1.
        -11    1    4    4    0    0  0.65848499291E-02 -0.56017522452E-01 -0.61319360678E-01  0.83316554089E-01  0.51100000000E-03 0.  1.
         11    1    4    4    0    0  0.16703990597E-01 -0.36395293367E-01 -0.28892784283E-01  0.49383142729E-01  0.51100000000E-03 0. -1.
</event>
<event>
 8    1  0.1176534E+005  0.1043930E+01  0.7957747E-01            NaN
         13   -1    0    0    0    0  0.00000000000E+00  0.00000000000E+00  0.74505805969E-08  0.10566000000E+00  0.10566000000E+00 0. -1.
     999900   -1    0    0    0    0 -0.00000000000E+00 -0.00000000000E+00 -0.74505805969E-08  0.93827000000E+00  0.93827000000E+00 0.  1.
     999902    2    1    2    0    0 -0.10815256169E-01 -0.18855491545E-01  0.90141880828E-02  0.10203980023E+01  0.10201266236E+01 0.  0.
     999903    2    3    3    0    0 -0.75732143254E-01  0.87984701951E-02  0.10613939404E+00  0.13224697381E+00  0.20271174502E-01 0.  0.
         14    1    1    2    0    0  0.10815256169E-01  0.18855491545E-01 -0.90141880828E-02  0.23531997667E-01  0.00000000000E+00 0.  1.
     999901    1    3    3    0    0  0.64916887085E-01 -0.27653961740E-01 -0.97125205958E-01  0.88815102852E+00  0.88000000000E+00 0.  1.
        -11    1    4    4    0    0 -0.45011193136E-01  0.17831061694E-02  0.77604147894E-01  0.89732111679E-01  0.51100000000E-03 0.  1.
         11    1    4    4    0    0 -0.30720950117E-01  0.70153640257E-02  0.28535246147E-01  0.42514862133E-01  0.51100000000E-03 0. -1.
</event>
<event>
 8    1  0.1176534E+005  0.1043930E+01  0.7957747E-01            NaN
         13   -1    0    0    0    0  0.00000000000E+00  0.00000000000E+00  0.74505805969E-08  0.10566000000E+00  0.10566000000E+00 0.  1.
     999900   -1    0    0    0    0 -0.00000000000E+00 -0.00000000000E+00 -0.74505805969E-08  0.93827000000E+00  0.93827000000E+00 0.  1.
     999902    2    1    2    0    0  0.23963122619E-02  0.11902551535E-01  0.20243210574E-01  0.10203249027E+01  0.10200518155E+01 0.  0.
     999903    2    3    3    0    0  0.63935955358E-01 -0.10638024696E+00 -0.28560130095E-01  0.12894411190E+00  0.20157867768E-01 0.  0.
         14    1    1    2    0    0 -0.23963122619E-02 -0.11902551535E-01 -0.20243210574E-01  0.23605097327E-01  0.00000000000E+00 0. -1.
     999901    1    3    3    0    0 -0.61539643096E-01  0.11828279849E+00  0.48803340669E-01  0.89138079077E+00  0.88000000000E+00 0. -1.
        -11    1    4    4    0    0  0.33678830924E-01 -0.53681883542E-01 -0.43272617656E-02  0.63521607256E-01  0.51100000000E-03 0. -1.
         11    1    4    4    0    0  0.30257124434E-01 -0.52698363416E-01 -0.24232868330E-01  0.65422504647E-01  0.51100000000E-03 0.  1.
</event>
<event>
 8    1  0.1176534E+005  0.1043930E+01  0.7957747E-01            NaN
         13   -1    0    0    0    0  0.00000000000E+00  0.00000000000E+00  0.74505805969E-08  0.10566000000E+00  0.10566000000E+00 0. -1.
     999900   -1    0    0    0    0 -0.00000000000E+00 -0.00000000000E+00 -0.74505805969E-08  0.93827000000E+00  0.93827000000E+00 0. -1.
     999902    2    1    2    0    0  0.10192021887E-01  0.17629513997E-02 -0.21134652646E-01  0.10204000436E+01  0.10201287125E+01 0.  0.
     999903    2    3    3    0    0 -0.12462920854E+00 -0.27441151290E-01  0.48362242028E-02  0.12927483898E+00  0.20078309745E-01 0.  0.
         14    1    1    2    0    0 -0.10192021887E-01 -0.17629513997E-02  0.21134652646E-01  0.23529956444E-01  0.00000000000E+00 0. -1.
     999901    1    3    3    0    0  0.13482123043E+00  0.29204102689E-01 -0.25970876849E-01  0.89112520458E+00  0.88000000000E+00 0.  1.
        -11    1    4    4    0    0 -0.94538356069E-01 -0.18870594464E-01 -0.48256754302E-02  0.96525376808E-01  0.51100000000E-03 0.  1.
         11    1    4    4    0    0 -0.30090852474E-01 -0.85705568252E-02  0.96618996331E-02  0.32749462170E-01  0.51100000000E-03 0. -1.
</event>
<event>
 8    1  0.1176534E+005  0.1043930E+01  0.7957747E-01            NaN
         13   -1    0    0    0    0  0.00000000000E+00  0.00000000000E+00  0.74505805969E-08  0.10566000000E+00  0.10566000000E+00 0. -1.
     999900   -1    0    0    0    0 -0.00000000000E+00 -0.00000000000E+00 -0.74505805969E-08  0.93827000000E+00  0.93827000000E+00 0. -1.
     999902    2    1    2    0    0  0.87138432280E-02  0.92844289407E-02  0.19899568112E-01  0.10203053414E+01  0.10200317961E+01 0.  0.
     999903    2    3    3    0    0 -0.11763981369E+00 -0.41592562885E-01 -0.24327288158E-01  0.12872823885E+00  0.20250320414E-01 0.  0.
         14    1    1    2    0    0 -0.87138432280E-02 -0.92844289407E-02 -0.19899568112E-01  0.23624658635E-01  0.00000000000E+00 0.  1.
     999901    1    3    3    0    0  0.12635365691E+00  0.50876991825E-01  0.44226856270E-01  0.89157710251E+00  0.88000000000E+00 0. -1.
        -11    1    4    4    0    0 -0.98945627376E-01 -0.27043741053E-01 -0.22100149078E-01  0.10492987571E+00  0.51100000000E-03 0.  1.
         11    1    4    4    0    0 -0.18694186310E-01 -0.14548821832E-01 -0.22271390795E-02  0.23798363137E-01  0.51100000000E-03 0. -1.
</event>
<event>
 8    1  0.1176534E+005  0.1043930E+01  0.7957747E-01            NaN
         13   -1    0    0    0    0  0.00000000000E+00  0.00000000000E+00  0.74505805969E-08  0.10566000000E+00  0.10566000000E+00 0. -1.
     999900   -1    0    0    0    0 -0.00000000000E+00 -0.00000000000E+00 -0.74505805969E-08  0.93827000000E+00  0.93827000000E+00 0. -1.
     999902    2    1    2    0    0  0.17003135152E-01 -0.16496901665E-01  0.21012712426E-02  0.10201461881E+01  0.10198689010E+01 0.  0.
     999903    2    3    3    0    0  0.47135371695E-01  0.26350741301E-01  0.11768816353E+00  0.13104315587E+00  0.20141996740E-01 0.  0.
         14    1    1    2    0    0 -0.17003135152E-01  0.16496901665E-01 -0.21012712426E-02  0.23783811939E-01  0.00000000000E+00 0.  1.
     999901    1    3    3    0    0 -0.30132236543E-01 -0.42847642966E-01 -0.11558689229E+00  0.88910303219E+00  0.88000000000E+00 0. -1.
        -11    1    4    4    0    0  0.13908404309E-01 -0.13788339151E-02  0.35496088816E-01  0.38152042352E-01  0.51100000000E-03 0. -1.
         11    1    4    4    0    0  0.33226967386E-01  0.27729575216E-01  0.82192074714E-01  0.92891113515E-01  0.51100000000E-03 0.  1.
</event>
<event>
 8    1  0.1176534E+005  0.1043930E+01  0.7957747E-01            NaN
         13   -1    0    0    0    0  0.00000000000E+00  0.00000000000E+00  0.74505805969E-08  0.10566000000E+00  0.10566000000E+00 0. -1.
     999900   -1    0    0    0    0 -0.00000000000E+00 -0.00000000000E+00 -0.74505805969E-08  0.93827000000E+00  0.93827000000E+00 0.  1.
     999902    2    1    2    0    0 -0.15048894471E-01  0.14998223282E-01 -0.90463018153E-02  0.10208377610E+01  0.10205765443E+01 0.  0.
     999903    2    3    3    0    0 -0.50940667575E-01 -0.97451903453E-01 -0.68483748506E-01  0.13096919740E+00  0.19263482515E-01 0.  0.
         14    1    1    2    0    0  0.15048894471E-01 -0.14998223282E-01  0.90463018153E-02  0.23092239020E-01  0.00000000000E+00 0. -1.
     999901    1    3    3    0    0  0.35891773104E-01  0.11245012673E+00  0.59437446691E-01  0.88986856358E+00  0.88000000000E+00 0.  1.
        -11    1    4    4    0    0 -0.34079874349E-01 -0.78981098274E-01 -0.58538495092E-01  0.10405031595E+00  0.51100000000E-03 0. -1.
         11    1    4    4    0    0 -0.16860793227E-01 -0.18470805179E-01 -0.99452534142E-02  0.26918881452E-01  0.51100000000E-03 0.  1.
</event>
<event>
 8    1  0.1176534E+005  0.1043930E+01  0.7957747E-01            NaN
         13   -1    0    0    0    0  0.00000000000E+00  0.00000000000E+00  0.74505805969E-08  0.10566000000E+00  0.10566000000E+00 0. -1.
     999900   -1    0    0    0    0 -0.00000000000E+00 -0.00000000000E+00 -0.74505805969E-08  0.93827000000E+00  0.93827000000E+00 0. -1.
     999902    2    1    2    0    0 -0.13196897090E-01 -0.11042836872E-01 -0.15995679426E-01  0.10204360838E+01  0.10201655929E+01 0.  0.
     999903    2    3    3    0    0 -0.15368636552E-01  0.67518762650E-01 -0.11059035219E+00  0.13188400681E+00  0.19188198344E-01 0.  0.
         14    1    1    2    0    0  0.13196897090E-01  0.11042836872E-01  0.15995679426E-01  0.23493916219E-01  0.00000000000E+00 0. -1.
     999901    1    3    3    0    0  0.21717394624E-02 -0.78561599522E-01  0.94594672764E-01  0.88855207697E+00  0.88000000000E+00 0.  1.
        -11    1    4    4    0    0  0.69410985570E-03  0.37088668656E-01 -0.63786167854E-01  0.73790158298E-01  0.51100000000E-03 0.  1.
         11    1    4    4    0    0 -0.16062746408E-01  0.30430093995E-01 -0.46804184337E-01  0.58093848514E-01  0.51100000000E-03 0. -1.
</event>
<event>
 8    1  0.1176534E+005  0.1043930E+01  0.7957747E-01            NaN
         13   -1    0    0    0    0  0.00000000000E+00  0.00000000000E+00  0.74505805969E-08  0.10566000000E+00  0.10566000000E+00 0. -1.
     999900   -1    0    0    0    0 -0.00000000000E+00 -0.00000000000E+00 -0.74505805969E-08  0.93827000000E+00  0.93827000000E+00 0.  1.
     999902    2    1    2    0    0 -0.52220521637E-03  0.16521488274E-01  0.16128164385E-01  0.10208356293E+01  0.10205743638E+01 0.  0.
     999903    2    3    3    0    0  0.16371426397E-01  0.57131231993E-01  0.11822980553E+00  0.13384110212E+00  0.20078656066E-01 0.  0.
         14    1    1    2    0    0  0.52220521637E-03 -0.16521488274E-01 -0.16128164385E-01  0.23094370732E-01  0.00000000000E+00 0.  1.
     999901    1    3    3    0    0 -0.16893631614E-01 -0.40609743718E-01 -0.10210164114E+00  0.88699452715E+00  0.88000000000E+00 0.  1.
        -11    1    4    4    0    0 -0.17451549052E-02  0.20529446673E-01  0.53156480611E-01  0.57012071513E-01  0.51100000000E-03 0. -1.
         11    1    4    4    0    0  0.18116581303E-01  0.36601785320E-01  0.65073324916E-01  0.76829030602E-01  0.51100000000E-03 0.  1.
</event>
<event>
 8    1  0.1176534E+005  0.1043930E+01  0.7957747E-01            NaN
         13   -1    0    0    0    0  0.00000000000E+00  0.00000000000E+00  0.74505805969E-08  0.10566000000E+00  0.10566000000E+00 0.  1.
     999900   -1    0    0    0    0 -0.00000000000E+00 -0.00000000000E+00 -0.74505805969E-08  0.93827000000E+00  0.93827000000E+00 0.  1.
     999902    2    1    2    0    0  0.18992938235E-01 -0.37095220575E-02  0.12277894514E-01  0.10210119078E+01  0.10207546605E+01 0.  0.
     999903    2    3    3    0    0  0.35137547492E-01  0.12095849272E+00  0.33224190620E-01  0.13183166193E+00  0.20251815683E-01 0.  0.
         14    1    1    2    0    0 -0.18992938235E-01  0.37095220575E-02 -0.12277894514E-01  0.22918092207E-01  0.00000000000E+00 0. -1.
     999901    1    3    3    0    0 -0.16144609257E-01 -0.12466801478E+00 -0.20946296106E-01  0.88918024587E+00  0.88000000000E+00 0.  1.
        -11    1    4    4    0    0  0.18318808129E-01  0.55416861677E-01  0.52291020380E-02  0.58602149436E-01  0.51100000000E-03 0.  1.
         11    1    4    4    0    0  0.16818739364E-01  0.65541631046E-01  0.27995088582E-01  0.73229512491E-01  0.51100000000E-03 0. -1.
</event>
<event>
 8    1  0.1176534E+005  0.1043930E+01  0.7957747E-01            NaN
         13   -1    0    0    0    0  0.00000000000E+00  0.00000000000E+00  0.74505805969E-08  0.10566000000E+00  0.10566000000E+00 0.  1.
     999900   -1    0    0    0    0 -0.00000000000E+00 -0.00000000000E+00 -0.74505805969E-08  0.93827000000E+00  0.93827000000E+00 0.  1.
     999902    2    1    2    0    0 -0.94014216671E-02 -0.30573468721E-02  0.21229647794E-01  0.10205113740E+01  0.10202426341E+01 0.  0.
     999903    2    3    3    0    0  0.40272886794E-01 -0.36927243671E-01  0.12070354333E+00  0.13286856140E+00  0.99590411448E-02 0.  0.
         14    1    1    2    0    0  0.94014216671E-02  0.30573468721E-02 -0.21229647794E-01  0.23418626021E-01  0.00000000000E+00 0. -1.
     999901    1    3    3    0    0 -0.49674308462E-01  0.33869896799E-01 -0.99473895534E-01  0.88764281258E+00  0.88000000000E+00 0.  1.
        -11    1    4    4    0    0  0.30486709591E-01 -0.30159840304E-01  0.84569181001E-01  0.94822270196E-01  0.51100000000E-03 0.  1.
         11    1    4    4    0    0  0.97861772037E-02 -0.67674033664E-02  0.36134362327E-01  0.38046291204E-01  0.51100000000E-03 0. -1.
</event>
<event>
 8    1  0.1176534E+005  0.1043930E+01  0.7957747E-01            NaN
         13   -1    0    0    0    0  0.00000000000E+00  0.00000000000E+00  0.74505805969E-08  0.10566000000E+00  0.10566000000E+00 0. -1.
     999900   -1    0    0    0    0 -0.00000000000E+00 -0.00000000000E+00 -0.74505805969E-08  0.93827000000E+00  0.93827000000E+00 0.  1.
     999902    2    1    2    0    0 -0.20471131785E-01  0.98238414081E-02  0.11008175827E-01  0.10186959945E+01  0.10183834122E+01 0.  0.
     999903    2    3    3    0    0  0.73815896636E-01 -0.90865333138E-01  0.45759978795E-01  0.12727239074E+00  0.19974744634E-01 0.  0.
         14    1    1    2    0    0  0.20471131785E-01 -0.98238414081E-02 -0.11008175827E-01  0.25234005461E-01  0.00000000000E+00 0. -1.
     999901    1    3    3    0    0 -0.94287028420E-01  0.10068917455E+00 -0.34751802968E-01  0.89142360380E+00  0.88000000000E+00 0. -1.
        -11    1    4    4    0    0  0.33385233589E-01 -0.26537816203E-01  0.19332715460E-01  0.46827817787E-01  0.51100000000E-03 0. -1.
         11    1    4    4    0    0  0.40430663047E-01 -0.64327516935E-01  0.26427263335E-01  0.80444572954E-01  0.51100000000E-03 0.  1.
</event>
<event>
 8    1  0.1176534E+005  0.1043930E+01  0.7957747E-01            NaN
         13   -1    0    0    0    0  0.00000000000E+00  0.00000000000E+00  0.74505805969E-08  0.10566000000E+00  0.10566000000E+00 0.  1.
     999900   -1    0    0    0    0 -0.00000000000E+00 -0.00000000000E+00 -0.74505805969E-08  0.93827000000E+00  0.93827000000E+00 0. -1.
     999902    2    1    2    0    0  0.15533530434E-01  0.58423199893E-02 -0.16622378011E-01  0.10204411362E+01  0.10201707631E+01 0.  0.
     999903    2    3    3    0    0  0.16258412556E-01 -0.12695709892E+00  0.10867082480E-01  0.13005252357E+00  0.20325463341E-01 0.  0.
         14    1    1    2    0    0 -0.15533530434E-01 -0.58423199893E-02  0.16622378011E-01  0.23488863773E-01  0.00000000000E+00 0.  1.
     999901    1    3    3    0    0 -0.72488212200E-03  0.13279941891E+00 -0.27489460490E-01  0.89038861266E+00  0.88000000000E+00 0. -1.
        -11    1    4    4    0    0  0.17252523839E-01 -0.89304327264E-01  0.40720283353E-03  0.90957898954E-01  0.51100000000E-03 0. -1.
         11    1    4    4    0    0 -0.99411128205E-03 -0.37652771654E-01  0.10459879646E-01  0.39094624614E-01  0.51100000000E-03 0.  1.
</event>
<event>
 8    1  0.1176534E+005  0.1043930E+01  0.7957747E-01            NaN
         13   -1    0    0    0    0  0.00000000000E+00  0.00000000000E+00  0.74505805969E-08  0.10566000000E+00  0.10566000000E+00 0.  1.
     999900   -1    0    0    0    0 -0.00000000000E+00 -0.00000000000E+00 -0.74505805969E-08  0.93827000000E+00  0.93827000000E+00 0. -1.
     999902    2    1    2    0    0  0.15840754124E-01  0.18431846455E-01  0.48434826000E-02  0.10191485194E+01  0.10188471833E+01 0.  0.
     999903    2    3    3    0    0  0.94323005566E-01  0.10571546324E-01  0.88944409490E-01  0.13162713152E+00  0.20149610490E-01 0.  0.
         14    1    1    2    0    0 -0.15840754124E-01 -0.18431846455E-01 -0.48434826000E-02  0.24781480558E-01  0.00000000000E+00 0.  1.
     999901    1    3    3    0    0 -0.78482251443E-01  0.78603001302E-02 -0.84100926890E-01  0.88752138792E+00  0.88000000000E+00 0. -1.
        -11    1    4    4    0    0  0.15537041573E-01  0.26213370158E-02  0.26273476008E-01  0.30640295872E-01  0.51100000000E-03 0. -1.
         11    1    4    4    0    0  0.78785963993E-01  0.79502093086E-02  0.62670933482E-01  0.10098683565E+00  0.51100000000E-03 0.  1.
</event>
<event>
 8    1  0.1176534E+005  0.1043930E+01  0.7957747E-01            NaN
         13   -1    0    0    0    0  0.00000000000E+00  0.00000000000E+00  0.74505805969E-08  0.10566000000E+00  0.10566000000E+00 0. -1.
     999900   -1    0    0    0    0 -0.00000000000E+00 -0.00000000000E+00 -0.74505805969E-08  0.93827000000E+00  0.93827000000E+00 0.  1.
     999902    2    1    2    0    0  0.51931642042E-02 -0.61234515898E-02  0.25337290292E-01  0.10173509877E+01  0.10170037307E+01 0.  0.
     999903    2    3    3    0    0  0.75586173833E-01 -0.71856558882E-01  0.76349976761E-01  0.13062763100E+00  0.18910957122E-01 0.  0.
         14    1    1    2    0    0 -0.51931642042E-02  0.61234515898E-02 -0.25337290292E-01  0.26579012269E-01  0.00000000000E+00 0.  1.
     999901    1    3    3    0    0 -0.70393009628E-01  0.65733107292E-01 -0.51012686468E-01  0.88672335674E+00  0.88000000000E+00 0.  1.
        -11    1    4    4    0    0  0.14311980259E-01 -0.23698565435E-01  0.15362760767E-01  0.31665917356E-01  0.51100000000E-03 0.  1.
         11    1    4    4    0    0  0.61274193573E-01 -0.48157993447E-01  0.60987215994E-01  0.98961713640E-01  0.51100000000E-03 0. -1.
</event>
<event>
 8    1  0.1176534E+005  0.1043930E+01  0.7957747E-01            NaN
         13   -1    0    0    0    0  0.00000000000E+00  0.00000000000E+00  0.74505805969E-08  0.10566000000E+00  0.10566000000E+00 0. -1.
     999900   -1    0    0    0    0 -0.00000000000E+00 -0.00000000000E+00 -0.74505805969E-08  0.93827000000E+00  0.93827000000E+00 0. -1.
     999902    2    1    2    0    0 -0.10425258059E-01  0.19363207142E-02 -0.21329753309E-01  0.10201099723E+01  0.10198318302E+01 0.  0.
     999903    2    3    3    0    0  0.97089268410E-01 -0.80822357337E-01 -0.20875955742E-01  0.12971198368E+00  0.20756052064E-01 0.  0.
         14    1    1    2    0    0  0.10425258059E-01 -0.19363207142E-02  0.21329753309E-01  0.23820027702E-01  0.00000000000E+00 0. -1.
     999901    1    3    3    0    0 -0.10751452647E+00  0.82758678052E-01 -0.45379756730E-03  0.89039798861E+00  0.88000000000E+00 0.  1.
        -11    1    4    4    0    0  0.61647292168E-01 -0.43039397517E-01 -0.42661161090E-02  0.75307630676E-01  0.51100000000E-03 0. -1.
         11    1    4    4    0    0  0.35441976242E-01 -0.37782959820E-01 -0.16609839633E-01  0.54404353009E-01  0.51100000000E-03 0.  1.
</event>
<event>
 8    1  0.1176534E+005  0.1043930E+01  0.7957747E-01            NaN
         13   -1    0    0    0    0  0.00000000000E+00  0.00000000000E+00  0.74505805969E-08  0.10566000000E+00  0.10566000000E+00 0.  1.
     999900   -1    0    0    0    0 -0.00000000000E+00 -0.00000000000E+00 -0.74505805969E-08  0.93827000000E+00  0.93827000000E+00 0.  1.
     999902    2    1    2    0    0 -0.21577469483E-01  0.80623576624E-03  0.11045596966E-01  0.10196762906E+01  0.10193878042E+01 0.  0.
     999903    2    3    3    0    0  0.42954113446E-01  0.11870484299E+00  0.19797737761E-01  0.12942856852E+00  0.20589033905E-01 0.  0.
         14    1    1    2    0    0  0.21577469483E-01 -0.80623576624E-03 -0.11045596966E-01  0.24253709360E-01  0.00000000000E+00 0. -1.
     999901    1    3    3    0    0 -0.64531582929E-01 -0.11789860722E+00 -0.87521407947E-02  0.89024772212E+00  0.88000000000E+00 0. -1.
        -11    1    4    4    0    0  0.19263863665E-01  0.48475319657E-01  0.18338747554E-01  0.55294880794E-01  0.51100000000E-03 0.  1.
         11    1    4    4    0    0  0.23690249781E-01  0.70229523329E-01  0.14589902063E-02  0.74133687721E-01  0.51100000000E-03 0. -1.
</event>
<event>
 8    1  0.1176534E+005  0.1043930E+01  0.7957747E-01            NaN
         13   -1    0    0    0    0  0.00000000000E+00  0.00000000000E+00  0.74505805969E-08  0.10566000000E+00  0.10566000000E+00 0. -1.
     999900   -1    0    0    0    0 -0.00000000000E+00 -0.00000000000E+00 -0.74505805969E-08  0.93827000000E+00  0.93827000000E+00 0.  1.
     999902    2    1    2    0    0  0.54295730161E-03  0.84775932352E-02  0.21969920835E-01  0.10203749196E+01  0.10201030021E+01 0.  0.
     999903    2    3    3    0    0  0.79267762199E-01  0.94807117708E-01  0.42897575028E-01  0.13240625554E+00  0.20480402103E-01 0.  0.
         14    1    1    2    0    0 -0.54295730161E-03 -0.84775932352E-02 -0.21969920835E-01  0.23555080369E-01  0.00000000000E+00 0.  1.
     999901    1    3    3    0    0 -0.78724804897E-01 -0.86329524473E-01 -0.20927654193E-01  0.88796866409E+00  0.88000000000E+00 0.  1.
        -11    1    4    4    0    0  0.60500681470E-01  0.70937161001E-01  0.22774438701E-01  0.95975775321E-01  0.51100000000E-03 0.  1.
         11    1    4    4    0    0  0.18767080728E-01  0.23869956706E-01  0.20123136327E-01  0.36430480217E-01  0.51100000000E-03 0. -1.
</event>
<event>
 8    1  0.1176534E+005  0.1043930E+01  0.7957747E-01            NaN
         13   -1    0    0    0    0  0.00000000000E+00  0.00000000000E+00  0.74505805969E-08  0.10566000000E+00  0.10566000000E+00 0. -1.
     999900   -1    0    0    0    0 -0.00000000000E+00 -0.00000000000E+00 -0.74505805969E-08  0.93827000000E+00  0.93827000000E+00 0.  1.
     999902    2    1    2    0    0  0.16782452179E-01  0.59384862966E-02 -0.13474171492E-01  0.10216035668E+01  0.10213595734E+01 0.  0.
     999903    2    3    3    0    0 -0.32439824095E-02  0.12228303410E-01 -0.13134859492E+00  0.13349602853E+00  0.20215870526E-01 0.  0.
         14    1    1    2    0    0 -0.16782452179E-01 -0.59384862966E-02  0.13474171492E-01  0.22326433169E-01  0.00000000000E+00 0.  1.
     999901    1    3    3    0    0  0.20026434589E-01 -0.62898171137E-02  0.11787442343E+00  0.88810753830E+00  0.88000000000E+00 0. -1.
        -11    1    4    4    0    0 -0.82063054099E-02  0.92579258478E-02 -0.37986338444E-01  0.39953418738E-01  0.51100000000E-03 0.  1.
         11    1    4    4    0    0  0.49623230004E-02  0.29703775625E-02 -0.93362256475E-01  0.93542609796E-01  0.51100000000E-03 0. -1.
</event>
<event>
 8    1  0.1176534E+005  0.1043930E+01  0.7957747E-01            NaN
         13   -1    0    0    0    0  0.00000000000E+00  0.00000000000E+00  0.74505805969E-08  0.10566000000E+00  0.10566000000E+00 0.  1.
     999900   -1    0    0    0    0 -0.00000000000E+00 -0.00000000000E+00 -0.74505805969E-08  0.93827000000E+00  0.93827000000E+00 0.  1.
     999902    2    1    2    0    0  0.12460227436E-01  0.39972856266E-02  0.19259633991E-01  0.10206454759E+01  0.10203798403E+01 0.  0.
     999903    2    3    3    0    0  0.60814501620E-01  0.90337833756E-02 -0.11221072621E+00  0.12955178963E+00  0.20307788406E-01 0.  0.
         14    1    1    2    0    0 -0.12460227436E-01 -0.39972856266E-02 -0.19259633991E-01  0.23284524080E-01  0.00000000000E+00 0. -1.
     999901    1    3    3    0    0 -0.48354274184E-01 -0.50364977490E-02  0.13147036020E+00  0.89109368629E+00  0.88000000000E+00 0. -1.
        -11    1    4    4    0    0  0.44467816582E-01  0.78585512972E-02 -0.61802430998E-01  0.76543746565E-01  0.51100000000E-03 0.  1.
         11    1    4    4    0    0  0.16346685039E-01  0.11752320784E-02 -0.50408295210E-01  0.53008043061E-01  0.51100000000E-03 0. -1.
</event>
<event>
 7    1  0.1176534E+005  0.1043930E+01  0.7957747E-01            NaN
         13   -1    0    0    0    0  0.00000000000E+00  0.00000000000E+00  0.74505805969E-08  0.10566000000E+00  0.10566000000E+00 0. -1.
     999900   -1    0    0    0    0 -0.00000000000E+00 -0.00000000000E+00 -0.74505805969E-08  0.93827000000E+00  0.93827000000E+00 0. -1.
     999903    2    1    2    0    0 -0.36959938662E-01 -0.75741406719E-01  0.78637320311E-01  0.11602062341E+00  0.13196937250E-01 0.  0.
         14    1    1    2    0    0  0.31140766424E-01  0.16475369289E-01  0.19812436867E-01  0.40419274873E-01  0.00000000000E+00 0.  1.
     999901    1    1    2    0    0  0.58191722384E-02  0.59266037431E-01 -0.98449757178E-01  0.88749010172E+00  0.88000000000E+00 0. -1.
        -11    1    3    3    0    0 -0.27689896820E-01 -0.54787641971E-01  0.48950285936E-01  0.78516289475E-01  0.51100000000E-03 0. -1.
         11    1    3    3    0    0 -0.92700418425E-02 -0.20953764749E-01  0.29687034375E-01  0.37504333934E-01  0.51100000000E-03 0.  1.
</event>
<event>
 8    1  0.1176534E+005  0.1043930E+01  0.7957747E-01            NaN
         13   -1    0    0    0    0  0.00000000000E+00  0.00000000000E+00  0.74505805969E-08  0.10566000000E+00  0.10566000000E+00 0. -1.
     999900   -1    0    0    0    0 -0.00000000000E+00 -0.00000000000E+00 -0.74505805969E-08  0.93827000000E+00  0.93827000000E+00 0.  1.
     999902    2    1    2    0    0  0.18518115832E-01 -0.60007391442E-03  0.14869499641E-01  0.10201732594E+01  0.10198966107E+01 0.  0.
     999903    2    3    3    0    0  0.10802708318E+00 -0.73662754614E-01  0.90353584558E-02  0.13260126362E+00  0.20134678907E-01 0.  0.
         14    1    1    2    0    0 -0.18518115832E-01  0.60007391442E-03 -0.14869499641E-01  0.23756740565E-01  0.00000000000E+00 0.  1.
     999901    1    3    3    0    0 -0.89508967346E-01  0.73062680700E-01  0.58341411849E-02  0.88757199581E+00  0.88000000000E+00 0. -1.
        -11    1    4    4    0    0  0.68757269170E-01 -0.45263658797E-01  0.15308786815E-01  0.83731600642E-01  0.51100000000E-03 0. -1.
         11    1    4    4    0    0  0.39269814008E-01 -0.28399095818E-01 -0.62734283590E-02  0.48869662981E-01  0.51100000000E-03 0.  1.
</event>
<event>
 8    1  0.1176534E+005  0.1043930E+01  0.7957747E-01            NaN
         13   -1    0    0    0    0  0.00000000000E+00  0.00000000000E+00  0.74505805969E-08  0.10566000000E+00  0.10566000000E+00 0. -1.
     999900   -1    0    0    0    0 -0.00000000000E+00 -0.00000000000E+00 -0.74505805969E-08  0.93827000000E+00  0.93827000000E+00 0.  1.
     999902    2    1    2    0    0  0.32832241435E-02  0.19452528393E-01  0.13356039576E-01  0.10201063937E+01  0.10198281671E+01 0.  0.
     999903    2    3    3    0    0 -0.43507097392E-02 -0.10872731439E+00 -0.63420242764E-01  0.12747940190E+00  0.19705662835E-01 0.  0.
         14    1    1    2    0    0 -0.32832241435E-02 -0.19452528393E-01 -0.13356039576E-01  0.23823606251E-01  0.00000000000E+00 0. -1.
     999901    1    3    3    0    0  0.76339338827E-02  0.12817984278E+00  0.76776282340E-01  0.89262699185E+00  0.88000000000E+00 0. -1.
        -11    1    4    4    0    0 -0.98915316584E-02 -0.47772643364E-01 -0.21647774764E-01  0.53375604219E-01  0.51100000000E-03 0. -1.
         11    1    4    4    0    0  0.55408219192E-02 -0.60954671026E-01 -0.41772468000E-01  0.74103797684E-01  0.51100000000E-03 0.  1.
</event>
<event>
 8    1  0.1176534E+005  0.1043930E+01  0.7957747E-01            NaN
         13   -1    0    0    0    0  0.00000000000E+00  0.00000000000E+00  0.74505805969E-08  0.10566000000E+00  0.10566000000E+00 0. -1.
     999900   -1    0    0    0    0 -0.00000000000E+00 -0.00000000000E+00 -0.74505805969E-08  0.93827000000E+00  0.93827000000E+00 0.  1.
     999902    2    1    2    0    0  0.11326384528E-01 -0.65321440955E-02 -0.20082209548E-01  0.10199664645E+01  0.10196849208E+01 0.  0.
     999903    2    3    3    0    0  0.11140800772E+00  0.65278310801E-01 -0.13792025717E-01  0.13136495700E+00  0.19837588303E-01 0.  0.
         14    1    1    2    0    0 -0.11326384528E-01  0.65321440955E-02  0.20082209548E-01  0.23963535492E-01  0.00000000000E+00 0. -1.
     999901    1    3    3    0    0 -0.10008162319E+00 -0.71810454897E-01 -0.62901838305E-02  0.88860150751E+00  0.88000000000E+00 0. -1.
        -11    1    4    4    0    0  0.69806375899E-01  0.49670806381E-01 -0.34717585075E-02  0.85746331413E-01  0.51100000000E-03 0. -1.
         11    1    4    4    0    0  0.41601631818E-01  0.15607504420E-01 -0.10320267210E-01  0.45618625587E-01  0.51100000000E-03 0.  1.
</event>
<event>
 8    1  0.1176534E+005  0.1043930E+01  0.7957747E-01            NaN
         13   -1    0    0    0    0  0.00000000000E+00  0.00000000000E+00  0.74505805969E-08  0.10566000000E+00  0.10566000000E+00 0.  1.
     999900   -1    0    0    0    0 -0.00000000000E+00 -0.00000000000E+00 -0.74505805969E-08  0.93827000000E+00  0.93827000000E+00 0. -1.
     999902    2    1    2    0    0  0.98432831006E-02 -0.18945441855E-01 -0.12496347087E-01  0.10191917972E+01  0.10188915255E+01 0.  0.
     999903    2    3    3    0    0 -0.51516133644E-01 -0.35749340049E-01 -0.11440493085E+00  0.13102925097E+00  0.12175757358E-01 0.  0.
         14    1    1    2    0    0 -0.98432831006E-02  0.18945441855E-01  0.12496347087E-01  0.24738202841E-01  0.00000000000E+00 0.  1.
     999901    1    3    3    0    0  0.61359416745E-01  0.16803898193E-01  0.10190858376E+00  0.88816254619E+00  0.88000000000E+00 0. -1.
        -11    1    4    4    0    0 -0.66459032714E-02 -0.64875373259E-02 -0.98413149178E-02  0.13541372573E-01  0.51100000000E-03 0.  1.
         11    1    4    4    0    0 -0.44870230373E-01 -0.29261802723E-01 -0.10456361593E+00  0.11748787839E+00  0.51100000000E-03 0. -1.
</event>
<event>
 8    1  0.1176534E+005  0.1043930E+01  0.7957747E-01            NaN
         13   -1    0    0    0    0  0.00000000000E+00  0.00000000000E+00  0.74505805969E-08  0.10566000000E+00  0.10566000000E+00 0.  1.
     999900   -1    0    0    0    0 -0.00000000000E+00 -0.00000000000E+00 -0.74505805969E-08  0.93827000000E+00  0.93827000000E+00 0.  1.
     999902    2    1    2    0    0  0.18067207218E-01 -0.66400960943E-02  0.13549534241E-01  0.10203905707E+01  0.10201190186E+01 0.  0.
     999903    2    3    3    0    0  0.79514179794E-01 -0.50303134110E-01 -0.88997543597E-01  0.13123473820E+00  0.21191593950E-01 0.  0.
         14    1    1    2    0    0 -0.18067207218E-01  0.66400960943E-02 -0.13549534241E-01  0.23539429283E-01  0.00000000000E+00 0. -1.
     999901    1    3    3    0    0 -0.61446972576E-01  0.43663038016E-01  0.10254707784E+00  0.88915583252E+00  0.88000000000E+00 0.  1.
        -11    1    4    4    0    0  0.54255328790E-01 -0.40354303290E-01 -0.51792224025E-01  0.85175149466E-01  0.51100000000E-03 0. -1.
         11    1    4    4    0    0  0.25258851004E-01 -0.99488308200E-02 -0.37205319573E-01  0.46059588733E-01  0.51100000000E-03 0.  1.
</event>
<event>
 8    1  0.1176534E+005  0.1043930E+01  0.7957747E-01            NaN
         13   -1    0    0    0    0  0.00000000000E+00  0.00000000000E+00  0.74505805969E-08  0.10566000000E+00  0.10566000000E+00 0.  1.
     999900   -1    0    0    0    0 -0.00000000000E+00 -0.00000000000E+00 -0.74505805969E-08  0.93827000000E+00  0.93827000000E+00 0.  1.
     999902    2    1    2    0    0  0.18096137465E-01  0.90474977652E-02  0.12441212473E-01  0.10201789753E+01  0.10199024612E+01 0.  0.
     999903    2    3    3    0    0  0.71761130486E-01  0.42085622013E-01 -0.99251639827E-01  0.13088333132E+00  0.18939350043E-01 0.  0.
         14    1    1    2    0    0 -0.18096137465E-01 -0.90474977652E-02 -0.12441212473E-01  0.23751024710E-01  0.00000000000E+00 0. -1.
     999901    1    3    3    0    0 -0.53664993022E-01 -0.33038124247E-01  0.11169285230E+00  0.88929564397E+00  0.88000000000E+00 0. -1.
        -11    1    4    4    0    0  0.49340691900E-01  0.26872262220E-01 -0.52784955524E-01  0.77091731104E-01  0.51100000000E-03 0.  1.
         11    1    4    4    0    0  0.22420438586E-01  0.15213359793E-01 -0.46466684304E-01  0.53791600216E-01  0.51100000000E-03 0. -1.
</event>
<event>
 8    1  0.1176534E+005  0.1043930E+01  0.7957747E-01            NaN
         13   -1    0    0    0    0  0.00000000000E+00  0.00000000000E+00  0.74505805969E-08  0.10566000000E+00  0.10566000000E+00 0.  1.
     999900   -1    0    0    0    0 -0.00000000000E+00 -0.00000000000E+00 -0.74505805969E-08  0.93827000000E+00  0.93827000000E+00 0. -1.
     999902    2    1    2    0    0 -0.22177815731E-01 -0.35891974141E-02  0.47789457037E-02  0.10209609737E+01  0.10207025686E+01 0.  0.
     999903    2    3    3    0    0  0.21072049625E-01  0.84512601900E-01 -0.94477628896E-01  0.12995909628E+00  0.19414767322E-01 0.  0.
         14    1    1    2    0    0  0.22177815731E-01  0.35891974141E-02 -0.47789457037E-02  0.22969026334E-01  0.00000000000E+00 0. -1.
     999901    1    3    3    0    0 -0.43249865356E-01 -0.88101799314E-01  0.99256574600E-01  0.89100187738E+00  0.88000000000E+00 0.  1.
        -11    1    4    4    0    0  0.26547799972E-02 -0.31696258827E-04 -0.26251470153E-02  0.37684717510E-02  0.51100000000E-03 0. -1.
         11    1    4    4    0    0  0.18417269627E-01  0.84544298158E-01 -0.91852481881E-01  0.12619062453E+00  0.51100000000E-03 0.  1.
</event>
<event>
 8    1  0.1176534E+005  0.1043930E+01  0.7957747E-01            NaN
         13   -1    0    0    0    0  0.00000000000E+00  0.00000000000E+00  0.74505805969E-08  0.10566000000E+00  0.10566000000E+00 0.  1.
     999900   -1    0    0    0    0 -0.00000000000E+00 -0.00000000000E+00 -0.74505805969E-08  0.93827000000E+00  0.93827000000E+00 0.  1.
     999902    2    1    2    0    0 -0.50154262331E-02 -0.12020279628E-01  0.20026790221E-01  0.10200403799E+01  0.10197605908E+01 0.  0.
     999903    2    3    3    0    0  0.57118438641E-01 -0.41314156503E-01  0.11074403843E+00  0.13271385176E+00  0.19476879682E-01 0.  0.
         14    1    1    2    0    0  0.50154262331E-02  0.12020279628E-01 -0.20026790221E-01  0.23889620114E-01  0.00000000000E+00 0. -1.
     999901    1    3    3    0    0 -0.62133864874E-01  0.29293876875E-01 -0.90717248209E-01  0.88732652812E+00  0.88000000000E+00 0.  1.
        -11    1    4    4    0    0  0.12297131623E-01 -0.13233464828E-01  0.43896201598E-01  0.47470850774E-01  0.51100000000E-03 0. -1.
         11    1    4    4    0    0  0.44821307018E-01 -0.28080691674E-01  0.66847836832E-01  0.85243000990E-01  0.51100000000E-03 0.  1.
</event>
<event>
 8    1  0.1176534E+005  0.1043930E+01  0.7957747E-01            NaN
         13   -1    0    0    0    0  0.00000000000E+00  0.00000000000E+00  0.74505805969E-08  0.10566000000E+00  0.10566000000E+00 0. -1.
     999900   -1    0    0    0    0 -0.00000000000E+00 -0.00000000000E+00 -0.74505805969E-08  0.93827000000E+00  0.93827000000E+00 0.  1.
     999902    2    1    2    0    0  0.56593694508E-04  0.12103563694E-01 -0.19736219645E-01  0.10207779413E+01  0.10205153539E+01 0.  0.
     999903    2    3    3    0    0 -0.12247918080E-01 -0.79487012362E-01  0.97628344062E-01  0.12818919194E+00  0.20808141089E-01 0.  0.
         14    1    1    2    0    0 -0.56593694508E-04 -0.12103563694E-01  0.19736219645E-01  0.23152058717E-01  0.00000000000E+00 0. -1.
     999901    1    3    3    0    0  0.12304511775E-01  0.91590576056E-01 -0.11736456371E+00  0.89258874934E+00  0.88000000000E+00 0.  1.
        -11    1    4    4    0    0 -0.91465099225E-02 -0.70628809456E-01  0.73739026317E-01  0.10251727899E+00  0.51100000000E-03 0.  1.
         11    1    4    4    0    0 -0.31014081580E-02 -0.88582029065E-02  0.23889317745E-01  0.25671912952E-01  0.51100000000E-03 0. -1.
</event>
<event>
 8    1  0.1176534E+005  0.1043930E+01  0.7957747E-01            NaN
         13   -1    0    0    0    0  0.00000000000E+00  0.00000000000E+00  0.74505805969E-08  0.10566000000E+00  0.10566000000E+00 0.  1.
     999900   -1    0    0    0    0 -0.00000000000E+00 -0.00000000000E+00 -0.74505805969E-08  0.93827000000E+00  0.93827000000E+00 0. -1.
     999902    2    1    2    0    0  0.60695797467E-02  0.56500551486E-02 -0.22124864050E-01  0.10203022085E+01  0.10200285899E+01 0.  0.
     999903    2    3    3    0    0  0.12535972733E+00 -0.18913148597E-01 -0.29054891962E-01  0.13188703778E+00  0.21845721831E-01 0.  0.
         14    1    1    2    0    0 -0.60695797467E-02 -0.56500551486E-02  0.22124864050E-01  0.23627791491E-01  0.00000000000E+00 0.  1.
     999901    1    3    3    0    0 -0.11929014758E+00  0.24563203745E-01  0.69300279119E-02  0.88841517073E+00  0.88000000000E+00 0.  1.
        -11    1    4    4    0    0  0.72134222724E-01 -0.44733554729E-02 -0.74616960137E-02  0.72658757391E-01  0.51100000000E-03 0.  1.
         11    1    4    4    0    0  0.53225504606E-01 -0.14439793124E-01 -0.21593195948E-01  0.59228280392E-01  0.51100000000E-03 0. -1.
</event>
<event>
 8    1  0.1176534E+005  0.1043930E+01  0.7957747E-01            NaN
         13   -1    0    0    0    0  0.00000000000E+00  0.00000000000E+00  0.74505805969E-08  0.10566000000E+00  0.10566000000E+00 0. -1.
     999900   -1    0    0    0    0 -0.00000000000E+00 -0.00000000000E+00 -0.74505805969E-08  0.93827000000E+00  0.93827000000E+00 0. -1.
     999902    2    1    2    0    0 -0.25039977244E-01 -0.25406911960E-02  0.62492772552E-02  0.10179972208E+01  0.10176668573E+01 0.  0.
     999903    2    3    3    0    0 -0.12323255733E+00 -0.42130473717E-01  0.11123986537E-02  0.13163639065E+00  0.19122288305E-01 0.  0.
         14    1    1    2    0    0  0.25039977244E-01  0.25406911960E-02 -0.62492772552E-02  0.25932779226E-01  0.00000000000E+00 0.  1.
     999901    1    3    3    0    0  0.98192580085E-01  0.39589782521E-01  0.51368786015E-02  0.88636083013E+00  0.88000000000E+00 0. -1.
        -11    1    4    4    0    0 -0.57664660013E-01 -0.99429031389E-02  0.26234398417E-02  0.58576598525E-01  0.51100000000E-03 0. -1.
         11    1    4    4    0    0 -0.65567897317E-01 -0.32187570578E-01 -0.15110411880E-02  0.73059792121E-01  0.51100000000E-03 0.  1.
</event>
<event>
 8    1  0.1176534E+005  0.1043930E+01  0.7957747E-01            NaN
         13   -1    0    0    0    0  0.00000000000E+00  0.00000000000E+00  0.74505805969E-08  0.10566000000E+00  0.10566000000E+00 0.  1.
     999900   -1    0    0    0    0 -0.00000000000E+00 -0.00000000000E+00 -0.74505805969E-08  0.93827000000E+00  0.93827000000E+00 0.  1.
     999902    2    1    2    0    0  0.18858412637E-01 -0.13804920834E-01  0.71810924785E-02  0.10194803854E+01  0.10191871626E+01 0.  0.
     999903    2    3    3    0    0 -0.21840410675E-01 -0.11978837016E+00  0.45043831017E-01  0.13137989966E+00  0.20136388918E-01 0.  0.
         14    1    1    2    0    0 -0.18858412637E-01  0.13804920834E-01 -0.71810924785E-02  0.24449614631E-01  0.00000000000E+00 0. -1.
     999901    1    3    3    0    0  0.40698823312E-01  0.10598344932E+00 -0.37862738539E-01  0.88810048571E+00  0.88000000000E+00 0.  1.
        -11    1    4    4    0    0 -0.11355388049E-01 -0.60504952545E-01  0.33464351851E-01  0.70070807659E-01  0.51100000000E-03 0.  1.
         11    1    4    4    0    0 -0.10485022626E-01 -0.59283417610E-01  0.11579479166E-01  0.61309091999E-01  0.51100000000E-03 0. -1.
</event>
<event>
 8    1  0.1176534E+005  0.1043930E+01  0.7957747E-01            NaN
         13   -1    0    0    0    0  0.00000000000E+00  0.00000000000E+00  0.74505805969E-08  0.10566000000E+00  0.10566000000E+00 0.  1.
     999900   -1    0    0    0    0 -0.00000000000E+00 -0.00000000000E+00 -0.74505805969E-08  0.93827000000E+00  0.93827000000E+00 0. -1.
     999902    2    1    2    0    0  0.14753878064E-01 -0.13208451449E-01  0.12424013726E-01  0.10205527413E+01  0.10202849609E+01 0.  0.
     999903    2    3    3    0    0  0.76515692322E-01  0.44947340366E-01 -0.93128834809E-01  0.13019437431E+00  0.20066904390E-01 0.  0.
         14    1    1    2    0    0 -0.14753878064E-01  0.13208451449E-01 -0.12424013726E-01  0.23377258707E-01  0.00000000000E+00 0. -1.
     999901    1    3    3    0    0 -0.61761814258E-01 -0.58155791814E-01  0.10555284853E+00  0.89035836698E+00  0.88000000000E+00 0.  1.
        -11    1    4    4    0    0  0.53607704643E-01  0.23082790476E-01 -0.51157890681E-01  0.77614380840E-01  0.51100000000E-03 0. -1.
         11    1    4    4    0    0  0.22907987679E-01  0.21864549890E-01 -0.41970944128E-01  0.52579993470E-01  0.51100000000E-03 0.  1.
</event>
<event>
 8    1  0.1176534E+005  0.1043930E+01  0.7957747E-01            NaN
         13   -1    0    0    0    0  0.00000000000E+00  0.00000000000E+00  0.74505805969E-08  0.10566000000E+00  0.10566000000E+00 0.  1.
     999900   -1    0    0    0    0 -0.00000000000E+00 -0.00000000000E+00 -0.74505805969E-08  0.93827000000E+00  0.93827000000E+00 0. -1.
     999902    2    1    2    0    0  0.18683005617E-01 -0.13006869014E-02  0.13783981051E-01  0.10206760838E+01  0.10204111541E+01 0.  0.
     999903    2    3    3    0    0 -0.11220005685E+00  0.30224099685E-01 -0.50167314798E-01  0.12814375583E+00  0.20042797346E-01 0.  0.
         14    1    1    2    0    0 -0.18683005617E-01  0.13006869014E-02 -0.13783981051E-01  0.23253916206E-01  0.00000000000E+00 0. -1.
     999901    1    3    3    0    0  0.13088306247E+00 -0.31524786586E-01  0.63951295849E-01  0.89253232796E+00  0.88000000000E+00 0.  1.
        -11    1    4    4    0    0 -0.94718827399E-01  0.31904590008E-01 -0.38789655969E-01  0.10721220853E+00  0.51100000000E-03 0.  1.
         11    1    4    4    0    0 -0.17481229456E-01 -0.16804903227E-02 -0.11377658829E-01  0.20931547302E-01  0.51100000000E-03 0. -1.
</event>
<event>
 8    1  0.1176534E+005  0.1043930E+01  0.7957747E-01            NaN
         13   -1    0    0    0    0  0.00000000000E+00  0.00000000000E+00  0.74505805969E-08  0.10566000000E+00  0.10566000000E+00 0. -1.
     999900   -1    0    0    0    0 -0.00000000000E+00 -0.00000000000E+00 -0.74505805969E-08  0.93827000000E+00  0.93827000000E+00 0.  1.
     999902    2    1    2    0    0 -0.29068642781E-02 -0.14325340898E-02 -0.23119969665E-01  0.10205840151E+01  0.10203169590E+01 0.  0.
     999903    2    3    3    0    0 -0.85249097130E-01  0.78507103212E-01 -0.60507255764E-01  0.13234508435E+00  0.20574730525E-01 0.  0.
         14    1    1    2    0    0  0.29068642781E-02  0.14325340898E-02  0.23119969665E-01  0.23345984905E-01  0.00000000000E+00 0. -1.
     999901    1    3    3    0    0  0.82342232852E-01 -0.79939637302E-01  0.37387286099E-01  0.88823893074E+00  0.88000000000E+00 0. -1.
        -11    1    4    4    0    0 -0.43205414788E-01  0.52863195432E-01 -0.38731756184E-01  0.78496084975E-01  0.51100000000E-03 0. -1.
         11    1    4    4    0    0 -0.42043682342E-01  0.25643907781E-01 -0.21775499580E-01  0.53848999379E-01  0.51100000000E-03 0.  1.
</event>
<event>
 8    1  0.1176534E+005  0.1043930E+01  0.7957747E-01            NaN
         13   -1    0    0    0    0  0.00000000000E+00  0.00000000000E+00  0.74505805969E-08  0.10566000000E+00  0.10566000000E+00 0. -1.
     999900   -1    0    0    0    0 -0.00000000000E+00 -0.00000000000E+00 -0.74505805969E-08  0.93827000000E+00  0.93827000000E+00 0. -1.
     999902    2    1    2    0    0  0.93042677895E-02  0.18254094888E-01 -0.12783854870E-01  0.10197802935E+01  0.10194943054E+01 0.  0.
     999903    2    3    3    0    0  0.45095812327E-01 -0.99255078125E-02  0.11856713899E+00  0.12886603933E+00  0.20399550245E-01 0.  0.
         14    1    1    2    0    0 -0.93042677895E-02 -0.18254094888E-01  0.12783854870E-01  0.24149706512E-01  0.00000000000E+00 0. -1.
     999901    1    3    3    0    0 -0.35791544538E-01  0.28179602701E-01 -0.13135099386E+00  0.89091425416E+00  0.88000000000E+00 0. -1.
        -11    1    4    4    0    0  0.99764546882E-02 -0.11515212220E-01  0.32659074892E-01  0.36041726574E-01  0.51100000000E-03 0.  1.
         11    1    4    4    0    0  0.35119357639E-01  0.15897044075E-02  0.85908064098E-01  0.92824312759E-01  0.51100000000E-03 0. -1.
</event>
<event>
 8    1  0.1176534E+005  0.1043930E+01  0.7957747E-01            NaN
         13   -1    0    0    0    0  0.00000000000E+00  0.00000000000E+00  0.74505805969E-08  0.10566000000E+00  0.10566000000E+00 0.  1.
     999900   -1    0    0    0    0 -0.00000000000E+00 -0.00000000000E+00 -0.74505805969E-08  0.93827000000E+00  0.93827000000E+00 0.  1.
     999902    2    1    2    0    0 -0.23285657769E-01 -0.20732608271E-02  0.39757155980E-02  0.10202165738E+01  0.10199409448E+01 0.  0.
     999903    2    3    3    0    0  0.75018105427E-01  0.45700587397E-02  0.10252729757E+00  0.12925070583E+00  0.23351587360E-01 0.  0.
         14    1    1    2    0    0  0.23285657769E-01  0.20732608271E-02 -0.39757155980E-02  0.23713426212E-01  0.00000000000E+00 0.  1.
     999901    1    3    3    0    0 -0.98303763196E-01 -0.66433195669E-02 -0.98551581973E-01  0.89096586796E+00  0.88000000000E+00 0.  1.
        -11    1    4    4    0    0  0.65352899198E-01  0.12001113216E-01  0.84883917821E-01  0.10779874200E+00  0.51100000000E-03 0. -1.
         11    1    4    4    0    0  0.96652062286E-02 -0.74310544767E-02  0.17643379750E-01  0.21451963828E-01  0.51100000000E-03 0.  1.
</event>
<event>
 8    1  0.1176534E+005  0.1043930E+01  0.7957747E-01            NaN
         13   -1    0    0    0    0  0.00000000000E+00  0.00000000000E+00  0.74505805969E-08  0.10566000000E+00  0.10566000000E+00 0. -1.
     999900   -1    0    0    0    0 -0.00000000000E+00 -0.00000000000E+00 -0.74505805969E-08  0.93827000000E+00  0.93827000000E+00 0. -1.
     999902    2    1    2    0    0  0.16991118658E-01  0.56832469126E-02 -0.15473023886E-01  0.10202569800E+01  0.10199823005E+01 0.  0.
     999903    2    3    3    0    0 -0.83705895240E-01 -0.94537237318E-01  0.12552404992E-01  0.12842209687E+00  0.19766283303E-01 0.  0.
         14    1    1    2    0    0 -0.16991118658E-01 -0.56832469126E-02  0.15473023886E-01  0.23673020021E-01  0.00000000000E+00 0. -1.
     999901    1    3    3    0    0  0.10069701390E+00  0.10022048423E+00 -0.28025428878E-01  0.89183488311E+00  0.88000000000E+00 0. -1.
        -11    1    4    4    0    0 -0.32844442943E-01 -0.40453827923E-01 -0.43054973955E-02  0.52288316617E-01  0.51100000000E-03 0. -1.
         11    1    4    4    0    0 -0.50861452297E-01 -0.54083409395E-01  0.16857902388E-01  0.76133780252E-01  0.51100000000E-03 0.  1.
</event>
<event>
 8    1  0.1176534E+005  0.1043930E+01  0.7957747E-01            NaN
         13   -1    0    0    0    0  0.00000000000E+00  0.00000000000E+00  0.74505805969E-08  0.10566000000E+00  0.10566000000E+00 0.  1.
     999900   -1    0    0    0    0 -0.00000000000E+00 -0.00000000000E+00 -0.74505805969E-08  0.93827000000E+00  0.93827000000E+00 0.  1.
     999902    2    1    2    0    0 -0.94763934262E-02  0.20480034280E-01 -0.63705755103E-02  0.10204818003E+01  0.10202123733E+01 0.  0.
     999903    2    3    3    0    0 -0.35016541303E-01  0.11302223371E+00 -0.59276026637E-01  0.13368117751E+00  0.18889849420E-01 0.  0.
         14    1    1    2    0    0  0.94763934262E-02 -0.20480034280E-01  0.63705755103E-02  0.23448199693E-01  0.00000000000E+00 0.  1.
     999901    1    3    3    0    0  0.25540147877E-01 -0.92542199425E-01  0.52905451126E-01  0.88680062279E+00  0.88000000000E+00 0.  1.
        -11    1    4    4    0    0 -0.17077435240E-01  0.48274871561E-01 -0.15552641192E-01  0.53518667656E-01  0.51100000000E-03 0.  1.
         11    1    4    4    0    0 -0.17939106063E-01  0.64747362145E-01 -0.43723385445E-01  0.80162509858E-01  0.51100000000E-03 0. -1.
</event>
<event>
 8    1  0.1176534E+005  0.1043930E+01  0.7957747E-01            NaN
         13   -1    0    0    0    0  0.00000000000E+00  0.00000000000E+00  0.74505805969E-08  0.10566000000E+00  0.10566000000E+00 0. -1.
     999900   -1    0    0    0    0 -0.00000000000E+00 -0.00000000000E+00 -0.74505805969E-08  0.93827000000E+00  0.93827000000E+00 0. -1.
     999902    2    1    2    0    0  0.42391760321E-02  0.23643053536E-01  0.12267422522E-02  0.10198786073E+01  0.10195949706E+01 0.  0.
     999903    2    3    3    0    0 -0.28216650721E-01 -0.10410280481E+00 -0.65202797594E-01  0.12758646413E+00  0.19832490172E-01 0.  0.
         14    1    1    2    0    0 -0.42391760321E-02 -0.23643053536E-01 -0.12267422522E-02  0.24051392693E-01  0.00000000000E+00 0.  1.
     999901    1    3    3    0    0  0.32455826753E-01  0.12774585835E+00  0.66429539847E-01  0.89229214318E+00  0.88000000000E+00 0.  1.
        -11    1    4    4    0    0 -0.13118703684E-01 -0.69264675904E-01 -0.33188621716E-01  0.77919454868E-01  0.51100000000E-03 0.  1.
         11    1    4    4    0    0 -0.15097947037E-01 -0.34838128909E-01 -0.32014175879E-01  0.49667009260E-01  0.51100000000E-03 0. -1.
</event>
<event>
 8    1  0.1176534E+005  0.1043930E+01  0.7957747E-01            NaN
         13   -1    0    0    0    0  0.00000000000E+00  0.00000000000E+00  0.74505805969E-08  0.10566000000E+00  0.10566000000E+00 0.  1.
     999900   -1    0    0    0    0 -0.00000000000E+00 -0.00000000000E+00 -0.74505805969E-08  0.93827000000E+00  0.93827000000E+00 0.  1.
     999902    2    1    2    0    0 -0.64268038869E-02  0.10018814480E-01 -0.21237825670E-01  0.10195840416E+01  0.10192933298E+01 0.  0.
     999903    2    3    3    0    0  0.31808059813E-01 -0.83757454220E-01  0.87726956161E-01  0.12709918622E+00  0.20763441314E-01 0.  0.
         14    1    1    2    0    0  0.64268038869E-02 -0.10018814480E-01  0.21237825670E-01  0.24345958412E-01  0.00000000000E+00 0.  1.
     999901    1    3    3    0    0 -0.38234863700E-01  0.93776268700E-01 -0.10896478183E+00  0.89248485536E+00  0.88000000000E+00 0.  1.
        -11    1    4    4    0    0  0.29751630981E-01 -0.52960278528E-01  0.52810517936E-01  0.80493245514E-01  0.51100000000E-03 0. -1.
         11    1    4    4    0    0  0.20564288320E-02 -0.30797175692E-01  0.34916438225E-01  0.46605940710E-01  0.51100000000E-03 0.  1.
</event>
<event>
 7    1  0.1237718E+005  0.1043930E+01  0.7957747E-01            NaN
         13   -1    0    0    0    0  0.00000000000E+00  0.00000000000E+00  0.74505805969E-08  0.10566000000E+00  0.10566000000E+00 0. -1.
     999900   -1    0    0    0    0 -0.00000000000E+00 -0.00000000000E+00 -0.74505805969E-08  0.93827000000E+00  0.93827000000E+00 0.  1.
     999903    2    1    2    0    0  0.81635048369E-01  0.61999108188E-01  0.10403437229E-01  0.10488124627E+00  0.19587592373E-01 0.  0.
         14    1    1    2    0    0  0.10856500187E-01  0.46286451385E-01 -0.49953896068E-03  0.47545228123E-01  0.00000000000E+00 0.  1.
     999901    1    1    2    0    0 -0.92491548556E-01 -0.10828555957E+00 -0.99038982679E-02  0.89150352561E+00  0.88000000000E+00 0. -1.
        -11    1    3    3    0    0  0.34277727747E-01  0.15612274603E-01  0.82035377880E-02  0.38552106181E-01  0.51100000000E-03 0. -1.
         11    1    3    3    0    0  0.47357320622E-01  0.46386833585E-01  0.21998994406E-02  0.66329140090E-01  0.51100000000E-03 0.  1.
</event>
<event>
 8    1  0.1176534E+005  0.1043930E+01  0.7957747E-01            NaN
         13   -1    0    0    0    0  0.00000000000E+00  0.00000000000E+00  0.74505805969E-08  0.10566000000E+00  0.10566000000E+00 0.  1.
     999900   -1    0    0    0    0 -0.00000000000E+00 -0.00000000000E+00 -0.74505805969E-08  0.93827000000E+00  0.93827000000E+00 0.  1.
     999902    2    1    2    0    0  0.84652762459E-02  0.20424807328E-01  0.76435032379E-02  0.10205364796E+01  0.10202683222E+01 0.  0.
     999903    2    3    3    0    0 -0.76619306541E-01  0.10220689976E+00 -0.27436635273E-01  0.13196554093E+00  0.18584040052E-01 0.  0.
         14    1    1    2    0    0 -0.84652762459E-02 -0.20424807328E-01 -0.76435032379E-02  0.23393520429E-01  0.00000000000E+00 0.  1.
     999901    1    3    3    0    0  0.85084582787E-01 -0.81782092437E-01  0.35080138511E-01  0.88857093864E+00  0.88000000000E+00 0. -1.
        -11    1    4    4    0    0 -0.62146707692E-01  0.71692738351E-01 -0.24904115255E-01  0.98094536478E-01  0.51100000000E-03 0.  1.
         11    1    4    4    0    0 -0.14472598849E-01  0.30514161414E-01 -0.25325200176E-02  0.33871004457E-01  0.51100000000E-03 0. -1.
</event>
<event>
 7    1  0.1176534E+005  0.1043930E+01  0.7957747E-01            NaN
         13   -1    0    0    0    0  0.00000000000E+00  0.00000000000E+00  0.74505805969E-08  0.10566000000E+00  0.10566000000E+00 0. -1.
     999900   -1    0    0    0    0 -0.00000000000E+00 -0.00000000000E+00 -0.74505805969E-08  0.93827000000E+00  0.93827000000E+00 0. -1.
     999903    2    1    2    0    0  0.92956367706E-01 -0.32833161816E-02 -0.21891051439E-02  0.95127092172E-01  0.19816786357E-01 0.  0.
         14    1    1    2    0    0 -0.45101379287E-01 -0.13037615654E-01 -0.46406902393E-01  0.66012986792E-01  0.00000000000E+00 0.  1.
     999901    1    1    2    0    0 -0.47854988419E-01  0.16320931836E-01  0.48596007537E-01  0.88278992104E+00  0.88000000000E+00 0.  1.
        -11    1    3    3    0    0  0.41416209840E-01 -0.11059951305E-01  0.12386227851E-02  0.42888463108E-01  0.51100000000E-03 0. -1.
         11    1    3    3    0    0  0.51540157867E-01  0.77766351236E-02 -0.34277279290E-02  0.52238629064E-01  0.51100000000E-03 0.  1.
</event>
<event>
 7    1  0.1176534E+005  0.1043930E+01  0.7957747E-01            NaN
         13   -1    0    0    0    0  0.00000000000E+00  0.00000000000E+00  0.74505805969E-08  0.10566000000E+00  0.10566000000E+00 0. -1.
     999900   -1    0    0    0    0 -0.00000000000E+00 -0.00000000000E+00 -0.74505805969E-08  0.93827000000E+00  0.93827000000E+00 0. -1.
     999903    2    1    2    0    0 -0.59316960775E-01  0.31073095079E-01  0.29479524472E-01  0.76367271227E-01  0.21883296787E-01 0.  0.
         14    1    1    2    0    0 -0.30704935854E-01 -0.47994550220E-01  0.54483187729E-01  0.78833290441E-01  0.00000000000E+00 0. -1.
     999901    1    1    2    0    0  0.90021896629E-01  0.16921455141E-01 -0.83962712201E-01  0.88872943833E+00  0.88000000000E+00 0.  1.
        -11    1    3    3    0    0 -0.96530879088E-02  0.76893822019E-02 -0.28259923211E-02  0.12671071715E-01  0.51100000000E-03 0. -1.
         11    1    3    3    0    0 -0.49663872866E-01  0.23383712877E-01  0.32305516793E-01  0.63696199512E-01  0.51100000000E-03 0.  1.
</event>
<event>
 8    1  0.1176534E+005  0.1043930E+01  0.7957747E-01            NaN
         13   -1    0    0    0    0  0.00000000000E+00  0.00000000000E+00  0.74505805969E-08  0.10566000000E+00  0.10566000000E+00 0. -1.
     999900   -1    0    0    0    0 -0.00000000000E+00 -0.00000000000E+00 -0.74505805969E-08  0.93827000000E+00  0.93827000000E+00 0.  1.
     999902    2    1    2    0    0 -0.84640770345E-02  0.29958752378E-02 -0.22370640078E-01  0.10198247847E+01  0.10195398619E+01 0.  0.
     999903    2    3    3    0    0  0.48613660831E-01  0.10476190360E+00  0.53594930126E-01  0.12887868050E+00  0.19973815002E-01 0.  0.
         14    1    1    2    0    0  0.84640770345E-02 -0.29958752378E-02  0.22370640078E-01  0.24105215327E-01  0.00000000000E+00 0. -1.
     999901    1    3    3    0    0 -0.57077737866E-01 -0.10176602836E+00 -0.75965570204E-01  0.89094610418E+00  0.88000000000E+00 0.  1.
        -11    1    4    4    0    0  0.95468323515E-02  0.74021762915E-02  0.79603775328E-02  0.14476289347E-01  0.51100000000E-03 0. -1.
         11    1    4    4    0    0  0.39066828480E-01  0.97359727311E-01  0.45634552594E-01  0.11440239115E+00  0.51100000000E-03 0.  1.
</event>
