<event>
 8    1  0.1065239E+005  0.1043930E+01  0.7957747E-01            NaN
         13   -1    0    0    0    0  0.00000000000E+00  0.00000000000E+00  0.74505805969E-08  0.10566000000E+00  0.10566000000E+00 0. -1.
     999900   -1    0    0    0    0 -0.00000000000E+00 -0.00000000000E+00 -0.74505805969E-08  0.93827000000E+00  0.93827000000E+00 0. -1.
     999902    2    1    2    0    0 -0.45013250346E-02 -0.93739853230E-03  0.23259621095E-01  0.10202202843E+01  0.10199447426E+01 0.  0.
     999903    2    3    3    0    0 -0.21365895523E-01  0.99319556242E-01 -0.76540109137E-01  0.12876313065E+00  0.20016986892E-01 0.  0.
         14    1    1    2    0    0  0.45013250346E-02  0.93739853230E-03 -0.23259621095E-01  0.23709715657E-01  0.00000000000E+00 0.  1.
     999901    1    3    3    0    0  0.16864570489E-01 -0.10025695477E+00  0.99799730231E-01  0.89145715369E+00  0.88000000000E+00 0. -1.
        -11    1    4    4    0    0 -0.14332379212E-01  0.76068955379E-01 -0.47180997119E-01  0.90654347256E-01  0.51100000000E-03 0.  1.
         11    1    4    4    0    0 -0.70335163118E-02  0.23250600863E-01 -0.29359112018E-01  0.38108783393E-01  0.51100000000E-03 0. -1.
</event>
<event>
 8    1  0.1065239E+005  0.1043930E+01  0.7957747E-01            NaN
         13   -1    0    0    0    0  0.00000000000E+00  0.00000000000E+00  0.74505805969E-08  0.10566000000E+00  0.10566000000E+00 0.  1.
     999900   -1    0    0    0    0 -0.00000000000E+00 -0.00000000000E+00 -0.74505805969E-08  0.93827000000E+00  0.93827000000E+00 0.  1.
     999902    2    1    2    0    0  0.12799604980E-01 -0.46704431660E-02 -0.18840507758E-01  0.10206790288E+01  0.10204141670E+01 0.  0.
     999903    2    3    3    0    0  0.39706852251E-01  0.21754128341E-01  0.11950830841E+00  0.12907224732E+00  0.18097873744E-01 0.  0.
         14    1    1    2    0    0 -0.12799604980E-01  0.46704431660E-02  0.18840507758E-01  0.23250971154E-01  0.00000000000E+00 0.  1.
     999901    1    3    3    0    0 -0.26907247271E-01 -0.26424571507E-01 -0.13834881616E+00  0.89160678153E+00  0.88000000000E+00 0.  1.
        -11    1    4    4    0    0  0.24483616137E-01  0.70156625776E-02  0.46155216409E-01  0.52718422808E-01  0.51100000000E-03 0. -1.
         11    1    4    4    0    0  0.15223236114E-01  0.14738465763E-01  0.73353091996E-01  0.76353824509E-01  0.51100000000E-03 0.  1.
</event>
<event>
 8    1  0.1065239E+005  0.1043930E+01  0.7957747E-01            NaN
         13   -1    0    0    0    0  0.00000000000E+00  0.00000000000E+00  0.74505805969E-08  0.10566000000E+00  0.10566000000E+00 0.  1.
     999900   -1    0    0    0    0 -0.00000000000E+00 -0.00000000000E+00 -0.74505805969E-08  0.93827000000E+00  0.93827000000E+00 0.  1.
     999902    2    1    2    0    0  0.14230237694E-01  0.14286923299E-01 -0.13125917727E-01  0.10198695437E+01  0.10195856906E+01 0.  0.
     999903    2    3    3    0    0  0.10807640506E+00 -0.65896696017E-01  0.24488470616E-01  0.13045886343E+00  0.19923503135E-01 0.  0.
         14    1    1    2    0    0 -0.14230237694E-01 -0.14286923299E-01  0.13125917727E-01  0.24060456321E-01  0.00000000000E+00 0. -1.
     999901    1    3    3    0    0 -0.93846167364E-01  0.80183619316E-01 -0.37614388344E-01  0.88941068025E+00  0.88000000000E+00 0.  1.
        -11    1    4    4    0    0  0.91265952957E-01 -0.46746289041E-01  0.21763634392E-01  0.10482655489E+00  0.51100000000E-03 0.  1.
         11    1    4    4    0    0  0.16810452102E-01 -0.19150406977E-01  0.27248362244E-02  0.25632308532E-01  0.51100000000E-03 0. -1.
</event>
<event>
 8    1  0.1065239E+005  0.1043930E+01  0.7957747E-01            NaN
         13   -1    0    0    0    0  0.00000000000E+00  0.00000000000E+00  0.74505805969E-08  0.10566000000E+00  0.10566000000E+00 0. -1.
     999900   -1    0    0    0    0 -0.00000000000E+00 -0.00000000000E+00 -0.74505805969E-08  0.93827000000E+00  0.93827000000E+00 0. -1.
     999902    2    1    2    0    0 -0.13496290908E-01  0.10529728011E-01  0.14470797125E-01  0.10215150717E+01  0.10212691187E+01 0.  0.
     999903    2    3    3    0    0 -0.62281246784E-01  0.16175309246E-02  0.11717194610E+00  0.13415554753E+00  0.19669160449E-01 0.  0.
         14    1    1    2    0    0  0.13496290908E-01 -0.10529728011E-01 -0.14470797125E-01  0.22414928278E-01  0.00000000000E+00 0. -1.
     999901    1    3    3    0    0  0.48784955875E-01  0.89121970866E-02 -0.10270114897E+00  0.88735952419E+00  0.88000000000E+00 0. -1.
        -11    1    4    4    0    0 -0.19443835002E-01  0.30528220241E-02  0.20587560956E-01  0.28486685118E-01  0.51100000000E-03 0.  1.
         11    1    4    4    0    0 -0.42837411782E-01 -0.14352910994E-02  0.96584385142E-01  0.10566886241E+00  0.51100000000E-03 0. -1.
</event>
<event>
 8    1  0.1065239E+005  0.1043930E+01  0.7957747E-01            NaN
         13   -1    0    0    0    0  0.00000000000E+00  0.00000000000E+00  0.74505805969E-08  0.10566000000E+00  0.10566000000E+00 0. -1.
     999900   -1    0    0    0    0 -0.00000000000E+00 -0.00000000000E+00 -0.74505805969E-08  0.93827000000E+00  0.93827000000E+00 0.  1.
     999902    2    1    2    0    0 -0.12032299344E-01 -0.10577293619E-02 -0.20668738462E-01  0.10199906648E+01  0.10197096962E+01 0.  0.
     999903    2    3    3    0    0 -0.18389654314E-02  0.11366243644E+00 -0.62963672832E-01  0.13147871670E+00  0.19992438469E-01 0.  0.
         14    1    1    2    0    0  0.12032299344E-01  0.10577293619E-02  0.20668738462E-01  0.23939335173E-01  0.00000000000E+00 0. -1.
     999901    1    3    3    0    0 -0.10193333913E-01 -0.11472016580E+00  0.42294934370E-01  0.88851194813E+00  0.88000000000E+00 0. -1.
        -11    1    4    4    0    0  0.29068164124E-02  0.62829303521E-01 -0.24279287295E-01  0.67421924292E-01  0.51100000000E-03 0.  1.
         11    1    4    4    0    0 -0.47457818438E-02  0.50833132920E-01 -0.38684385537E-01  0.64056792405E-01  0.51100000000E-03 0. -1.
</event>
<event>
 8    1  0.1065239E+005  0.1043930E+01  0.7957747E-01            NaN
         13   -1    0    0    0    0  0.00000000000E+00  0.00000000000E+00  0.74505805969E-08  0.10566000000E+00  0.10566000000E+00 0. -1.
     999900   -1    0    0    0    0 -0.00000000000E+00 -0.00000000000E+00 -0.74505805969E-08  0.93827000000E+00  0.93827000000E+00 0.  1.
     999902    2    1    2    0    0 -0.17435553635E-01  0.10706131570E-02 -0.15974088017E-01  0.10202590002E+01  0.10199843682E+01 0.  0.
     999903    2    3    3    0    0 -0.44795610798E-01  0.77601176580E-01 -0.96071941584E-01  0.13289145178E+00  0.20043219354E-01 0.  0.
         14    1    1    2    0    0  0.17435553635E-01 -0.10706131570E-02  0.15974088017E-01  0.23670999790E-01  0.00000000000E+00 0. -1.
     999901    1    3    3    0    0  0.27360057163E-01 -0.76530563423E-01  0.80097853567E-01  0.88736754843E+00  0.88000000000E+00 0. -1.
        -11    1    4    4    0    0 -0.26340835717E-01  0.55905471242E-01 -0.53930468933E-01  0.82024495984E-01  0.51100000000E-03 0. -1.
         11    1    4    4    0    0 -0.18454775082E-01  0.21695705339E-01 -0.42141472651E-01  0.50866955793E-01  0.51100000000E-03 0.  1.
</event>
<event>
 8    1  0.1065239E+005  0.1043930E+01  0.7957747E-01            NaN
         13   -1    0    0    0    0  0.00000000000E+00  0.00000000000E+00  0.74505805969E-08  0.10566000000E+00  0.10566000000E+00 0. -1.
     999900   -1    0    0    0    0 -0.00000000000E+00 -0.00000000000E+00 -0.74505805969E-08  0.93827000000E+00  0.93827000000E+00 0. -1.
     999902    2    1    2    0    0  0.17796105461E-02  0.17717907836E-01  0.13697610380E-01  0.10214641192E+01  0.10212170342E+01 0.  0.
     999903    2    3    3    0    0  0.76568187302E-01 -0.10266021342E+00 -0.78760921410E-02  0.12986463064E+00  0.20024553341E-01 0.  0.
         14    1    1    2    0    0 -0.17796105461E-02 -0.17717907836E-01 -0.13697610380E-01  0.22465880839E-01  0.00000000000E+00 0. -1.
     999901    1    3    3    0    0 -0.74788576756E-01  0.12037812126E+00  0.21573702521E-01  0.89159948852E+00  0.88000000000E+00 0.  1.
        -11    1    4    4    0    0  0.11009705939E-01 -0.27690383275E-01 -0.50792425026E-02  0.30232941904E-01  0.51100000000E-03 0.  1.
         11    1    4    4    0    0  0.65558481363E-01 -0.74969830150E-01 -0.27968496384E-02  0.99631688735E-01  0.51100000000E-03 0. -1.
</event>
<event>
 8    1  0.1065239E+005  0.1043930E+01  0.7957747E-01            NaN
         13   -1    0    0    0    0  0.00000000000E+00  0.00000000000E+00  0.74505805969E-08  0.10566000000E+00  0.10566000000E+00 0. -1.
     999900   -1    0    0    0    0 -0.00000000000E+00 -0.00000000000E+00 -0.74505805969E-08  0.93827000000E+00  0.93827000000E+00 0.  1.
     999902    2    1    2    0    0 -0.26237110227E-01  0.11539481946E-01  0.57617443221E-02  0.10146940069E+01  0.10142727366E+01 0.  0.
     999903    2    3    3    0    0 -0.12007277701E+00 -0.37640288221E-01  0.15096000826E-01  0.12829065032E+00  0.19908255634E-01 0.  0.
         14    1    1    2    0    0  0.26237110227E-01 -0.11539481946E-01 -0.57617443221E-02  0.29235993130E-01  0.00000000000E+00 0. -1.
     999901    1    3    3    0    0  0.93835666785E-01  0.49179770167E-01 -0.93342565040E-02  0.88640335655E+00  0.88000000000E+00 0.  1.
        -11    1    4    4    0    0 -0.21139624688E-01  0.95331141696E-03  0.13676969634E-02  0.21211417930E-01  0.51100000000E-03 0. -1.
         11    1    4    4    0    0 -0.98933152324E-01 -0.38593599638E-01  0.13728303863E-01  0.10707923239E+00  0.51100000000E-03 0.  1.
</event>
<event>
 8    1  0.1065239E+005  0.1043930E+01  0.7957747E-01            NaN
         13   -1    0    0    0    0  0.00000000000E+00  0.00000000000E+00  0.74505805969E-08  0.10566000000E+00  0.10566000000E+00 0.  1.
     999900   -1    0    0    0    0 -0.00000000000E+00 -0.00000000000E+00 -0.74505805969E-08  0.93827000000E+00  0.93827000000E+00 0. -1.
     999902    2    1    2    0    0  0.17160038192E-01 -0.15450758625E-01 -0.12512283760E-02  0.10208051557E+01  0.10205431923E+01 0.  0.
     999903    2    3    3    0    0 -0.39892373149E-01  0.15873252861E-01 -0.12138319075E+00  0.13026158025E+00  0.19769640904E-01 0.  0.
         14    1    1    2    0    0 -0.17160038192E-01  0.15450758625E-01  0.12512283760E-02  0.23124844330E-01  0.00000000000E+00 0. -1.
     999901    1    3    3    0    0  0.57052411341E-01 -0.31324011486E-01  0.12013196237E+00  0.89054357542E+00  0.88000000000E+00 0.  1.
        -11    1    4    4    0    0 -0.30562857616E-03  0.61479180729E-02 -0.21766263337E-01  0.22625685539E-01  0.51100000000E-03 0. -1.
         11    1    4    4    0    0 -0.39586744573E-01  0.97253347883E-02 -0.99616927411E-01  0.10763589471E+00  0.51100000000E-03 0.  1.
</event>
<event>
 8    1  0.1065239E+005  0.1043930E+01  0.7957747E-01            NaN
         13   -1    0    0    0    0  0.00000000000E+00  0.00000000000E+00  0.74505805969E-08  0.10566000000E+00  0.10566000000E+00 0.  1.
     999900   -1    0    0    0    0 -0.00000000000E+00 -0.00000000000E+00 -0.74505805969E-08  0.93827000000E+00  0.93827000000E+00 0. -1.
     999902    2    1    2    0    0  0.17570251421E-01  0.17832827378E-02  0.15064157105E-01  0.10207174460E+01  0.10204534688E+01 0.  0.
     999903    2    3    3    0    0 -0.11395127166E+00  0.49426918129E-01 -0.27322194518E-01  0.12866115306E+00  0.19475046722E-01 0.  0.
         14    1    1    2    0    0 -0.17570251421E-01 -0.17832827378E-02 -0.15064157105E-01  0.23212553965E-01  0.00000000000E+00 0. -1.
     999901    1    3    3    0    0  0.13152152308E+00 -0.47643635392E-01  0.42386351623E-01  0.89205629297E+00  0.88000000000E+00 0.  1.
        -11    1    4    4    0    0 -0.31626618932E-01  0.18926499606E-01 -0.15835586320E-01  0.40118353998E-01  0.51100000000E-03 0.  1.
         11    1    4    4    0    0 -0.82324652731E-01  0.30500418523E-01 -0.11486608198E-01  0.88542799065E-01  0.51100000000E-03 0. -1.
</event>
<event>
 8    1  0.1065239E+005  0.1043930E+01  0.7957747E-01            NaN
         13   -1    0    0    0    0  0.00000000000E+00  0.00000000000E+00  0.74505805969E-08  0.10566000000E+00  0.10566000000E+00 0. -1.
     999900   -1    0    0    0    0 -0.00000000000E+00 -0.00000000000E+00 -0.74505805969E-08  0.93827000000E+00  0.93827000000E+00 0.  1.
     999902    2    1    2    0    0 -0.14090401222E-01  0.18708510704E-01 -0.36751025482E-02  0.10202223186E+01  0.10199468247E+01 0.  0.
     999903    2    3    3    0    0  0.21846844892E-01 -0.90850052657E-01  0.85569164653E-01  0.12822506316E+00  0.19712132877E-01 0.  0.
         14    1    1    2    0    0  0.14090401222E-01 -0.18708510704E-01  0.36751025482E-02  0.23707681415E-01  0.00000000000E+00 0. -1.
     999901    1    3    3    0    0 -0.35937246114E-01  0.10955856336E+00 -0.89244267201E-01  0.89199725543E+00  0.88000000000E+00 0. -1.
        -11    1    4    4    0    0  0.96434579804E-02 -0.53771677063E-01  0.61948171569E-01  0.82596771230E-01  0.51100000000E-03 0.  1.
         11    1    4    4    0    0  0.12203386912E-01 -0.37078375594E-01  0.23620993084E-01  0.45628291926E-01  0.51100000000E-03 0. -1.
</event>
<event>
 8    1  0.1065239E+005  0.1043930E+01  0.7957747E-01            NaN
         13   -1    0    0    0    0  0.00000000000E+00  0.00000000000E+00  0.74505805969E-08  0.10566000000E+00  0.10566000000E+00 0.  1.
     999900   -1    0    0    0    0 -0.00000000000E+00 -0.00000000000E+00 -0.74505805969E-08  0.93827000000E+00  0.93827000000E+00 0. -1.
     999902    2    1    2    0    0 -0.42976078080E-02 -0.27112828320E-01  0.31932123793E-02  0.10162935838E+01  0.10159177511E+01 0.  0.
     999903    2    3    3    0    0 -0.19208438619E-01  0.10242870608E+00 -0.65085145027E-01  0.12406868165E+00  0.17215043412E-01 0.  0.
         14    1    1    2    0    0  0.42976078080E-02  0.27112828320E-01 -0.31932123793E-02  0.27636416151E-01  0.00000000000E+00 0. -1.
     999901    1    3    3    0    0  0.14910830811E-01 -0.12954153440E+00  0.68278357407E-01  0.89222490220E+00  0.88000000000E+00 0.  1.
        -11    1    4    4    0    0 -0.13909479713E-02  0.25518814741E-01 -0.24029889577E-01  0.35083348702E-01  0.51100000000E-03 0. -1.
         11    1    4    4    0    0 -0.17817490648E-01  0.76909891341E-01 -0.41055255450E-01  0.88985332949E-01  0.51100000000E-03 0.  1.
</event>
<event>
 8    1  0.1065239E+005  0.1043930E+01  0.7957747E-01            NaN
         13   -1    0    0    0    0  0.00000000000E+00  0.00000000000E+00  0.74505805969E-08  0.10566000000E+00  0.10566000000E+00 0. -1.
     999900   -1    0    0    0    0 -0.00000000000E+00 -0.00000000000E+00 -0.74505805969E-08  0.93827000000E+00  0.93827000000E+00 0. -1.
     999902    2    1    2    0    0 -0.78164897183E-02 -0.42583393672E-02 -0.21399411663E-01  0.10207531627E+01  0.10204900065E+01 0.  0.
     999903    2    3    3    0    0 -0.74638654948E-01  0.56792066323E-02  0.10362759578E+00  0.12935218160E+00  0.19751609506E-01 0.  0.
         14    1    1    2    0    0  0.78164897183E-02  0.42583393672E-02  0.21399411663E-01  0.23176837257E-01  0.00000000000E+00 0. -1.
     999901    1    3    3    0    0  0.66822165230E-01 -0.99375459995E-02 -0.12502700744E+00  0.89140098114E+00  0.88000000000E+00 0. -1.
        -11    1    4    4    0    0 -0.21442848615E-01 -0.32639508231E-02  0.43246669167E-01  0.48383722952E-01  0.51100000000E-03 0.  1.
         11    1    4    4    0    0 -0.53195806334E-01  0.89431574554E-02  0.60380926613E-01  0.80968458652E-01  0.51100000000E-03 0. -1.
</event>
<event>
 8    1  0.1065239E+005  0.1043930E+01  0.7957747E-01            NaN
         13   -1    0    0    0    0  0.00000000000E+00  0.00000000000E+00  0.74505805969E-08  0.10566000000E+00  0.10566000000E+00 0.  1.
     999900   -1    0    0    0    0 -0.00000000000E+00 -0.00000000000E+00 -0.74505805969E-08  0.93827000000E+00  0.93827000000E+00 0. -1.
     999902    2    1    2    0    0  0.11487462092E-01  0.46875010773E-02 -0.20264071424E-01  0.10201693804E+01  0.10198926403E+01 0.  0.
     999903    2    3    3    0    0 -0.12122607319E+00 -0.30346256765E-01  0.22493213746E-01  0.12850328145E+00  0.19760884537E-01 0.  0.
         14    1    1    2    0    0 -0.11487462092E-01 -0.46875010773E-02  0.20264071424E-01  0.23760619570E-01  0.00000000000E+00 0.  1.
     999901    1    3    3    0    0  0.13271353528E+00  0.35033757843E-01 -0.42757285170E-01  0.89166609898E+00  0.88000000000E+00 0.  1.
        -11    1    4    4    0    0 -0.60290745283E-01 -0.25242101161E-01  0.12186907319E-01  0.66489995253E-01  0.51100000000E-03 0.  1.
         11    1    4    4    0    0 -0.60935327908E-01 -0.51041556048E-02  0.10306306427E-01  0.62013286196E-01  0.51100000000E-03 0. -1.
</event>
<event>
 8    1  0.1065239E+005  0.1043930E+01  0.7957747E-01            NaN
         13   -1    0    0    0    0  0.00000000000E+00  0.00000000000E+00  0.74505805969E-08  0.10566000000E+00  0.10566000000E+00 0. -1.
     999900   -1    0    0    0    0 -0.00000000000E+00 -0.00000000000E+00 -0.74505805969E-08  0.93827000000E+00  0.93827000000E+00 0.  1.
     999902    2    1    2    0    0  0.19711113118E-01  0.36545022191E-02 -0.12392921585E-01  0.10203616341E+01  0.10200894061E+01 0.  0.
     999903    2    3    3    0    0 -0.43344793246E-01  0.11638597951E+00  0.31842674795E-01  0.12983301506E+00  0.20449658544E-01 0.  0.
         14    1    1    2    0    0 -0.19711113118E-01 -0.36545022191E-02  0.12392921585E-01  0.23568365922E-01  0.00000000000E+00 0.  1.
     999901    1    3    3    0    0  0.63055906363E-01 -0.11273147729E+00 -0.44235596380E-01  0.89052861902E+00  0.88000000000E+00 0.  1.
        -11    1    4    4    0    0 -0.32574121275E-01  0.10587600557E+00  0.29023681730E-01  0.11451391686E+00  0.51100000000E-03 0.  1.
         11    1    4    4    0    0 -0.10770671970E-01  0.10509973940E-01  0.28189930652E-02  0.15319098205E-01  0.51100000000E-03 0. -1.
</event>
<event>
 8    1  0.1065239E+005  0.1043930E+01  0.7957747E-01            NaN
         13   -1    0    0    0    0  0.00000000000E+00  0.00000000000E+00  0.74505805969E-08  0.10566000000E+00  0.10566000000E+00 0.  1.
     999900   -1    0    0    0    0 -0.00000000000E+00 -0.00000000000E+00 -0.74505805969E-08  0.93827000000E+00  0.93827000000E+00 0.  1.
     999902    2    1    2    0    0  0.13397345463E-01  0.98603026810E-02  0.16381770814E-01  0.10205831191E+01  0.10203160422E+01 0.  0.
     999903    2    3    3    0    0 -0.21209811204E-01 -0.73159262485E-01 -0.10091573881E+00  0.12825548346E+00  0.21525541104E-01 0.  0.
         14    1    1    2    0    0 -0.13397345463E-01 -0.98603026810E-02 -0.16381770814E-01  0.23346880936E-01  0.00000000000E+00 0. -1.
     999901    1    3    3    0    0  0.34607156667E-01  0.83019565166E-01  0.11729750963E+00  0.89232763560E+00  0.88000000000E+00 0. -1.
        -11    1    4    4    0    0 -0.20193947387E-02 -0.38770094671E-01 -0.59981050580E-01  0.71450582542E-01  0.51100000000E-03 0. -1.
         11    1    4    4    0    0 -0.19190416465E-01 -0.34389167814E-01 -0.40934688232E-01  0.56804900921E-01  0.51100000000E-03 0.  1.
</event>
<event>
 8    1  0.1065239E+005  0.1043930E+01  0.7957747E-01            NaN
         13   -1    0    0    0    0  0.00000000000E+00  0.00000000000E+00  0.74505805969E-08  0.10566000000E+00  0.10566000000E+00 0.  1.
     999900   -1    0    0    0    0 -0.00000000000E+00 -0.00000000000E+00 -0.74505805969E-08  0.93827000000E+00  0.93827000000E+00 0. -1.
     999902    2    1    2    0    0  0.14879702104E-01  0.18187526165E-01  0.28222916536E-02  0.10202623644E+01  0.10199878114E+01 0.  0.
     999903    2    3    3    0    0  0.40541579223E-01 -0.11775557063E+00 -0.27582840976E-01  0.12893552787E+00  0.18803275523E-01 0.  0.
         14    1    1    2    0    0 -0.14879702104E-01 -0.18187526165E-01 -0.28222916536E-02  0.23667635557E-01  0.00000000000E+00 0. -1.
     999901    1    3    3    0    0 -0.25661877120E-01  0.13594309680E+00  0.30405132630E-01  0.89132683657E+00  0.88000000000E+00 0. -1.
        -11    1    4    4    0    0  0.28229716445E-01 -0.85103846827E-01 -0.11133683624E-01  0.90353758457E-01  0.51100000000E-03 0. -1.
         11    1    4    4    0    0  0.12311862779E-01 -0.32651723804E-01 -0.16449157353E-01  0.38581769413E-01  0.51100000000E-03 0.  1.
</event>
<event>
 8    1  0.1065239E+005  0.1043930E+01  0.7957747E-01            NaN
         13   -1    0    0    0    0  0.00000000000E+00  0.00000000000E+00  0.74505805969E-08  0.10566000000E+00  0.10566000000E+00 0.  1.
     999900   -1    0    0    0    0 -0.00000000000E+00 -0.00000000000E+00 -0.74505805969E-08  0.93827000000E+00  0.93827000000E+00 0. -1.
     999902    2    1    2    0    0 -0.17169387956E-01 -0.16743127045E-01  0.16298584738E-02  0.10198930155E+01  0.10196097226E+01 0.  0.
     999903    2    3    3    0    0 -0.73034992480E-02 -0.93890343678E-01  0.90620456279E-01  0.13199192004E+00  0.18467867281E-01 0.  0.
         14    1    1    2    0    0  0.17169387956E-01  0.16743127045E-01 -0.16298584738E-02  0.24036984517E-01  0.00000000000E+00 0. -1.
     999901    1    3    3    0    0 -0.98658887081E-02  0.77147216632E-01 -0.88990597805E-01  0.88790109544E+00  0.88000000000E+00 0. -1.
        -11    1    4    4    0    0 -0.74368341637E-02 -0.85322638847E-01  0.73589633370E-01  0.11292012426E+00  0.51100000000E-03 0.  1.
         11    1    4    4    0    0  0.13333491566E-03 -0.85677048310E-02  0.17030822909E-01  0.19071795779E-01  0.51100000000E-03 0. -1.
</event>
<event>
 8    1  0.1065239E+005  0.1043930E+01  0.7957747E-01            NaN
         13   -1    0    0    0    0  0.00000000000E+00  0.00000000000E+00  0.74505805969E-08  0.10566000000E+00  0.10566000000E+00 0. -1.
     999900   -1    0    0    0    0 -0.00000000000E+00 -0.00000000000E+00 -0.74505805969E-08  0.93827000000E+00  0.93827000000E+00 0.  1.
     999902    2    1    2    0    0  0.97412223479E-02 -0.13096714110E-02  0.23092370142E-01  0.10188329043E+01  0.10185237468E+01 0.  0.
     999903    2    3    3    0    0  0.20132909233E-02  0.13383055092E-01 -0.12423145911E+00  0.12643170095E+00  0.19192708760E-01 0.  0.
         14    1    1    2    0    0 -0.97412223479E-02  0.13096714110E-02 -0.23092370142E-01  0.25097095664E-01  0.00000000000E+00 0.  1.
     999901    1    3    3    0    0  0.77279314246E-02 -0.14692726503E-01  0.14732382925E+00  0.89240120338E+00  0.88000000000E+00 0. -1.
        -11    1    4    4    0    0  0.91193874960E-02  0.11952230106E-01 -0.10028641793E+00  0.10140831216E+00  0.51100000000E-03 0.  1.
         11    1    4    4    0    0 -0.71060965727E-02  0.14308249860E-02 -0.23945041180E-01  0.25023388794E-01  0.51100000000E-03 0. -1.
</event>
<event>
 8    1  0.1065239E+005  0.1043930E+01  0.7957747E-01            NaN
         13   -1    0    0    0    0  0.00000000000E+00  0.00000000000E+00  0.74505805969E-08  0.10566000000E+00  0.10566000000E+00 0. -1.
     999900   -1    0    0    0    0 -0.00000000000E+00 -0.00000000000E+00 -0.74505805969E-08  0.93827000000E+00  0.93827000000E+00 0. -1.
     999902    2    1    2    0    0 -0.15967312152E-01 -0.46949750383E-03  0.18064314596E-01  0.10198157937E+01  0.10195306558E+01 0.  0.
     999903    2    3    3    0    0  0.65521469590E-01 -0.80624017743E-01  0.76670533772E-01  0.13049028656E+00  0.18869258687E-01 0.  0.
         14    1    1    2    0    0  0.15967312152E-01  0.46949750383E-03 -0.18064314596E-01  0.24114206333E-01  0.00000000000E+00 0.  1.
     999901    1    3    3    0    0 -0.81488781741E-01  0.80154520239E-01 -0.58606219176E-01  0.88932550711E+00  0.88000000000E+00 0. -1.
        -11    1    4    4    0    0  0.48377917539E-01 -0.70803702349E-01  0.64161068774E-01  0.10710037833E+00  0.51100000000E-03 0. -1.
         11    1    4    4    0    0  0.17143552051E-01 -0.98203153939E-02  0.12509464998E-01  0.23389908228E-01  0.51100000000E-03 0.  1.
</event>
<event>
 8    1  0.1065239E+005  0.1043930E+01  0.7957747E-01            NaN
         13   -1    0    0    0    0  0.00000000000E+00  0.00000000000E+00  0.74505805969E-08  0.10566000000E+00  0.10566000000E+00 0. -1.
     999900   -1    0    0    0    0 -0.00000000000E+00 -0.00000000000E+00 -0.74505805969E-08  0.93827000000E+00  0.93827000000E+00 0. -1.
     999902    2    1    2    0    0  0.56210445531E-02  0.19249850967E-01  0.14457353897E-01  0.10192081881E+01  0.10189083190E+01 0.  0.
     999903    2    3    3    0    0  0.49413185800E-01 -0.75507597784E-01 -0.87324670654E-01  0.12721250071E+00  0.20355883105E-01 0.  0.
         14    1    1    2    0    0 -0.56210445531E-02 -0.19249850967E-01 -0.14457353897E-01  0.24721811945E-01  0.00000000000E+00 0.  1.
     999901    1    3    3    0    0 -0.43792141247E-01  0.94757448750E-01  0.10178202455E+00  0.89199568735E+00  0.88000000000E+00 0.  1.
        -11    1    4    4    0    0  0.25365490080E-01 -0.29103519935E-01 -0.49084934950E-01  0.62450099437E-01  0.51100000000E-03 0.  1.
         11    1    4    4    0    0  0.24047695720E-01 -0.46404077848E-01 -0.38239735704E-01  0.64762401269E-01  0.51100000000E-03 0. -1.
</event>
<event>
 8    1  0.1065239E+005  0.1043930E+01  0.7957747E-01            NaN
         13   -1    0    0    0    0  0.00000000000E+00  0.00000000000E+00  0.74505805969E-08  0.10566000000E+00  0.10566000000E+00 0.  1.
     999900   -1    0    0    0    0 -0.00000000000E+00 -0.00000000000E+00 -0.74505805969E-08  0.93827000000E+00  0.93827000000E+00 0.  1.
     999902    2    1    2    0    0  0.20100891443E-01  0.14566730985E-01 -0.98600379486E-02  0.10172194059E+01  0.10168686562E+01 0.  0.
     999903    2    3    3    0    0  0.28259904686E-01 -0.49710385725E-01  0.11208737190E+00  0.12645047515E+00  0.12505961147E-01 0.  0.
         14    1    1    2    0    0 -0.20100891443E-01 -0.14566730985E-01  0.98600379486E-02  0.26710594092E-01  0.00000000000E+00 0.  1.
     999901    1    3    3    0    0 -0.81590132430E-02  0.64277116710E-01 -0.12194740985E+00  0.89076893076E+00  0.88000000000E+00 0.  1.
        -11    1    4    4    0    0  0.24281450664E-01 -0.44722305419E-01  0.89323273233E-01  0.10280360748E+00  0.51100000000E-03 0.  1.
         11    1    4    4    0    0  0.39784540218E-02 -0.49880803061E-02  0.22764098671E-01  0.23646867675E-01  0.51100000000E-03 0. -1.
</event>
<event>
 8    1  0.1065239E+005  0.1043930E+01  0.7957747E-01            NaN
         13   -1    0    0    0    0  0.00000000000E+00  0.00000000000E+00  0.74505805969E-08  0.10566000000E+00  0.10566000000E+00 0.  1.
     999900   -1    0    0    0    0 -0.00000000000E+00 -0.00000000000E+00 -0.74505805969E-08  0.93827000000E+00  0.93827000000E+00 0. -1.
     999902    2    1    2    0    0 -0.35782406445E-02  0.12953391726E-01  0.20296252321E-01  0.10195880194E+01  0.10192974037E+01 0.  0.
     999903    2    3    3    0    0  0.82328188356E-01  0.42979576631E-01  0.91371694868E-01  0.13204466557E+00  0.21490287957E-01 0.  0.
         14    1    1    2    0    0  0.35782406445E-02 -0.12953391726E-01 -0.20296252321E-01  0.24341980643E-01  0.00000000000E+00 0. -1.
     999901    1    3    3    0    0 -0.85906429000E-01 -0.30026184905E-01 -0.71075442546E-01  0.88754335379E+00  0.88000000000E+00 0. -1.
        -11    1    4    4    0    0  0.16789398784E-01  0.22599822611E-02  0.90439745764E-02  0.19210570749E-01  0.51100000000E-03 0. -1.
         11    1    4    4    0    0  0.65538789571E-01  0.40719594370E-01  0.82327720291E-01  0.11283409482E+00  0.51100000000E-03 0.  1.
</event>
<event>
 8    1  0.1065239E+005  0.1043930E+01  0.7957747E-01            NaN
         13   -1    0    0    0    0  0.00000000000E+00  0.00000000000E+00  0.74505805969E-08  0.10566000000E+00  0.10566000000E+00 0. -1.
     999900   -1    0    0    0    0 -0.00000000000E+00 -0.00000000000E+00 -0.74505805969E-08  0.93827000000E+00  0.93827000000E+00 0. -1.
     999902    2    1    2    0    0 -0.76272434948E-02 -0.20680553574E-01  0.15224542854E-01  0.10171410686E+01  0.10167882310E+01 0.  0.
     999903    2    3    3    0    0  0.52959000260E-01  0.86297696366E-01  0.73450811525E-01  0.12668874690E+00  0.20076572683E-01 0.  0.
         14    1    1    2    0    0  0.76272434948E-02  0.20680553574E-01 -0.15224542854E-01  0.26788931381E-01  0.00000000000E+00 0.  1.
     999901    1    3    3    0    0 -0.60586243755E-01 -0.10697824994E+00 -0.58226268671E-01  0.89045232172E+00  0.88000000000E+00 0. -1.
        -11    1    4    4    0    0  0.34952922464E-01  0.51432057747E-01  0.33288135557E-01  0.70535979774E-01  0.51100000000E-03 0.  1.
         11    1    4    4    0    0  0.18006077796E-01  0.34865638618E-01  0.40162675968E-01  0.56152767125E-01  0.51100000000E-03 0. -1.
</event>
<event>
 8    1  0.1065239E+005  0.1043930E+01  0.7957747E-01            NaN
         13   -1    0    0    0    0  0.00000000000E+00  0.00000000000E+00  0.74505805969E-08  0.10566000000E+00  0.10566000000E+00 0.  1.
     999900   -1    0    0    0    0 -0.00000000000E+00 -0.00000000000E+00 -0.74505805969E-08  0.93827000000E+00  0.93827000000E+00 0. -1.
     999902    2    1    2    0    0 -0.22592062312E-01 -0.90442858516E-02  0.16962317567E-02  0.10195357878E+01  0.10192439085E+01 0.  0.
     999903    2    3    3    0    0  0.82202054255E-01 -0.64269439878E-01 -0.70343349832E-01  0.12868152037E+00  0.26888811671E-01 0.  0.
         14    1    1    2    0    0  0.22592062312E-01  0.90442858516E-02 -0.16962317567E-02  0.24394212188E-01  0.00000000000E+00 0. -1.
     999901    1    3    3    0    0 -0.10479411657E+00  0.55225154027E-01  0.72039581589E-01  0.89085426744E+00  0.88000000000E+00 0. -1.
        -11    1    4    4    0    0  0.17882923157E-01 -0.13451185669E-01 -0.29686708673E-01  0.37179229812E-01  0.51100000000E-03 0.  1.
         11    1    4    4    0    0  0.64319131099E-01 -0.50818254209E-01 -0.40656641159E-01  0.91502290559E-01  0.51100000000E-03 0. -1.
</event>
<event>
 8    1  0.1065239E+005  0.1043930E+01  0.7957747E-01            NaN
         13   -1    0    0    0    0  0.00000000000E+00  0.00000000000E+00  0.74505805969E-08  0.10566000000E+00  0.10566000000E+00 0.  1.
     999900   -1    0    0    0    0 -0.00000000000E+00 -0.00000000000E+00 -0.74505805969E-08  0.93827000000E+00  0.93827000000E+00 0. -1.
     999902    2    1    2    0    0  0.17511553680E-02  0.23477684617E-01 -0.29538380498E-03  0.10203852453E+01  0.10201135689E+01 0.  0.
     999903    2    3    3    0    0 -0.10735551148E+00  0.70160154498E-01  0.24104291695E-01  0.13208413541E+00  0.20434011474E-01 0.  0.
         14    1    1    2    0    0 -0.17511553680E-02 -0.23477684617E-01  0.29538380498E-03  0.23544754654E-01  0.00000000000E+00 0.  1.
     999901    1    3    3    0    0  0.10910666685E+00 -0.46682469881E-01 -0.24399675500E-01  0.88830110993E+00  0.88000000000E+00 0.  1.
        -11    1    4    4    0    0 -0.47726939452E-01  0.42927107865E-01  0.91219834073E-02  0.64838792720E-01  0.51100000000E-03 0.  1.
         11    1    4    4    0    0 -0.59628572029E-01  0.27233046633E-01  0.14982308288E-01  0.67245342692E-01  0.51100000000E-03 0. -1.
</event>
<event>
 8    1  0.1065239E+005  0.1043930E+01  0.7957747E-01            NaN
         13   -1    0    0    0    0  0.00000000000E+00  0.00000000000E+00  0.74505805969E-08  0.10566000000E+00  0.10566000000E+00 0.  1.
     999900   -1    0    0    0    0 -0.00000000000E+00 -0.00000000000E+00 -0.74505805969E-08  0.93827000000E+00  0.93827000000E+00 0.  1.
     999902    2    1    2    0    0 -0.22483412172E-01 -0.56752292446E-02 -0.57785531045E-02  0.10200322234E+01  0.10197522410E+01 0.  0.
     999903    2    3    3    0    0 -0.41910571264E-01  0.16053636493E-01  0.12104764544E+00  0.13046241572E+00  0.18806759952E-01 0.  0.
         14    1    1    2    0    0  0.22483412172E-01  0.56752292446E-02  0.57785531045E-02  0.23897776588E-01  0.00000000000E+00 0.  1.
     999901    1    3    3    0    0  0.19427159092E-01 -0.21728865738E-01 -0.12682619855E+00  0.88956980769E+00  0.88000000000E+00 0.  1.
        -11    1    4    4    0    0 -0.17839037511E-02  0.68115833644E-02  0.24556516346E-01  0.25551195600E-01  0.51100000000E-03 0. -1.
         11    1    4    4    0    0 -0.40126667513E-01  0.92420531290E-02  0.96491129098E-01  0.10491122012E+00  0.51100000000E-03 0.  1.
</event>
<event>
 8    1  0.1065239E+005  0.1043930E+01  0.7957747E-01            NaN
         13   -1    0    0    0    0  0.00000000000E+00  0.00000000000E+00  0.74505805969E-08  0.10566000000E+00  0.10566000000E+00 0.  1.
     999900   -1    0    0    0    0 -0.00000000000E+00 -0.00000000000E+00 -0.74505805969E-08  0.93827000000E+00  0.93827000000E+00 0. -1.
     999902    2    1    2    0    0  0.14614895151E-01 -0.11624915593E-01 -0.14852513214E-01  0.10200693426E+01  0.10197902396E+01 0.  0.
     999903    2    3    3    0    0 -0.30455302798E-01 -0.91848296435E-01  0.84150078514E-01  0.12974994668E+00  0.19752921906E-01 0.  0.
         14    1    1    2    0    0 -0.14614895151E-01  0.11624915593E-01  0.14852513214E-01  0.23860657401E-01  0.00000000000E+00 0. -1.
     999901    1    3    3    0    0  0.45070197949E-01  0.80223380842E-01 -0.99002591727E-01  0.89031939592E+00  0.88000000000E+00 0. -1.
        -11    1    4    4    0    0 -0.12176806259E-01 -0.58210559394E-01  0.60012975811E-01  0.84490012560E-01  0.51100000000E-03 0.  1.
         11    1    4    4    0    0 -0.18278496539E-01 -0.33637737040E-01  0.24137102702E-01  0.45259934123E-01  0.51100000000E-03 0. -1.
</event>
<event>
 8    1  0.1065239E+005  0.1043930E+01  0.7957747E-01            NaN
         13   -1    0    0    0    0  0.00000000000E+00  0.00000000000E+00  0.74505805969E-08  0.10566000000E+00  0.10566000000E+00 0.  1.
     999900   -1    0    0    0    0 -0.00000000000E+00 -0.00000000000E+00 -0.74505805969E-08  0.93827000000E+00  0.93827000000E+00 0.  1.
     999902    2    1    2    0    0  0.92003756526E-02 -0.20779500635E-01  0.70814296891E-02  0.10201270337E+01  0.10198492946E+01 0.  0.
     999903    2    3    3    0    0 -0.30849152672E-01 -0.80234638842E-01  0.99559811854E-01  0.13238206505E+00  0.14952843194E-01 0.  0.
         14    1    1    2    0    0 -0.92003756526E-02  0.20779500635E-01 -0.70814296891E-02  0.23802966311E-01  0.00000000000E+00 0. -1.
     999901    1    3    3    0    0  0.40049528325E-01  0.59455138207E-01 -0.92478382164E-01  0.88774496864E+00  0.88000000000E+00 0.  1.
        -11    1    4    4    0    0 -0.29636837437E-01 -0.65942454222E-01  0.76813646371E-01  0.10548623982E+00  0.51100000000E-03 0.  1.
         11    1    4    4    0    0 -0.12123152355E-02 -0.14292184619E-01  0.22746165483E-01  0.26895825226E-01  0.51100000000E-03 0. -1.
</event>
<event>
 8    1  0.1065239E+005  0.1043930E+01  0.7957747E-01            NaN
         13   -1    0    0    0    0  0.00000000000E+00  0.00000000000E+00  0.74505805969E-08  0.10566000000E+00  0.10566000000E+00 0.  1.
     999900   -1    0    0    0    0 -0.00000000000E+00 -0.00000000000E+00 -0.74505805969E-08  0.93827000000E+00  0.93827000000E+00 0. -1.
     999902    2    1    2    0    0 -0.40652101198E-02  0.22572806379E-01  0.23017914449E-02  0.10208788446E+01  0.10206185671E+01 0.  0.
     999903    2    3    3    0    0  0.15031424021E-01 -0.21888540729E-02 -0.12789125239E+00  0.13075073589E+00  0.22557652996E-01 0.  0.
         14    1    1    2    0    0  0.40652101198E-02 -0.22572806379E-01 -0.23017914449E-02  0.23051155394E-01  0.00000000000E+00 0.  1.
     999901    1    3    3    0    0 -0.19096634141E-01  0.24761660451E-01  0.13019304383E+00  0.89012810872E+00  0.88000000000E+00 0.  1.
        -11    1    4    4    0    0  0.22818590066E-02  0.93628378180E-02 -0.56177497882E-01  0.57000368435E-01  0.51100000000E-03 0. -1.
         11    1    4    4    0    0  0.12749565014E-01 -0.11551691891E-01 -0.71713754505E-01  0.73750367455E-01  0.51100000000E-03 0.  1.
</event>
<event>
 8    1  0.1065239E+005  0.1043930E+01  0.7957747E-01            NaN
         13   -1    0    0    0    0  0.00000000000E+00  0.00000000000E+00  0.74505805969E-08  0.10566000000E+00  0.10566000000E+00 0. -1.
     999900   -1    0    0    0    0 -0.00000000000E+00 -0.00000000000E+00 -0.74505805969E-08  0.93827000000E+00  0.93827000000E+00 0. -1.
     999902    2    1    2    0    0  0.21954717459E-01  0.64411695856E-02 -0.63808044156E-02  0.10201768329E+01  0.10199002683E+01 0.  0.
     999903    2    3    3    0    0  0.71734371258E-02 -0.99827263868E-01  0.79701878652E-01  0.12949075206E+00  0.19963080867E-01 0.  0.
         14    1    1    2    0    0 -0.21954717459E-01 -0.64411695856E-02  0.63808044156E-02  0.23753167143E-01  0.00000000000E+00 0.  1.
     999901    1    3    3    0    0  0.14781280333E-01  0.10626843345E+00 -0.86082683067E-01  0.89068608079E+00  0.88000000000E+00 0.  1.
        -11    1    4    4    0    0  0.97513809791E-02 -0.45358621356E-01  0.46272045991E-01  0.65527531035E-01  0.51100000000E-03 0. -1.
         11    1    4    4    0    0 -0.25779438534E-02 -0.54468642512E-01  0.33429832661E-01  0.63963221028E-01  0.51100000000E-03 0.  1.
</event>
<event>
 8    1  0.1065239E+005  0.1043930E+01  0.7957747E-01            NaN
         13   -1    0    0    0    0  0.00000000000E+00  0.00000000000E+00  0.74505805969E-08  0.10566000000E+00  0.10566000000E+00 0.  1.
     999900   -1    0    0    0    0 -0.00000000000E+00 -0.00000000000E+00 -0.74505805969E-08  0.93827000000E+00  0.93827000000E+00 0. -1.
     999902    2    1    2    0    0 -0.80960035437E-02 -0.15983649249E-01  0.19005362589E-01  0.10178105413E+01  0.10174753421E+01 0.  0.
     999903    2    3    3    0    0  0.37070724489E-02 -0.12760158097E+00  0.19560114038E-01  0.13068136070E+00  0.19977840732E-01 0.  0.
         14    1    1    2    0    0  0.80960035437E-02  0.15983649249E-01 -0.19005362589E-01  0.26119458720E-01  0.00000000000E+00 0.  1.
     999901    1    3    3    0    0 -0.11803075993E-01  0.11161793172E+00 -0.55475144863E-03  0.88712918058E+00  0.88000000000E+00 0.  1.
        -11    1    4    4    0    0 -0.63098325149E-02 -0.83160733708E-01  0.16517593513E-01  0.85021254011E-01  0.51100000000E-03 0. -1.
         11    1    4    4    0    0  0.10016904964E-01 -0.44440847266E-01  0.30425205251E-02  0.45660106690E-01  0.51100000000E-03 0.  1.
</event>
<event>
 8    1  0.1065239E+005  0.1043930E+01  0.7957747E-01            NaN
         13   -1    0    0    0    0  0.00000000000E+00  0.00000000000E+00  0.74505805969E-08  0.10566000000E+00  0.10566000000E+00 0.  1.
     999900   -1    0    0    0    0 -0.00000000000E+00 -0.00000000000E+00 -0.74505805969E-08  0.93827000000E+00  0.93827000000E+00 0.  1.
     999902    2    1    2    0    0  0.15379034868E-01 -0.14446631788E-01  0.13040053436E-01  0.10191255069E+01  0.10188236040E+01 0.  0.
     999903    2    3    3    0    0 -0.42798716286E-01  0.88082499933E-01  0.80866776923E-01  0.12867767689E+00  0.20694250648E-01 0.  0.
         14    1    1    2    0    0 -0.15379034868E-01  0.14446631788E-01 -0.13040053436E-01  0.24804493082E-01  0.00000000000E+00 0. -1.
     999901    1    3    3    0    0  0.58177751153E-01 -0.10252913172E+00 -0.67826723487E-01  0.89044783003E+00  0.88000000000E+00 0.  1.
        -11    1    4    4    0    0  0.16413161053E-02  0.98102899646E-02  0.10052086959E-01  0.14150663623E-01  0.51100000000E-03 0. -1.
         11    1    4    4    0    0 -0.44440032391E-01  0.78272209968E-01  0.70814689964E-01  0.11452701327E+00  0.51100000000E-03 0.  1.
</event>
<event>
 8    1  0.1065239E+005  0.1043930E+01  0.7957747E-01            NaN
         13   -1    0    0    0    0  0.00000000000E+00  0.00000000000E+00  0.74505805969E-08  0.10566000000E+00  0.10566000000E+00 0. -1.
     999900   -1    0    0    0    0 -0.00000000000E+00 -0.00000000000E+00 -0.74505805969E-08  0.93827000000E+00  0.93827000000E+00 0.  1.
     999902    2    1    2    0    0 -0.61175408153E-02  0.20809143430E-01 -0.67662954696E-02  0.10212093594E+01  0.10209565751E+01 0.  0.
     999903    2    3    3    0    0 -0.69925480132E-01  0.81451259402E-01 -0.78932191195E-01  0.13387805944E+00  0.13006289318E-01 0.  0.
         14    1    1    2    0    0  0.61175408153E-02 -0.20809143430E-01  0.67662954696E-02  0.22720640623E-01  0.00000000000E+00 0.  1.
     999901    1    3    3    0    0  0.63807939316E-01 -0.60642115971E-01  0.72165895725E-01  0.88733129994E+00  0.88000000000E+00 0. -1.
        -11    1    4    4    0    0 -0.44640973846E-01  0.59916847398E-01 -0.58327544534E-01  0.94790340860E-01  0.51100000000E-03 0.  1.
         11    1    4    4    0    0 -0.25284506286E-01  0.21534412003E-01 -0.20604646661E-01  0.39087718576E-01  0.51100000000E-03 0. -1.
</event>
<event>
 8    1  0.1065239E+005  0.1043930E+01  0.7957747E-01            NaN
         13   -1    0    0    0    0  0.00000000000E+00  0.00000000000E+00  0.74505805969E-08  0.10566000000E+00  0.10566000000E+00 0. -1.
     999900   -1    0    0    0    0 -0.00000000000E+00 -0.00000000000E+00 -0.74505805969E-08  0.93827000000E+00  0.93827000000E+00 0. -1.
     999902    2    1    2    0    0 -0.11532959643E-01 -0.12846075848E-01  0.17555756326E-01  0.10193081519E+01  0.10190107326E+01 0.  0.
     999903    2    3    3    0    0 -0.58456522920E-01  0.11104436058E+00  0.24874691728E-01  0.12936195813E+00  0.19176830618E-01 0.  0.
         14    1    1    2    0    0  0.11532959643E-01  0.12846075848E-01 -0.17555756326E-01  0.24621848082E-01  0.00000000000E+00 0.  1.
     999901    1    3    3    0    0  0.46923563276E-01 -0.12389043643E+00 -0.73189354025E-02  0.88994619379E+00  0.88000000000E+00 0. -1.
        -11    1    4    4    0    0 -0.26980058631E-01  0.63542849590E-01  0.58446761853E-02  0.69282311295E-01  0.51100000000E-03 0.  1.
         11    1    4    4    0    0 -0.31476464289E-01  0.47501510993E-01  0.19030015543E-01  0.60079646831E-01  0.51100000000E-03 0. -1.
</event>
<event>
 8    1  0.1065239E+005  0.1043930E+01  0.7957747E-01            NaN
         13   -1    0    0    0    0  0.00000000000E+00  0.00000000000E+00  0.74505805969E-08  0.10566000000E+00  0.10566000000E+00 0.  1.
     999900   -1    0    0    0    0 -0.00000000000E+00 -0.00000000000E+00 -0.74505805969E-08  0.93827000000E+00  0.93827000000E+00 0.  1.
     999902    2    1    2    0    0  0.38634387728E-04 -0.72203037529E-02  0.22271766929E-01  0.10205170574E+01  0.10202484494E+01 0.  0.
     999903    2    3    3    0    0 -0.11608744998E+00 -0.88854826649E-02  0.59353869938E-01  0.13211223827E+00  0.19378177956E-01 0.  0.
         14    1    1    2    0    0 -0.38634387728E-04  0.72203037529E-02 -0.22271766929E-01  0.23412942596E-01  0.00000000000E+00 0. -1.
     999901    1    3    3    0    0  0.11612608436E+00  0.16651789120E-02 -0.37082103009E-01  0.88840481913E+00  0.88000000000E+00 0.  1.
        -11    1    4    4    0    0 -0.68385719595E-01  0.37325292151E-02  0.38220438695E-01  0.78432145667E-01  0.51100000000E-03 0.  1.
         11    1    4    4    0    0 -0.47701730381E-01 -0.12618011880E-01  0.21133431242E-01  0.53680092606E-01  0.51100000000E-03 0. -1.
</event>
<event>
 8    1  0.1065239E+005  0.1043930E+01  0.7957747E-01            NaN
         13   -1    0    0    0    0  0.00000000000E+00  0.00000000000E+00  0.74505805969E-08  0.10566000000E+00  0.10566000000E+00 0. -1.
     999900   -1    0    0    0    0 -0.00000000000E+00 -0.00000000000E+00 -0.74505805969E-08  0.93827000000E+00  0.93827000000E+00 0. -1.
     999902    2    1    2    0    0 -0.18767035093E-02  0.18489271033E-01  0.13869658547E-01  0.10207407226E+01  0.10204772806E+01 0.  0.
     999903    2    3    3    0    0  0.74440628078E-01 -0.10160252952E+00 -0.19480547001E-01  0.12868769059E+00  0.17791820692E-01 0.  0.
         14    1    1    2    0    0  0.18767035093E-02 -0.18489271033E-01 -0.13869658547E-01  0.23189277427E-01  0.00000000000E+00 0.  1.
     999901    1    3    3    0    0 -0.76317331587E-01  0.12009180056E+00  0.33350205547E-01  0.89205303198E+00  0.88000000000E+00 0. -1.
        -11    1    4    4    0    0  0.42932588814E-01 -0.45756953365E-01 -0.49692749461E-02  0.62943314005E-01  0.51100000000E-03 0. -1.
         11    1    4    4    0    0  0.31508039264E-01 -0.55845576159E-01 -0.14511272055E-01  0.65744376584E-01  0.51100000000E-03 0.  1.
</event>
<event>
 8    1  0.1065239E+005  0.1043930E+01  0.7957747E-01            NaN
         13   -1    0    0    0    0  0.00000000000E+00  0.00000000000E+00  0.74505805969E-08  0.10566000000E+00  0.10566000000E+00 0. -1.
     999900   -1    0    0    0    0 -0.00000000000E+00 -0.00000000000E+00 -0.74505805969E-08  0.93827000000E+00  0.93827000000E+00 0. -1.
     999902    2    1    2    0    0  0.40014850103E-02 -0.53927503111E-02  0.22724895974E-01  0.10202337021E+01  0.10199584758E+01 0.  0.
     999903    2    3    3    0    0 -0.71500323737E-01 -0.27364910263E-01  0.10671726690E+00  0.13274397407E+00  0.19267926489E-01 0.  0.
         14    1    1    2    0    0 -0.40014850103E-02  0.53927503111E-02 -0.22724895974E-01  0.23696297923E-01  0.00000000000E+00 0.  1.
     999901    1    3    3    0    0  0.75501808747E-01  0.21972159952E-01 -0.83992370921E-01  0.88748972800E+00  0.88000000000E+00 0. -1.
        -11    1    4    4    0    0 -0.23014487727E-01 -0.23189717884E-03  0.37234768846E-01  0.43776815252E-01  0.51100000000E-03 0.  1.
         11    1    4    4    0    0 -0.48485836010E-01 -0.27133013084E-01  0.69482498050E-01  0.88967158822E-01  0.51100000000E-03 0. -1.
</event>
<event>
 8    1  0.1065239E+005  0.1043930E+01  0.7957747E-01            NaN
         13   -1    0    0    0    0  0.00000000000E+00  0.00000000000E+00  0.74505805969E-08  0.10566000000E+00  0.10566000000E+00 0.  1.
     999900   -1    0    0    0    0 -0.00000000000E+00 -0.00000000000E+00 -0.74505805969E-08  0.93827000000E+00  0.93827000000E+00 0.  1.
     999902    2    1    2    0    0  0.35457255591E-02 -0.19220010685E-01 -0.12901331758E-01  0.10205115171E+01  0.10202427805E+01 0.  0.
     999903    2    3    3    0    0 -0.34374895263E-01  0.45213535561E-01  0.11328305106E+00  0.12837242826E+00  0.20506912418E-01 0.  0.
         14    1    1    2    0    0 -0.35457255591E-02  0.19220010685E-01  0.12901331758E-01  0.23418482906E-01  0.00000000000E+00 0.  1.
     999901    1    3    3    0    0  0.37920620822E-01 -0.64433546246E-01 -0.12618438282E+00  0.89213908884E+00  0.88000000000E+00 0.  1.
        -11    1    4    4    0    0 -0.12912185112E-01  0.33550188036E-01  0.67187496120E-01  0.76202102316E-01  0.51100000000E-03 0.  1.
         11    1    4    4    0    0 -0.21462710151E-01  0.11663347526E-01  0.46095554939E-01  0.52170325940E-01  0.51100000000E-03 0. -1.
</event>
<event>
 8    1  0.1065239E+005  0.1043930E+01  0.7957747E-01            NaN
         13   -1    0    0    0    0  0.00000000000E+00  0.00000000000E+00  0.74505805969E-08  0.10566000000E+00  0.10566000000E+00 0. -1.
     999900   -1    0    0    0    0 -0.00000000000E+00 -0.00000000000E+00 -0.74505805969E-08  0.93827000000E+00  0.93827000000E+00 0.  1.
     999902    2    1    2    0    0  0.12087767653E-01  0.17755672312E-01  0.96783638501E-02  0.10203705273E+01  0.10200985071E+01 0.  0.
     999903    2    3    3    0    0 -0.82149117748E-01 -0.55741434767E-01 -0.77959652338E-01  0.12797888841E+00  0.21102212895E-01 0.  0.
         14    1    1    2    0    0 -0.12087767653E-01 -0.17755672312E-01 -0.96783638501E-02  0.23559472679E-01  0.00000000000E+00 0. -1.
     999901    1    3    3    0    0  0.94236885402E-01  0.73497107079E-01  0.87638016188E-01  0.89239163891E+00  0.88000000000E+00 0. -1.
        -11    1    4    4    0    0 -0.16039860785E-01 -0.21246389058E-01 -0.16303369139E-01  0.31220940861E-01  0.51100000000E-03 0.  1.
         11    1    4    4    0    0 -0.66109256963E-01 -0.34495045709E-01 -0.61656283199E-01  0.96757947547E-01  0.51100000000E-03 0. -1.
</event>
<event>
 8    1  0.1065239E+005  0.1043930E+01  0.7957747E-01            NaN
         13   -1    0    0    0    0  0.00000000000E+00  0.00000000000E+00  0.74505805969E-08  0.10566000000E+00  0.10566000000E+00 0.  1.
     999900   -1    0    0    0    0 -0.00000000000E+00 -0.00000000000E+00 -0.74505805969E-08  0.93827000000E+00  0.93827000000E+00 0. -1.
     999902    2    1    2    0    0  0.32843932737E-02  0.19274340862E-01 -0.14505086640E-01  0.10195848774E+01  0.10192941858E+01 0.  0.
     999903    2    3    3    0    0 -0.85915058882E-01  0.25658280694E-01  0.90850668150E-01  0.12880031760E+00  0.17202709077E-01 0.  0.
         14    1    1    2    0    0 -0.32843932737E-02 -0.19274340862E-01  0.14505086640E-01  0.24345122577E-01  0.00000000000E+00 0.  1.
     999901    1    3    3    0    0  0.89199452155E-01 -0.63839398312E-02 -0.10535575479E+00  0.89078455982E+00  0.88000000000E+00 0. -1.
        -11    1    4    4    0    0 -0.17842255985E-01  0.77931478349E-02  0.29968020239E-01  0.35741049366E-01  0.51100000000E-03 0. -1.
         11    1    4    4    0    0 -0.68072802897E-01  0.17865132859E-01  0.60882647911E-01  0.93059268233E-01  0.51100000000E-03 0.  1.
</event>
<event>
 8    1  0.1065239E+005  0.1043930E+01  0.7957747E-01            NaN
         13   -1    0    0    0    0  0.00000000000E+00  0.00000000000E+00  0.74505805969E-08  0.10566000000E+00  0.10566000000E+00 0.  1.
     999900   -1    0    0    0    0 -0.00000000000E+00 -0.00000000000E+00 -0.74505805969E-08  0.93827000000E+00  0.93827000000E+00 0. -1.
     999902    2    1    2    0    0 -0.34407077782E-02 -0.13356960036E-01 -0.18818117390E-01  0.10205982964E+01  0.10203315707E+01 0.  0.
     999903    2    3    3    0    0  0.93069544807E-01 -0.76023163528E-01  0.47075625713E-01  0.13066387897E+00  0.20383158957E-01 0.  0.
         14    1    1    2    0    0  0.34407077782E-02  0.13356960036E-01  0.18818117390E-01  0.23331703614E-01  0.00000000000E+00 0.  1.
     999901    1    3    3    0    0 -0.96510252585E-01  0.62666203492E-01 -0.65893743102E-01  0.88993441741E+00  0.88000000000E+00 0. -1.
        -11    1    4    4    0    0  0.38186243491E-01 -0.41996456825E-01  0.28208381991E-01  0.63386635132E-01  0.51100000000E-03 0.  1.
         11    1    4    4    0    0  0.54883301316E-01 -0.34026706703E-01  0.18867243722E-01  0.67277243842E-01  0.51100000000E-03 0. -1.
</event>
<event>
 8    1  0.1065239E+005  0.1043930E+01  0.7957747E-01            NaN
         13   -1    0    0    0    0  0.00000000000E+00  0.00000000000E+00  0.74505805969E-08  0.10566000000E+00  0.10566000000E+00 0. -1.
     999900   -1    0    0    0    0 -0.00000000000E+00 -0.00000000000E+00 -0.74505805969E-08  0.93827000000E+00  0.93827000000E+00 0.  1.
     999902    2    1    2    0    0  0.10923354257E-01 -0.17687661351E-01  0.11121419915E-01  0.10203533375E+01  0.10200809156E+01 0.  0.
     999903    2    3    3    0    0  0.29838356127E-01  0.83985076020E-01 -0.90481575260E-01  0.12849107717E+00  0.19473596516E-01 0.  0.
         14    1    1    2    0    0 -0.10923354257E-01  0.17687661351E-01 -0.11121419915E-01  0.23576662470E-01  0.00000000000E+00 0.  1.
     999901    1    3    3    0    0 -0.18915001870E-01 -0.10167273737E+00  0.10160299517E+00  0.89186226036E+00  0.88000000000E+00 0. -1.
        -11    1    4    4    0    0  0.70921480197E-02  0.45871785473E-01 -0.52424020867E-01  0.70021841955E-01  0.51100000000E-03 0.  1.
         11    1    4    4    0    0  0.22746208108E-01  0.38113290547E-01 -0.38057554394E-01  0.58469235219E-01  0.51100000000E-03 0. -1.
</event>
<event>
 8    1  0.1065239E+005  0.1043930E+01  0.7957747E-01            NaN
         13   -1    0    0    0    0  0.00000000000E+00  0.00000000000E+00  0.74505805969E-08  0.10566000000E+00  0.10566000000E+00 0.  1.
     999900   -1    0    0    0    0 -0.00000000000E+00 -0.00000000000E+00 -0.74505805969E-08  0.93827000000E+00  0.93827000000E+00 0.  1.
     999902    2    1    2    0    0  0.63868098748E-02  0.12666236609E-01  0.20047059122E-01  0.10193717128E+01  0.10190758458E+01 0.  0.
     999903    2    3    3    0    0 -0.47015342327E-01 -0.67696878214E-01  0.99389724844E-01  0.13054930159E+00  0.19274153867E-01 0.  0.
         14    1    1    2    0    0 -0.63868098748E-02 -0.12666236609E-01 -0.20047059122E-01  0.24558287189E-01  0.00000000000E+00 0. -1.
     999901    1    3    3    0    0  0.53402152201E-01  0.80363114823E-01 -0.79342665721E-01  0.88882241122E+00  0.88000000000E+00 0.  1.
        -11    1    4    4    0    0 -0.40051559628E-01 -0.63285358396E-01  0.80610228928E-01  0.11003378638E+00  0.51100000000E-03 0.  1.
         11    1    4    4    0    0 -0.69637826985E-02 -0.44115198182E-02  0.18779495916E-01  0.20515515212E-01  0.51100000000E-03 0. -1.
</event>
<event>
 8    1  0.1065239E+005  0.1043930E+01  0.7957747E-01            NaN
         13   -1    0    0    0    0  0.00000000000E+00  0.00000000000E+00  0.74505805969E-08  0.10566000000E+00  0.10566000000E+00 0. -1.
     999900   -1    0    0    0    0 -0.00000000000E+00 -0.00000000000E+00 -0.74505805969E-08  0.93827000000E+00  0.93827000000E+00 0. -1.
     999902    2    1    2    0    0 -0.20624180437E-01  0.93554833992E-02  0.62155830571E-02  0.10204456358E+01  0.10201753674E+01 0.  0.
     999903    2    3    3    0    0 -0.22074417669E-01  0.12728868366E+00 -0.20715845664E-01  0.13216885195E+00  0.18702145836E-01 0.  0.
         14    1    1    2    0    0  0.20624180437E-01 -0.93554833992E-02 -0.62155830571E-02  0.23484364183E-01  0.00000000000E+00 0.  1.
     999901    1    3    3    0    0  0.14502372311E-02 -0.11793320026E+00  0.26931428721E-01  0.88827678387E+00  0.88000000000E+00 0.  1.
        -11    1    4    4    0    0 -0.19860142249E-02  0.66089798994E-01 -0.10412441399E-01  0.66936431340E-01  0.51100000000E-03 0.  1.
         11    1    4    4    0    0 -0.20088403444E-01  0.61198884668E-01 -0.10303404265E-01  0.65232420605E-01  0.51100000000E-03 0. -1.
</event>
<event>
 8    1  0.1065239E+005  0.1043930E+01  0.7957747E-01            NaN
         13   -1    0    0    0    0  0.00000000000E+00  0.00000000000E+00  0.74505805969E-08  0.10566000000E+00  0.10566000000E+00 0.  1.
     999900   -1    0    0    0    0 -0.00000000000E+00 -0.00000000000E+00 -0.74505805969E-08  0.93827000000E+00  0.93827000000E+00 0.  1.
     999902    2    1    2    0    0  0.11279208497E-02  0.20550859188E-01  0.13387336655E-01  0.10193773871E+01  0.10190816584E+01 0.  0.
     999903    2    3    3    0    0  0.14467708362E-01 -0.11384520932E+00 -0.50614732633E-01  0.12677640229E+00  0.18448814246E-01 0.  0.
         14    1    1    2    0    0 -0.11279208497E-02 -0.20550859188E-01 -0.13387336655E-01  0.24552612926E-01  0.00000000000E+00 0. -1.
     999901    1    3    3    0    0 -0.13339787512E-01  0.13439606851E+00  0.64002069287E-01  0.89260098478E+00  0.88000000000E+00 0. -1.
        -11    1    4    4    0    0  0.11017615010E-02 -0.32826169786E-01 -0.23161256110E-01  0.40192987036E-01  0.51100000000E-03 0.  1.
         11    1    4    4    0    0  0.13365946861E-01 -0.81019039538E-01 -0.27453476522E-01  0.86583415255E-01  0.51100000000E-03 0. -1.
</event>
<event>
 8    1  0.1065239E+005  0.1043930E+01  0.7957747E-01            NaN
         13   -1    0    0    0    0  0.00000000000E+00  0.00000000000E+00  0.74505805969E-08  0.10566000000E+00  0.10566000000E+00 0. -1.
     999900   -1    0    0    0    0 -0.00000000000E+00 -0.00000000000E+00 -0.74505805969E-08  0.93827000000E+00  0.93827000000E+00 0. -1.
     999902    2    1    2    0    0 -0.63771111761E-02  0.42625540900E-02 -0.22611529132E-01  0.10200528527E+01  0.10197733592E+01 0.  0.
     999903    2    3    3    0    0  0.10451387063E+00  0.70309137067E-01  0.21741054052E-01  0.12953271669E+00  0.20964907676E-01 0.  0.
         14    1    1    2    0    0  0.63771111761E-02 -0.42625540900E-02  0.22611529132E-01  0.23877147318E-01  0.00000000000E+00 0. -1.
     999901    1    3    3    0    0 -0.11089098180E+00 -0.66046582977E-01 -0.44352583184E-01  0.89052013599E+00  0.88000000000E+00 0. -1.
        -11    1    4    4    0    0  0.37692148909E-01  0.30199633597E-01  0.17866702581E-01  0.51499477094E-01  0.51100000000E-03 0.  1.
         11    1    4    4    0    0  0.66821721718E-01  0.40109503470E-01  0.38743514703E-02  0.78033239599E-01  0.51100000000E-03 0. -1.
</event>
<event>
 8    1  0.1065239E+005  0.1043930E+01  0.7957747E-01            NaN
         13   -1    0    0    0    0  0.00000000000E+00  0.00000000000E+00  0.74505805969E-08  0.10566000000E+00  0.10566000000E+00 0.  1.
     999900   -1    0    0    0    0 -0.00000000000E+00 -0.00000000000E+00 -0.74505805969E-08  0.93827000000E+00  0.93827000000E+00 0.  1.
     999902    2    1    2    0    0  0.16399342916E-01 -0.36587292940E-02 -0.16739864596E-01  0.10202119095E+01  0.10199361708E+01 0.  0.
     999903    2    3    3    0    0  0.50260700070E-02  0.78429907160E-01  0.10032387843E+00  0.12859998976E+00  0.17221064590E-01 0.  0.
         14    1    1    2    0    0 -0.16399342916E-01  0.36587292940E-02  0.16739864596E-01  0.23718090455E-01  0.00000000000E+00 0.  1.
     999901    1    3    3    0    0  0.11373272909E-01 -0.82088636454E-01 -0.11706374303E+00  0.89161191979E+00  0.88000000000E+00 0.  1.
        -11    1    4    4    0    0  0.75531338068E-02  0.33936564107E-01  0.54735085019E-01  0.64845438288E-01  0.51100000000E-03 0.  1.
         11    1    4    4    0    0 -0.25270637998E-02  0.44493343053E-01  0.45588793413E-01  0.63754551472E-01  0.51100000000E-03 0. -1.
</event>
<event>
 8    1  0.1065239E+005  0.1043930E+01  0.7957747E-01            NaN
         13   -1    0    0    0    0  0.00000000000E+00  0.00000000000E+00  0.74505805969E-08  0.10566000000E+00  0.10566000000E+00 0. -1.
     999900   -1    0    0    0    0 -0.00000000000E+00 -0.00000000000E+00 -0.74505805969E-08  0.93827000000E+00  0.93827000000E+00 0. -1.
     999902    2    1    2    0    0 -0.23035030073E-01 -0.13610188132E-02 -0.12053515349E-04  0.10208547941E+01  0.10205939670E+01 0.  0.
     999903    2    3    3    0    0 -0.31871661966E-01 -0.12016513121E+00  0.39467092121E-01  0.13195035258E+00  0.19944487727E-01 0.  0.
         14    1    1    2    0    0  0.23035030073E-01  0.13610188132E-02  0.12053515349E-04  0.23075205914E-01  0.00000000000E+00 0.  1.
     999901    1    3    3    0    0  0.88366318934E-02  0.11880411240E+00 -0.39479145637E-01  0.88890444150E+00  0.88000000000E+00 0.  1.
        -11    1    4    4    0    0 -0.49612267262E-02 -0.19909885712E-01  0.14657489867E-01  0.25221428388E-01  0.51100000000E-03 0.  1.
         11    1    4    4    0    0 -0.26910435240E-01 -0.10025524550E+00  0.24809602254E-01  0.10672892419E+00  0.51100000000E-03 0. -1.
</event>
<event>
 8    1  0.1065239E+005  0.1043930E+01  0.7957747E-01            NaN
         13   -1    0    0    0    0  0.00000000000E+00  0.00000000000E+00  0.74505805969E-08  0.10566000000E+00  0.10566000000E+00 0.  1.
     999900   -1    0    0    0    0 -0.00000000000E+00 -0.00000000000E+00 -0.74505805969E-08  0.93827000000E+00  0.93827000000E+00 0. -1.
     999902    2    1    2    0    0 -0.72730994014E-02  0.18237128308E-01  0.10824191963E-01  0.10215100545E+01  0.10212639901E+01 0.  0.
     999903    2    3    3    0    0 -0.90368686921E-01 -0.23932996340E-01  0.92312803391E-01  0.13284611923E+00  0.19676123501E-01 0.  0.
         14    1    1    2    0    0  0.72730994014E-02 -0.18237128308E-01 -0.10824191963E-01  0.22419945484E-01  0.00000000000E+00 0. -1.
     999901    1    3    3    0    0  0.83095587520E-01  0.42170124649E-01 -0.81488611428E-01  0.88866393528E+00  0.88000000000E+00 0. -1.
        -11    1    4    4    0    0 -0.48342558904E-02 -0.53321262479E-02  0.12259142644E-01  0.14224953417E-01  0.51100000000E-03 0.  1.
         11    1    4    4    0    0 -0.85534431031E-01 -0.18600870092E-01  0.80053660746E-01  0.11862116582E+00  0.51100000000E-03 0. -1.
</event>
<event>
 8    1  0.1065239E+005  0.1043930E+01  0.7957747E-01            NaN
         13   -1    0    0    0    0  0.00000000000E+00  0.00000000000E+00  0.74505805969E-08  0.10566000000E+00  0.10566000000E+00 0. -1.
     999900   -1    0    0    0    0 -0.00000000000E+00 -0.00000000000E+00 -0.74505805969E-08  0.93827000000E+00  0.93827000000E+00 0. -1.
     999902    2    1    2    0    0 -0.39311390863E-02 -0.47410563067E-02  0.20944455364E-01  0.10220987911E+01  0.10218656160E+01 0.  0.
     999903    2    3    3    0    0  0.80581760895E-01 -0.79113612095E-01 -0.61896251842E-01  0.13106776470E+00  0.24397318393E-01 0.  0.
         14    1    1    2    0    0  0.39311390863E-02  0.47410563067E-02 -0.20944455364E-01  0.21831208851E-01  0.00000000000E+00 0.  1.
     999901    1    3    3    0    0 -0.84512899981E-01  0.74372555788E-01  0.82840707206E-01  0.89103102645E+00  0.88000000000E+00 0.  1.
        -11    1    4    4    0    0  0.59529075918E-01 -0.44391678014E-01 -0.33206154155E-01  0.81346430477E-01  0.51100000000E-03 0. -1.
         11    1    4    4    0    0  0.21052684977E-01 -0.34721934080E-01 -0.28690097687E-01  0.49721334227E-01  0.51100000000E-03 0.  1.
</event>
<event>
 8    1  0.1065239E+005  0.1043930E+01  0.7957747E-01            NaN
         13   -1    0    0    0    0  0.00000000000E+00  0.00000000000E+00  0.74505805969E-08  0.10566000000E+00  0.10566000000E+00 0.  1.
     999900   -1    0    0    0    0 -0.00000000000E+00 -0.00000000000E+00 -0.74505805969E-08  0.93827000000E+00  0.93827000000E+00 0.  1.
     999902    2    1    2    0    0  0.81869675528E-02 -0.25203269165E-01  0.45771095646E-02  0.10170379724E+01  0.10166823773E+01 0.  0.
     999903    2    3    3    0    0 -0.48608116004E-01 -0.47226991178E-02  0.11644594273E+00  0.12790369062E+00  0.20362801086E-01 0.  0.
         14    1    1    2    0    0 -0.81869675528E-02  0.25203269165E-01 -0.45771095646E-02  0.26892027560E-01  0.00000000000E+00 0. -1.
     999901    1    3    3    0    0  0.56795083557E-01 -0.20480570047E-01 -0.11186883317E+00  0.88913428182E+00  0.88000000000E+00 0.  1.
        -11    1    4    4    0    0 -0.35971911671E-01  0.35200166000E-02  0.95277826680E-01  0.10190433908E+00  0.51100000000E-03 0.  1.
         11    1    4    4    0    0 -0.12636204333E-01 -0.82427157177E-02  0.21168116053E-01  0.25999351541E-01  0.51100000000E-03 0. -1.
</event>
<event>
 8    1  0.1065239E+005  0.1043930E+01  0.7957747E-01            NaN
         13   -1    0    0    0    0  0.00000000000E+00  0.00000000000E+00  0.74505805969E-08  0.10566000000E+00  0.10566000000E+00 0.  1.
     999900   -1    0    0    0    0 -0.00000000000E+00 -0.00000000000E+00 -0.74505805969E-08  0.93827000000E+00  0.93827000000E+00 0.  1.
     999902    2    1    2    0    0  0.16595848533E-01 -0.43034441968E-02 -0.15789767121E-01  0.10206220922E+01  0.10203559166E+01 0.  0.
     999903    2    3    3    0    0 -0.63765389776E-02  0.12735422472E+00  0.21230358187E-01  0.12976185509E+00  0.11298323952E-01 0.  0.
         14    1    1    2    0    0 -0.16595848533E-01  0.43034441968E-02  0.15789767121E-01  0.23307907805E-01  0.00000000000E+00 0.  1.
     999901    1    3    3    0    0  0.22972387511E-01 -0.13165766892E+00 -0.37020125309E-01  0.89086023710E+00  0.88000000000E+00 0. -1.
        -11    1    4    4    0    0 -0.51436554166E-02  0.36613326386E-01  0.10101095597E-01  0.38331268089E-01  0.51100000000E-03 0.  1.
         11    1    4    4    0    0 -0.12328835610E-02  0.90740898337E-01  0.11129262590E-01  0.91430587003E-01  0.51100000000E-03 0. -1.
</event>
<event>
 8    1  0.1065239E+005  0.1043930E+01  0.7957747E-01            NaN
         13   -1    0    0    0    0  0.00000000000E+00  0.00000000000E+00  0.74505805969E-08  0.10566000000E+00  0.10566000000E+00 0.  1.
     999900   -1    0    0    0    0 -0.00000000000E+00 -0.00000000000E+00 -0.74505805969E-08  0.93827000000E+00  0.93827000000E+00 0. -1.
     999902    2    1    2    0    0  0.17931436527E-01  0.16370771356E-01  0.38864307874E-02  0.10193405121E+01  0.10190438836E+01 0.  0.
     999903    2    3    3    0    0  0.38313748211E-01 -0.59080550676E-01 -0.10610501914E+00  0.12905602966E+00  0.20945857219E-01 0.  0.
         14    1    1    2    0    0 -0.17931436527E-01 -0.16370771356E-01 -0.38864307874E-02  0.24589487896E-01  0.00000000000E+00 0.  1.
     999901    1    3    3    0    0 -0.20382311684E-01  0.75451322033E-01  0.10999144993E+00  0.89028448245E+00  0.88000000000E+00 0.  1.
        -11    1    4    4    0    0  0.40946774677E-02 -0.47311282007E-02 -0.24038925489E-01  0.24845140717E-01  0.51100000000E-03 0. -1.
         11    1    4    4    0    0  0.34219070743E-01 -0.54349422476E-01 -0.82066093650E-01  0.10421088894E+00  0.51100000000E-03 0.  1.
</event>
<event>
 8    1  0.1065239E+005  0.1043930E+01  0.7957747E-01            NaN
         13   -1    0    0    0    0  0.00000000000E+00  0.00000000000E+00  0.74505805969E-08  0.10566000000E+00  0.10566000000E+00 0.  1.
     999900   -1    0    0    0    0 -0.00000000000E+00 -0.00000000000E+00 -0.74505805969E-08  0.93827000000E+00  0.93827000000E+00 0. -1.
     999902    2    1    2    0    0  0.21706467468E-01 -0.12446088068E-01 -0.30715736483E-02  0.10187206683E+01  0.10184087046E+01 0.  0.
     999903    2    3    3    0    0  0.11691117549E+00 -0.41577385084E-01  0.42223096366E-01  0.13194889611E+00  0.15192742088E-01 0.  0.
         14    1    1    2    0    0 -0.21706467468E-01  0.12446088068E-01  0.30715736483E-02  0.25209331661E-01  0.00000000000E+00 0.  1.
     999901    1    3    3    0    0 -0.95204708022E-01  0.29131297016E-01 -0.45294670014E-01  0.88677177223E+00  0.88000000000E+00 0. -1.
        -11    1    4    4    0    0  0.88948431170E-01 -0.25676359325E-01  0.27586774594E-01  0.96604296433E-01  0.51100000000E-03 0.  1.
         11    1    4    4    0    0  0.27962744321E-01 -0.15901025759E-01  0.14636321772E-01  0.35344599674E-01  0.51100000000E-03 0. -1.
</event>
<event>
 8    1  0.1065239E+005  0.1043930E+01  0.7957747E-01            NaN
         13   -1    0    0    0    0  0.00000000000E+00  0.00000000000E+00  0.74505805969E-08  0.10566000000E+00  0.10566000000E+00 0. -1.
     999900   -1    0    0    0    0 -0.00000000000E+00 -0.00000000000E+00 -0.74505805969E-08  0.93827000000E+00  0.93827000000E+00 0.  1.
     999902    2    1    2    0    0  0.40209748035E-02  0.22433070678E-01  0.37934743123E-02  0.10208258587E+01  0.10205643696E+01 0.  0.
     999903    2    3    3    0    0  0.10951130101E+00 -0.36178281192E-01  0.58523300629E-01  0.13090515807E+00  0.20238345193E-01 0.  0.
         14    1    1    2    0    0 -0.40209748035E-02 -0.22433070678E-01 -0.37934743123E-02  0.23104141312E-01  0.00000000000E+00 0. -1.
     999901    1    3    3    0    0 -0.10549032620E+00  0.58611351870E-01 -0.54729826316E-01  0.88992070061E+00  0.88000000000E+00 0.  1.
        -11    1    4    4    0    0  0.50562214452E-01 -0.26779965924E-01  0.32274821552E-01  0.65693449692E-01  0.51100000000E-03 0.  1.
         11    1    4    4    0    0  0.58949086554E-01 -0.93983152674E-02  0.26248479076E-01  0.65211708383E-01  0.51100000000E-03 0. -1.
</event>
<event>
 8    1  0.1065239E+005  0.1043930E+01  0.7957747E-01            NaN
         13   -1    0    0    0    0  0.00000000000E+00  0.00000000000E+00  0.74505805969E-08  0.10566000000E+00  0.10566000000E+00 0.  1.
     999900   -1    0    0    0    0 -0.00000000000E+00 -0.00000000000E+00 -0.74505805969E-08  0.93827000000E+00  0.93827000000E+00 0. -1.
     999902    2    1    2    0    0 -0.90780009689E-03  0.19908945811E-01 -0.12900116311E-01  0.10201896709E+01  0.10199134088E+01 0.  0.
     999903    2    3    3    0    0 -0.68972090822E-01  0.79970122939E-01  0.75274658499E-01  0.13113686957E+00  0.19448251139E-01 0.  0.
         14    1    1    2    0    0  0.90780009689E-03 -0.19908945811E-01  0.12900116311E-01  0.23740329087E-01  0.00000000000E+00 0.  1.
     999901    1    3    3    0    0  0.68064290725E-01 -0.60061177128E-01 -0.88174774810E-01  0.88905280135E+00  0.88000000000E+00 0. -1.
        -11    1    4    4    0    0 -0.29825470594E-01  0.27629240401E-01  0.18970666896E-01  0.44867370603E-01  0.51100000000E-03 0. -1.
         11    1    4    4    0    0 -0.39146620227E-01  0.52340882537E-01  0.56303991603E-01  0.86269498964E-01  0.51100000000E-03 0.  1.
</event>
<event>
 8    1  0.1065239E+005  0.1043930E+01  0.7957747E-01            NaN
         13   -1    0    0    0    0  0.00000000000E+00  0.00000000000E+00  0.74505805969E-08  0.10566000000E+00  0.10566000000E+00 0. -1.
     999900   -1    0    0    0    0 -0.00000000000E+00 -0.00000000000E+00 -0.74505805969E-08  0.93827000000E+00  0.93827000000E+00 0.  1.
     999902    2    1    2    0    0  0.40055577264E-03  0.15118759582E-01 -0.17997128651E-01  0.10204218317E+01  0.10201510088E+01 0.  0.
     999903    2    3    3    0    0  0.33639234766E-01  0.21314238401E-01  0.12065523326E+00  0.12892439975E+00  0.21861396669E-01 0.  0.
         14    1    1    2    0    0 -0.40055577264E-03 -0.15118759582E-01  0.17997128651E-01  0.23508168281E-01  0.00000000000E+00 0. -1.
     999901    1    3    3    0    0 -0.33238678993E-01 -0.61954788183E-02 -0.13865236191E+00  0.89149743197E+00  0.88000000000E+00 0.  1.
        -11    1    4    4    0    0  0.10825267299E-01  0.18867154084E-01  0.47337627465E-01  0.52098637318E-01  0.51100000000E-03 0. -1.
         11    1    4    4    0    0  0.22813967467E-01  0.24470843164E-02  0.73317605795E-01  0.76825762435E-01  0.51100000000E-03 0.  1.
</event>
<event>
 8    1  0.1065239E+005  0.1043930E+01  0.7957747E-01            NaN
         13   -1    0    0    0    0  0.00000000000E+00  0.00000000000E+00  0.74505805969E-08  0.10566000000E+00  0.10566000000E+00 0.  1.
     999900   -1    0    0    0    0 -0.00000000000E+00 -0.00000000000E+00 -0.74505805969E-08  0.93827000000E+00  0.93827000000E+00 0. -1.
     999902    2    1    2    0    0 -0.23479895267E-01 -0.36147213603E-02 -0.20627134051E-02  0.10200841098E+01  0.10198053562E+01 0.  0.
     999903    2    3    3    0    0  0.30402159972E-01  0.40145412600E-01 -0.11791712166E+00  0.12978052726E+00  0.20064700094E-01 0.  0.
         14    1    1    2    0    0  0.23479895267E-01  0.36147213603E-02  0.20627134051E-02  0.23845890188E-01  0.00000000000E+00 0. -1.
     999901    1    3    3    0    0 -0.53882055239E-01 -0.43760133960E-01  0.11585440826E+00  0.89030358256E+00  0.88000000000E+00 0.  1.
        -11    1    4    4    0    0  0.27082143458E-01  0.25149102261E-01 -0.97163703072E-01  0.10395655898E+00  0.51100000000E-03 0.  1.
         11    1    4    4    0    0  0.33200165141E-02  0.14996310339E-01 -0.20753418590E-01  0.25823968277E-01  0.51100000000E-03 0. -1.
</event>
<event>
 8    1  0.1065239E+005  0.1043930E+01  0.7957747E-01            NaN
         13   -1    0    0    0    0  0.00000000000E+00  0.00000000000E+00  0.74505805969E-08  0.10566000000E+00  0.10566000000E+00 0. -1.
     999900   -1    0    0    0    0 -0.00000000000E+00 -0.00000000000E+00 -0.74505805969E-08  0.93827000000E+00  0.93827000000E+00 0. -1.
     999902    2    1    2    0    0 -0.25341963177E-01 -0.90322394556E-02 -0.50406778247E-02  0.10165583928E+01  0.10161898253E+01 0.  0.
     999903    2    3    3    0    0  0.62405020543E-01 -0.93205000741E-01 -0.55938563044E-01  0.12674089376E+00  0.18776915712E-01 0.  0.
         14    1    1    2    0    0  0.25341963177E-01  0.90322394556E-02  0.50406778247E-02  0.27371607191E-01  0.00000000000E+00 0. -1.
     999901    1    3    3    0    0 -0.87746983720E-01  0.84172761286E-01  0.50897885219E-01  0.88981749905E+00  0.88000000000E+00 0.  1.
        -11    1    4    4    0    0  0.92252157599E-02 -0.98833550075E-02 -0.79621620359E-03  0.13552873985E-01  0.51100000000E-03 0. -1.
         11    1    4    4    0    0  0.53179804783E-01 -0.83321645734E-01 -0.55142346840E-01  0.11318801977E+00  0.51100000000E-03 0.  1.
</event>
<event>
 8    1  0.1065239E+005  0.1043930E+01  0.7957747E-01            NaN
         13   -1    0    0    0    0  0.00000000000E+00  0.00000000000E+00  0.74505805969E-08  0.10566000000E+00  0.10566000000E+00 0. -1.
     999900   -1    0    0    0    0 -0.00000000000E+00 -0.00000000000E+00 -0.74505805969E-08  0.93827000000E+00  0.93827000000E+00 0. -1.
     999902    2    1    2    0    0 -0.11395791240E-01  0.14348754062E-01  0.15018040224E-01  0.10202383911E+01  0.10199632750E+01 0.  0.
     999903    2    3    3    0    0 -0.68954569854E-01  0.65396518209E-01 -0.87796585921E-01  0.13091857539E+00  0.19999889658E-01 0.  0.
         14    1    1    2    0    0  0.11395791240E-01 -0.14348754062E-01 -0.15018040224E-01  0.23691608921E-01  0.00000000000E+00 0.  1.
     999901    1    3    3    0    0  0.57558778614E-01 -0.51047764147E-01  0.10281462614E+00  0.88931981568E+00  0.88000000000E+00 0.  1.
        -11    1    4    4    0    0 -0.43628577354E-01  0.33410012046E-01 -0.39407480997E-01  0.67623164274E-01  0.51100000000E-03 0. -1.
         11    1    4    4    0    0 -0.25325992500E-01  0.31986506163E-01 -0.48389104924E-01  0.63295411120E-01  0.51100000000E-03 0.  1.
</event>
<event>
 8    1  0.1065239E+005  0.1043930E+01  0.7957747E-01            NaN
         13   -1    0    0    0    0  0.00000000000E+00  0.00000000000E+00  0.74505805969E-08  0.10566000000E+00  0.10566000000E+00 0. -1.
     999900   -1    0    0    0    0 -0.00000000000E+00 -0.00000000000E+00 -0.74505805969E-08  0.93827000000E+00  0.93827000000E+00 0.  1.
     999902    2    1    2    0    0 -0.83591096469E-02 -0.10565182000E-01  0.19253897337E-01  0.10204308437E+01  0.10201602307E+01 0.  0.
     999903    2    3    3    0    0  0.35557918761E-01  0.48494027239E-01  0.11579969423E+00  0.13209656737E+00  0.20588775173E-01 0.  0.
         14    1    1    2    0    0  0.83591096469E-02  0.10565182000E-01 -0.19253897337E-01  0.23499156314E-01  0.00000000000E+00 0.  1.
     999901    1    3    3    0    0 -0.43917028408E-01 -0.59059209239E-01 -0.96545796891E-01  0.88833427632E+00  0.88000000000E+00 0.  1.
        -11    1    4    4    0    0  0.18412085313E-01  0.34436371673E-01  0.55626415174E-01  0.67966372316E-01  0.51100000000E-03 0. -1.
         11    1    4    4    0    0  0.17145833448E-01  0.14057655566E-01  0.60173279054E-01  0.64130195055E-01  0.51100000000E-03 0.  1.
</event>
<event>
 8    1  0.1065239E+005  0.1043930E+01  0.7957747E-01            NaN
         13   -1    0    0    0    0  0.00000000000E+00  0.00000000000E+00  0.74505805969E-08  0.10566000000E+00  0.10566000000E+00 0. -1.
     999900   -1    0    0    0    0 -0.00000000000E+00 -0.00000000000E+00 -0.74505805969E-08  0.93827000000E+00  0.93827000000E+00 0. -1.
     999902    2    1    2    0    0 -0.38256110460E-02 -0.16232600087E-01  0.16583934408E-01  0.10204106572E+01  0.10201395737E+01 0.  0.
     999903    2    3    3    0    0 -0.10362699348E+00  0.27152953746E-01 -0.66194616966E-01  0.12985189396E+00  0.31685175921E-01 0.  0.
         14    1    1    2    0    0  0.38256110460E-02  0.16232600087E-01 -0.16583934408E-01  0.23519342803E-01  0.00000000000E+00 0.  1.
     999901    1    3    3    0    0  0.99801382437E-01 -0.43385553833E-01  0.82778551374E-01  0.89055876324E+00  0.88000000000E+00 0.  1.
        -11    1    4    4    0    0 -0.78863804910E-01  0.33454408546E-01 -0.45720064770E-01  0.97104493303E-01  0.51100000000E-03 0. -1.
         11    1    4    4    0    0 -0.24763188573E-01 -0.63014547994E-02 -0.20474552196E-01  0.32747400653E-01  0.51100000000E-03 0.  1.
</event>
<event>
 8    1  0.1065239E+005  0.1043930E+01  0.7957747E-01            NaN
         13   -1    0    0    0    0  0.00000000000E+00  0.00000000000E+00  0.74505805969E-08  0.10566000000E+00  0.10566000000E+00 0. -1.
     999900   -1    0    0    0    0 -0.00000000000E+00 -0.00000000000E+00 -0.74505805969E-08  0.93827000000E+00  0.93827000000E+00 0. -1.
     999902    2    1    2    0    0 -0.25559735417E-01  0.19200958625E-01 -0.91938975566E-02  0.10106658355E+01  0.10101182735E+01 0.  0.
     999903    2    3    3    0    0 -0.10774615206E+00 -0.39265795128E-01  0.41192637512E-01  0.12347263711E+00  0.19940480921E-01 0.  0.
         14    1    1    2    0    0  0.25559735417E-01 -0.19200958625E-01  0.91938975566E-02  0.33264164487E-01  0.00000000000E+00 0.  1.
     999901    1    3    3    0    0  0.82186416642E-01  0.58466753753E-01 -0.50386535069E-01  0.88719319840E+00  0.88000000000E+00 0. -1.
        -11    1    4    4    0    0 -0.10496346030E+00 -0.39238496304E-01  0.36248319621E-01  0.11777601363E+00  0.51100000000E-03 0. -1.
         11    1    4    4    0    0 -0.27826917551E-02 -0.27298824031E-04  0.49443178912E-02  0.56966234770E-02  0.51100000000E-03 0.  1.
</event>
<event>
 8    1  0.1065239E+005  0.1043930E+01  0.7957747E-01            NaN
         13   -1    0    0    0    0  0.00000000000E+00  0.00000000000E+00  0.74505805969E-08  0.10566000000E+00  0.10566000000E+00 0.  1.
     999900   -1    0    0    0    0 -0.00000000000E+00 -0.00000000000E+00 -0.74505805969E-08  0.93827000000E+00  0.93827000000E+00 0.  1.
     999902    2    1    2    0    0 -0.16058431712E-01 -0.73598195195E-02 -0.16093255581E-01  0.10200337022E+01  0.10197537549E+01 0.  0.
     999903    2    3    3    0    0 -0.11343796058E+00  0.27147457653E-01 -0.60177788406E-01  0.13289393259E+00  0.20839283717E-01 0.  0.
         14    1    1    2    0    0  0.16058431712E-01  0.73598195195E-02  0.16093255581E-01  0.23896297780E-01  0.00000000000E+00 0. -1.
     999901    1    3    3    0    0  0.97379528863E-01 -0.34507277173E-01  0.44084532825E-01  0.88713976963E+00  0.88000000000E+00 0. -1.
        -11    1    4    4    0    0 -0.22865905907E-01  0.97554254772E-02 -0.21546539050E-01  0.32901860818E-01  0.51100000000E-03 0.  1.
         11    1    4    4    0    0 -0.90572054668E-01  0.17392032176E-01 -0.38631249356E-01  0.99992071775E-01  0.51100000000E-03 0. -1.
</event>
<event>
 8    1  0.1115929E+005  0.1043930E+01  0.7957747E-01            NaN
         13   -1    0    0    0    0  0.00000000000E+00  0.00000000000E+00  0.74505805969E-08  0.10566000000E+00  0.10566000000E+00 0.  1.
     999900   -1    0    0    0    0 -0.00000000000E+00 -0.00000000000E+00 -0.74505805969E-08  0.93827000000E+00  0.93827000000E+00 0.  1.
     999902    2    1    2    0    0 -0.85622850888E-02  0.21889018623E-01  0.14318864965E-02  0.10203823428E+01  0.10201105985E+01 0.  0.
     999903    2    3    3    0    0  0.10509405824E+00 -0.70936373395E-01 -0.27005130426E-02  0.12822126174E+00  0.18885683563E-01 0.  0.
         14    1    1    2    0    0  0.85622850888E-02 -0.21889018623E-01 -0.14318864965E-02  0.23547657233E-01  0.00000000000E+00 0.  1.
     999901    1    3    3    0    0 -0.11365634332E+00  0.92825392018E-01  0.41323995391E-02  0.89216108103E+00  0.88000000000E+00 0. -1.
        -11    1    4    4    0    0  0.38035979838E-01 -0.23152359849E-01  0.78078198705E-02  0.45210515381E-01  0.51100000000E-03 0. -1.
         11    1    4    4    0    0  0.67058078397E-01 -0.47784013546E-01 -0.10508332913E-01  0.83010746355E-01  0.51100000000E-03 0.  1.
</event>
<event>
 8    1  0.1065239E+005  0.1043930E+01  0.7957747E-01            NaN
         13   -1    0    0    0    0  0.00000000000E+00  0.00000000000E+00  0.74505805969E-08  0.10566000000E+00  0.10566000000E+00 0.  1.
     999900   -1    0    0    0    0 -0.00000000000E+00 -0.00000000000E+00 -0.74505805969E-08  0.93827000000E+00  0.93827000000E+00 0.  1.
     999902    2    1    2    0    0 -0.10214694949E-01 -0.15215776572E-01  0.14732778168E-01  0.10204158638E+01  0.10201449017E+01 0.  0.
     999903    2    3    3    0    0  0.75391595313E-01 -0.95073639598E-01  0.48435056507E-01  0.13202318102E+00  0.19007262749E-01 0.  0.
         14    1    1    2    0    0  0.10214694949E-01  0.15215776572E-01 -0.14732778168E-01  0.23514136220E-01  0.00000000000E+00 0. -1.
     999901    1    3    3    0    0 -0.85606290262E-01  0.79857863026E-01 -0.33702278339E-01  0.88839268276E+00  0.88000000000E+00 0.  1.
        -11    1    4    4    0    0  0.64992343682E-01 -0.80683037470E-01  0.48178145899E-01  0.11425914465E+00  0.51100000000E-03 0.  1.
         11    1    4    4    0    0  0.10399251631E-01 -0.14390602128E-01  0.25691060857E-03  0.17764036370E-01  0.51100000000E-03 0. -1.
</event>
<event>
 8    1  0.1065239E+005  0.1043930E+01  0.7957747E-01            NaN
         13   -1    0    0    0    0  0.00000000000E+00  0.00000000000E+00  0.74505805969E-08  0.10566000000E+00  0.10566000000E+00 0.  1.
     999900   -1    0    0    0    0 -0.00000000000E+00 -0.00000000000E+00 -0.74505805969E-08  0.93827000000E+00  0.93827000000E+00 0.  1.
     999902    2    1    2    0    0  0.23639744711E-01 -0.60515082599E-02  0.12144925684E-02  0.10194977820E+01  0.10192049815E+01 0.  0.
     999903    2    3    3    0    0 -0.23344345922E-01  0.10259554339E+00 -0.71166646832E-01  0.12862701928E+00  0.20233992598E-01 0.  0.
         14    1    1    2    0    0 -0.23639744711E-01  0.60515082599E-02 -0.12144925684E-02  0.24432217959E-01  0.00000000000E+00 0. -1.
     999901    1    3    3    0    0  0.46984090633E-01 -0.10864705165E+00  0.72381139400E-01  0.89087076276E+00  0.88000000000E+00 0.  1.
        -11    1    4    4    0    0 -0.19180577586E-01  0.51755007417E-01 -0.45433055615E-01  0.71490551913E-01  0.51100000000E-03 0.  1.
         11    1    4    4    0    0 -0.41637683355E-02  0.50840535975E-01 -0.25733591217E-01  0.57136467364E-01  0.51100000000E-03 0. -1.
</event>
<event>
 8    1  0.1065239E+005  0.1043930E+01  0.7957747E-01            NaN
         13   -1    0    0    0    0  0.00000000000E+00  0.00000000000E+00  0.74505805969E-08  0.10566000000E+00  0.10566000000E+00 0.  1.
     999900   -1    0    0    0    0 -0.00000000000E+00 -0.00000000000E+00 -0.74505805969E-08  0.93827000000E+00  0.93827000000E+00 0.  1.
     999902    2    1    2    0    0 -0.99471499587E-02 -0.12224459282E-01  0.18358106696E-01  0.10197348914E+01  0.10194478140E+01 0.  0.
     999903    2    3    3    0    0  0.11534840212E-01 -0.29067611648E-01  0.12719453412E+00  0.13261002107E+00  0.20712063950E-01 0.  0.
         14    1    1    2    0    0  0.99471499587E-02  0.12224459282E-01 -0.18358106696E-01  0.24195108566E-01  0.00000000000E+00 0. -1.
     999901    1    3    3    0    0 -0.21481990170E-01  0.16843152366E-01 -0.10883642742E+00  0.88712487036E+00  0.88000000000E+00 0.  1.
        -11    1    4    4    0    0  0.12066866810E-01 -0.15930071135E-01  0.43326725285E-01  0.47716272758E-01  0.51100000000E-03 0. -1.
         11    1    4    4    0    0 -0.53202659865E-03 -0.13137540513E-01  0.83867808834E-01  0.84893748313E-01  0.51100000000E-03 0.  1.
</event>
<event>
 8    1  0.1065239E+005  0.1043930E+01  0.7957747E-01            NaN
         13   -1    0    0    0    0  0.00000000000E+00  0.00000000000E+00  0.74505805969E-08  0.10566000000E+00  0.10566000000E+00 0. -1.
     999900   -1    0    0    0    0 -0.00000000000E+00 -0.00000000000E+00 -0.74505805969E-08  0.93827000000E+00  0.93827000000E+00 0. -1.
     999902    2    1    2    0    0  0.91494391259E-02 -0.20999334693E-01 -0.42216149159E-03  0.10210201219E+01  0.10207630611E+01 0.  0.
     999903    2    3    3    0    0  0.50386480881E-02  0.50323787633E-01 -0.11842413517E+00  0.13027416925E+00  0.19728451720E-01 0.  0.
         14    1    1    2    0    0 -0.91494391259E-02  0.20999334693E-01  0.42216149159E-03  0.22909878092E-01  0.00000000000E+00 0. -1.
     999901    1    3    3    0    0  0.41107910379E-02 -0.71323122326E-01  0.11800197368E+00  0.89074595266E+00  0.88000000000E+00 0.  1.
        -11    1    4    4    0    0 -0.80036152546E-03  0.26924300958E-01 -0.84185613194E-01  0.88391386178E-01  0.51100000000E-03 0.  1.
         11    1    4    4    0    0  0.58390096135E-02  0.23399486675E-01 -0.34238521976E-01  0.41882783074E-01  0.51100000000E-03 0. -1.
</event>
<event>
 8    1  0.1226718E+005  0.1043930E+01  0.7957747E-01            NaN
         13   -1    0    0    0    0  0.00000000000E+00  0.00000000000E+00  0.74505805969E-08  0.10566000000E+00  0.10566000000E+00 0.  1.
     999900   -1    0    0    0    0 -0.00000000000E+00 -0.00000000000E+00 -0.74505805969E-08  0.93827000000E+00  0.93827000000E+00 0.  1.
     999902    2    1    2    0    0 -0.23939042053E-01 -0.11137794058E-01  0.70069870777E-02  0.10166128614E+01  0.10162457793E+01 0.  0.
     999903    2    3    3    0    0 -0.56569925450E-01  0.67781101132E-01 -0.90648223424E-01  0.12710203706E+00  0.11974693211E-01 0.  0.
         14    1    1    2    0    0  0.23939042053E-01  0.11137794058E-01 -0.70069870777E-02  0.27317138554E-01  0.00000000000E+00 0.  1.
     999901    1    3    3    0    0  0.32630883398E-01 -0.78918895190E-01  0.97655210502E-01  0.88951082439E+00  0.88000000000E+00 0. -1.
        -11    1    4    4    0    0 -0.44724872663E-01  0.49307888606E-01 -0.61656013548E-01  0.90737573481E-01  0.51100000000E-03 0. -1.
         11    1    4    4    0    0 -0.11845052787E-01  0.18473212526E-01 -0.28992209876E-01  0.36364463574E-01  0.51100000000E-03 0.  1.
</event>
<event>
 8    1  0.1065239E+005  0.1043930E+01  0.7957747E-01            NaN
         13   -1    0    0    0    0  0.00000000000E+00  0.00000000000E+00  0.74505805969E-08  0.10566000000E+00  0.10566000000E+00 0. -1.
     999900   -1    0    0    0    0 -0.00000000000E+00 -0.00000000000E+00 -0.74505805969E-08  0.93827000000E+00  0.93827000000E+00 0. -1.
     999902    2    1    2    0    0 -0.57362417104E-02 -0.15555935587E-01  0.14987130810E-01  0.10215803760E+01  0.10213358698E+01 0.  0.
     999903    2    3    3    0    0  0.87949992970E-01 -0.89114117332E-01  0.40898577977E-01  0.13317769721E+00  0.19674302586E-01 0.  0.
         14    1    1    2    0    0  0.57362417104E-02  0.15555935587E-01 -0.14987130810E-01  0.22349623953E-01  0.00000000000E+00 0.  1.
     999901    1    3    3    0    0 -0.93686234680E-01  0.73558181745E-01 -0.25911447167E-01  0.88840267884E+00  0.88000000000E+00 0. -1.
        -11    1    4    4    0    0  0.68746263172E-01 -0.61980017954E-01  0.37078553413E-01  0.99712845561E-01  0.51100000000E-03 0. -1.
         11    1    4    4    0    0  0.19203729798E-01 -0.27134099378E-01  0.38200245648E-02  0.33464851648E-01  0.51100000000E-03 0.  1.
</event>
<event>
 8    1  0.1190230E+005  0.1043930E+01  0.7957747E-01            NaN
         13   -1    0    0    0    0  0.00000000000E+00  0.00000000000E+00  0.74505805969E-08  0.10566000000E+00  0.10566000000E+00 0.  1.
     999900   -1    0    0    0    0 -0.00000000000E+00 -0.00000000000E+00 -0.74505805969E-08  0.93827000000E+00  0.93827000000E+00 0.  1.
     999902    2    1    2    0    0  0.77718323690E-02  0.34456562828E-02  0.22204183731E-01  0.10201539679E+01  0.10198768644E+01 0.  0.
     999903    2    3    3    0    0  0.93408257239E-01 -0.37612172651E-01 -0.79167353232E-01  0.12925805309E+00  0.17331947927E-01 0.  0.
         14    1    1    2    0    0 -0.77718323690E-02 -0.34456562828E-02 -0.22204183731E-01  0.23776032065E-01  0.00000000000E+00 0.  1.
     999901    1    3    3    0    0 -0.85636424870E-01  0.41057828934E-01  0.10137153696E+00  0.89089591485E+00  0.88000000000E+00 0. -1.
        -11    1    4    4    0    0  0.54901788501E-01 -0.27803795030E-01 -0.39617446512E-01  0.73191943462E-01  0.51100000000E-03 0.  1.
         11    1    4    4    0    0  0.38506468738E-01 -0.98083776215E-02 -0.39549906721E-01  0.56066109628E-01  0.51100000000E-03 0. -1.
</event>
<event>
 7    1  0.1065239E+005  0.1043930E+01  0.7957747E-01            NaN
         13   -1    0    0    0    0  0.00000000000E+00  0.00000000000E+00  0.74505805969E-08  0.10566000000E+00  0.10566000000E+00 0. -1.
     999900   -1    0    0    0    0 -0.00000000000E+00 -0.00000000000E+00 -0.74505805969E-08  0.93827000000E+00  0.93827000000E+00 0.  1.
     999903    2    1    2    0    0 -0.18662931232E-01  0.83496066025E-01 -0.54529557285E-01  0.10240796679E+00  0.13929142099E-01 0.  0.
         14    1    1    2    0    0  0.37730541466E-01  0.32106440095E-01 -0.12916648726E-01  0.51198213536E-01  0.00000000000E+00 0.  1.
     999901    1    1    2    0    0 -0.19067610234E-01 -0.11560250612E+00  0.67446206011E-01  0.89032381968E+00  0.88000000000E+00 0. -1.
        -11    1    3    3    0    0 -0.15433506585E-01  0.61991126293E-01 -0.33428943373E-01  0.72103039053E-01  0.51100000000E-03 0.  1.
         11    1    3    3    0    0 -0.32294246475E-02  0.21504939732E-01 -0.21100613913E-01  0.30304927733E-01  0.51100000000E-03 0. -1.
</event>
<event>
 8    1  0.1065239E+005  0.1043930E+01  0.7957747E-01            NaN
         13   -1    0    0    0    0  0.00000000000E+00  0.00000000000E+00  0.74505805969E-08  0.10566000000E+00  0.10566000000E+00 0.  1.
     999900   -1    0    0    0    0 -0.00000000000E+00 -0.00000000000E+00 -0.74505805969E-08  0.93827000000E+00  0.93827000000E+00 0. -1.
     999902    2    1    2    0    0 -0.10928885181E-01 -0.99042848628E-02  0.19721590611E-01  0.10193032559E+01  0.10190057168E+01 0.  0.
     999903    2    3    3    0    0 -0.11522078849E+00 -0.55480803320E-01 -0.23189793739E-01  0.13093654835E+00  0.15895393176E-01 0.  0.
         14    1    1    2    0    0  0.10928885181E-01  0.99042848628E-02 -0.19721590611E-01  0.24626744124E-01  0.00000000000E+00 0. -1.
     999901    1    3    3    0    0  0.10429190331E+00  0.45576518457E-01  0.42911384350E-01  0.88836670752E+00  0.88000000000E+00 0.  1.
        -11    1    4    4    0    0 -0.92702286372E-01 -0.37602623431E-01 -0.19800644367E-01  0.10198037961E+00  0.51100000000E-03 0.  1.
         11    1    4    4    0    0 -0.22518502114E-01 -0.17878179889E-01 -0.33891493722E-02  0.28956168740E-01  0.51100000000E-03 0. -1.
</event>
<event>
 8    1  0.1065239E+005  0.1043930E+01  0.7957747E-01            NaN
         13   -1    0    0    0    0  0.00000000000E+00  0.00000000000E+00  0.74505805969E-08  0.10566000000E+00  0.10566000000E+00 0.  1.
     999900   -1    0    0    0    0 -0.00000000000E+00 -0.00000000000E+00 -0.74505805969E-08  0.93827000000E+00  0.93827000000E+00 0.  1.
     999902    2    1    2    0    0 -0.62165719158E-02 -0.13468828994E-01  0.19223345325E-01  0.10196484818E+01  0.10193593254E+01 0.  0.
     999903    2    3    3    0    0 -0.43959709054E-01 -0.79617193856E-01  0.94859835388E-01  0.13312660998E+00  0.21282676939E-01 0.  0.
         14    1    1    2    0    0  0.62165719158E-02  0.13468828994E-01 -0.19223345325E-01  0.24281518205E-01  0.00000000000E+00 0. -1.
     999901    1    3    3    0    0  0.37743137138E-01  0.66148364861E-01 -0.75636490064E-01  0.88652187181E+00  0.88000000000E+00 0. -1.
        -11    1    4    4    0    0 -0.12907093185E-02 -0.18887691618E-01  0.23296699779E-01  0.30023460273E-01  0.51100000000E-03 0.  1.
         11    1    4    4    0    0 -0.42668999736E-01 -0.60729502238E-01  0.71563135610E-01  0.10310314971E+00  0.51100000000E-03 0. -1.
</event>
<event>
 8    1  0.1065239E+005  0.1043930E+01  0.7957747E-01            NaN
         13   -1    0    0    0    0  0.00000000000E+00  0.00000000000E+00  0.74505805969E-08  0.10566000000E+00  0.10566000000E+00 0.  1.
     999900   -1    0    0    0    0 -0.00000000000E+00 -0.00000000000E+00 -0.74505805969E-08  0.93827000000E+00  0.93827000000E+00 0. -1.
     999902    2    1    2    0    0  0.13780395572E-01  0.95398749378E-02  0.17847619190E-01  0.10194464131E+01  0.10191523651E+01 0.  0.
     999903    2    3    3    0    0 -0.43842992396E-01 -0.11459897988E+00  0.33474572957E-01  0.12873034624E+00  0.19895246582E-01 0.  0.
         14    1    1    2    0    0 -0.13780395572E-01 -0.95398749378E-02 -0.17847619190E-01  0.24483586884E-01  0.00000000000E+00 0. -1.
     999901    1    3    3    0    0  0.57623387968E-01  0.12413885481E+00 -0.15626953766E-01  0.89071606688E+00  0.88000000000E+00 0. -1.
        -11    1    4    4    0    0 -0.10890170909E-01 -0.55664849083E-01  0.17212690931E-01  0.59276547605E-01  0.51100000000E-03 0. -1.
         11    1    4    4    0    0 -0.32952821487E-01 -0.58934130792E-01  0.16261882025E-01  0.69453798630E-01  0.51100000000E-03 0.  1.
</event>
<event>
 7    1  0.1065239E+005  0.1043930E+01  0.7957747E-01            NaN
         13   -1    0    0    0    0  0.00000000000E+00  0.00000000000E+00  0.74505805969E-08  0.10566000000E+00  0.10566000000E+00 0. -1.
     999900   -1    0    0    0    0 -0.00000000000E+00 -0.00000000000E+00 -0.74505805969E-08  0.93827000000E+00  0.93827000000E+00 0.  1.
     999903    2    1    2    0    0  0.59476211650E-02 -0.90660303409E-01  0.10865139893E-01  0.95290413820E-01  0.26599753559E-01 0.  0.
         14    1    1    2    0    0 -0.21843079767E-01 -0.37301454918E-01  0.38483224896E-01  0.57874668648E-01  0.00000000000E+00 0. -1.
     999901    1    1    2    0    0  0.15895458602E-01  0.12796175833E+00 -0.49348364789E-01  0.89076491753E+00  0.88000000000E+00 0. -1.
        -11    1    3    3    0    0 -0.33166833338E-02 -0.36373647520E-01 -0.73933965392E-02  0.37268834911E-01  0.51100000000E-03 0.  1.
         11    1    3    3    0    0  0.92643044988E-02 -0.54286655889E-01  0.18258536432E-01  0.58021578909E-01  0.51100000000E-03 0. -1.
</event>
<event>
 8    1  0.1065239E+005  0.1043930E+01  0.7957747E-01            NaN
         13   -1    0    0    0    0  0.00000000000E+00  0.00000000000E+00  0.74505805969E-08  0.10566000000E+00  0.10566000000E+00 0. -1.
     999900   -1    0    0    0    0 -0.00000000000E+00 -0.00000000000E+00 -0.74505805969E-08  0.93827000000E+00  0.93827000000E+00 0.  1.
     999902    2    1    2    0    0  0.38498529033E-02  0.37198870534E-02  0.22908519746E-01  0.10204042863E+01  0.10201330542E+01 0.  0.
     999903    2    3    3    0    0 -0.50837042791E-01  0.16862886830E-01 -0.11433987094E+00  0.12799153667E+00  0.20963432438E-01 0.  0.
         14    1    1    2    0    0 -0.38498529033E-02 -0.37198870534E-02 -0.22908519746E-01  0.23525713677E-01  0.00000000000E+00 0.  1.
     999901    1    3    3    0    0  0.54686895695E-01 -0.13142999776E-01  0.13724839069E+00  0.89241274966E+00  0.88000000000E+00 0. -1.
        -11    1    4    4    0    0 -0.81923620906E-02  0.11897176167E-01 -0.32619892125E-01  0.35678790347E-01  0.51100000000E-03 0. -1.
         11    1    4    4    0    0 -0.42644680701E-01  0.49657106625E-02 -0.81719978815E-01  0.92312746319E-01  0.51100000000E-03 0.  1.
</event>
<event>
 8    1  0.1065239E+005  0.1043930E+01  0.7957747E-01            NaN
         13   -1    0    0    0    0  0.00000000000E+00  0.00000000000E+00  0.74505805969E-08  0.10566000000E+00  0.10566000000E+00 0.  1.
     999900   -1    0    0    0    0 -0.00000000000E+00 -0.00000000000E+00 -0.74505805969E-08  0.93827000000E+00  0.93827000000E+00 0. -1.
     999902    2    1    2    0    0 -0.57557927863E-02 -0.23358540189E-01 -0.92677711847E-03  0.10198549202E+01  0.10195707179E+01 0.  0.
     999903    2    3    3    0    0  0.11301510375E+00  0.16565491387E-01 -0.57112879045E-01  0.12920497091E+00  0.19626878862E-01 0.  0.
         14    1    1    2    0    0  0.57557927863E-02  0.23358540189E-01  0.92677711847E-03  0.24075079775E-01  0.00000000000E+00 0. -1.
     999901    1    3    3    0    0 -0.11877089654E+00 -0.39924031575E-01  0.56186101927E-01  0.89064994931E+00  0.88000000000E+00 0.  1.
        -11    1    4    4    0    0  0.66463835718E-01  0.17218218506E-01 -0.40820956905E-01  0.79878158157E-01  0.51100000000E-03 0.  1.
         11    1    4    4    0    0  0.46551268037E-01 -0.65272711973E-03 -0.16291922140E-01  0.49326812755E-01  0.51100000000E-03 0. -1.
</event>
<event>
 8    1  0.1065239E+005  0.1043930E+01  0.7957747E-01            NaN
         13   -1    0    0    0    0  0.00000000000E+00  0.00000000000E+00  0.74505805969E-08  0.10566000000E+00  0.10566000000E+00 0.  1.
     999900   -1    0    0    0    0 -0.00000000000E+00 -0.00000000000E+00 -0.74505805969E-08  0.93827000000E+00  0.93827000000E+00 0.  1.
     999902    2    1    2    0    0  0.56867549048E-02  0.36277574952E-02 -0.22142096696E-01  0.10207832453E+01  0.10205207796E+01 0.  0.
     999903    2    3    3    0    0 -0.11787135390E-01  0.11379964961E+00  0.57507126414E-01  0.13017267870E+00  0.23421355184E-01 0.  0.
         14    1    1    2    0    0 -0.56867549048E-02 -0.36277574952E-02  0.22142096696E-01  0.23146754673E-01  0.00000000000E+00 0.  1.
     999901    1    3    3    0    0  0.17473890295E-01 -0.11017189211E+00 -0.79649223110E-01  0.89061056663E+00  0.88000000000E+00 0.  1.
        -11    1    4    4    0    0 -0.45919791076E-02  0.56702869231E-01  0.15631041793E-01  0.58999086770E-01  0.51100000000E-03 0. -1.
         11    1    4    4    0    0 -0.71951562822E-02  0.57096780377E-01  0.41876084621E-01  0.71173591925E-01  0.51100000000E-03 0.  1.
</event>
<event>
 8    1  0.1065239E+005  0.1043930E+01  0.7957747E-01            NaN
         13   -1    0    0    0    0  0.00000000000E+00  0.00000000000E+00  0.74505805969E-08  0.10566000000E+00  0.10566000000E+00 0. -1.
     999900   -1    0    0    0    0 -0.00000000000E+00 -0.00000000000E+00 -0.74505805969E-08  0.93827000000E+00  0.93827000000E+00 0. -1.
     999902    2    1    2    0    0 -0.17002469011E-01 -0.14954489857E-01  0.68240175427E-02  0.10202807308E+01  0.10200066086E+01 0.  0.
     999903    2    3    3    0    0  0.50397143066E-01  0.11237756846E+00 -0.28173231919E-01  0.12787893324E+00  0.19766148985E-01 0.  0.
         14    1    1    2    0    0  0.17002469011E-01  0.14954489857E-01 -0.68240175427E-02  0.23649269223E-01  0.00000000000E+00 0.  1.
     999901    1    3    3    0    0 -0.67399612076E-01 -0.12733205832E+00  0.34997249462E-01  0.89240179754E+00  0.88000000000E+00 0.  1.
        -11    1    4    4    0    0  0.16440214252E-01  0.50605070734E-01 -0.20285570976E-01  0.56946635892E-01  0.51100000000E-03 0. -1.
         11    1    4    4    0    0  0.33956928813E-01  0.61772497730E-01 -0.78876609434E-02  0.70932297344E-01  0.51100000000E-03 0.  1.
</event>
<event>
 8    1  0.1065239E+005  0.1043930E+01  0.7957747E-01            NaN
         13   -1    0    0    0    0  0.00000000000E+00  0.00000000000E+00  0.74505805969E-08  0.10566000000E+00  0.10566000000E+00 0.  1.
     999900   -1    0    0    0    0 -0.00000000000E+00 -0.00000000000E+00 -0.74505805969E-08  0.93827000000E+00  0.93827000000E+00 0.  1.
     999902    2    1    2    0    0  0.14350653362E-01  0.14189750785E-01  0.11881566166E-01  0.10205107367E+01  0.10202419820E+01 0.  0.
     999903    2    3    3    0    0  0.21515004572E-01 -0.27139477121E-01 -0.12246215598E+00  0.12932743979E+00  0.23003486580E-01 0.  0.
         14    1    1    2    0    0 -0.14350653362E-01 -0.14189750785E-01 -0.11881566166E-01  0.23419263306E-01  0.00000000000E+00 0.  1.
     999901    1    3    3    0    0 -0.71643512106E-02  0.41329227906E-01  0.13434372214E+00  0.89118329691E+00  0.88000000000E+00 0.  1.
        -11    1    4    4    0    0  0.19629917639E-01 -0.13397264865E-01 -0.10106135499E+00  0.10381945370E+00  0.51100000000E-03 0.  1.
         11    1    4    4    0    0  0.18850869327E-02 -0.13742212256E-01 -0.21400800985E-01  0.25507986087E-01  0.51100000000E-03 0. -1.
</event>
<event>
 8    1  0.1065239E+005  0.1043930E+01  0.7957747E-01            NaN
         13   -1    0    0    0    0  0.00000000000E+00  0.00000000000E+00  0.74505805969E-08  0.10566000000E+00  0.10566000000E+00 0.  1.
     999900   -1    0    0    0    0 -0.00000000000E+00 -0.00000000000E+00 -0.74505805969E-08  0.93827000000E+00  0.93827000000E+00 0. -1.
     999902    2    1    2    0    0 -0.23185117104E-01  0.37530970314E-02  0.60512997170E-02  0.10196760597E+01  0.10193875676E+01 0.  0.
     999903    2    3    3    0    0 -0.12826044830E+00 -0.27800033178E-01 -0.32883928907E-02  0.13281437086E+00  0.20131049024E-01 0.  0.
         14    1    1    2    0    0  0.23185117104E-01 -0.37530970314E-02 -0.60512997170E-02  0.24253940314E-01  0.00000000000E+00 0. -1.
     999901    1    3    3    0    0  0.10507533120E+00  0.31553130209E-01  0.93396926077E-02  0.88686168883E+00  0.88000000000E+00 0.  1.
        -11    1    4    4    0    0 -0.34167938327E-01 -0.14334199031E-01 -0.68994118246E-02  0.37693239127E-01  0.51100000000E-03 0.  1.
         11    1    4    4    0    0 -0.94092509977E-01 -0.13465834147E-01  0.36110189338E-02  0.95121131731E-01  0.51100000000E-03 0. -1.
</event>
<event>
 8    1  0.1065239E+005  0.1043930E+01  0.7957747E-01            NaN
         13   -1    0    0    0    0  0.00000000000E+00  0.00000000000E+00  0.74505805969E-08  0.10566000000E+00  0.10566000000E+00 0.  1.
     999900   -1    0    0    0    0 -0.00000000000E+00 -0.00000000000E+00 -0.74505805969E-08  0.93827000000E+00  0.93827000000E+00 0. -1.
     999902    2    1    2    0    0  0.18148563810E-01 -0.36991499779E-03  0.15498889192E-01  0.10200611338E+01  0.10197818365E+01 0.  0.
     999903    2    3    3    0    0  0.10348923253E+00 -0.73754580822E-01  0.35561653014E-01  0.13266558877E+00  0.13629667518E-01 0.  0.
         14    1    1    2    0    0 -0.18148563810E-01  0.36991499779E-03 -0.15498889192E-01  0.23868866158E-01  0.00000000000E+00 0. -1.
     999901    1    3    3    0    0 -0.85340668724E-01  0.73384665824E-01 -0.20062763822E-01  0.88739554507E+00  0.88000000000E+00 0. -1.
        -11    1    4    4    0    0  0.63804301744E-01 -0.38818400665E-01  0.16728223078E-01  0.76537257068E-01  0.51100000000E-03 0.  1.
         11    1    4    4    0    0  0.39684930791E-01 -0.34936180157E-01  0.18833429935E-01  0.56128331705E-01  0.51100000000E-03 0. -1.
</event>
<event>
 8    1  0.1065239E+005  0.1043930E+01  0.7957747E-01            NaN
         13   -1    0    0    0    0  0.00000000000E+00  0.00000000000E+00  0.74505805969E-08  0.10566000000E+00  0.10566000000E+00 0. -1.
     999900   -1    0    0    0    0 -0.00000000000E+00 -0.00000000000E+00 -0.74505805969E-08  0.93827000000E+00  0.93827000000E+00 0. -1.
     999902    2    1    2    0    0 -0.12021692557E-01  0.11578294707E-01 -0.16496428207E-01  0.10204627858E+01  0.10201929166E+01 0.  0.
     999903    2    3    3    0    0 -0.26726818580E-01 -0.17057848186E-01  0.12341368392E+00  0.12882883123E+00  0.18990454455E-01 0.  0.
         14    1    1    2    0    0  0.12021692557E-01 -0.11578294707E-01  0.16496428207E-01  0.23467214233E-01  0.00000000000E+00 0. -1.
     999901    1    3    3    0    0  0.14705126023E-01  0.28636142893E-01 -0.13991011213E+00  0.89163395454E+00  0.88000000000E+00 0. -1.
        -11    1    4    4    0    0  0.86086760372E-03  0.18163906679E-02  0.20884387698E-01  0.20987118397E-01  0.51100000000E-03 0. -1.
         11    1    4    4    0    0 -0.27587686184E-01 -0.18874238853E-01  0.10252929622E+00  0.10784171283E+00  0.51100000000E-03 0.  1.
</event>
<event>
 8    1  0.1065239E+005  0.1043930E+01  0.7957747E-01            NaN
         13   -1    0    0    0    0  0.00000000000E+00  0.00000000000E+00  0.74505805969E-08  0.10566000000E+00  0.10566000000E+00 0. -1.
     999900   -1    0    0    0    0 -0.00000000000E+00 -0.00000000000E+00 -0.74505805969E-08  0.93827000000E+00  0.93827000000E+00 0.  1.
     999902    2    1    2    0    0  0.19831678348E-01  0.30787858347E-02  0.10582278682E-01  0.10212416988E+01  0.10209896417E+01 0.  0.
     999903    2    3    3    0    0 -0.54059195973E-01  0.11492209190E+00 -0.22486986512E-01  0.13047665532E+00  0.19723314775E-01 0.  0.
         14    1    1    2    0    0 -0.19831678348E-01 -0.30787858347E-02 -0.10582278682E-01  0.22688301180E-01  0.00000000000E+00 0. -1.
     999901    1    3    3    0    0  0.73890874322E-01 -0.11184330606E+00  0.33069265195E-01  0.89076504350E+00  0.88000000000E+00 0. -1.
        -11    1    4    4    0    0 -0.28607402876E-01  0.39737800149E-01 -0.11944460973E-01  0.50402455584E-01  0.51100000000E-03 0. -1.
         11    1    4    4    0    0 -0.25451793098E-01  0.75184291749E-01 -0.10542525540E-01  0.80074199736E-01  0.51100000000E-03 0.  1.
</event>
<event>
 8    1  0.1065239E+005  0.1043930E+01  0.7957747E-01            NaN
         13   -1    0    0    0    0  0.00000000000E+00  0.00000000000E+00  0.74505805969E-08  0.10566000000E+00  0.10566000000E+00 0. -1.
     999900   -1    0    0    0    0 -0.00000000000E+00 -0.00000000000E+00 -0.74505805969E-08  0.93827000000E+00  0.93827000000E+00 0. -1.
     999902    2    1    2    0    0 -0.10381748646E-02  0.19010012631E-01  0.12854943012E-01  0.10209581053E+01  0.10206996349E+01 0.  0.
     999903    2    3    3    0    0  0.73751112173E-01  0.89764770952E-01 -0.59244564336E-01  0.13202727994E+00  0.20599601780E-01 0.  0.
         14    1    1    2    0    0  0.10381748646E-02 -0.19010012631E-01 -0.12854943012E-01  0.22971894722E-01  0.00000000000E+00 0.  1.
     999901    1    3    3    0    0 -0.74789287038E-01 -0.70754758321E-01  0.72099507348E-01  0.88893082534E+00  0.88000000000E+00 0.  1.
        -11    1    4    4    0    0  0.12887869013E-01  0.30126726569E-01 -0.15989907930E-01  0.36464436072E-01  0.51100000000E-03 0. -1.
         11    1    4    4    0    0  0.60863243160E-01  0.59638044383E-01 -0.43254656406E-01  0.95562843865E-01  0.51100000000E-03 0.  1.
</event>
<event>
 8    1  0.1065239E+005  0.1043930E+01  0.7957747E-01            NaN
         13   -1    0    0    0    0  0.00000000000E+00  0.00000000000E+00  0.74505805969E-08  0.10566000000E+00  0.10566000000E+00 0. -1.
     999900   -1    0    0    0    0 -0.00000000000E+00 -0.00000000000E+00 -0.74505805969E-08  0.93827000000E+00  0.93827000000E+00 0.  1.
     999902    2    1    2    0    0  0.58162942293E-02  0.22617617706E-01  0.44626296680E-02  0.10201539412E+01  0.10198768370E+01 0.  0.
     999903    2    3    3    0    0 -0.28165713521E-01  0.12837170541E+00 -0.13519192888E-02  0.13315196097E+00  0.21331077247E-01 0.  0.
         14    1    1    2    0    0 -0.58162942293E-02 -0.22617617706E-01 -0.44626296680E-02  0.23776058815E-01  0.00000000000E+00 0.  1.
     999901    1    3    3    0    0  0.33982007750E-01 -0.10575408771E+00  0.58145489568E-02  0.88700198021E+00  0.88000000000E+00 0.  1.
        -11    1    4    4    0    0 -0.17484930210E-01  0.34666795485E-01 -0.72855035411E-03  0.38836856210E-01  0.51100000000E-03 0. -1.
         11    1    4    4    0    0 -0.10680783311E-01  0.93704909928E-01 -0.62336893468E-03  0.94315104764E-01  0.51100000000E-03 0.  1.
</event>
<event>
 8    1  0.1065239E+005  0.1043930E+01  0.7957747E-01            NaN
         13   -1    0    0    0    0  0.00000000000E+00  0.00000000000E+00  0.74505805969E-08  0.10566000000E+00  0.10566000000E+00 0.  1.
     999900   -1    0    0    0    0 -0.00000000000E+00 -0.00000000000E+00 -0.74505805969E-08  0.93827000000E+00  0.93827000000E+00 0. -1.
     999902    2    1    2    0    0 -0.18188968649E-01  0.26172239629E-01 -0.18220454504E-01  0.10072174726E+01  0.10065481744E+01 0.  0.
     999903    2    3    3    0    0  0.15455971907E-01 -0.39173418994E-01 -0.10961198248E+00  0.11943684172E+00  0.21838695831E-01 0.  0.
         14    1    1    2    0    0  0.18188968649E-01 -0.26172239629E-01  0.18220454504E-01  0.36712527427E-01  0.00000000000E+00 0.  1.
     999901    1    3    3    0    0 -0.33644940556E-01  0.65345658623E-01  0.91391527971E-01  0.88778063085E+00  0.88000000000E+00 0.  1.
        -11    1    4    4    0    0  0.16114759905E-01 -0.14169324455E-01 -0.62676905850E-01  0.66250365208E-01  0.51100000000E-03 0. -1.
         11    1    4    4    0    0 -0.65878799789E-03 -0.25004094539E-01 -0.46935076626E-01  0.53186476516E-01  0.51100000000E-03 0.  1.
</event>
<event>
 8    1  0.1065239E+005  0.1043930E+01  0.7957747E-01            NaN
         13   -1    0    0    0    0  0.00000000000E+00  0.00000000000E+00  0.74505805969E-08  0.10566000000E+00  0.10566000000E+00 0. -1.
     999900   -1    0    0    0    0 -0.00000000000E+00 -0.00000000000E+00 -0.74505805969E-08  0.93827000000E+00  0.93827000000E+00 0. -1.
     999902    2    1    2    0    0 -0.21076639161E-01 -0.57502919883E-02 -0.10773351463E-01  0.10195711068E+01  0.10192800823E+01 0.  0.
     999903    2    3    3    0    0  0.25810011213E-01  0.88624521055E-01  0.86411568644E-01  0.12797149261E+00  0.19730213246E-01 0.  0.
         14    1    1    2    0    0  0.21076639161E-01  0.57502919883E-02  0.10773351463E-01  0.24358893202E-01  0.00000000000E+00 0. -1.
     999901    1    3    3    0    0 -0.46886650374E-01 -0.94374813044E-01 -0.97184920107E-01  0.89159961419E+00  0.88000000000E+00 0. -1.
        -11    1    4    4    0    0  0.26012558735E-02  0.40497848767E-01  0.31711114244E-01  0.51504351025E-01  0.51100000000E-03 0. -1.
         11    1    4    4    0    0  0.23208755339E-01  0.48126672288E-01  0.54700454401E-01  0.76467141587E-01  0.51100000000E-03 0.  1.
</event>
<event>
 8    1  0.1065239E+005  0.1043930E+01  0.7957747E-01            NaN
         13   -1    0    0    0    0  0.00000000000E+00  0.00000000000E+00  0.74505805969E-08  0.10566000000E+00  0.10566000000E+00 0.  1.
     999900   -1    0    0    0    0 -0.00000000000E+00 -0.00000000000E+00 -0.74505805969E-08  0.93827000000E+00  0.93827000000E+00 0. -1.
     999902    2    1    2    0    0  0.21184803148E-01  0.11912196860E-01 -0.67341934999E-04  0.10196256618E+01  0.10193359551E+01 0.  0.
     999903    2    3    3    0    0 -0.89590265339E-01  0.86057349898E-01  0.29143027109E-01  0.12910791065E+00  0.19678756301E-01 0.  0.
         14    1    1    2    0    0 -0.21184803148E-01 -0.11912196860E-01  0.67341934999E-04  0.24304338160E-01  0.00000000000E+00 0.  1.
     999901    1    3    3    0    0  0.11077506849E+00 -0.74145153038E-01 -0.29210369044E-01  0.89051775119E+00  0.88000000000E+00 0. -1.
        -11    1    4    4    0    0 -0.61039040271E-01  0.46976096767E-01  0.22557516723E-01  0.80259708362E-01  0.51100000000E-03 0.  1.
         11    1    4    4    0    0 -0.28551225068E-01  0.39081253131E-01  0.65855103857E-02  0.48848202292E-01  0.51100000000E-03 0. -1.
</event>
<event>
 8    1  0.1065239E+005  0.1043930E+01  0.7957747E-01            NaN
         13   -1    0    0    0    0  0.00000000000E+00  0.00000000000E+00  0.74505805969E-08  0.10566000000E+00  0.10566000000E+00 0. -1.
     999900   -1    0    0    0    0 -0.00000000000E+00 -0.00000000000E+00 -0.74505805969E-08  0.93827000000E+00  0.93827000000E+00 0.  1.
     999902    2    1    2    0    0 -0.20974962880E-01 -0.10317396166E-01  0.16678100002E-02  0.10204954247E+01  0.10202263143E+01 0.  0.
     999903    2    3    3    0    0 -0.12040721253E+00  0.15283808492E-01  0.46496797477E-01  0.13339236860E+00  0.30001336514E-01 0.  0.
         14    1    1    2    0    0  0.20974962880E-01  0.10317396166E-01 -0.16678100002E-02  0.23434575346E-01  0.00000000000E+00 0.  1.
     999901    1    3    3    0    0  0.99432249650E-01 -0.25601204658E-01 -0.44828987477E-01  0.88710305606E+00  0.88000000000E+00 0. -1.
        -11    1    4    4    0    0 -0.43150580238E-01  0.19683744357E-01  0.13919355531E-01  0.49431082794E-01  0.51100000000E-03 0.  1.
         11    1    4    4    0    0 -0.77256632292E-01 -0.43999358649E-02  0.32577441946E-01  0.83961285801E-01  0.51100000000E-03 0. -1.
</event>
<event>
 8    1  0.1065239E+005  0.1043930E+01  0.7957747E-01            NaN
         13   -1    0    0    0    0  0.00000000000E+00  0.00000000000E+00  0.74505805969E-08  0.10566000000E+00  0.10566000000E+00 0.  1.
     999900   -1    0    0    0    0 -0.00000000000E+00 -0.00000000000E+00 -0.74505805969E-08  0.93827000000E+00  0.93827000000E+00 0.  1.
     999902    2    1    2    0    0 -0.10344081068E-01 -0.95429366116E-03  0.21479985412E-01  0.10200699819E+01  0.10197908940E+01 0.  0.
     999903    2    3    3    0    0  0.71465158735E-01 -0.86932449149E-01  0.64549761137E-01  0.13105929553E+00  0.18583531770E-01 0.  0.
         14    1    1    2    0    0  0.10344081068E-01  0.95429366116E-03 -0.21479985412E-01  0.23860018081E-01  0.00000000000E+00 0. -1.
     999901    1    3    3    0    0 -0.81809239803E-01  0.85978155487E-01 -0.43069775724E-01  0.88901068639E+00  0.88000000000E+00 0.  1.
        -11    1    4    4    0    0  0.33571401418E-01 -0.27424915922E-01  0.21239374245E-01  0.48275637187E-01  0.51100000000E-03 0. -1.
         11    1    4    4    0    0  0.37893757317E-01 -0.59507533227E-01  0.43310386892E-01  0.82783658340E-01  0.51100000000E-03 0.  1.
</event>
<event>
 8    1  0.1065239E+005  0.1043930E+01  0.7957747E-01            NaN
         13   -1    0    0    0    0  0.00000000000E+00  0.00000000000E+00  0.74505805969E-08  0.10566000000E+00  0.10566000000E+00 0. -1.
     999900   -1    0    0    0    0 -0.00000000000E+00 -0.00000000000E+00 -0.74505805969E-08  0.93827000000E+00  0.93827000000E+00 0. -1.
     999902    2    1    2    0    0 -0.13476538280E-01 -0.17459867288E-01  0.10956573920E-01  0.10193025649E+01  0.10190050089E+01 0.  0.
     999903    2    3    3    0    0  0.32103338849E-01  0.65201204457E-01 -0.10238410455E+00  0.12702654961E+00  0.19272208312E-01 0.  0.
         14    1    1    2    0    0  0.13476538280E-01  0.17459867288E-01 -0.10956573920E-01  0.24627435144E-01  0.00000000000E+00 0. -1.
     999901    1    3    3    0    0 -0.45579877129E-01 -0.82661071744E-01  0.11334067847E+00  0.89227601524E+00  0.88000000000E+00 0.  1.
        -11    1    4    4    0    0  0.30034366316E-02  0.28813469217E-02 -0.16343896071E-01  0.16873258472E-01  0.51100000000E-03 0. -1.
         11    1    4    4    0    0  0.29099902217E-01  0.62319857535E-01 -0.86040208483E-01  0.11015329114E+00  0.51100000000E-03 0.  1.
</event>
<event>
 8    1  0.1065239E+005  0.1043930E+01  0.7957747E-01            NaN
         13   -1    0    0    0    0  0.00000000000E+00  0.00000000000E+00  0.74505805969E-08  0.10566000000E+00  0.10566000000E+00 0.  1.
     999900   -1    0    0    0    0 -0.00000000000E+00 -0.00000000000E+00 -0.74505805969E-08  0.93827000000E+00  0.93827000000E+00 0. -1.
     999902    2    1    2    0    0 -0.16747771382E-01  0.18931228165E-01 -0.34430184921E-02  0.10184205190E+01  0.10181009871E+01 0.  0.
     999903    2    3    3    0    0 -0.91791830352E-01  0.76777025578E-01 -0.53914097063E-01  0.13189636429E+00  0.13018036475E-01 0.  0.
         14    1    1    2    0    0  0.16747771382E-01 -0.18931228165E-01  0.34430184921E-02  0.25509481031E-01  0.00000000000E+00 0.  1.
     999901    1    3    3    0    0  0.75044058970E-01 -0.57845797413E-01  0.50471078571E-01  0.88652415468E+00  0.88000000000E+00 0.  1.
        -11    1    4    4    0    0 -0.38903128084E-01  0.26776268533E-01 -0.16273128354E-01  0.49954957298E-01  0.51100000000E-03 0.  1.
         11    1    4    4    0    0 -0.52888702269E-01  0.50000757045E-01 -0.37640968710E-01  0.81941406988E-01  0.51100000000E-03 0. -1.
</event>
<event>
 7    1  0.1065239E+005  0.1043930E+01  0.7957747E-01            NaN
         13   -1    0    0    0    0  0.00000000000E+00  0.00000000000E+00  0.74505805969E-08  0.10566000000E+00  0.10566000000E+00 0.  1.
     999900   -1    0    0    0    0 -0.00000000000E+00 -0.00000000000E+00 -0.74505805969E-08  0.93827000000E+00  0.93827000000E+00 0. -1.
     999902    2    1    2    0    0  0.21838958876E-01  0.74183584291E-02 -0.62875415915E-03  0.10208569096E+01  0.10205961309E+01 0.  0.
         14    1    1    2    0    0 -0.21838958876E-01 -0.74183584291E-02  0.62875415915E-03  0.23073090352E-01  0.00000000000E+00 0.  1.
     999901    1    3    3    0    0  0.11225662015E+00 -0.42689068689E-01 -0.70360391497E-01  0.89094022810E+00  0.88000000000E+00 0. -1.
        -11    1    3    3    0    0 -0.36427131023E-01  0.47005428388E-02  0.11650831219E-01  0.38536138450E-01  0.51100000000E-03 0. -1.
         11    1    3    3    0    0 -0.53990530251E-01  0.45406884279E-01  0.58080806119E-01  0.91380543099E-01  0.51100000000E-03 0.  1.
</event>
<event>
 8    1  0.1065239E+005  0.1043930E+01  0.7957747E-01            NaN
         13   -1    0    0    0    0  0.00000000000E+00  0.00000000000E+00  0.74505805969E-08  0.10566000000E+00  0.10566000000E+00 0. -1.
     999900   -1    0    0    0    0 -0.00000000000E+00 -0.00000000000E+00 -0.74505805969E-08  0.93827000000E+00  0.93827000000E+00 0.  1.
     999902    2    1    2    0    0 -0.19693362677E-01 -0.11527160898E-01  0.63874284546E-02  0.10202339410E+01  0.10199587203E+01 0.  0.
     999903    2    3    3    0    0 -0.10131324575E+00 -0.44854622516E-01  0.71628207644E-01  0.13342568419E+00  0.19887235740E-01 0.  0.
         14    1    1    2    0    0  0.19693362677E-01  0.11527160898E-01 -0.63874284546E-02  0.23696059043E-01  0.00000000000E+00 0. -1.
     999901    1    3    3    0    0  0.81619883069E-01  0.33327461617E-01 -0.65240779189E-01  0.88680825677E+00  0.88000000000E+00 0. -1.
        -11    1    4    4    0    0 -0.51417915378E-01 -0.26416183643E-01  0.26187014174E-01  0.63463671596E-01  0.51100000000E-03 0. -1.
         11    1    4    4    0    0 -0.49895330368E-01 -0.18438438873E-01  0.45441193470E-01  0.69962012589E-01  0.51100000000E-03 0.  1.
</event>
<event>
 8    1  0.1065239E+005  0.1043930E+01  0.7957747E-01            NaN
         13   -1    0    0    0    0  0.00000000000E+00  0.00000000000E+00  0.74505805969E-08  0.10566000000E+00  0.10566000000E+00 0. -1.
     999900   -1    0    0    0    0 -0.00000000000E+00 -0.00000000000E+00 -0.74505805969E-08  0.93827000000E+00  0.93827000000E+00 0.  1.
     999902    2    1    2    0    0  0.37670182223E-02 -0.79774799015E-02 -0.20899974680E-01  0.10212443315E+01  0.10209923335E+01 0.  0.
     999903    2    3    3    0    0  0.96265954819E-01 -0.86141340114E-01  0.22163345480E-01  0.13190744832E+00  0.14862587429E-01 0.  0.
         14    1    1    2    0    0 -0.37670182223E-02  0.79774799015E-02  0.20899974680E-01  0.22685668460E-01  0.00000000000E+00 0. -1.
     999901    1    3    3    0    0 -0.92498936596E-01  0.78163860213E-01 -0.43063320160E-01  0.88933688322E+00  0.88000000000E+00 0. -1.
        -11    1    4    4    0    0  0.84416661793E-01 -0.74970748616E-01  0.24261910500E-01  0.11548024662E+00  0.51100000000E-03 0.  1.
         11    1    4    4    0    0  0.11849293026E-01 -0.11170591499E-01 -0.20985650197E-02  0.16427201703E-01  0.51100000000E-03 0. -1.
</event>
<event>
 8    1  0.1065239E+005  0.1043930E+01  0.7957747E-01            NaN
         13   -1    0    0    0    0  0.00000000000E+00  0.00000000000E+00  0.74505805969E-08  0.10566000000E+00  0.10566000000E+00 0.  1.
     999900   -1    0    0    0    0 -0.00000000000E+00 -0.00000000000E+00 -0.74505805969E-08  0.93827000000E+00  0.93827000000E+00 0. -1.
     999902    2    1    2    0    0 -0.14741108355E-01 -0.21739712215E-01 -0.27267104423E-01  0.10060695939E+01  0.10053569602E+01 0.  0.
     999903    2    3    3    0    0  0.21696843979E-01 -0.10069295260E+00 -0.59792025701E-01  0.12118586767E+00  0.22385362241E-01 0.  0.
         14    1    1    2    0    0  0.14741108355E-01  0.21739712215E-01  0.27267104423E-01  0.37860406051E-01  0.00000000000E+00 0.  1.
     999901    1    3    3    0    0 -0.36437952335E-01  0.78953240385E-01  0.32524921278E-01  0.88488372628E+00  0.88000000000E+00 0.  1.
        -11    1    4    4    0    0  0.12445471641E-01 -0.87191257939E-01 -0.44076735506E-01  0.98489720069E-01  0.51100000000E-03 0. -1.
         11    1    4    4    0    0  0.92513723382E-02 -0.13501694660E-01 -0.15715290195E-01  0.22696147597E-01  0.51100000000E-03 0.  1.
</event>
<event>
 8    1  0.1065239E+005  0.1043930E+01  0.7957747E-01            NaN
         13   -1    0    0    0    0  0.00000000000E+00  0.00000000000E+00  0.74505805969E-08  0.10566000000E+00  0.10566000000E+00 0. -1.
     999900   -1    0    0    0    0 -0.00000000000E+00 -0.00000000000E+00 -0.74505805969E-08  0.93827000000E+00  0.93827000000E+00 0.  1.
     999902    2    1    2    0    0  0.63268555217E-02  0.22510772533E-01 -0.42096889255E-02  0.10201710972E+01  0.10198943975E+01 0.  0.
     999903    2    3    3    0    0 -0.69688316807E-01 -0.89840757449E-01 -0.55952761455E-01  0.12827507285E+00  0.19898733694E-01 0.  0.
         14    1    1    2    0    0 -0.63268555217E-02 -0.22510772533E-01  0.42096889255E-02  0.23758902787E-01  0.00000000000E+00 0.  1.
     999901    1    3    3    0    0  0.76015172329E-01  0.11235152998E+00  0.51743072529E-01  0.89189602436E+00  0.88000000000E+00 0. -1.
        -11    1    4    4    0    0 -0.17467202785E-01 -0.14213986142E-01 -0.18028825932E-01  0.28852040841E-01  0.51100000000E-03 0.  1.
         11    1    4    4    0    0 -0.52221114022E-01 -0.75626771307E-01 -0.37923935522E-01  0.99423032012E-01  0.51100000000E-03 0. -1.
</event>
<event>
 8    1  0.1065239E+005  0.1043930E+01  0.7957747E-01            NaN
         13   -1    0    0    0    0  0.00000000000E+00  0.00000000000E+00  0.74505805969E-08  0.10566000000E+00  0.10566000000E+00 0. -1.
     999900   -1    0    0    0    0 -0.00000000000E+00 -0.00000000000E+00 -0.74505805969E-08  0.93827000000E+00  0.93827000000E+00 0.  1.
     999902    2    1    2    0    0  0.13991565140E-01 -0.15995351484E-01  0.13164627374E-01  0.10189315485E+01  0.10186248465E+01 0.  0.
     999903    2    3    3    0    0  0.97756769003E-01  0.40366034464E-01 -0.71350922224E-01  0.12913601392E+00  0.19983827603E-01 0.  0.
         14    1    1    2    0    0 -0.13991565140E-01  0.15995351484E-01 -0.13164627374E-01  0.24998451513E-01  0.00000000000E+00 0. -1.
     999901    1    3    3    0    0 -0.83765203863E-01 -0.56361385948E-01  0.84515549598E-01  0.88979553456E+00  0.88000000000E+00 0.  1.
        -11    1    4    4    0    0  0.77140177095E-01  0.25082920888E-01 -0.60843831417E-01  0.10140016166E+00  0.51100000000E-03 0.  1.
         11    1    4    4    0    0  0.20616591908E-01  0.15283113576E-01 -0.10507090807E-01  0.27735852262E-01  0.51100000000E-03 0. -1.
</event>
<event>
 8    1  0.1065239E+005  0.1043930E+01  0.7957747E-01            NaN
         13   -1    0    0    0    0  0.00000000000E+00  0.00000000000E+00  0.74505805969E-08  0.10566000000E+00  0.10566000000E+00 0. -1.
     999900   -1    0    0    0    0 -0.00000000000E+00 -0.00000000000E+00 -0.74505805969E-08  0.93827000000E+00  0.93827000000E+00 0. -1.
     999902    2    1    2    0    0 -0.60238750134E-02 -0.10091436005E-01  0.14104390180E-01  0.10255708613E+01  0.10254065211E+01 0.  0.
     999903    2    3    3    0    0 -0.11517036517E+00  0.61817502836E-01  0.30662175705E-01  0.13576301012E+00  0.20144707172E-01 0.  0.
         14    1    1    2    0    0  0.60238750134E-02  0.10091436005E-01 -0.14104390180E-01  0.18359138683E-01  0.00000000000E+00 0.  1.
     999901    1    3    3    0    0  0.10914649015E+00 -0.71908938841E-01 -0.16557785525E-01  0.88980785120E+00  0.88000000000E+00 0.  1.
        -11    1    4    4    0    0 -0.37274621536E-01  0.30909348738E-01  0.12482158352E-01  0.50008505759E-01  0.51100000000E-03 0.  1.
         11    1    4    4    0    0 -0.77895743631E-01  0.30908154098E-01  0.18180017353E-01  0.85754504357E-01  0.51100000000E-03 0. -1.
</event>
<event>
 8    1  0.1065239E+005  0.1043930E+01  0.7957747E-01            NaN
         13   -1    0    0    0    0  0.00000000000E+00  0.00000000000E+00  0.74505805969E-08  0.10566000000E+00  0.10566000000E+00 0. -1.
     999900   -1    0    0    0    0 -0.00000000000E+00 -0.00000000000E+00 -0.74505805969E-08  0.93827000000E+00  0.93827000000E+00 0. -1.
     999902    2    1    2    0    0  0.28717733415E-02  0.21676757637E-01  0.76769685437E-02  0.10207553425E+01  0.10204922364E+01 0.  0.
     999903    2    3    3    0    0  0.57116907595E-01 -0.91591148645E-01 -0.67023857384E-01  0.12870581105E+00  0.20535547130E-01 0.  0.
         14    1    1    2    0    0 -0.28717733415E-02 -0.21676757637E-01 -0.76769685437E-02  0.23174657491E-01  0.00000000000E+00 0.  1.
     999901    1    3    3    0    0 -0.54245134253E-01  0.11326790628E+00  0.74700825928E-01  0.89204953146E+00  0.88000000000E+00 0. -1.
        -11    1    4    4    0    0  0.28940712890E-01 -0.37662321483E-01 -0.40116329303E-01  0.62173919933E-01  0.51100000000E-03 0. -1.
         11    1    4    4    0    0  0.28176194704E-01 -0.53928827161E-01 -0.26907528081E-01  0.66531891116E-01  0.51100000000E-03 0.  1.
</event>
<event>
 8    1  0.1065239E+005  0.1043930E+01  0.7957747E-01            NaN
         13   -1    0    0    0    0  0.00000000000E+00  0.00000000000E+00  0.74505805969E-08  0.10566000000E+00  0.10566000000E+00 0. -1.
     999900   -1    0    0    0    0 -0.00000000000E+00 -0.00000000000E+00 -0.74505805969E-08  0.93827000000E+00  0.93827000000E+00 0. -1.
     999902    2    1    2    0    0 -0.16320277868E-01  0.51035821399E-02 -0.15929272506E-01  0.10205603671E+01  0.10202927634E+01 0.  0.
     999903    2    3    3    0    0 -0.52397622867E-01  0.50177081521E-01  0.10631150285E+00  0.13023682907E+00  0.19905919130E-01 0.  0.
         14    1    1    2    0    0  0.16320277868E-01 -0.51035821399E-02  0.15929272506E-01  0.23369632922E-01  0.00000000000E+00 0. -1.
     999901    1    3    3    0    0  0.36077344999E-01 -0.45073499381E-01 -0.12224077536E+00  0.89032353801E+00  0.88000000000E+00 0. -1.
        -11    1    4    4    0    0 -0.38598148598E-01  0.42780304840E-01  0.94240323590E-01  0.11046027009E+00  0.51100000000E-03 0. -1.
         11    1    4    4    0    0 -0.13799474269E-01  0.73967766809E-02  0.12071179260E-01  0.19776558980E-01  0.51100000000E-03 0.  1.
</event>
<event>
 8    1  0.1065239E+005  0.1043930E+01  0.7957747E-01            NaN
         13   -1    0    0    0    0  0.00000000000E+00  0.00000000000E+00  0.74505805969E-08  0.10566000000E+00  0.10566000000E+00 0. -1.
     999900   -1    0    0    0    0 -0.00000000000E+00 -0.00000000000E+00 -0.74505805969E-08  0.93827000000E+00  0.93827000000E+00 0. -1.
     999902    2    1    2    0    0  0.23127813618E-02  0.10223262406E-01 -0.22173727664E-01  0.10194037233E+01  0.10191086364E+01 0.  0.
     999903    2    3    3    0    0  0.76265869557E-01 -0.71387104217E-01 -0.74076147378E-01  0.13102138870E+00  0.27689838923E-01 0.  0.
         14    1    1    2    0    0 -0.23127813618E-02 -0.10223262406E-01  0.22173727664E-01  0.24526276733E-01  0.00000000000E+00 0. -1.
     999901    1    3    3    0    0 -0.73953088195E-01  0.81610366623E-01  0.51902419714E-01  0.88838233456E+00  0.88000000000E+00 0.  1.
        -11    1    4    4    0    0  0.61723762417E-01 -0.40346210178E-01 -0.48765267260E-01  0.88407872582E-01  0.51100000000E-03 0. -1.
         11    1    4    4    0    0  0.14542107140E-01 -0.31040894039E-01 -0.25310880118E-01  0.42613516121E-01  0.51100000000E-03 0.  1.
</event>
<event>
 8    1  0.1065239E+005  0.1043930E+01  0.7957747E-01            NaN
         13   -1    0    0    0    0  0.00000000000E+00  0.00000000000E+00  0.74505805969E-08  0.10566000000E+00  0.10566000000E+00 0. -1.
     999900   -1    0    0    0    0 -0.00000000000E+00 -0.00000000000E+00 -0.74505805969E-08  0.93827000000E+00  0.93827000000E+00 0.  1.
     999902    2    1    2    0    0 -0.14534673658E-01  0.16262355237E-01 -0.45366369785E-02  0.10216521632E+01  0.10214092425E+01 0.  0.
     999903    2    3    3    0    0 -0.11061360134E+00  0.10905008706E-01 -0.71935013958E-01  0.13384452487E+00  0.19632182449E-01 0.  0.
         14    1    1    2    0    0  0.14534673658E-01 -0.16262355237E-01  0.45366369785E-02  0.22277836773E-01  0.00000000000E+00 0.  1.
     999901    1    3    3    0    0  0.96078927684E-01  0.53573465310E-02  0.67398376979E-01  0.88780763836E+00  0.88000000000E+00 0. -1.
        -11    1    4    4    0    0 -0.36305836394E-01  0.11057535994E-01 -0.30995080023E-01  0.49003458707E-01  0.51100000000E-03 0.  1.
         11    1    4    4    0    0 -0.74307764948E-01 -0.15252728807E-03 -0.40939933934E-01  0.84841066163E-01  0.51100000000E-03 0. -1.
</event>
<event>
 8    1  0.1065239E+005  0.1043930E+01  0.7957747E-01            NaN
         13   -1    0    0    0    0  0.00000000000E+00  0.00000000000E+00  0.74505805969E-08  0.10566000000E+00  0.10566000000E+00 0. -1.
     999900   -1    0    0    0    0 -0.00000000000E+00 -0.00000000000E+00 -0.74505805969E-08  0.93827000000E+00  0.93827000000E+00 0. -1.
     999902    2    1    2    0    0 -0.20142057800E-01 -0.38459907874E-03 -0.11342173092E-01  0.10208108456E+01  0.10205490127E+01 0.  0.
     999903    2    3    3    0    0 -0.52060087098E-01  0.25697818125E-01 -0.11759049502E+00  0.13346212105E+00  0.24778674520E-01 0.  0.
         14    1    1    2    0    0  0.20142057800E-01  0.38459907874E-03  0.11342173092E-01  0.23119154381E-01  0.00000000000E+00 0. -1.
     999901    1    3    3    0    0  0.31918029298E-01 -0.26082417203E-01  0.10624832193E+00  0.88734872457E+00  0.88000000000E+00 0.  1.
        -11    1    4    4    0    0 -0.19575731322E-01 -0.19181385036E-02 -0.47594315257E-01  0.51501150258E-01  0.51100000000E-03 0.  1.
         11    1    4    4    0    0 -0.32484355776E-01  0.27615956628E-01 -0.69996179763E-01  0.81960970792E-01  0.51100000000E-03 0. -1.
</event>
<event>
 8    1  0.1065239E+005  0.1043930E+01  0.7957747E-01            NaN
         13   -1    0    0    0    0  0.00000000000E+00  0.00000000000E+00  0.74505805969E-08  0.10566000000E+00  0.10566000000E+00 0. -1.
     999900   -1    0    0    0    0 -0.00000000000E+00 -0.00000000000E+00 -0.74505805969E-08  0.93827000000E+00  0.93827000000E+00 0.  1.
     999902    2    1    2    0    0  0.18480166667E-01  0.14816296789E-01  0.37569998885E-02  0.10199476261E+01  0.10196656343E+01 0.  0.
     999903    2    3    3    0    0 -0.67527091171E-01 -0.10453508716E+00  0.20987230469E-01  0.12756940913E+00  0.18601016452E-01 0.  0.
         14    1    1    2    0    0 -0.18480166667E-01 -0.14816296789E-01 -0.37569998885E-02  0.23982373918E-01  0.00000000000E+00 0. -1.
     999901    1    3    3    0    0  0.86007257838E-01  0.11935138395E+00 -0.17230230580E-01  0.89237821696E+00  0.88000000000E+00 0.  1.
        -11    1    4    4    0    0 -0.15311934778E-01 -0.12263949500E-01  0.58113597819E-02  0.20466871464E-01  0.51100000000E-03 0.  1.
         11    1    4    4    0    0 -0.52215156393E-01 -0.92271137657E-01  0.15175870687E-01  0.10710253766E+00  0.51100000000E-03 0. -1.
</event>
<event>
 8    1  0.1065239E+005  0.1043930E+01  0.7957747E-01            NaN
         13   -1    0    0    0    0  0.00000000000E+00  0.00000000000E+00  0.74505805969E-08  0.10566000000E+00  0.10566000000E+00 0. -1.
     999900   -1    0    0    0    0 -0.00000000000E+00 -0.00000000000E+00 -0.74505805969E-08  0.93827000000E+00  0.93827000000E+00 0.  1.
     999902    2    1    2    0    0  0.14496771259E-01  0.54342278354E-02  0.17129071985E-01  0.10208412080E+01  0.10205800702E+01 0.  0.
     999903    2    3    3    0    0 -0.10647753568E+00 -0.28947128082E-01  0.66725116743E-01  0.13051731849E+00  0.20177398050E-01 0.  0.
         14    1    1    2    0    0 -0.14496771259E-01 -0.54342278354E-02 -0.17129071985E-01  0.23088792004E-01  0.00000000000E+00 0. -1.
     999901    1    3    3    0    0  0.12097430694E+00  0.34381355918E-01 -0.49596044758E-01  0.89032388951E+00  0.88000000000E+00 0. -1.
        -11    1    4    4    0    0 -0.18962812404E-01 -0.10552226285E-01  0.63516844899E-02  0.22617310863E-01  0.51100000000E-03 0.  1.
         11    1    4    4    0    0 -0.87514723277E-01 -0.18394901797E-01  0.60373432253E-01  0.10790000762E+00  0.51100000000E-03 0. -1.
</event>
<event>
 8    1  0.1065239E+005  0.1043930E+01  0.7957747E-01            NaN
         13   -1    0    0    0    0  0.00000000000E+00  0.00000000000E+00  0.74505805969E-08  0.10566000000E+00  0.10566000000E+00 0. -1.
     999900   -1    0    0    0    0 -0.00000000000E+00 -0.00000000000E+00 -0.74505805969E-08  0.93827000000E+00  0.93827000000E+00 0.  1.
     999902    2    1    2    0    0 -0.14166444299E-01 -0.17811032442E-01  0.11977045313E-01  0.10182128727E+01  0.10178880506E+01 0.  0.
     999903    2    3    3    0    0 -0.88583673873E-01  0.48119576410E-01  0.79847181799E-01  0.13001744115E+00  0.19141620949E-01 0.  0.
         14    1    1    2    0    0  0.14166444299E-01  0.17811032442E-01 -0.11977045313E-01  0.25717127272E-01  0.00000000000E+00 0.  1.
     999901    1    3    3    0    0  0.74417229574E-01 -0.65930608851E-01 -0.67870136486E-01  0.88819543157E+00  0.88000000000E+00 0.  1.
        -11    1    4    4    0    0 -0.38282813023E-01  0.22929767080E-01  0.23680026809E-01  0.50520815333E-01  0.51100000000E-03 0.  1.
         11    1    4    4    0    0 -0.50300860850E-01  0.25189809330E-01  0.56167154990E-01  0.79496625821E-01  0.51100000000E-03 0. -1.
</event>
<event>
 8    1  0.1065239E+005  0.1043930E+01  0.7957747E-01            NaN
         13   -1    0    0    0    0  0.00000000000E+00  0.00000000000E+00  0.74505805969E-08  0.10566000000E+00  0.10566000000E+00 0.  1.
     999900   -1    0    0    0    0 -0.00000000000E+00 -0.00000000000E+00 -0.74505805969E-08  0.93827000000E+00  0.93827000000E+00 0. -1.
     999902    2    1    2    0    0  0.89166307488E-02 -0.11374733298E-01  0.18874256630E-01  0.10201575701E+01  0.10198805515E+01 0.  0.
     999903    2    3    3    0    0 -0.45861422856E-01  0.11763873038E+00 -0.13652821356E-01  0.12847202024E+00  0.19404109438E-01 0.  0.
         14    1    1    2    0    0 -0.89166307488E-02  0.11374733298E-01 -0.18874256630E-01  0.23772429932E-01  0.00000000000E+00 0. -1.
     999901    1    3    3    0    0  0.54778053604E-01 -0.12901346367E+00  0.32527077987E-01  0.89168554983E+00  0.88000000000E+00 0.  1.
        -11    1    4    4    0    0  0.27369372154E-04  0.15275998413E-01  0.11138485853E-02  0.15325098899E-01  0.51100000000E-03 0.  1.
         11    1    4    4    0    0 -0.45888792228E-01  0.10236273196E+00 -0.14766669942E-01  0.11314692134E+00  0.51100000000E-03 0. -1.
</event>
<event>
 8    1  0.1065239E+005  0.1043930E+01  0.7957747E-01            NaN
         13   -1    0    0    0    0  0.00000000000E+00  0.00000000000E+00  0.74505805969E-08  0.10566000000E+00  0.10566000000E+00 0.  1.
     999900   -1    0    0    0    0 -0.00000000000E+00 -0.00000000000E+00 -0.74505805969E-08  0.93827000000E+00  0.93827000000E+00 0.  1.
     999902    2    1    2    0    0  0.21522645853E-01 -0.95580717641E-02  0.95784046804E-03  0.10203609848E+01  0.10200887416E+01 0.  0.
     999903    2    3    3    0    0 -0.39906111631E-01 -0.10030652446E+00  0.71074744549E-01  0.13079639794E+00  0.20054470992E-01 0.  0.
         14    1    1    2    0    0 -0.21522645853E-01  0.95580717641E-02 -0.95784046804E-03  0.23569015226E-01  0.00000000000E+00 0. -1.
     999901    1    3    3    0    0  0.61428757485E-01  0.90748452694E-01 -0.70116904081E-01  0.88956458683E+00  0.88000000000E+00 0.  1.
        -11    1    4    4    0    0 -0.28406353444E-01 -0.47639635805E-01  0.41766225298E-01  0.69434389982E-01  0.51100000000E-03 0.  1.
         11    1    4    4    0    0 -0.11499758187E-01 -0.52666888653E-01  0.29308519251E-01  0.61362007957E-01  0.51100000000E-03 0. -1.
</event>
<event>
 8    1  0.1099830E+005  0.1043930E+01  0.7957747E-01            NaN
         13   -1    0    0    0    0  0.00000000000E+00  0.00000000000E+00  0.74505805969E-08  0.10566000000E+00  0.10566000000E+00 0. -1.
     999900   -1    0    0    0    0 -0.00000000000E+00 -0.00000000000E+00 -0.74505805969E-08  0.93827000000E+00  0.93827000000E+00 0. -1.
     999902    2    1    2    0    0  0.20099916016E-01 -0.12429635946E-01  0.46304313358E-02  0.10198479866E+01  0.10195636186E+01 0.  0.
     999903    2    3    3    0    0  0.10566707493E+00 -0.64795266228E-01 -0.43533932999E-01  0.13283969811E+00  0.19678028880E-01 0.  0.
         14    1    1    2    0    0 -0.20099916016E-01  0.12429635946E-01 -0.46304313358E-02  0.24082013370E-01  0.00000000000E+00 0. -1.
     999901    1    3    3    0    0 -0.85567158914E-01  0.52365630282E-01  0.48164364335E-01  0.88700828852E+00  0.88000000000E+00 0.  1.
        -11    1    4    4    0    0  0.39991584908E-01 -0.35152158306E-01 -0.14810390215E-01  0.55268525187E-01  0.51100000000E-03 0. -1.
         11    1    4    4    0    0  0.65675490022E-01 -0.29643107922E-01 -0.28723542784E-01  0.77571172919E-01  0.51100000000E-03 0.  1.
</event>
<event>
 8    1  0.1153222E+005  0.1043930E+01  0.7957747E-01            NaN
         13   -1    0    0    0    0  0.00000000000E+00  0.00000000000E+00  0.74505805969E-08  0.10566000000E+00  0.10566000000E+00 0.  1.
     999900   -1    0    0    0    0 -0.00000000000E+00 -0.00000000000E+00 -0.74505805969E-08  0.93827000000E+00  0.93827000000E+00 0.  1.
     999902    2    1    2    0    0  0.22922409840E-02  0.93864541722E-02 -0.18554317602E-01  0.10230105690E+01  0.10227966571E+01 0.  0.
     999903    2    3    3    0    0  0.27004712258E-01 -0.12455123850E+00  0.23819481791E-01  0.13152554356E+00  0.22120926729E-01 0.  0.
         14    1    1    2    0    0 -0.22922409840E-02 -0.93864541722E-02  0.18554317602E-01  0.20919430975E-01  0.00000000000E+00 0.  1.
     999901    1    3    3    0    0 -0.24712471274E-01  0.13393769267E+00 -0.42373799393E-01  0.89148502547E+00  0.88000000000E+00 0.  1.
        -11    1    4    4    0    0  0.36976720748E-02 -0.68728991782E-01  0.13986628295E-01  0.70236984433E-01  0.51100000000E-03 0.  1.
         11    1    4    4    0    0  0.23307040183E-01 -0.55822246719E-01  0.98328534966E-02  0.61288559126E-01  0.51100000000E-03 0. -1.
</event>
<event>
 8    1  0.1065239E+005  0.1043930E+01  0.7957747E-01            NaN
         13   -1    0    0    0    0  0.00000000000E+00  0.00000000000E+00  0.74505805969E-08  0.10566000000E+00  0.10566000000E+00 0.  1.
     999900   -1    0    0    0    0 -0.00000000000E+00 -0.00000000000E+00 -0.74505805969E-08  0.93827000000E+00  0.93827000000E+00 0. -1.
     999902    2    1    2    0    0  0.16825177655E-01 -0.37376702375E-02  0.14515145344E-01  0.10213967751E+01  0.10211481900E+01 0.  0.
     999903    2    3    3    0    0  0.55894526168E-01 -0.49266193922E-01  0.10980011915E+00  0.13422233522E+00  0.20204286394E-01 0.  0.
         14    1    1    2    0    0 -0.16825177655E-01  0.37376702375E-02 -0.14515145344E-01  0.22533224942E-01  0.00000000000E+00 0. -1.
     999901    1    3    3    0    0 -0.39069348513E-01  0.45528523685E-01 -0.95284973805E-01  0.88717443983E+00  0.88000000000E+00 0. -1.
        -11    1    4    4    0    0  0.12251632546E-01 -0.22468997442E-02  0.12331081943E-01  0.17534758663E-01  0.51100000000E-03 0. -1.
         11    1    4    4    0    0  0.43642893622E-01 -0.47019294178E-01  0.97469037206E-01  0.11668757656E+00  0.51100000000E-03 0.  1.
</event>
<event>
 8    1  0.1065239E+005  0.1043930E+01  0.7957747E-01            NaN
         13   -1    0    0    0    0  0.00000000000E+00  0.00000000000E+00  0.74505805969E-08  0.10566000000E+00  0.10566000000E+00 0. -1.
     999900   -1    0    0    0    0 -0.00000000000E+00 -0.00000000000E+00 -0.74505805969E-08  0.93827000000E+00  0.93827000000E+00 0. -1.
     999902    2    1    2    0    0  0.73505745710E-02 -0.58893891672E-02 -0.23971745672E-01  0.10181742154E+01  0.10178484034E+01 0.  0.
     999903    2    3    3    0    0 -0.49642955295E-01 -0.11632895958E+00 -0.77389550009E-02  0.12929364710E+00  0.25692526330E-01 0.  0.
         14    1    1    2    0    0 -0.73505745710E-02  0.58893891672E-02  0.23971745672E-01  0.25755784629E-01  0.00000000000E+00 0. -1.
     999901    1    3    3    0    0  0.56993529866E-01  0.11043957041E+00 -0.16232790671E-01  0.88888056827E+00  0.88000000000E+00 0.  1.
        -11    1    4    4    0    0 -0.18361334400E-01 -0.74768227663E-01 -0.28488889330E-02  0.77044167580E-01  0.51100000000E-03 0. -1.
         11    1    4    4    0    0 -0.31281620895E-01 -0.41560731912E-01 -0.48900660679E-02  0.52249479519E-01  0.51100000000E-03 0.  1.
</event>
<event>
 8    1  0.1065239E+005  0.1043930E+01  0.7957747E-01            NaN
         13   -1    0    0    0    0  0.00000000000E+00  0.00000000000E+00  0.74505805969E-08  0.10566000000E+00  0.10566000000E+00 0.  1.
     999900   -1    0    0    0    0 -0.00000000000E+00 -0.00000000000E+00 -0.74505805969E-08  0.93827000000E+00  0.93827000000E+00 0. -1.
     999902    2    1    2    0    0  0.15327057636E-01  0.84709926578E-02 -0.15150273487E-01  0.10207738518E+01  0.10205111706E+01 0.  0.
     999903    2    3    3    0    0 -0.86815721409E-01 -0.82078830608E-01 -0.45302886194E-01  0.12973984692E+00  0.22498276930E-01 0.  0.
         14    1    1    2    0    0 -0.15327057636E-01 -0.84709926578E-02  0.15150273487E-01  0.23156148192E-01  0.00000000000E+00 0. -1.
     999901    1    3    3    0    0  0.10214277904E+00  0.90549823266E-01  0.30152612707E-01  0.89103400488E+00  0.88000000000E+00 0.  1.
        -11    1    4    4    0    0 -0.55422496822E-01 -0.64294610437E-01 -0.25790834637E-01  0.88717970883E-01  0.51100000000E-03 0.  1.
         11    1    4    4    0    0 -0.31393224587E-01 -0.17784220171E-01 -0.19512051557E-01  0.41021876042E-01  0.51100000000E-03 0. -1.
</event>
<event>
 8    1  0.1065239E+005  0.1043930E+01  0.7957747E-01            NaN
         13   -1    0    0    0    0  0.00000000000E+00  0.00000000000E+00  0.74505805969E-08  0.10566000000E+00  0.10566000000E+00 0. -1.
     999900   -1    0    0    0    0 -0.00000000000E+00 -0.00000000000E+00 -0.74505805969E-08  0.93827000000E+00  0.93827000000E+00 0.  1.
     999902    2    1    2    0    0  0.20294070509E-04  0.11313326592E-01  0.20977419107E-01  0.10200963288E+01  0.10198178642E+01 0.  0.
     999903    2    3    3    0    0  0.66400333600E-01  0.61044689180E-01 -0.89945005645E-01  0.12926340261E+00  0.21987833792E-01 0.  0.
         14    1    1    2    0    0 -0.20294070509E-04 -0.11313326592E-01 -0.20977419107E-01  0.23833671198E-01  0.00000000000E+00 0.  1.
     999901    1    3    3    0    0 -0.66380039529E-01 -0.49731362588E-01  0.11092242475E+00  0.89083292619E+00  0.88000000000E+00 0. -1.
        -11    1    4    4    0    0  0.44019791673E-01  0.38838968285E-01 -0.72291097219E-01  0.93126104689E-01  0.51100000000E-03 0.  1.
         11    1    4    4    0    0  0.22380541927E-01  0.22205720895E-01 -0.17653908426E-01  0.36137297922E-01  0.51100000000E-03 0. -1.
</event>
<event>
 8    1  0.1065239E+005  0.1043930E+01  0.7957747E-01            NaN
         13   -1    0    0    0    0  0.00000000000E+00  0.00000000000E+00  0.74505805969E-08  0.10566000000E+00  0.10566000000E+00 0. -1.
     999900   -1    0    0    0    0 -0.00000000000E+00 -0.00000000000E+00 -0.74505805969E-08  0.93827000000E+00  0.93827000000E+00 0.  1.
     999902    2    1    2    0    0 -0.16982365225E-01 -0.62632265655E-02  0.14602624816E-01  0.10206734872E+01  0.10204084977E+01 0.  0.
     999903    2    3    3    0    0  0.20275763203E-01  0.11813245561E+00  0.47405570734E-01  0.13053951575E+00  0.20661398643E-01 0.  0.
         14    1    1    2    0    0  0.16982365225E-01  0.62632265655E-02 -0.14602624816E-01  0.23256512790E-01  0.00000000000E+00 0.  1.
     999901    1    3    3    0    0 -0.37258128428E-01 -0.12439568218E+00 -0.32802945918E-01  0.89013397146E+00  0.88000000000E+00 0.  1.
        -11    1    4    4    0    0  0.16143441403E-01  0.45770908358E-01  0.12662618117E-01  0.50161636445E-01  0.51100000000E-03 0.  1.
         11    1    4    4    0    0  0.41323217998E-02  0.72361547256E-01  0.34742952617E-01  0.80377879309E-01  0.51100000000E-03 0. -1.
</event>
<event>
 8    1  0.1065239E+005  0.1043930E+01  0.7957747E-01            NaN
         13   -1    0    0    0    0  0.00000000000E+00  0.00000000000E+00  0.74505805969E-08  0.10566000000E+00  0.10566000000E+00 0.  1.
     999900   -1    0    0    0    0 -0.00000000000E+00 -0.00000000000E+00 -0.74505805969E-08  0.93827000000E+00  0.93827000000E+00 0. -1.
     999902    2    1    2    0    0 -0.25456961211E-02 -0.20173212255E-01  0.15165618895E-01  0.10185639783E+01  0.10182480753E+01 0.  0.
     999903    2    3    3    0    0  0.95052125221E-01  0.23026178401E-01  0.82819136734E-01  0.12953725171E+00  0.18862098768E-01 0.  0.
         14    1    1    2    0    0  0.25456961211E-02  0.20173212255E-01 -0.15165618895E-01  0.25366021719E-01  0.00000000000E+00 0. -1.
     999901    1    3    3    0    0 -0.97597821343E-01 -0.43199390656E-01 -0.67653517839E-01  0.88902672657E+00  0.88000000000E+00 0. -1.
        -11    1    4    4    0    0  0.88695000214E-01  0.16073745733E-01  0.74054006278E-01  0.11665944167E+00  0.51100000000E-03 0. -1.
         11    1    4    4    0    0  0.63571250075E-02  0.69524326688E-02  0.87651304563E-02  0.12877810035E-01  0.51100000000E-03 0.  1.
</event>
<event>
 8    1  0.1065239E+005  0.1043930E+01  0.7957747E-01            NaN
         13   -1    0    0    0    0  0.00000000000E+00  0.00000000000E+00  0.74505805969E-08  0.10566000000E+00  0.10566000000E+00 0. -1.
     999900   -1    0    0    0    0 -0.00000000000E+00 -0.00000000000E+00 -0.74505805969E-08  0.93827000000E+00  0.93827000000E+00 0.  1.
     999902    2    1    2    0    0 -0.17028152675E-01  0.17047825991E-02 -0.16513287571E-01  0.10201486432E+01  0.10198714140E+01 0.  0.
     999903    2    3    3    0    0  0.62713219263E-02  0.50201638702E-01 -0.12061779571E+00  0.13238034050E+00  0.20405095055E-01 0.  0.
         14    1    1    2    0    0  0.17028152675E-01 -0.17047825991E-02  0.16513287571E-01  0.23781356850E-01  0.00000000000E+00 0. -1.
     999901    1    3    3    0    0 -0.23299474601E-01 -0.48496856103E-01  0.10410450813E+00  0.88776830265E+00  0.88000000000E+00 0. -1.
        -11    1    4    4    0    0  0.10856545244E-01  0.24231686308E-01 -0.44503172256E-01  0.51825019613E-01  0.51100000000E-03 0.  1.
         11    1    4    4    0    0 -0.45852233180E-02  0.25969952394E-01 -0.76114623449E-01  0.80555320892E-01  0.51100000000E-03 0. -1.
</event>
<event>
 8    1  0.1065239E+005  0.1043930E+01  0.7957747E-01            NaN
         13   -1    0    0    0    0  0.00000000000E+00  0.00000000000E+00  0.74505805969E-08  0.10566000000E+00  0.10566000000E+00 0. -1.
     999900   -1    0    0    0    0 -0.00000000000E+00 -0.00000000000E+00 -0.74505805969E-08  0.93827000000E+00  0.93827000000E+00 0.  1.
     999902    2    1    2    0    0 -0.43325376838E-03 -0.21336899040E-01  0.65695880622E-02  0.10216004130E+01  0.10213563498E+01 0.  0.
     999903    2    3    3    0    0 -0.95953110473E-01 -0.71933656697E-01 -0.53838024325E-01  0.13293109622E+00  0.19765958183E-01 0.  0.
         14    1    1    2    0    0  0.43325376838E-03  0.21336899040E-01 -0.65695880622E-02  0.22329587026E-01  0.00000000000E+00 0.  1.
     999901    1    3    3    0    0  0.95519856705E-01  0.50596757658E-01  0.60407612387E-01  0.88866931676E+00  0.88000000000E+00 0. -1.
        -11    1    4    4    0    0 -0.62711384179E-01 -0.44621097789E-01 -0.24190805922E-01  0.80679714214E-01  0.51100000000E-03 0.  1.
         11    1    4    4    0    0 -0.33241726294E-01 -0.27312558908E-01 -0.29647218403E-01  0.52251382003E-01  0.51100000000E-03 0. -1.
</event>
<event>
 8    1  0.1065239E+005  0.1043930E+01  0.7957747E-01            NaN
         13   -1    0    0    0    0  0.00000000000E+00  0.00000000000E+00  0.74505805969E-08  0.10566000000E+00  0.10566000000E+00 0. -1.
     999900   -1    0    0    0    0 -0.00000000000E+00 -0.00000000000E+00 -0.74505805969E-08  0.93827000000E+00  0.93827000000E+00 0. -1.
     999902    2    1    2    0    0  0.89847124814E-02 -0.71986125325E-02 -0.15193648257E-01  0.10248671558E+01  0.10246898531E+01 0.  0.
     999903    2    3    3    0    0  0.10047378773E+00 -0.26049863425E-02  0.86713024318E-01  0.13426268570E+00  0.20138326913E-01 0.  0.
         14    1    1    2    0    0 -0.89847124814E-02  0.71986125325E-02  0.15193648257E-01  0.19062844177E-01  0.00000000000E+00 0. -1.
     999901    1    3    3    0    0 -0.91489075244E-01 -0.45936261900E-02 -0.10190667257E+00  0.89060447012E+00  0.88000000000E+00 0.  1.
        -11    1    4    4    0    0  0.38632463621E-01  0.40040723858E-02  0.44639046252E-01  0.59172674542E-01  0.51100000000E-03 0. -1.
         11    1    4    4    0    0  0.61841324104E-01 -0.66090587283E-02  0.42073978066E-01  0.75090011157E-01  0.51100000000E-03 0.  1.
</event>
<event>
 8    1  0.1065239E+005  0.1043930E+01  0.7957747E-01            NaN
         13   -1    0    0    0    0  0.00000000000E+00  0.00000000000E+00  0.74505805969E-08  0.10566000000E+00  0.10566000000E+00 0.  1.
     999900   -1    0    0    0    0 -0.00000000000E+00 -0.00000000000E+00 -0.74505805969E-08  0.93827000000E+00  0.93827000000E+00 0.  1.
     999902    2    1    2    0    0 -0.10735586680E-01 -0.11343518755E-01  0.18577122045E-01  0.10196599011E+01  0.10193710199E+01 0.  0.
     999903    2    3    3    0    0 -0.92256075079E-01  0.11640738658E-01  0.92321543739E-01  0.13252287340E+00  0.19807936533E-01 0.  0.
         14    1    1    2    0    0  0.10735586680E-01  0.11343518755E-01 -0.18577122045E-01  0.24270098940E-01  0.00000000000E+00 0. -1.
     999901    1    3    3    0    0  0.81520488399E-01 -0.22984257413E-01 -0.73744421694E-01  0.88713702766E+00  0.88000000000E+00 0.  1.
        -11    1    4    4    0    0 -0.25028100528E-01  0.58822853698E-02  0.38073888969E-01  0.45944414671E-01  0.51100000000E-03 0. -1.
         11    1    4    4    0    0 -0.67227974551E-01  0.57584532882E-02  0.54247654771E-01  0.86578458727E-01  0.51100000000E-03 0.  1.
</event>
<event>
 8    1  0.1065239E+005  0.1043930E+01  0.7957747E-01            NaN
         13   -1    0    0    0    0  0.00000000000E+00  0.00000000000E+00  0.74505805969E-08  0.10566000000E+00  0.10566000000E+00 0. -1.
     999900   -1    0    0    0    0 -0.00000000000E+00 -0.00000000000E+00 -0.74505805969E-08  0.93827000000E+00  0.93827000000E+00 0. -1.
     999902    2    1    2    0    0 -0.17727311641E-01 -0.35722366820E-03  0.15653875195E-01  0.10202777486E+01  0.10200035565E+01 0.  0.
     999903    2    3    3    0    0  0.12278977870E+00 -0.23888364480E-01  0.23030527346E-01  0.12878844287E+00  0.20200844419E-01 0.  0.
         14    1    1    2    0    0  0.17727311641E-01  0.35722366820E-03 -0.15653875195E-01  0.23652251381E-01  0.00000000000E+00 0.  1.
     999901    1    3    3    0    0 -0.14051709035E+00  0.23531140812E-01 -0.73766521516E-02  0.89148930575E+00  0.88000000000E+00 0.  1.
        -11    1    4    4    0    0  0.30479660323E-01 -0.10099818865E-01 -0.19344325312E-02  0.32171714047E-01  0.51100000000E-03 0.  1.
         11    1    4    4    0    0  0.92310118381E-01 -0.13788545615E-01  0.24964959878E-01  0.96616728823E-01  0.51100000000E-03 0. -1.
</event>
<event>
 8    1  0.1065239E+005  0.1043930E+01  0.7957747E-01            NaN
         13   -1    0    0    0    0  0.00000000000E+00  0.00000000000E+00  0.74505805969E-08  0.10566000000E+00  0.10566000000E+00 0. -1.
     999900   -1    0    0    0    0 -0.00000000000E+00 -0.00000000000E+00 -0.74505805969E-08  0.93827000000E+00  0.93827000000E+00 0.  1.
     999902    2    1    2    0    0  0.26737065678E-02 -0.23028361868E-01  0.55744845984E-02  0.10200861531E+01  0.10198074478E+01 0.  0.
     999903    2    3    3    0    0 -0.11561161843E+00  0.37549655843E-01 -0.37946266185E-01  0.12904453224E+00  0.20893760158E-01 0.  0.
         14    1    1    2    0    0 -0.26737065678E-02  0.23028361868E-01 -0.55744845984E-02  0.23843846915E-01  0.00000000000E+00 0. -1.
     999901    1    3    3    0    0  0.11828532499E+00 -0.60578017711E-01  0.43520750783E-01  0.89104162085E+00  0.88000000000E+00 0. -1.
        -11    1    4    4    0    0 -0.68005268722E-01  0.31053633012E-01 -0.17245706037E-01  0.76724964613E-01  0.51100000000E-03 0. -1.
         11    1    4    4    0    0 -0.47606349703E-01  0.64960228309E-02 -0.20700560148E-01  0.52319567622E-01  0.51100000000E-03 0.  1.
</event>
<event>
 8    1  0.1065239E+005  0.1043930E+01  0.7957747E-01            NaN
         13   -1    0    0    0    0  0.00000000000E+00  0.00000000000E+00  0.74505805969E-08  0.10566000000E+00  0.10566000000E+00 0.  1.
     999900   -1    0    0    0    0 -0.00000000000E+00 -0.00000000000E+00 -0.74505805969E-08  0.93827000000E+00  0.93827000000E+00 0.  1.
     999902    2    1    2    0    0  0.16163003891E-01  0.44208374066E-02 -0.13707668051E-01  0.10222808277E+01  0.10220515662E+01 0.  0.
     999903    2    3    3    0    0 -0.78540796862E-01  0.87358011436E-01 -0.57488658340E-01  0.13224478358E+00  0.19587190007E-01 0.  0.
         14    1    1    2    0    0 -0.16163003891E-01 -0.44208374066E-02  0.13707668051E-01  0.21649172306E-01  0.00000000000E+00 0.  1.
     999901    1    3    3    0    0  0.94703800752E-01 -0.82937174029E-01  0.43780990288E-01  0.89003604411E+00  0.88000000000E+00 0. -1.
        -11    1    4    4    0    0 -0.26307806161E-01  0.21548416554E-01 -0.24788432958E-01  0.42085180889E-01  0.51100000000E-03 0.  1.
         11    1    4    4    0    0 -0.52232990700E-01  0.65809594882E-01 -0.32700225382E-01  0.90159602689E-01  0.51100000000E-03 0. -1.
</event>
<event>
 8    1  0.1065239E+005  0.1043930E+01  0.7957747E-01            NaN
         13   -1    0    0    0    0  0.00000000000E+00  0.00000000000E+00  0.74505805969E-08  0.10566000000E+00  0.10566000000E+00 0.  1.
     999900   -1    0    0    0    0 -0.00000000000E+00 -0.00000000000E+00 -0.74505805969E-08  0.93827000000E+00  0.93827000000E+00 0. -1.
     999902    2    1    2    0    0  0.10332283474E-01 -0.78926859297E-02  0.20179911176E-01  0.10199241801E+01  0.10196416301E+01 0.  0.
     999903    2    3    3    0    0  0.92039802264E-01  0.58690029619E-01  0.71787868848E-01  0.13213323743E+00  0.19744607907E-01 0.  0.
         14    1    1    2    0    0 -0.10332283474E-01  0.78926859297E-02 -0.20179911176E-01  0.24005819879E-01  0.00000000000E+00 0. -1.
     999901    1    3    3    0    0 -0.81707518791E-01 -0.66582715548E-01 -0.51607957672E-01  0.88779094270E+00  0.88000000000E+00 0. -1.
        -11    1    4    4    0    0  0.62744044292E-01  0.32765738540E-01  0.37467976566E-01  0.80090693000E-01  0.51100000000E-03 0.  1.
         11    1    4    4    0    0  0.29295757972E-01  0.25924291079E-01  0.34319892282E-01  0.52042544426E-01  0.51100000000E-03 0. -1.
</event>
<event>
 8    1  0.1065239E+005  0.1043930E+01  0.7957747E-01            NaN
         13   -1    0    0    0    0  0.00000000000E+00  0.00000000000E+00  0.74505805969E-08  0.10566000000E+00  0.10566000000E+00 0. -1.
     999900   -1    0    0    0    0 -0.00000000000E+00 -0.00000000000E+00 -0.74505805969E-08  0.93827000000E+00  0.93827000000E+00 0. -1.
     999902    2    1    2    0    0  0.11124682195E-01  0.10048053680E-01  0.17507638560E-01  0.10208813700E+01  0.10206211502E+01 0.  0.
     999903    2    3    3    0    0  0.40200076717E-01 -0.12124840960E+00 -0.13845809395E-01  0.13011362332E+00  0.20509157393E-01 0.  0.
         14    1    1    2    0    0 -0.11124682195E-01 -0.10048053680E-01 -0.17507638560E-01  0.23048629995E-01  0.00000000000E+00 0.  1.
     999901    1    3    3    0    0 -0.29075394522E-01  0.13129646328E+00  0.31353447954E-01  0.89076774669E+00  0.88000000000E+00 0.  1.
        -11    1    4    4    0    0  0.26550728385E-01 -0.85279469964E-01 -0.28571178615E-03  0.89318933757E-01  0.51100000000E-03 0. -1.
         11    1    4    4    0    0  0.13649348332E-01 -0.35968939636E-01 -0.13560097608E-01  0.40794689563E-01  0.51100000000E-03 0.  1.
</event>
<event>
 8    1  0.1065239E+005  0.1043930E+01  0.7957747E-01            NaN
         13   -1    0    0    0    0  0.00000000000E+00  0.00000000000E+00  0.74505805969E-08  0.10566000000E+00  0.10566000000E+00 0. -1.
     999900   -1    0    0    0    0 -0.00000000000E+00 -0.00000000000E+00 -0.74505805969E-08  0.93827000000E+00  0.93827000000E+00 0. -1.
     999902    2    1    2    0    0  0.16346638438E-01  0.13939500289E-01  0.94119769141E-02  0.10204756280E+01  0.10202060575E+01 0.  0.
     999903    2    3    3    0    0 -0.12430617076E+00  0.23279209949E-01 -0.17288381104E-01  0.12885723876E+00  0.17645230353E-01 0.  0.
         14    1    1    2    0    0 -0.16346638438E-01 -0.13939500289E-01 -0.94119769141E-02  0.23454372001E-01  0.00000000000E+00 0.  1.
     999901    1    3    3    0    0  0.14065280920E+00 -0.93397096600E-02  0.26700358018E-01  0.89161838924E+00  0.88000000000E+00 0.  1.
        -11    1    4    4    0    0 -0.38617590471E-01  0.47098663003E-02  0.24490566070E-02  0.38984101036E-01  0.51100000000E-03 0. -1.
         11    1    4    4    0    0 -0.85688580290E-01  0.18569343649E-01 -0.19737437711E-01  0.89873137723E-01  0.51100000000E-03 0.  1.
</event>
<event>
 8    1  0.1065239E+005  0.1043930E+01  0.7957747E-01            NaN
         13   -1    0    0    0    0  0.00000000000E+00  0.00000000000E+00  0.74505805969E-08  0.10566000000E+00  0.10566000000E+00 0. -1.
     999900   -1    0    0    0    0 -0.00000000000E+00 -0.00000000000E+00 -0.74505805969E-08  0.93827000000E+00  0.93827000000E+00 0. -1.
     999902    2    1    2    0    0 -0.19028216703E-01  0.64521614476E-02  0.41263145574E-02  0.10234182987E+01  0.10232127268E+01 0.  0.
     999903    2    3    3    0    0  0.11681258931E+00 -0.39970609931E-01  0.39265620795E-01  0.13109404759E+00  0.20025724904E-01 0.  0.
         14    1    1    2    0    0  0.19028216703E-01 -0.64521614476E-02 -0.41263145574E-02  0.20511701296E-01  0.00000000000E+00 0.  1.
     999901    1    3    3    0    0 -0.13584080601E+00  0.46422771378E-01 -0.35139306237E-01  0.89232425111E+00  0.88000000000E+00 0.  1.
        -11    1    4    4    0    0  0.64400146755E-01 -0.31801007731E-01  0.18895475151E-01  0.74269664716E-01  0.51100000000E-03 0.  1.
         11    1    4    4    0    0  0.52412442555E-01 -0.81696021998E-02  0.20370145643E-01  0.56824382875E-01  0.51100000000E-03 0. -1.
</event>
<event>
 8    1  0.1065239E+005  0.1043930E+01  0.7957747E-01            NaN
         13   -1    0    0    0    0  0.00000000000E+00  0.00000000000E+00  0.74505805969E-08  0.10566000000E+00  0.10566000000E+00 0.  1.
     999900   -1    0    0    0    0 -0.00000000000E+00 -0.00000000000E+00 -0.74505805969E-08  0.93827000000E+00  0.93827000000E+00 0.  1.
     999902    2    1    2    0    0 -0.16788213887E-01 -0.14947887989E-01 -0.20239828486E-01  0.10136821218E+01  0.10132307288E+01 0.  0.
     999903    2    3    3    0    0  0.86046094843E-01  0.64869083793E-01 -0.56600773283E-01  0.12336321129E+00  0.20072515874E-01 0.  0.
         14    1    1    2    0    0  0.16788213887E-01  0.14947887989E-01  0.20239828486E-01  0.30247878240E-01  0.00000000000E+00 0.  1.
     999901    1    3    3    0    0 -0.10283430873E+00 -0.79816971782E-01  0.36360944797E-01  0.89031891047E+00  0.88000000000E+00 0.  1.
        -11    1    4    4    0    0  0.40060056514E-01  0.17910281062E-01 -0.22542907959E-01  0.49335890748E-01  0.51100000000E-03 0. -1.
         11    1    4    4    0    0  0.45986038328E-01  0.46958802731E-01 -0.34057865323E-01  0.74027320541E-01  0.51100000000E-03 0.  1.
</event>
<event>
 8    1  0.1065239E+005  0.1043930E+01  0.7957747E-01            NaN
         13   -1    0    0    0    0  0.00000000000E+00  0.00000000000E+00  0.74505805969E-08  0.10566000000E+00  0.10566000000E+00 0. -1.
     999900   -1    0    0    0    0 -0.00000000000E+00 -0.00000000000E+00 -0.74505805969E-08  0.93827000000E+00  0.93827000000E+00 0. -1.
     999902    2    1    2    0    0  0.19322879774E-01  0.81068560697E-02  0.11314665694E-01  0.10201157929E+01  0.10198377884E+01 0.  0.
     999903    2    3    3    0    0  0.61132203297E-01  0.89967061863E-02 -0.11318477526E+00  0.13036924354E+00  0.19164010786E-01 0.  0.
         14    1    1    2    0    0 -0.19322879774E-01 -0.81068560697E-02 -0.11314665694E-01  0.23814207060E-01  0.00000000000E+00 0.  1.
     999901    1    3    3    0    0 -0.41809323523E-01 -0.88985011668E-03  0.12449944095E+00  0.88974654940E+00  0.88000000000E+00 0.  1.
        -11    1    4    4    0    0  0.26509184257E-01  0.12569887397E-01 -0.43468675121E-01  0.52445455064E-01  0.51100000000E-03 0. -1.
         11    1    4    4    0    0  0.34623019040E-01 -0.35731812105E-02 -0.69716100138E-01  0.77923788479E-01  0.51100000000E-03 0.  1.
</event>
<event>
 8    1  0.1065239E+005  0.1043930E+01  0.7957747E-01            NaN
         13   -1    0    0    0    0  0.00000000000E+00  0.00000000000E+00  0.74505805969E-08  0.10566000000E+00  0.10566000000E+00 0.  1.
     999900   -1    0    0    0    0 -0.00000000000E+00 -0.00000000000E+00 -0.74505805969E-08  0.93827000000E+00  0.93827000000E+00 0.  1.
     999902    2    1    2    0    0  0.15760910956E-01 -0.12918709639E-01  0.11766249890E-01  0.10203982340E+01  0.10201268607E+01 0.  0.
     999903    2    3    3    0    0 -0.11040403482E+00 -0.59562000803E-01  0.27861987897E-01  0.13003186959E+00  0.19882502253E-01 0.  0.
         14    1    1    2    0    0 -0.15760910956E-01  0.12918709639E-01 -0.11766249890E-01  0.23531765964E-01  0.00000000000E+00 0. -1.
     999901    1    3    3    0    0  0.12616494578E+00  0.46643291164E-01 -0.16095738007E-01  0.89036636445E+00  0.88000000000E+00 0.  1.
        -11    1    4    4    0    0 -0.39807198332E-01 -0.32535190464E-01  0.11682666154E-01  0.52724732973E-01  0.51100000000E-03 0.  1.
         11    1    4    4    0    0 -0.70596836487E-01 -0.27026810339E-01  0.16179321742E-01  0.77307136618E-01  0.51100000000E-03 0. -1.
</event>
<event>
 8    1  0.1065239E+005  0.1043930E+01  0.7957747E-01            NaN
         13   -1    0    0    0    0  0.00000000000E+00  0.00000000000E+00  0.74505805969E-08  0.10566000000E+00  0.10566000000E+00 0.  1.
     999900   -1    0    0    0    0 -0.00000000000E+00 -0.00000000000E+00 -0.74505805969E-08  0.93827000000E+00  0.93827000000E+00 0.  1.
     999902    2    1    2    0    0  0.21378727599E-01 -0.97401522333E-02  0.53616696818E-03  0.10204308929E+01  0.10201602811E+01 0.  0.
     999903    2    3    3    0    0 -0.54819312328E-01 -0.11659350979E+00  0.41519276692E-02  0.13069112475E+00  0.21534345969E-01 0.  0.
         14    1    1    2    0    0 -0.21378727599E-01  0.97401522333E-02 -0.53616696818E-03  0.23499107096E-01  0.00000000000E+00 0. -1.
     999901    1    3    3    0    0  0.76198039927E-01  0.10685335755E+00 -0.36157607011E-02  0.88973976815E+00  0.88000000000E+00 0.  1.
        -11    1    4    4    0    0 -0.33856833536E-02 -0.20187422412E-01 -0.48793431459E-02  0.21049085157E-01  0.51100000000E-03 0. -1.
         11    1    4    4    0    0 -0.51433628975E-01 -0.96406087376E-01  0.90312708151E-02  0.10964203959E+00  0.51100000000E-03 0.  1.
</event>
<event>
 8    1  0.1065239E+005  0.1043930E+01  0.7957747E-01            NaN
         13   -1    0    0    0    0  0.00000000000E+00  0.00000000000E+00  0.74505805969E-08  0.10566000000E+00  0.10566000000E+00 0. -1.
     999900   -1    0    0    0    0 -0.00000000000E+00 -0.00000000000E+00 -0.74505805969E-08  0.93827000000E+00  0.93827000000E+00 0.  1.
     999902    2    1    2    0    0  0.15807072246E-01  0.20821891689E-01  0.67049815505E-02  0.10169416417E+01  0.10165834600E+01 0.  0.
     999903    2    3    3    0    0 -0.27006702844E-01 -0.51512156654E-01 -0.10927904694E+00  0.12536016547E+00  0.19758459048E-01 0.  0.
         14    1    1    2    0    0 -0.15807072246E-01 -0.20821891689E-01 -0.67049815505E-02  0.26988358307E-01  0.00000000000E+00 0.  1.
     999901    1    3    3    0    0  0.42813775090E-01  0.72334048343E-01  0.11598402849E+00  0.89158147623E+00  0.88000000000E+00 0. -1.
        -11    1    4    4    0    0 -0.49192723679E-02 -0.24994396570E-02 -0.23350602374E-01  0.23999128973E-01  0.51100000000E-03 0. -1.
         11    1    4    4    0    0 -0.22087430476E-01 -0.49012716997E-01 -0.85928444565E-01  0.10136103649E+00  0.51100000000E-03 0.  1.
</event>
<event>
 8    1  0.1065239E+005  0.1043930E+01  0.7957747E-01            NaN
         13   -1    0    0    0    0  0.00000000000E+00  0.00000000000E+00  0.74505805969E-08  0.10566000000E+00  0.10566000000E+00 0.  1.
     999900   -1    0    0    0    0 -0.00000000000E+00 -0.00000000000E+00 -0.74505805969E-08  0.93827000000E+00  0.93827000000E+00 0.  1.
     999902    2    1    2    0    0 -0.28313904282E-02 -0.17344562619E-01 -0.14976121318E-01  0.10208402873E+01  0.10205791284E+01 0.  0.
     999903    2    3    3    0    0  0.12006577741E+00  0.68026944349E-02  0.44911101776E-01  0.12995685866E+00  0.20241306605E-01 0.  0.
         14    1    1    2    0    0  0.28313904282E-02  0.17344562619E-01  0.14976121318E-01  0.23089712729E-01  0.00000000000E+00 0.  1.
     999901    1    3    3    0    0 -0.12289716784E+00 -0.24147257054E-01 -0.59887223094E-01  0.89088342861E+00  0.88000000000E+00 0. -1.
        -11    1    4    4    0    0  0.25835106860E-01  0.29412270627E-02  0.18822869344E-01  0.32103973188E-01  0.51100000000E-03 0. -1.
         11    1    4    4    0    0  0.94230670550E-01  0.38614673722E-02  0.26088232432E-01  0.97852885470E-01  0.51100000000E-03 0.  1.
</event>
<event>
 8    1  0.1065239E+005  0.1043930E+01  0.7957747E-01            NaN
         13   -1    0    0    0    0  0.00000000000E+00  0.00000000000E+00  0.74505805969E-08  0.10566000000E+00  0.10566000000E+00 0.  1.
     999900   -1    0    0    0    0 -0.00000000000E+00 -0.00000000000E+00 -0.74505805969E-08  0.93827000000E+00  0.93827000000E+00 0.  1.
     999902    2    1    2    0    0  0.12827249560E-01 -0.16060222651E-01 -0.10736030818E-01  0.10207409629E+01  0.10204775264E+01 0.  0.
     999903    2    3    3    0    0  0.87911079566E-01 -0.51037085270E-01  0.81722292292E-01  0.13202869005E+00  0.20491460531E-01 0.  0.
         14    1    1    2    0    0 -0.12827249560E-01  0.16060222651E-01  0.10736030818E-01  0.23189037078E-01  0.00000000000E+00 0.  1.
     999901    1    3    3    0    0 -0.75083830006E-01  0.34976862619E-01 -0.92458323110E-01  0.88871227288E+00  0.88000000000E+00 0.  1.
        -11    1    4    4    0    0  0.18042024083E-01 -0.20447966250E-01  0.24698628384E-01  0.36795615524E-01  0.51100000000E-03 0.  1.
         11    1    4    4    0    0  0.69869055483E-01 -0.30589119021E-01  0.57023663908E-01  0.95233074523E-01  0.51100000000E-03 0. -1.
</event>
<event>
 8    1  0.1065239E+005  0.1043930E+01  0.7957747E-01            NaN
         13   -1    0    0    0    0  0.00000000000E+00  0.00000000000E+00  0.74505805969E-08  0.10566000000E+00  0.10566000000E+00 0.  1.
     999900   -1    0    0    0    0 -0.00000000000E+00 -0.00000000000E+00 -0.74505805969E-08  0.93827000000E+00  0.93827000000E+00 0. -1.
     999902    2    1    2    0    0 -0.18938556897E-01 -0.61734058627E-02 -0.12959020421E-01  0.10201662442E+01  0.10198894302E+01 0.  0.
     999903    2    3    3    0    0  0.39467069939E-01 -0.35182162487E-01 -0.11829814383E+00  0.13148798068E+00  0.22342875027E-01 0.  0.
         14    1    1    2    0    0  0.18938556897E-01  0.61734058627E-02  0.12959020421E-01  0.23763755755E-01  0.00000000000E+00 0.  1.
     999901    1    3    3    0    0 -0.58405626836E-01  0.29008756625E-01  0.10533912341E+00  0.88867826356E+00  0.88000000000E+00 0.  1.
        -11    1    4    4    0    0  0.38851429140E-01 -0.23403070803E-01 -0.88770120063E-01  0.99687173730E-01  0.51100000000E-03 0.  1.
         11    1    4    4    0    0  0.61564079883E-03 -0.11779091684E-01 -0.29528023764E-01  0.31800806954E-01  0.51100000000E-03 0. -1.
</event>
<event>
 8    1  0.1065239E+005  0.1043930E+01  0.7957747E-01            NaN
         13   -1    0    0    0    0  0.00000000000E+00  0.00000000000E+00  0.74505805969E-08  0.10566000000E+00  0.10566000000E+00 0.  1.
     999900   -1    0    0    0    0 -0.00000000000E+00 -0.00000000000E+00 -0.74505805969E-08  0.93827000000E+00  0.93827000000E+00 0.  1.
     999902    2    1    2    0    0  0.20613853914E-01 -0.10572494637E-01  0.48315146004E-02  0.10202645790E+01  0.10199900779E+01 0.  0.
     999903    2    3    3    0    0 -0.96057268356E-01 -0.83899415088E-01  0.88114948768E-02  0.12953183108E+00  0.20850471585E-01 0.  0.
         14    1    1    2    0    0 -0.20613853914E-01  0.10572494637E-01 -0.48315146004E-02  0.23665420964E-01  0.00000000000E+00 0.  1.
     999901    1    3    3    0    0  0.11667112227E+00  0.73326920451E-01 -0.39799802764E-02  0.89073274795E+00  0.88000000000E+00 0.  1.
        -11    1    4    4    0    0 -0.46505779706E-01 -0.47785551436E-01 -0.43279552592E-02  0.66822442261E-01  0.51100000000E-03 0. -1.
         11    1    4    4    0    0 -0.49551488651E-01 -0.36113863653E-01  0.13139450136E-01  0.62709388821E-01  0.51100000000E-03 0.  1.
</event>
<event>
 8    1  0.1065239E+005  0.1043930E+01  0.7957747E-01            NaN
         13   -1    0    0    0    0  0.00000000000E+00  0.00000000000E+00  0.74505805969E-08  0.10566000000E+00  0.10566000000E+00 0.  1.
     999900   -1    0    0    0    0 -0.00000000000E+00 -0.00000000000E+00 -0.74505805969E-08  0.93827000000E+00  0.93827000000E+00 0. -1.
     999902    2    1    2    0    0  0.18255713222E-01  0.10948470595E-01  0.56355871728E-02  0.10219095569E+01  0.10216722774E+01 0.  0.
     999903    2    3    3    0    0 -0.88350360577E-01 -0.64295991079E-01  0.67934392092E-01  0.13010928489E+00  0.19328313484E-01 0.  0.
         14    1    1    2    0    0 -0.18255713222E-01 -0.10948470595E-01 -0.56355871728E-02  0.22020443147E-01  0.00000000000E+00 0.  1.
     999901    1    3    3    0    0  0.10660607380E+00  0.75244461674E-01 -0.62298804919E-01  0.89180027197E+00  0.88000000000E+00 0. -1.
        -11    1    4    4    0    0 -0.35034182030E-01 -0.14283318842E-01  0.24469659422E-01  0.45060320248E-01  0.51100000000E-03 0.  1.
         11    1    4    4    0    0 -0.53316178546E-01 -0.50012672236E-01  0.43464732670E-01  0.85048964639E-01  0.51100000000E-03 0. -1.
</event>
<event>
 8    1  0.1065239E+005  0.1043930E+01  0.7957747E-01            NaN
         13   -1    0    0    0    0  0.00000000000E+00  0.00000000000E+00  0.74505805969E-08  0.10566000000E+00  0.10566000000E+00 0.  1.
     999900   -1    0    0    0    0 -0.00000000000E+00 -0.00000000000E+00 -0.74505805969E-08  0.93827000000E+00  0.93827000000E+00 0.  1.
     999902    2    1    2    0    0  0.90817901692E-02 -0.14454201235E-01  0.16386793467E-01  0.10202671632E+01  0.10199927227E+01 0.  0.
     999903    2    3    3    0    0  0.57394398565E-01  0.53320815292E-01 -0.99594671544E-01  0.12876323093E+00  0.22883284514E-01 0.  0.
         14    1    1    2    0    0 -0.90817901692E-02  0.14454201235E-01 -0.16386793467E-01  0.23662836816E-01  0.00000000000E+00 0. -1.
     999901    1    3    3    0    0 -0.48312608396E-01 -0.67775016527E-01  0.11598146501E+00  0.89150393225E+00  0.88000000000E+00 0. -1.
        -11    1    4    4    0    0  0.36779465150E-01  0.43904905825E-01 -0.82209926114E-01  0.10019532367E+00  0.51100000000E-03 0. -1.
         11    1    4    4    0    0  0.20614933415E-01  0.94159094663E-02 -0.17384745430E-01  0.28567907264E-01  0.51100000000E-03 0.  1.
</event>
<event>
 8    1  0.1065239E+005  0.1043930E+01  0.7957747E-01            NaN
         13   -1    0    0    0    0  0.00000000000E+00  0.00000000000E+00  0.74505805969E-08  0.10566000000E+00  0.10566000000E+00 0. -1.
     999900   -1    0    0    0    0 -0.00000000000E+00 -0.00000000000E+00 -0.74505805969E-08  0.93827000000E+00  0.93827000000E+00 0. -1.
     999902    2    1    2    0    0  0.98752058546E-02 -0.21762863404E-01 -0.22408713666E-02  0.10199265957E+01  0.10196441032E+01 0.  0.
     999903    2    3    3    0    0  0.40143151186E-01  0.85153981889E-01  0.85244085140E-01  0.12863484887E+00  0.20437638667E-01 0.  0.
         14    1    1    2    0    0 -0.98752058546E-02  0.21762863404E-01  0.22408713666E-02  0.24003404315E-01  0.00000000000E+00 0.  1.
     999901    1    3    3    0    0 -0.30267945332E-01 -0.10691684529E+00 -0.87484956507E-01  0.89129174681E+00  0.88000000000E+00 0. -1.
        -11    1    4    4    0    0  0.89115538577E-02  0.37126722299E-01  0.25845658767E-01  0.46109310328E-01  0.51100000000E-03 0.  1.
         11    1    4    4    0    0  0.31231597329E-01  0.48027259590E-01  0.59398426373E-01  0.82525538544E-01  0.51100000000E-03 0. -1.
</event>
<event>
 8    1  0.1065239E+005  0.1043930E+01  0.7957747E-01            NaN
         13   -1    0    0    0    0  0.00000000000E+00  0.00000000000E+00  0.74505805969E-08  0.10566000000E+00  0.10566000000E+00 0. -1.
     999900   -1    0    0    0    0 -0.00000000000E+00 -0.00000000000E+00 -0.74505805969E-08  0.93827000000E+00  0.93827000000E+00 0.  1.
     999902    2    1    2    0    0  0.31150551395E-02  0.21145392052E-01 -0.11461449392E-01  0.10196772477E+01  0.10193887842E+01 0.  0.
     999903    2    3    3    0    0 -0.42704176968E-01  0.12031717404E+00 -0.30073290622E-01  0.13272694184E+00  0.20301950223E-01 0.  0.
         14    1    1    2    0    0 -0.31150551395E-02 -0.21145392052E-01  0.11461449392E-01  0.24252752333E-01  0.00000000000E+00 0.  1.
     999901    1    3    3    0    0  0.45819232108E-01 -0.99171781984E-01  0.18611841231E-01  0.88695030583E+00  0.88000000000E+00 0. -1.
        -11    1    4    4    0    0 -0.16217897330E-01  0.59244756671E-01 -0.51430483304E-02  0.61641491334E-01  0.51100000000E-03 0.  1.
         11    1    4    4    0    0 -0.26486279638E-01  0.61072417365E-01 -0.24930242292E-01  0.71085450506E-01  0.51100000000E-03 0. -1.
</event>
<event>
 8    1  0.1065239E+005  0.1043930E+01  0.7957747E-01            NaN
         13   -1    0    0    0    0  0.00000000000E+00  0.00000000000E+00  0.74505805969E-08  0.10566000000E+00  0.10566000000E+00 0.  1.
     999900   -1    0    0    0    0 -0.00000000000E+00 -0.00000000000E+00 -0.74505805969E-08  0.93827000000E+00  0.93827000000E+00 0. -1.
     999902    2    1    2    0    0  0.49835211986E-03  0.10543311316E-01 -0.22589943800E-01  0.10189957800E+01  0.10186906715E+01 0.  0.
     999903    2    3    3    0    0 -0.59681101400E-01 -0.10390321460E+00 -0.44228905845E-01  0.12928356885E+00  0.20008328074E-01 0.  0.
         14    1    1    2    0    0 -0.49835211986E-03 -0.10543311316E-01  0.22589943800E-01  0.24934220044E-01  0.00000000000E+00 0.  1.
     999901    1    3    3    0    0  0.60179453520E-01  0.11444652592E+00  0.21638962046E-01  0.88971221111E+00  0.88000000000E+00 0. -1.
        -11    1    4    4    0    0 -0.27278313214E-01 -0.46895348379E-01 -0.95001230853E-02  0.55079883179E-01  0.51100000000E-03 0.  1.
         11    1    4    4    0    0 -0.32402788186E-01 -0.57007866222E-01 -0.34728782760E-01  0.74203685666E-01  0.51100000000E-03 0. -1.
</event>
<event>
 8    1  0.1065239E+005  0.1043930E+01  0.7957747E-01            NaN
         13   -1    0    0    0    0  0.00000000000E+00  0.00000000000E+00  0.74505805969E-08  0.10566000000E+00  0.10566000000E+00 0. -1.
     999900   -1    0    0    0    0 -0.00000000000E+00 -0.00000000000E+00 -0.74505805969E-08  0.93827000000E+00  0.93827000000E+00 0. -1.
     999902    2    1    2    0    0  0.17178528311E-01  0.37127173149E-02 -0.13573873066E-01  0.10217233313E+01  0.10214819771E+01 0.  0.
     999903    2    3    3    0    0 -0.92773692830E-01  0.81999182170E-01 -0.38183366504E-01  0.13109215697E+00  0.19908796659E-01 0.  0.
         14    1    1    2    0    0 -0.17178528311E-01 -0.37127173149E-02  0.13573873066E-01  0.22206668702E-01  0.00000000000E+00 0. -1.
     999901    1    3    3    0    0  0.10995222114E+00 -0.78286464855E-01  0.24609493437E-01  0.89063117433E+00  0.88000000000E+00 0. -1.
        -11    1    4    4    0    0 -0.46268128048E-01  0.36173856364E-01 -0.84077291018E-02  0.59331598554E-01  0.51100000000E-03 0. -1.
         11    1    4    4    0    0 -0.46505564782E-01  0.45825325806E-01 -0.29775637402E-01  0.71760558419E-01  0.51100000000E-03 0.  1.
</event>
<event>
 8    1  0.1065239E+005  0.1043930E+01  0.7957747E-01            NaN
         13   -1    0    0    0    0  0.00000000000E+00  0.00000000000E+00  0.74505805969E-08  0.10566000000E+00  0.10566000000E+00 0.  1.
     999900   -1    0    0    0    0 -0.00000000000E+00 -0.00000000000E+00 -0.74505805969E-08  0.93827000000E+00  0.93827000000E+00 0.  1.
     999902    2    1    2    0    0 -0.55274607593E-02  0.22729397339E-01 -0.10934436642E-01  0.10181086865E+01  0.10177811932E+01 0.  0.
     999903    2    3    3    0    0 -0.54418679019E-01 -0.17846442484E-01 -0.11481125986E+00  0.12972411640E+00  0.19152880974E-01 0.  0.
         14    1    1    2    0    0  0.55274607593E-02 -0.22729397339E-01  0.10934436642E-01  0.25821313493E-01  0.00000000000E+00 0.  1.
     999901    1    3    3    0    0  0.48891218259E-01  0.40575839823E-01  0.10387682322E+00  0.88838457011E+00  0.88000000000E+00 0. -1.
        -11    1    4    4    0    0 -0.37248115937E-01 -0.13825247718E-01 -0.96183386396E-01  0.10406759608E+00  0.51100000000E-03 0.  1.
         11    1    4    4    0    0 -0.17170563081E-01 -0.40211947660E-02 -0.18627873465E-01  0.25656520316E-01  0.51100000000E-03 0. -1.
</event>
<event>
 8    1  0.1065239E+005  0.1043930E+01  0.7957747E-01            NaN
         13   -1    0    0    0    0  0.00000000000E+00  0.00000000000E+00  0.74505805969E-08  0.10566000000E+00  0.10566000000E+00 0.  1.
     999900   -1    0    0    0    0 -0.00000000000E+00 -0.00000000000E+00 -0.74505805969E-08  0.93827000000E+00  0.93827000000E+00 0.  1.
     999902    2    1    2    0    0 -0.10356996233E-01 -0.13642967078E-01 -0.47124652202E-02  0.10261647178E+01  0.10260109273E+01 0.  0.
     999903    2    3    3    0    0  0.29556458757E-01 -0.98521829389E-01 -0.88581466752E-01  0.13721504853E+00  0.20028933332E-01 0.  0.
         14    1    1    2    0    0  0.10356996233E-01  0.13642967078E-01  0.47124652202E-02  0.17765282157E-01  0.00000000000E+00 0.  1.
     999901    1    3    3    0    0 -0.39913454991E-01  0.84878862311E-01  0.83869001532E-01  0.88894966931E+00  0.88000000000E+00 0. -1.
        -11    1    4    4    0    0  0.27307357413E-01 -0.64193180797E-01 -0.52108813535E-01  0.87074943576E-01  0.51100000000E-03 0. -1.
         11    1    4    4    0    0  0.22491013441E-02 -0.34328648592E-01 -0.36472653217E-01  0.50140104953E-01  0.51100000000E-03 0.  1.
</event>
<event>
 8    1  0.1065239E+005  0.1043930E+01  0.7957747E-01            NaN
         13   -1    0    0    0    0  0.00000000000E+00  0.00000000000E+00  0.74505805969E-08  0.10566000000E+00  0.10566000000E+00 0. -1.
     999900   -1    0    0    0    0 -0.00000000000E+00 -0.00000000000E+00 -0.74505805969E-08  0.93827000000E+00  0.93827000000E+00 0.  1.
     999902    2    1    2    0    0  0.12424847048E-01 -0.12860545125E-02 -0.17999347872E-01  0.10220209315E+01  0.10217860721E+01 0.  0.
     999903    2    3    3    0    0 -0.10096950590E+00  0.80332738388E-01 -0.97159758184E-02  0.13096059631E+00  0.20201178686E-01 0.  0.
         14    1    1    2    0    0 -0.12424847048E-01  0.12860545125E-02  0.17999347872E-01  0.21909068538E-01  0.00000000000E+00 0. -1.
     999901    1    3    3    0    0  0.11339435295E+00 -0.81618792900E-01 -0.82833720535E-02  0.89106033516E+00  0.88000000000E+00 0. -1.
        -11    1    4    4    0    0 -0.66455545609E-01  0.49969988749E-01 -0.15649114875E-01  0.84607891093E-01  0.51100000000E-03 0. -1.
         11    1    4    4    0    0 -0.34513960291E-01  0.30362749639E-01  0.59331390562E-02  0.46352705214E-01  0.51100000000E-03 0.  1.
</event>
<event>
 8    1  0.1065239E+005  0.1043930E+01  0.7957747E-01            NaN
         13   -1    0    0    0    0  0.00000000000E+00  0.00000000000E+00  0.74505805969E-08  0.10566000000E+00  0.10566000000E+00 0.  1.
     999900   -1    0    0    0    0 -0.00000000000E+00 -0.00000000000E+00 -0.74505805969E-08  0.93827000000E+00  0.93827000000E+00 0.  1.
     999902    2    1    2    0    0 -0.15642310917E-01  0.10354639848E-01 -0.14452867437E-01  0.10202490829E+01  0.10199742180E+01 0.  0.
     999903    2    3    3    0    0  0.41165784996E-01  0.79905051382E-01  0.91068527261E-01  0.12940724271E+00  0.19321457444E-01 0.  0.
         14    1    1    2    0    0  0.15642310917E-01 -0.10354639848E-01  0.14452867437E-01  0.23680917093E-01  0.00000000000E+00 0.  1.
     999901    1    3    3    0    0 -0.56808095913E-01 -0.69550411534E-01 -0.10552139470E+00  0.89084184020E+00  0.88000000000E+00 0.  1.
        -11    1    4    4    0    0  0.34218915795E-01  0.71512180791E-01  0.70344732717E-01  0.10598853118E+00  0.51100000000E-03 0. -1.
         11    1    4    4    0    0  0.69468692009E-02  0.83928705908E-02  0.20723794543E-01  0.23418711530E-01  0.51100000000E-03 0.  1.
</event>
<event>
 8    1  0.1065239E+005  0.1043930E+01  0.7957747E-01            NaN
         13   -1    0    0    0    0  0.00000000000E+00  0.00000000000E+00  0.74505805969E-08  0.10566000000E+00  0.10566000000E+00 0. -1.
     999900   -1    0    0    0    0 -0.00000000000E+00 -0.00000000000E+00 -0.74505805969E-08  0.93827000000E+00  0.93827000000E+00 0.  1.
     999902    2    1    2    0    0  0.92339301589E-03  0.91368537034E-02  0.21435126873E-01  0.10206104928E+01  0.10203440492E+01 0.  0.
     999903    2    3    3    0    0  0.66467997228E-01  0.19556538837E-01  0.11231945040E+00  0.13344386517E+00  0.19777597106E-01 0.  0.
         14    1    1    2    0    0 -0.92339301589E-03 -0.91368537034E-02 -0.21435126873E-01  0.23319507163E-01  0.00000000000E+00 0.  1.
     999901    1    3    3    0    0 -0.65544604212E-01 -0.10419685133E-01 -0.90884323527E-01  0.88716662767E+00  0.88000000000E+00 0.  1.
        -11    1    4    4    0    0  0.33884678702E-01  0.33011048241E-03  0.46764570363E-01  0.57753498473E-01  0.51100000000E-03 0.  1.
         11    1    4    4    0    0  0.32583318526E-01  0.19226428354E-01  0.65554880037E-01  0.75690366699E-01  0.51100000000E-03 0. -1.
</event>
<event>
 8    1  0.1065239E+005  0.1043930E+01  0.7957747E-01            NaN
         13   -1    0    0    0    0  0.00000000000E+00  0.00000000000E+00  0.74505805969E-08  0.10566000000E+00  0.10566000000E+00 0.  1.
     999900   -1    0    0    0    0 -0.00000000000E+00 -0.00000000000E+00 -0.74505805969E-08  0.93827000000E+00  0.93827000000E+00 0. -1.
     999902    2    1    2    0    0  0.16826246279E-02 -0.22852500590E-01  0.95829751563E-02  0.10190924997E+01  0.10187897828E+01 0.  0.
     999903    2    3    3    0    0 -0.38865096911E-01 -0.98020742158E-01 -0.74811040363E-01  0.13093894758E+00  0.20730522982E-01 0.  0.
         14    1    1    2    0    0 -0.16826246279E-02  0.22852500590E-01 -0.95829751563E-02  0.24837500311E-01  0.00000000000E+00 0. -1.
     999901    1    3    3    0    0  0.40547721539E-01  0.75168241568E-01  0.84394015519E-01  0.88815355211E+00  0.88000000000E+00 0.  1.
        -11    1    4    4    0    0 -0.34752034261E-01 -0.88329174926E-01 -0.58441637247E-01  0.11146942681E+00  0.51100000000E-03 0.  1.
         11    1    4    4    0    0 -0.41130626498E-02 -0.96915672316E-02 -0.16369403115E-01  0.19469520773E-01  0.51100000000E-03 0. -1.
</event>
<event>
 8    1  0.1065239E+005  0.1043930E+01  0.7957747E-01            NaN
         13   -1    0    0    0    0  0.00000000000E+00  0.00000000000E+00  0.74505805969E-08  0.10566000000E+00  0.10566000000E+00 0.  1.
     999900   -1    0    0    0    0 -0.00000000000E+00 -0.00000000000E+00 -0.74505805969E-08  0.93827000000E+00  0.93827000000E+00 0.  1.
     999902    2    1    2    0    0 -0.36406238353E-02  0.22455718998E-01  0.63466964305E-02  0.10203123368E+01  0.10200389555E+01 0.  0.
     999903    2    3    3    0    0  0.11012788986E+00 -0.62794031939E-01  0.12575853156E-01  0.12888112966E+00  0.19517964199E-01 0.  0.
         14    1    1    2    0    0  0.36406238353E-02 -0.22455718998E-01 -0.63466964305E-02  0.23617663162E-01  0.00000000000E+00 0. -1.
     999901    1    3    3    0    0 -0.11376851370E+00  0.85249750937E-01 -0.62291567251E-02  0.89143120718E+00  0.88000000000E+00 0. -1.
        -11    1    4    4    0    0  0.20933023059E-01 -0.16971610053E-01  0.94244675289E-02  0.28553611179E-01  0.51100000000E-03 0. -1.
         11    1    4    4    0    0  0.89194866803E-01 -0.45822421886E-01  0.31513856267E-02  0.10032751848E+00  0.51100000000E-03 0.  1.
</event>
<event>
 8    1  0.1065239E+005  0.1043930E+01  0.7957747E-01            NaN
         13   -1    0    0    0    0  0.00000000000E+00  0.00000000000E+00  0.74505805969E-08  0.10566000000E+00  0.10566000000E+00 0. -1.
     999900   -1    0    0    0    0 -0.00000000000E+00 -0.00000000000E+00 -0.74505805969E-08  0.93827000000E+00  0.93827000000E+00 0. -1.
     999902    2    1    2    0    0 -0.21063506454E-01 -0.61768636615E-02 -0.74539811652E-02  0.10207483956E+01  0.10204851299E+01 0.  0.
     999903    2    3    3    0    0 -0.20428445869E-02 -0.10319262409E+00  0.78805566828E-01  0.13102116042E+00  0.17416550560E-01 0.  0.
         14    1    1    2    0    0  0.21063506454E-01  0.61768636615E-02  0.74539811652E-02  0.23181604432E-01  0.00000000000E+00 0.  1.
     999901    1    3    3    0    0 -0.19020661867E-01  0.97015760429E-01 -0.86259547993E-01  0.88972723515E+00  0.88000000000E+00 0. -1.
        -11    1    4    4    0    0  0.44455639869E-02 -0.86685128522E-01  0.67793191450E-01  0.11013742540E+00  0.51100000000E-03 0. -1.
         11    1    4    4    0    0 -0.64884085738E-02 -0.16507495568E-01  0.11012375377E-01  0.20883735016E-01  0.51100000000E-03 0.  1.
</event>
<event>
 8    1  0.1065239E+005  0.1043930E+01  0.7957747E-01            NaN
         13   -1    0    0    0    0  0.00000000000E+00  0.00000000000E+00  0.74505805969E-08  0.10566000000E+00  0.10566000000E+00 0. -1.
     999900   -1    0    0    0    0 -0.00000000000E+00 -0.00000000000E+00 -0.74505805969E-08  0.93827000000E+00  0.93827000000E+00 0.  1.
     999902    2    1    2    0    0  0.24551548484E-02  0.72760489799E-02  0.22853521767E-01  0.10198208289E+01  0.10195358115E+01 0.  0.
     999903    2    3    3    0    0 -0.12351664725E+00 -0.14210536657E-01  0.34227071632E-01  0.13051777261E+00  0.20126972788E-01 0.  0.
         14    1    1    2    0    0 -0.24551548484E-02 -0.72760489799E-02 -0.22853521767E-01  0.24109171103E-01  0.00000000000E+00 0.  1.
     999901    1    3    3    0    0  0.12597180210E+00  0.21486585637E-01 -0.11373549865E-01  0.88930305629E+00  0.88000000000E+00 0.  1.
        -11    1    4    4    0    0 -0.26654259214E-01 -0.11436870753E-01  0.92358159971E-02  0.30443603023E-01  0.51100000000E-03 0.  1.
         11    1    4    4    0    0 -0.96862388039E-01 -0.27736659035E-02  0.24991255635E-01  0.10007416959E+00  0.51100000000E-03 0. -1.
</event>
<event>
 8    1  0.1065239E+005  0.1043930E+01  0.7957747E-01            NaN
         13   -1    0    0    0    0  0.00000000000E+00  0.00000000000E+00  0.74505805969E-08  0.10566000000E+00  0.10566000000E+00 0.  1.
     999900   -1    0    0    0    0 -0.00000000000E+00 -0.00000000000E+00 -0.74505805969E-08  0.93827000000E+00  0.93827000000E+00 0.  1.
     999902    2    1    2    0    0  0.14959388243E-01 -0.13337989680E-01 -0.12776791018E-01  0.10201617091E+01  0.10198847881E+01 0.  0.
     999903    2    3    3    0    0  0.68611392941E-01  0.10101013575E+00  0.38494752303E-01  0.12966589068E+00  0.20514055840E-01 0.  0.
         14    1    1    2    0    0 -0.14959388243E-01  0.13337989680E-01  0.12776791018E-01  0.23768290936E-01  0.00000000000E+00 0.  1.
     999901    1    3    3    0    0 -0.53652004698E-01 -0.11434812543E+00 -0.51271543321E-01  0.89049581838E+00  0.88000000000E+00 0.  1.
        -11    1    4    4    0    0  0.42468878666E-01  0.76494069584E-01  0.32443546336E-01  0.93315556884E-01  0.51100000000E-03 0. -1.
         11    1    4    4    0    0  0.26142514275E-01  0.24516066164E-01  0.60512059672E-02  0.36350333801E-01  0.51100000000E-03 0.  1.
</event>
<event>
 8    1  0.1065239E+005  0.1043930E+01  0.7957747E-01            NaN
         13   -1    0    0    0    0  0.00000000000E+00  0.00000000000E+00  0.74505805969E-08  0.10566000000E+00  0.10566000000E+00 0. -1.
     999900   -1    0    0    0    0 -0.00000000000E+00 -0.00000000000E+00 -0.74505805969E-08  0.93827000000E+00  0.93827000000E+00 0.  1.
     999902    2    1    2    0    0 -0.23647053880E-02  0.17690500884E-01 -0.14978456253E-01  0.10206297896E+01  0.10203637918E+01 0.  0.
     999903    2    3    3    0    0  0.66802310240E-01  0.64992500308E-01  0.89157909432E-01  0.13053657096E+00  0.20101984843E-01 0.  0.
         14    1    1    2    0    0  0.23647053880E-02 -0.17690500884E-01  0.14978456253E-01  0.23300210403E-01  0.00000000000E+00 0. -1.
     999901    1    3    3    0    0 -0.69167015628E-01 -0.47301999424E-01 -0.10413636569E+00  0.89009321863E+00  0.88000000000E+00 0.  1.
        -11    1    4    4    0    0  0.35209030111E-01  0.35629799174E-01  0.34121148518E-01  0.60610826489E-01  0.51100000000E-03 0.  1.
         11    1    4    4    0    0  0.31593280129E-01  0.29362701134E-01  0.55036760914E-01  0.69925744473E-01  0.51100000000E-03 0. -1.
</event>
<event>
 8    1  0.1065239E+005  0.1043930E+01  0.7957747E-01            NaN
         13   -1    0    0    0    0  0.00000000000E+00  0.00000000000E+00  0.74505805969E-08  0.10566000000E+00  0.10566000000E+00 0. -1.
     999900   -1    0    0    0    0 -0.00000000000E+00 -0.00000000000E+00 -0.74505805969E-08  0.93827000000E+00  0.93827000000E+00 0.  1.
     999902    2    1    2    0    0 -0.11080808412E-01 -0.17647177619E-01 -0.11134932496E-01  0.10203038722E+01  0.10200302925E+01 0.  0.
     999903    2    3    3    0    0  0.12530290885E+00  0.15399315359E-01  0.15875906977E-01  0.12877587237E+00  0.19829851349E-01 0.  0.
         14    1    1    2    0    0  0.11080808412E-01  0.17647177619E-01  0.11134932496E-01  0.23626127797E-01  0.00000000000E+00 0. -1.
     999901    1    3    3    0    0 -0.13638371726E+00 -0.33046492978E-01 -0.27010839474E-01  0.89152799983E+00  0.88000000000E+00 0.  1.
        -11    1    4    4    0    0  0.40914201498E-01  0.13962892209E-01  0.84029212374E-02  0.44043211161E-01  0.51100000000E-03 0.  1.
         11    1    4    4    0    0  0.84388707347E-01  0.14364231498E-02  0.74729857400E-02  0.84732661212E-01  0.51100000000E-03 0. -1.
</event>
<event>
 8    1  0.1065239E+005  0.1043930E+01  0.7957747E-01            NaN
         13   -1    0    0    0    0  0.00000000000E+00  0.00000000000E+00  0.74505805969E-08  0.10566000000E+00  0.10566000000E+00 0.  1.
     999900   -1    0    0    0    0 -0.00000000000E+00 -0.00000000000E+00 -0.74505805969E-08  0.93827000000E+00  0.93827000000E+00 0. -1.
     999902    2    1    2    0    0 -0.21127118110E-01  0.10002602958E-01  0.23291212364E-02  0.10204388955E+01  0.10201684701E+01 0.  0.
     999903    2    3    3    0    0  0.79028893934E-01 -0.78290006620E-01  0.61864117555E-01  0.12837879244E+00  0.16704912312E-01 0.  0.
         14    1    1    2    0    0  0.21127118110E-01 -0.10002602958E-01 -0.23291212364E-02  0.23491104514E-01  0.00000000000E+00 0. -1.
     999901    1    3    3    0    0 -0.10015601204E+00  0.88292609578E-01 -0.59534996318E-01  0.89206010304E+00  0.88000000000E+00 0. -1.
        -11    1    4    4    0    0  0.51273253303E-01 -0.58410673732E-01  0.36636703911E-01  0.85925912882E-01  0.51100000000E-03 0.  1.
         11    1    4    4    0    0  0.27755640631E-01 -0.19879332888E-01  0.25227413643E-01  0.42452879561E-01  0.51100000000E-03 0. -1.
</event>
<event>
 8    1  0.1065239E+005  0.1043930E+01  0.7957747E-01            NaN
         13   -1    0    0    0    0  0.00000000000E+00  0.00000000000E+00  0.74505805969E-08  0.10566000000E+00  0.10566000000E+00 0. -1.
     999900   -1    0    0    0    0 -0.00000000000E+00 -0.00000000000E+00 -0.74505805969E-08  0.93827000000E+00  0.93827000000E+00 0.  1.
     999902    2    1    2    0    0  0.18827933713E-01 -0.60624364924E-02 -0.15721565657E-01  0.10186631868E+01  0.10183497809E+01 0.  0.
     999903    2    3    3    0    0 -0.33564111054E-01  0.77972381430E-01 -0.95921433785E-01  0.12948446692E+00  0.18948981465E-01 0.  0.
         14    1    1    2    0    0 -0.18827933713E-01  0.60624364924E-02  0.15721565657E-01  0.25266813231E-01  0.00000000000E+00 0. -1.
     999901    1    3    3    0    0  0.52392044767E-01 -0.84034817922E-01  0.80199868128E-01  0.88917871985E+00  0.88000000000E+00 0. -1.
        -11    1    4    4    0    0  0.22988855719E-02  0.79793987154E-02 -0.98081117715E-02  0.12861409575E-01  0.51100000000E-03 0. -1.
         11    1    4    4    0    0 -0.35862996626E-01  0.69992982714E-01 -0.86113322013E-01  0.11662305735E+00  0.51100000000E-03 0.  1.
</event>
<event>
 8    1  0.1065239E+005  0.1043930E+01  0.7957747E-01            NaN
         13   -1    0    0    0    0  0.00000000000E+00  0.00000000000E+00  0.74505805969E-08  0.10566000000E+00  0.10566000000E+00 0.  1.
     999900   -1    0    0    0    0 -0.00000000000E+00 -0.00000000000E+00 -0.74505805969E-08  0.93827000000E+00  0.93827000000E+00 0. -1.
     999902    2    1    2    0    0  0.22518121786E-01 -0.37372324866E-02  0.99756597560E-02  0.10190192292E+01  0.10187147014E+01 0.  0.
     999903    2    3    3    0    0  0.36351385990E-01  0.12259309988E+00  0.53050772158E-02  0.12987777451E+00  0.22126930766E-01 0.  0.
         14    1    1    2    0    0 -0.22518121786E-01  0.37372324866E-02 -0.99756597560E-02  0.24910770823E-01  0.00000000000E+00 0.  1.
     999901    1    3    3    0    0 -0.13833264204E-01 -0.12633033236E+00  0.46705825401E-02  0.88914145467E+00  0.88000000000E+00 0. -1.
        -11    1    4    4    0    0  0.21249634944E-01  0.36203533801E-01  0.39322500343E-02  0.42165940714E-01  0.51100000000E-03 0.  1.
         11    1    4    4    0    0  0.15101751046E-01  0.86389566077E-01  0.13728271815E-02  0.87711833792E-01  0.51100000000E-03 0. -1.
</event>
<event>
 8    1  0.1065239E+005  0.1043930E+01  0.7957747E-01            NaN
         13   -1    0    0    0    0  0.00000000000E+00  0.00000000000E+00  0.74505805969E-08  0.10566000000E+00  0.10566000000E+00 0.  1.
     999900   -1    0    0    0    0 -0.00000000000E+00 -0.00000000000E+00 -0.74505805969E-08  0.93827000000E+00  0.93827000000E+00 0.  1.
     999902    2    1    2    0    0 -0.88790343656E-03 -0.22699156372E-01 -0.88762046222E-02  0.10195409229E+01  0.10192491680E+01 0.  0.
     999903    2    3    3    0    0 -0.11384535386E+00 -0.41140648152E-01 -0.46674349012E-01  0.13132463510E+00  0.20355525125E-01 0.  0.
         14    1    1    2    0    0  0.88790343656E-03  0.22699156372E-01  0.88762046222E-02  0.24389077084E-01  0.00000000000E+00 0.  1.
     999901    1    3    3    0    0  0.11295745042E+00  0.18441491780E-01  0.37798144390E-01  0.88821628782E+00  0.88000000000E+00 0. -1.
        -11    1    4    4    0    0 -0.76945791294E-01 -0.30999791227E-01 -0.22126457955E-01  0.85857341658E-01  0.51100000000E-03 0. -1.
         11    1    4    4    0    0 -0.36899562562E-01 -0.10140856925E-01 -0.24547891057E-01  0.45467293441E-01  0.51100000000E-03 0.  1.
</event>
<event>
 8    1  0.1065239E+005  0.1043930E+01  0.7957747E-01            NaN
         13   -1    0    0    0    0  0.00000000000E+00  0.00000000000E+00  0.74505805969E-08  0.10566000000E+00  0.10566000000E+00 0.  1.
     999900   -1    0    0    0    0 -0.00000000000E+00 -0.00000000000E+00 -0.74505805969E-08  0.93827000000E+00  0.93827000000E+00 0. -1.
     999902    2    1    2    0    0 -0.99371696971E-02  0.20752236249E-01 -0.57724633531E-02  0.10202081960E+01  0.10199323699E+01 0.  0.
     999903    2    3    3    0    0 -0.10894064291E+00 -0.30803211568E-01  0.62149019868E-01  0.13056052430E+00  0.19148062936E-01 0.  0.
         14    1    1    2    0    0  0.99371696971E-02 -0.20752236249E-01  0.57724633531E-02  0.23721803981E-01  0.00000000000E+00 0.  1.
     999901    1    3    3    0    0  0.99003473216E-01  0.51555447818E-01 -0.67921483221E-01  0.88964767172E+00  0.88000000000E+00 0. -1.
        -11    1    4    4    0    0 -0.46138823742E-01 -0.47064746158E-02  0.19709006610E-01  0.50394920598E-01  0.51100000000E-03 0.  1.
         11    1    4    4    0    0 -0.62801819172E-01 -0.26096736952E-01  0.42440013258E-01  0.80165603704E-01  0.51100000000E-03 0. -1.
</event>
<event>
 8    1  0.1065239E+005  0.1043930E+01  0.7957747E-01            NaN
         13   -1    0    0    0    0  0.00000000000E+00  0.00000000000E+00  0.74505805969E-08  0.10566000000E+00  0.10566000000E+00 0. -1.
     999900   -1    0    0    0    0 -0.00000000000E+00 -0.00000000000E+00 -0.74505805969E-08  0.93827000000E+00  0.93827000000E+00 0.  1.
     999902    2    1    2    0    0 -0.94342768103E-02 -0.16108791119E-02 -0.21825515968E-01  0.10200982217E+01  0.10198198018E+01 0.  0.
     999903    2    3    3    0    0 -0.11531184269E+00 -0.13158891307E-01  0.55309352080E-01  0.13032678844E+00  0.21353451060E-01 0.  0.
         14    1    1    2    0    0  0.94342768103E-02  0.16108791119E-02  0.21825515968E-01  0.23831778317E-01  0.00000000000E+00 0. -1.
     999901    1    3    3    0    0  0.10587756588E+00  0.11548012195E-01 -0.77134868049E-01  0.88977143324E+00  0.88000000000E+00 0.  1.
        -11    1    4    4    0    0 -0.35572256279E-01 -0.11433618426E-01  0.25208563591E-01  0.45076000781E-01  0.51100000000E-03 0.  1.
         11    1    4    4    0    0 -0.79739586415E-01 -0.17252728816E-02  0.30100788489E-01  0.85250787661E-01  0.51100000000E-03 0. -1.
</event>
<event>
 8    1  0.1065239E+005  0.1043930E+01  0.7957747E-01            NaN
         13   -1    0    0    0    0  0.00000000000E+00  0.00000000000E+00  0.74505805969E-08  0.10566000000E+00  0.10566000000E+00 0.  1.
     999900   -1    0    0    0    0 -0.00000000000E+00 -0.00000000000E+00 -0.74505805969E-08  0.93827000000E+00  0.93827000000E+00 0. -1.
     999902    2    1    2    0    0  0.86023149208E-02 -0.92905554097E-02 -0.19382183504E-01  0.10207786873E+01  0.10205161171E+01 0.  0.
     999903    2    3    3    0    0  0.24218318343E-01 -0.98837214689E-01 -0.84504553396E-01  0.13370293699E+00  0.19497021920E-01 0.  0.
         14    1    1    2    0    0 -0.86023149208E-02  0.92905554097E-02  0.19382183504E-01  0.23151312689E-01  0.00000000000E+00 0. -1.
     999901    1    3    3    0    0 -0.15616003423E-01  0.89546659280E-01  0.65122369892E-01  0.88707575032E+00  0.88000000000E+00 0.  1.
        -11    1    4    4    0    0  0.23897557283E-01 -0.70780129851E-01 -0.53527801303E-01  0.91904334278E-01  0.51100000000E-03 0.  1.
         11    1    4    4    0    0  0.32076106024E-03 -0.28057084838E-01 -0.30976752093E-01  0.41798602710E-01  0.51100000000E-03 0. -1.
</event>
<event>
 8    1  0.1065239E+005  0.1043930E+01  0.7957747E-01            NaN
         13   -1    0    0    0    0  0.00000000000E+00  0.00000000000E+00  0.74505805969E-08  0.10566000000E+00  0.10566000000E+00 0.  1.
     999900   -1    0    0    0    0 -0.00000000000E+00 -0.00000000000E+00 -0.74505805969E-08  0.93827000000E+00  0.93827000000E+00 0.  1.
     999902    2    1    2    0    0 -0.19497993858E-01  0.14202522793E-01  0.80676211821E-02  0.10184943964E+01  0.10181767359E+01 0.  0.
     999903    2    3    3    0    0 -0.11560611631E+00 -0.56376038867E-01  0.89007845161E-02  0.13045228101E+00  0.19888231970E-01 0.  0.
         14    1    1    2    0    0  0.19497993858E-01 -0.14202522793E-01 -0.80676211821E-02  0.25435603585E-01  0.00000000000E+00 0.  1.
     999901    1    3    3    0    0  0.96108122448E-01  0.70578561660E-01 -0.83316333401E-03  0.88804211540E+00  0.88000000000E+00 0. -1.
        -11    1    4    4    0    0 -0.47413975566E-01 -0.33669067965E-01  0.12134438086E-02  0.58167213992E-01  0.51100000000E-03 0. -1.
         11    1    4    4    0    0 -0.68192140740E-01 -0.22706970902E-01  0.76873407075E-02  0.72285067022E-01  0.51100000000E-03 0.  1.
</event>
<event>
 8    1  0.1065239E+005  0.1043930E+01  0.7957747E-01            NaN
         13   -1    0    0    0    0  0.00000000000E+00  0.00000000000E+00  0.74505805969E-08  0.10566000000E+00  0.10566000000E+00 0.  1.
     999900   -1    0    0    0    0 -0.00000000000E+00 -0.00000000000E+00 -0.74505805969E-08  0.93827000000E+00  0.93827000000E+00 0. -1.
     999902    2    1    2    0    0  0.16631972661E-01  0.12615226052E-01  0.10248451530E-01  0.10206749532E+01  0.10204099974E+01 0.  0.
     999903    2    3    3    0    0  0.39513265446E-01  0.20569456509E-01 -0.12109163156E+00  0.13059796733E+00  0.20205077332E-01 0.  0.
         14    1    1    2    0    0 -0.16631972661E-01 -0.12615226052E-01 -0.10248451530E-01  0.23255046801E-01  0.00000000000E+00 0.  1.
     999901    1    3    3    0    0 -0.22881292785E-01 -0.79542304571E-02  0.13134008309E+00  0.89007698587E+00  0.88000000000E+00 0.  1.
        -11    1    4    4    0    0  0.29029866870E-02 -0.10277789013E-02 -0.29014325707E-01  0.29181773051E-01  0.51100000000E-03 0.  1.
         11    1    4    4    0    0  0.36610278759E-01  0.21597235410E-01 -0.92077305855E-01  0.10141619428E+00  0.51100000000E-03 0. -1.
</event>
<event>
 8    1  0.1065239E+005  0.1043930E+01  0.7957747E-01            NaN
         13   -1    0    0    0    0  0.00000000000E+00  0.00000000000E+00  0.74505805969E-08  0.10566000000E+00  0.10566000000E+00 0.  1.
     999900   -1    0    0    0    0 -0.00000000000E+00 -0.00000000000E+00 -0.74505805969E-08  0.93827000000E+00  0.93827000000E+00 0.  1.
     999902    2    1    2    0    0  0.10649734848E-02 -0.18895629096E-01 -0.14967719809E-01  0.10198009386E+01  0.10195154451E+01 0.  0.
     999903    2    3    3    0    0 -0.11749768818E+00  0.23435023338E-01  0.43302177055E-01  0.12893373764E+00  0.19847496517E-01 0.  0.
         14    1    1    2    0    0 -0.10649734848E-02  0.18895629096E-01  0.14967719809E-01  0.24129061394E-01  0.00000000000E+00 0.  1.
     999901    1    3    3    0    0  0.11856266166E+00 -0.42330652435E-01 -0.58269896864E-01  0.89086720097E+00  0.88000000000E+00 0.  1.
        -11    1    4    4    0    0 -0.39399506469E-01  0.14797118243E-01  0.82345016182E-02  0.42887573447E-01  0.51100000000E-03 0. -1.
         11    1    4    4    0    0 -0.78098181710E-01  0.86379050952E-02  0.35067675437E-01  0.86046164193E-01  0.51100000000E-03 0.  1.
</event>
<event>
 8    1  0.1065239E+005  0.1043930E+01  0.7957747E-01            NaN
         13   -1    0    0    0    0  0.00000000000E+00  0.00000000000E+00  0.74505805969E-08  0.10566000000E+00  0.10566000000E+00 0.  1.
     999900   -1    0    0    0    0 -0.00000000000E+00 -0.00000000000E+00 -0.74505805969E-08  0.93827000000E+00  0.93827000000E+00 0.  1.
     999902    2    1    2    0    0 -0.15872809356E-01  0.23739511296E-02 -0.17214659113E-01  0.10203943630E+01  0.10201228994E+01 0.  0.
     999903    2    3    3    0    0  0.88742958889E-01 -0.54734813978E-01 -0.76160699649E-01  0.13040531491E+00  0.18272421083E-01 0.  0.
         14    1    1    2    0    0  0.15872809356E-01 -0.23739511296E-02  0.17214659113E-01  0.23535637004E-01  0.00000000000E+00 0.  1.
     999901    1    3    3    0    0 -0.10461576824E+00  0.57108765107E-01  0.58946040535E-01  0.88998904809E+00  0.88000000000E+00 0. -1.
        -11    1    4    4    0    0  0.33155997569E-01 -0.29650736943E-01 -0.26682024546E-01  0.51871745015E-01  0.51100000000E-03 0.  1.
         11    1    4    4    0    0  0.55586961320E-01 -0.25084077035E-01 -0.49478675103E-01  0.78533569895E-01  0.51100000000E-03 0. -1.
</event>
<event>
 8    1  0.1065239E+005  0.1043930E+01  0.7957747E-01            NaN
         13   -1    0    0    0    0  0.00000000000E+00  0.00000000000E+00  0.74505805969E-08  0.10566000000E+00  0.10566000000E+00 0.  1.
     999900   -1    0    0    0    0 -0.00000000000E+00 -0.00000000000E+00 -0.74505805969E-08  0.93827000000E+00  0.93827000000E+00 0.  1.
     999902    2    1    2    0    0  0.13282569501E-01  0.74869924932E-02  0.20445944001E-01  0.10184247391E+01  0.10181053142E+01 0.  0.
     999903    2    3    3    0    0  0.86463095611E-01 -0.35011728379E-01  0.90675119510E-01  0.13157995684E+00  0.19738787103E-01 0.  0.
         14    1    1    2    0    0 -0.13282569501E-01 -0.74869924932E-02 -0.20445944001E-01  0.25505260932E-01  0.00000000000E+00 0. -1.
     999901    1    3    3    0    0 -0.73180526111E-01  0.42498720873E-01 -0.70229175509E-01  0.88684478223E+00  0.88000000000E+00 0.  1.
        -11    1    4    4    0    0  0.18688853743E-01 -0.15266409272E-01  0.29918614152E-01  0.38441138121E-01  0.51100000000E-03 0.  1.
         11    1    4    4    0    0  0.67774241868E-01 -0.19745319108E-01  0.60756505358E-01  0.93138818716E-01  0.51100000000E-03 0. -1.
</event>
<event>
 8    1  0.1065239E+005  0.1043930E+01  0.7957747E-01            NaN
         13   -1    0    0    0    0  0.00000000000E+00  0.00000000000E+00  0.74505805969E-08  0.10566000000E+00  0.10566000000E+00 0.  1.
     999900   -1    0    0    0    0 -0.00000000000E+00 -0.00000000000E+00 -0.74505805969E-08  0.93827000000E+00  0.93827000000E+00 0. -1.
     999902    2    1    2    0    0  0.96010305067E-02 -0.99969880413E-03  0.21456243996E-01  0.10204023654E+01  0.10201310885E+01 0.  0.
     999903    2    3    3    0    0  0.96998114220E-01  0.86661611539E-01 -0.40541911518E-02  0.13137281701E+00  0.17986425613E-01 0.  0.
         14    1    1    2    0    0 -0.96010305067E-02  0.99969880413E-03 -0.21456243996E-01  0.23527634622E-01  0.00000000000E+00 0. -1.
     999901    1    3    3    0    0 -0.87397083713E-01 -0.87661310343E-01  0.25510435148E-01  0.88902954837E+00  0.88000000000E+00 0. -1.
        -11    1    4    4    0    0  0.50488164011E-01  0.54626860207E-01 -0.76629390341E-02  0.74780547717E-01  0.51100000000E-03 0. -1.
         11    1    4    4    0    0  0.46509950209E-01  0.32034751331E-01  0.36087478823E-02  0.56592269291E-01  0.51100000000E-03 0.  1.
</event>
<event>
 8    1  0.1065239E+005  0.1043930E+01  0.7957747E-01            NaN
         13   -1    0    0    0    0  0.00000000000E+00  0.00000000000E+00  0.74505805969E-08  0.10566000000E+00  0.10566000000E+00 0.  1.
     999900   -1    0    0    0    0 -0.00000000000E+00 -0.00000000000E+00 -0.74505805969E-08  0.93827000000E+00  0.93827000000E+00 0. -1.
     999902    2    1    2    0    0 -0.10887609327E-01 -0.10953777663E-01  0.24878369382E-01  0.10146476069E+01  0.10142249788E+01 0.  0.
     999903    2    3    3    0    0 -0.43037285113E-01  0.11406998931E+00  0.20839951173E-01  0.12522034581E+00  0.19536147747E-01 0.  0.
         14    1    1    2    0    0  0.10887609327E-01  0.10953777663E-01 -0.24878369382E-01  0.29282393089E-01  0.00000000000E+00 0. -1.
     999901    1    3    3    0    0  0.32149675786E-01 -0.12502376698E+00  0.40384182087E-02  0.88942726110E+00  0.88000000000E+00 0. -1.
        -11    1    4    4    0    0 -0.24316807512E-01  0.78489246110E-01  0.61074613606E-02  0.82398004149E-01  0.51100000000E-03 0. -1.
         11    1    4    4    0    0 -0.18720477601E-01  0.35580743204E-01  0.14732489812E-01  0.42822341664E-01  0.51100000000E-03 0.  1.
</event>
<event>
 8    1  0.1065239E+005  0.1043930E+01  0.7957747E-01            NaN
         13   -1    0    0    0    0  0.00000000000E+00  0.00000000000E+00  0.74505805969E-08  0.10566000000E+00  0.10566000000E+00 0. -1.
     999900   -1    0    0    0    0 -0.00000000000E+00 -0.00000000000E+00 -0.74505805969E-08  0.93827000000E+00  0.93827000000E+00 0.  1.
     999902    2    1    2    0    0 -0.11860905735E-01 -0.35681093824E-02 -0.19540306751E-01  0.10207948303E+01  0.10205326303E+01 0.  0.
     999903    2    3    3    0    0  0.32778796411E-01 -0.10943726317E+00  0.58337139731E-01  0.12991555822E+00  0.20588014287E-01 0.  0.
         14    1    1    2    0    0  0.11860905735E-01  0.35681093824E-02  0.19540306751E-01  0.23135169706E-01  0.00000000000E+00 0. -1.
     999901    1    3    3    0    0 -0.44639702146E-01  0.10586915379E+00 -0.77877446482E-01  0.89087927207E+00  0.88000000000E+00 0.  1.
        -11    1    4    4    0    0  0.26410997634E-02 -0.14255415069E-01  0.46405572817E-03  0.14514431972E-01  0.51100000000E-03 0. -1.
         11    1    4    4    0    0  0.30137696648E-01 -0.95181848102E-01  0.57873084003E-01  0.11540112625E+00  0.51100000000E-03 0.  1.
</event>
<event>
 8    1  0.1065239E+005  0.1043930E+01  0.7957747E-01            NaN
         13   -1    0    0    0    0  0.00000000000E+00  0.00000000000E+00  0.74505805969E-08  0.10566000000E+00  0.10566000000E+00 0.  1.
     999900   -1    0    0    0    0 -0.00000000000E+00 -0.00000000000E+00 -0.74505805969E-08  0.93827000000E+00  0.93827000000E+00 0.  1.
     999902    2    1    2    0    0 -0.11742633146E-01  0.83670738202E-02  0.18572807538E-01  0.10204173111E+01  0.10201463828E+01 0.  0.
     999903    2    3    3    0    0 -0.54592036674E-01 -0.26899084342E-02 -0.11512116615E+00  0.12922013496E+00  0.21387713902E-01 0.  0.
         14    1    1    2    0    0  0.11742633146E-01 -0.83670738202E-02 -0.18572807538E-01  0.23512688859E-01  0.00000000000E+00 0. -1.
     999901    1    3    3    0    0  0.42849403528E-01  0.11056982254E-01  0.13369397369E+00  0.89119717619E+00  0.88000000000E+00 0. -1.
        -11    1    4    4    0    0 -0.35710637965E-01 -0.11835191756E-01 -0.77163019036E-01  0.85847038711E-01  0.51100000000E-03 0.  1.
         11    1    4    4    0    0 -0.18881398709E-01  0.91452833223E-02 -0.37958147118E-01  0.43373096245E-01  0.51100000000E-03 0. -1.
</event>
<event>
 8    1  0.1065239E+005  0.1043930E+01  0.7957747E-01            NaN
         13   -1    0    0    0    0  0.00000000000E+00  0.00000000000E+00  0.74505805969E-08  0.10566000000E+00  0.10566000000E+00 0.  1.
     999900   -1    0    0    0    0 -0.00000000000E+00 -0.00000000000E+00 -0.74505805969E-08  0.93827000000E+00  0.93827000000E+00 0.  1.
     999902    2    1    2    0    0 -0.20194413152E-01  0.10832501844E-01  0.31847842755E-02  0.10207934430E+01  0.10205312112E+01 0.  0.
     999903    2    3    3    0    0 -0.20285523832E-01 -0.63433706853E-01 -0.11015295113E+00  0.13042221687E+00  0.20998675384E-01 0.  0.
         14    1    1    2    0    0  0.20194413152E-01 -0.10832501844E-01 -0.31847842755E-02  0.23136556996E-01  0.00000000000E+00 0. -1.
     999901    1    3    3    0    0  0.91110680182E-04  0.74266208697E-01  0.11333773541E+00  0.89037122613E+00  0.88000000000E+00 0. -1.
        -11    1    4    4    0    0  0.25238278152E-02 -0.24973849808E-01 -0.40447310063E-01  0.47605765338E-01  0.51100000000E-03 0.  1.
         11    1    4    4    0    0 -0.22809351647E-01 -0.38459857045E-01 -0.69705641072E-01  0.82816451534E-01  0.51100000000E-03 0. -1.
</event>
<event>
 8    1  0.1065239E+005  0.1043930E+01  0.7957747E-01            NaN
         13   -1    0    0    0    0  0.00000000000E+00  0.00000000000E+00  0.74505805969E-08  0.10566000000E+00  0.10566000000E+00 0. -1.
     999900   -1    0    0    0    0 -0.00000000000E+00 -0.00000000000E+00 -0.74505805969E-08  0.93827000000E+00  0.93827000000E+00 0. -1.
     999902    2    1    2    0    0 -0.17563568862E-01  0.17090852644E-01  0.55440567945E-02  0.10188040620E+01  0.10184941845E+01 0.  0.
     999903    2    3    3    0    0  0.45597428252E-01  0.22969936474E-01  0.11729218887E+00  0.12947199790E+00  0.19969908027E-01 0.  0.
         14    1    1    2    0    0  0.17563568862E-01 -0.17090852644E-01 -0.55440567945E-02  0.25125938013E-01  0.00000000000E+00 0.  1.
     999901    1    3    3    0    0 -0.63160997114E-01 -0.58790838295E-02 -0.11174813208E+00  0.88933206408E+00  0.88000000000E+00 0. -1.
        -11    1    4    4    0    0  0.40042416421E-01  0.26286973145E-01  0.97296289844E-01  0.10844920105E+00  0.51100000000E-03 0.  1.
         11    1    4    4    0    0  0.55550118313E-02 -0.33170366714E-02  0.19995899026E-01  0.21022796854E-01  0.51100000000E-03 0. -1.
</event>
<event>
 8    1  0.1065239E+005  0.1043930E+01  0.7957747E-01            NaN
         13   -1    0    0    0    0  0.00000000000E+00  0.00000000000E+00  0.74505805969E-08  0.10566000000E+00  0.10566000000E+00 0. -1.
     999900   -1    0    0    0    0 -0.00000000000E+00 -0.00000000000E+00 -0.74505805969E-08  0.93827000000E+00  0.93827000000E+00 0. -1.
     999902    2    1    2    0    0 -0.11309516168E-01  0.18577691248E-01 -0.79234804403E-02  0.10207822720E+01  0.10205197840E+01 0.  0.
     999903    2    3    3    0    0  0.71173206234E-01  0.83960234018E-01  0.68217690197E-01  0.13124545196E+00  0.21372159964E-01 0.  0.
         14    1    1    2    0    0  0.11309516168E-01 -0.18577691248E-01  0.79234804403E-02  0.23147727974E-01  0.00000000000E+00 0. -1.
     999901    1    3    3    0    0 -0.82482722402E-01 -0.65382542770E-01 -0.76141170637E-01  0.88953682007E+00  0.88000000000E+00 0. -1.
        -11    1    4    4    0    0  0.32030278100E-01  0.23472746807E-01  0.19270195868E-01  0.44141931626E-01  0.51100000000E-03 0.  1.
         11    1    4    4    0    0  0.39142928134E-01  0.60487487211E-01  0.48947494329E-01  0.87103520331E-01  0.51100000000E-03 0. -1.
</event>
<event>
 8    1  0.1065239E+005  0.1043930E+01  0.7957747E-01            NaN
         13   -1    0    0    0    0  0.00000000000E+00  0.00000000000E+00  0.74505805969E-08  0.10566000000E+00  0.10566000000E+00 0.  1.
     999900   -1    0    0    0    0 -0.00000000000E+00 -0.00000000000E+00 -0.74505805969E-08  0.93827000000E+00  0.93827000000E+00 0.  1.
     999902    2    1    2    0    0 -0.81570526390E-02 -0.90626260934E-02 -0.10592832010E-01  0.10277783193E+01  0.10276513985E+01 0.  0.
     999903    2    3    3    0    0 -0.10417341979E+00  0.77976209375E-01 -0.40758639743E-01  0.13777557908E+00  0.19709207455E-01 0.  0.
         14    1    1    2    0    0  0.81570526390E-02  0.90626260934E-02  0.10592832010E-01  0.16151680701E-01  0.00000000000E+00 0. -1.
     999901    1    3    3    0    0  0.96016367149E-01 -0.87038835469E-01  0.30165807733E-01  0.89000274022E+00  0.88000000000E+00 0.  1.
        -11    1    4    4    0    0 -0.82310515388E-01  0.64717706936E-01 -0.40306409776E-01  0.11219746131E+00  0.51100000000E-03 0. -1.
         11    1    4    4    0    0 -0.21862904400E-01  0.13258502439E-01 -0.45222996722E-03  0.25578117770E-01  0.51100000000E-03 0.  1.
</event>
<event>
 8    1  0.1065239E+005  0.1043930E+01  0.7957747E-01            NaN
         13   -1    0    0    0    0  0.00000000000E+00  0.00000000000E+00  0.74505805969E-08  0.10566000000E+00  0.10566000000E+00 0.  1.
     999900   -1    0    0    0    0 -0.00000000000E+00 -0.00000000000E+00 -0.74505805969E-08  0.93827000000E+00  0.93827000000E+00 0.  1.
     999902    2    1    2    0    0 -0.13485608778E-01  0.64936864089E-02  0.19517879042E-01  0.10193337155E+01  0.10190369210E+01 0.  0.
     999903    2    3    3    0    0  0.31191431779E-01  0.11417127421E+00 -0.47651034523E-01  0.12910780948E+00  0.19753989625E-01 0.  0.
         14    1    1    2    0    0  0.13485608778E-01 -0.64936864089E-02 -0.19517879042E-01  0.24596284467E-01  0.00000000000E+00 0. -1.
     999901    1    3    3    0    0 -0.44677040557E-01 -0.10767758780E+00  0.67168913565E-01  0.89022590606E+00  0.88000000000E+00 0. -1.
        -11    1    4    4    0    0  0.41026953275E-02  0.51637279734E-01 -0.18950553432E-01  0.55159997857E-01  0.51100000000E-03 0.  1.
         11    1    4    4    0    0  0.27088736451E-01  0.62533994473E-01 -0.28700481091E-01  0.73947811618E-01  0.51100000000E-03 0. -1.
</event>
<event>
 8    1  0.1065239E+005  0.1043930E+01  0.7957747E-01            NaN
         13   -1    0    0    0    0  0.00000000000E+00  0.00000000000E+00  0.74505805969E-08  0.10566000000E+00  0.10566000000E+00 0. -1.
     999900   -1    0    0    0    0 -0.00000000000E+00 -0.00000000000E+00 -0.74505805969E-08  0.93827000000E+00  0.93827000000E+00 0.  1.
     999902    2    1    2    0    0  0.14039249362E-01  0.87453156067E-02  0.16587752245E-01  0.10205049153E+01  0.10202360254E+01 0.  0.
     999903    2    3    3    0    0 -0.63846515812E-02  0.12928937962E+00 -0.15035011710E-01  0.13148972631E+00  0.17521104074E-01 0.  0.
         14    1    1    2    0    0 -0.14039249362E-01 -0.87453156067E-02 -0.16587752245E-01  0.23425084679E-01  0.00000000000E+00 0. -1.
     999901    1    3    3    0    0  0.20423900943E-01 -0.12054406402E+00  0.31622763955E-01  0.88901518901E+00  0.88000000000E+00 0.  1.
        -11    1    4    4    0    0 -0.11218642926E-01  0.62110940080E-01 -0.40718460358E-02  0.63249251995E-01  0.51100000000E-03 0. -1.
         11    1    4    4    0    0  0.48339913448E-02  0.67178439542E-01 -0.10963165674E-01  0.68240474311E-01  0.51100000000E-03 0.  1.
</event>
<event>
 8    1  0.1065239E+005  0.1043930E+01  0.7957747E-01            NaN
         13   -1    0    0    0    0  0.00000000000E+00  0.00000000000E+00  0.74505805969E-08  0.10566000000E+00  0.10566000000E+00 0. -1.
     999900   -1    0    0    0    0 -0.00000000000E+00 -0.00000000000E+00 -0.74505805969E-08  0.93827000000E+00  0.93827000000E+00 0. -1.
     999902    2    1    2    0    0 -0.14755117445E-01  0.68537215178E-02 -0.18021304315E-01  0.10196513180E+01  0.10193622300E+01 0.  0.
     999903    2    3    3    0    0 -0.10823178719E+00  0.25363221601E-01 -0.70418706840E-01  0.13295747166E+00  0.19012686007E-01 0.  0.
         14    1    1    2    0    0  0.14755117445E-01 -0.68537215178E-02  0.18021304315E-01  0.24278681980E-01  0.00000000000E+00 0. -1.
     999901    1    3    3    0    0  0.93476669744E-01 -0.18509500083E-01  0.52397402525E-01  0.88669384636E+00  0.88000000000E+00 0.  1.
        -11    1    4    4    0    0 -0.72625628299E-01  0.16004831507E-01 -0.57253493981E-01  0.93855528401E-01  0.51100000000E-03 0.  1.
         11    1    4    4    0    0 -0.35606158890E-01  0.93583900941E-02 -0.13165212859E-01  0.39101943260E-01  0.51100000000E-03 0. -1.
</event>
<event>
 8    1  0.1065239E+005  0.1043930E+01  0.7957747E-01            NaN
         13   -1    0    0    0    0  0.00000000000E+00  0.00000000000E+00  0.74505805969E-08  0.10566000000E+00  0.10566000000E+00 0. -1.
     999900   -1    0    0    0    0 -0.00000000000E+00 -0.00000000000E+00 -0.74505805969E-08  0.93827000000E+00  0.93827000000E+00 0.  1.
     999902    2    1    2    0    0  0.84674589015E-02  0.11875446552E-01  0.19054701404E-01  0.10199340475E+01  0.10196517325E+01 0.  0.
     999903    2    3    3    0    0 -0.77323851608E-01  0.99555101822E-01 -0.26739276330E-01  0.13024592275E+00  0.18942417192E-01 0.  0.
         14    1    1    2    0    0 -0.84674589015E-02 -0.11875446552E-01 -0.19054701404E-01  0.23995952505E-01  0.00000000000E+00 0. -1.
     999901    1    3    3    0    0  0.85791310510E-01 -0.87679655270E-01  0.45793977734E-01  0.88968812474E+00  0.88000000000E+00 0. -1.
        -11    1    4    4    0    0 -0.47378873871E-01  0.66764266185E-01 -0.25759547974E-01  0.85825639301E-01  0.51100000000E-03 0. -1.
         11    1    4    4    0    0 -0.29944977737E-01  0.32790835637E-01 -0.97972835618E-03  0.44420283454E-01  0.51100000000E-03 0.  1.
</event>
<event>
 8    1  0.1065239E+005  0.1043930E+01  0.7957747E-01            NaN
         13   -1    0    0    0    0  0.00000000000E+00  0.00000000000E+00  0.74505805969E-08  0.10566000000E+00  0.10566000000E+00 0. -1.
     999900   -1    0    0    0    0 -0.00000000000E+00 -0.00000000000E+00 -0.74505805969E-08  0.93827000000E+00  0.93827000000E+00 0. -1.
     999902    2    1    2    0    0  0.14769011125E-01  0.12854461221E-02  0.16797942232E-01  0.10215258280E+01  0.10212801135E+01 0.  0.
     999903    2    3    3    0    0 -0.81636869741E-01 -0.55447987937E-01 -0.80872528540E-01  0.12908406669E+00  0.19577347461E-01 0.  0.
         14    1    1    2    0    0 -0.14769011125E-01 -0.12854461221E-02 -0.16797942232E-01  0.22404172035E-01  0.00000000000E+00 0.  1.
     999901    1    3    3    0    0  0.96405880866E-01  0.56733434059E-01  0.97670470772E-01  0.89244176127E+00  0.88000000000E+00 0.  1.
        -11    1    4    4    0    0 -0.29228141679E-01 -0.16013481790E-01 -0.38842803819E-01  0.51183399600E-01  0.51100000000E-03 0.  1.
         11    1    4    4    0    0 -0.52408728062E-01 -0.39434506147E-01 -0.42029724721E-01  0.77900667091E-01  0.51100000000E-03 0. -1.
</event>
<event>
 8    1  0.1065239E+005  0.1043930E+01  0.7957747E-01            NaN
         13   -1    0    0    0    0  0.00000000000E+00  0.00000000000E+00  0.74505805969E-08  0.10566000000E+00  0.10566000000E+00 0.  1.
     999900   -1    0    0    0    0 -0.00000000000E+00 -0.00000000000E+00 -0.74505805969E-08  0.93827000000E+00  0.93827000000E+00 0.  1.
     999902    2    1    2    0    0 -0.22316317432E-02 -0.17757555124E-02 -0.23171250113E-01  0.10205839014E+01  0.10203168427E+01 0.  0.
     999903    2    3    3    0    0  0.23480479640E-01 -0.10951107256E+00 -0.63278686227E-01  0.13273446730E+00  0.32714503530E-01 0.  0.
         14    1    1    2    0    0  0.22316317432E-02  0.17757555124E-02  0.23171250113E-01  0.23346098596E-01  0.00000000000E+00 0.  1.
     999901    1    3    3    0    0 -0.25712111383E-01  0.10773531705E+00  0.40107436114E-01  0.88784943411E+00  0.88000000000E+00 0. -1.
        -11    1    4    4    0    0  0.57575283413E-02 -0.55773040723E-01 -0.48776732229E-01  0.74318314916E-01  0.51100000000E-03 0. -1.
         11    1    4    4    0    0  0.17722951299E-01 -0.53738031836E-01 -0.14501953998E-01  0.58416152381E-01  0.51100000000E-03 0.  1.
</event>
<event>
 8    1  0.1065239E+005  0.1043930E+01  0.7957747E-01            NaN
         13   -1    0    0    0    0  0.00000000000E+00  0.00000000000E+00  0.74505805969E-08  0.10566000000E+00  0.10566000000E+00 0.  1.
     999900   -1    0    0    0    0 -0.00000000000E+00 -0.00000000000E+00 -0.74505805969E-08  0.93827000000E+00  0.93827000000E+00 0. -1.
     999902    2    1    2    0    0  0.18020355538E-01 -0.19246094839E-02 -0.14116936617E-01  0.10209577290E+01  0.10206992501E+01 0.  0.
     999903    2    3    3    0    0  0.12375545336E+00  0.43364592412E-01 -0.14640195753E-01  0.13347178741E+00  0.20111752580E-01 0.  0.
         14    1    1    2    0    0 -0.18020355538E-01  0.19246094839E-02  0.14116936617E-01  0.22972270999E-01  0.00000000000E+00 0. -1.
     999901    1    3    3    0    0 -0.10573509782E+00 -0.45289201895E-01  0.52325913612E-03  0.88748594159E+00  0.88000000000E+00 0. -1.
        -11    1    4    4    0    0  0.31958414788E-01  0.20524542024E-01 -0.20473339811E-02  0.38040107762E-01  0.51100000000E-03 0.  1.
         11    1    4    4    0    0  0.91797038571E-01  0.22840050387E-01 -0.12592861772E-01  0.95431679650E-01  0.51100000000E-03 0. -1.
</event>
<event>
 8    1  0.1065239E+005  0.1043930E+01  0.7957747E-01            NaN
         13   -1    0    0    0    0  0.00000000000E+00  0.00000000000E+00  0.74505805969E-08  0.10566000000E+00  0.10566000000E+00 0. -1.
     999900   -1    0    0    0    0 -0.00000000000E+00 -0.00000000000E+00 -0.74505805969E-08  0.93827000000E+00  0.93827000000E+00 0. -1.
     999902    2    1    2    0    0  0.10975842323E-01  0.20573499067E-01  0.52278925624E-02  0.10200329533E+01  0.10197529883E+01 0.  0.
     999903    2    3    3    0    0  0.72662396871E-01 -0.38325976408E-01  0.99899345941E-01  0.13085520772E+00  0.19862066360E-01 0.  0.
         14    1    1    2    0    0 -0.10975842323E-01 -0.20573499067E-01 -0.52278925624E-02  0.23897046663E-01  0.00000000000E+00 0.  1.
     999901    1    3    3    0    0 -0.61686554548E-01  0.58899475475E-01 -0.94671453379E-01  0.88917774562E+00  0.88000000000E+00 0. -1.
        -11    1    4    4    0    0  0.41298559758E-01 -0.12230699469E-01  0.59312385132E-01  0.73303350528E-01  0.51100000000E-03 0. -1.
         11    1    4    4    0    0  0.31363837114E-01 -0.26095276939E-01  0.40586960809E-01  0.57551857188E-01  0.51100000000E-03 0.  1.
</event>
<event>
 8    1  0.1065239E+005  0.1043930E+01  0.7957747E-01            NaN
         13   -1    0    0    0    0  0.00000000000E+00  0.00000000000E+00  0.74505805969E-08  0.10566000000E+00  0.10566000000E+00 0. -1.
     999900   -1    0    0    0    0 -0.00000000000E+00 -0.00000000000E+00 -0.74505805969E-08  0.93827000000E+00  0.93827000000E+00 0.  1.
     999902    2    1    2    0    0  0.16704813092E-01 -0.10492002969E-01  0.13819606071E-01  0.10198444355E+01  0.10195599826E+01 0.  0.
     999903    2    3    3    0    0  0.11573523272E+00  0.56318378704E-01  0.19253822833E-01  0.13175649961E+00  0.20558735928E-01 0.  0.
         14    1    1    2    0    0 -0.16704813092E-01  0.10492002969E-01 -0.13819606071E-01  0.24085564529E-01  0.00000000000E+00 0.  1.
     999901    1    3    3    0    0 -0.99030419628E-01 -0.66810381673E-01 -0.54342167626E-02  0.88808793586E+00  0.88000000000E+00 0. -1.
        -11    1    4    4    0    0  0.75565215437E-01  0.46216690018E-01  0.86763610663E-02  0.89003508822E-01  0.51100000000E-03 0.  1.
         11    1    4    4    0    0  0.40170017283E-01  0.10101688686E-01  0.10577461767E-01  0.42752990787E-01  0.51100000000E-03 0. -1.
</event>
<event>
 8    1  0.1065239E+005  0.1043930E+01  0.7957747E-01            NaN
         13   -1    0    0    0    0  0.00000000000E+00  0.00000000000E+00  0.74505805969E-08  0.10566000000E+00  0.10566000000E+00 0.  1.
     999900   -1    0    0    0    0 -0.00000000000E+00 -0.00000000000E+00 -0.74505805969E-08  0.93827000000E+00  0.93827000000E+00 0.  1.
     999902    2    1    2    0    0  0.15521327012E-01 -0.11173719258E-01  0.16454924659E-01  0.10187004907E+01  0.10183880211E+01 0.  0.
     999903    2    3    3    0    0  0.48909223013E-01 -0.62897736976E-01 -0.99504211321E-01  0.12896083955E+00  0.19533884751E-01 0.  0.
         14    1    1    2    0    0 -0.15521327012E-01  0.11173719258E-01 -0.16454924659E-01  0.25229509305E-01  0.00000000000E+00 0. -1.
     999901    1    3    3    0    0 -0.33387896001E-01  0.51724017718E-01  0.11595913598E+00  0.88973965115E+00  0.88000000000E+00 0. -1.
        -11    1    4    4    0    0  0.14085004039E-01 -0.90334104449E-02 -0.30193924903E-01  0.34524253288E-01  0.51100000000E-03 0.  1.
         11    1    4    4    0    0  0.34824218974E-01 -0.53864326531E-01 -0.69310286419E-01  0.94436586259E-01  0.51100000000E-03 0. -1.
</event>
<event>
 8    1  0.1065239E+005  0.1043930E+01  0.7957747E-01            NaN
         13   -1    0    0    0    0  0.00000000000E+00  0.00000000000E+00  0.74505805969E-08  0.10566000000E+00  0.10566000000E+00 0.  1.
     999900   -1    0    0    0    0 -0.00000000000E+00 -0.00000000000E+00 -0.74505805969E-08  0.93827000000E+00  0.93827000000E+00 0.  1.
     999902    2    1    2    0    0  0.94002515328E-02 -0.13011274526E-01 -0.17806411270E-01  0.10199565506E+01  0.10196747711E+01 0.  0.
     999903    2    3    3    0    0  0.21191905715E-01 -0.14627112867E-02  0.12493369497E+00  0.12830238539E+00  0.20045886480E-01 0.  0.
         14    1    1    2    0    0 -0.94002515328E-02  0.13011274526E-01  0.17806411270E-01  0.23973449397E-01  0.00000000000E+00 0. -1.
     999901    1    3    3    0    0 -0.11791654183E-01 -0.11548563239E-01 -0.14274010624E+00  0.89165416522E+00  0.88000000000E+00 0.  1.
        -11    1    4    4    0    0  0.17845358644E-01 -0.81063307716E-02  0.64606987645E-01  0.67516615713E-01  0.51100000000E-03 0. -1.
         11    1    4    4    0    0  0.33465470717E-02  0.66436194849E-02  0.60326707324E-01  0.60785769672E-01  0.51100000000E-03 0.  1.
</event>
<event>
 7    1  0.1065239E+005  0.1043930E+01  0.7957747E-01            NaN
         13   -1    0    0    0    0  0.00000000000E+00  0.00000000000E+00  0.74505805969E-08  0.10566000000E+00  0.10566000000E+00 0.  1.
     999900   -1    0    0    0    0 -0.00000000000E+00 -0.00000000000E+00 -0.74505805969E-08  0.93827000000E+00  0.93827000000E+00 0.  1.
     999902    2    1    2    0    0 -0.18264836490E-02 -0.20074077148E-01 -0.12810780730E-01  0.10200465179E+01  0.10197668743E+01 0.  0.
         14    1    1    2    0    0  0.18264836490E-02  0.20074077148E-01  0.12810780730E-01  0.23883482132E-01  0.00000000000E+00 0.  1.
     999901    1    3    3    0    0  0.35202895872E-01  0.24644016691E-01  0.10099333518E+00  0.88681803386E+00  0.88000000000E+00 0. -1.
        -11    1    3    3    0    0  0.76367838306E-03  0.53372331960E-02 -0.38579524893E-02  0.66493745022E-02  0.51100000000E-03 0. -1.
         11    1    3    3    0    0 -0.37793057904E-01 -0.50055327035E-01 -0.10994616342E+00  0.12657910950E+00  0.51100000000E-03 0.  1.
</event>
<event>
 8    1  0.1065239E+005  0.1043930E+01  0.7957747E-01            NaN
         13   -1    0    0    0    0  0.00000000000E+00  0.00000000000E+00  0.74505805969E-08  0.10566000000E+00  0.10566000000E+00 0. -1.
     999900   -1    0    0    0    0 -0.00000000000E+00 -0.00000000000E+00 -0.74505805969E-08  0.93827000000E+00  0.93827000000E+00 0. -1.
     999902    2    1    2    0    0 -0.14724950546E-02  0.20649237515E-01  0.13444795734E-01  0.10192455558E+01  0.10189466038E+01 0.  0.
     999903    2    3    3    0    0  0.74523530302E-01  0.72913672396E-02 -0.10238617156E+00  0.12830748753E+00  0.19312240252E-01 0.  0.
         14    1    1    2    0    0  0.14724950546E-02 -0.20649237515E-01 -0.13444795734E-01  0.24684444170E-01  0.00000000000E+00 0. -1.
     999901    1    3    3    0    0 -0.75996025356E-01  0.13357870276E-01  0.11583096730E+00  0.89093806830E+00  0.88000000000E+00 0.  1.
        -11    1    4    4    0    0  0.27751031409E-01  0.65614354159E-02 -0.53604680175E-01  0.60719807613E-01  0.51100000000E-03 0. -1.
         11    1    4    4    0    0  0.46772498893E-01  0.72993182369E-03 -0.48781491386E-01  0.67587679913E-01  0.51100000000E-03 0.  1.
</event>
<event>
 8    1  0.1065239E+005  0.1043930E+01  0.7957747E-01            NaN
         13   -1    0    0    0    0  0.00000000000E+00  0.00000000000E+00  0.74505805969E-08  0.10566000000E+00  0.10566000000E+00 0.  1.
     999900   -1    0    0    0    0 -0.00000000000E+00 -0.00000000000E+00 -0.74505805969E-08  0.93827000000E+00  0.93827000000E+00 0. -1.
     999902    2    1    2    0    0  0.55027024937E-02  0.17084473825E-01 -0.54453025384E-02  0.10251733932E+01  0.10250017930E+01 0.  0.
     999903    2    3    3    0    0  0.10073996961E+00 -0.21628126734E-01 -0.84617412084E-01  0.13565834246E+00  0.25035217349E-01 0.  0.
         14    1    1    2    0    0 -0.55027024937E-02 -0.17084473825E-01  0.54453025384E-02  0.18756606845E-01  0.00000000000E+00 0.  1.
     999901    1    3    3    0    0 -0.95237267113E-01  0.38712600559E-01  0.79172109546E-01  0.88951505070E+00  0.88000000000E+00 0.  1.
        -11    1    4    4    0    0  0.76518542467E-01 -0.26326435326E-01 -0.69849441743E-01  0.10689889696E+00  0.51100000000E-03 0. -1.
         11    1    4    4    0    0  0.24221427140E-01  0.46983085914E-02 -0.14767970341E-01  0.28759445497E-01  0.51100000000E-03 0.  1.
</event>
<event>
 8    1  0.1065239E+005  0.1043930E+01  0.7957747E-01            NaN
         13   -1    0    0    0    0  0.00000000000E+00  0.00000000000E+00  0.74505805969E-08  0.10566000000E+00  0.10566000000E+00 0.  1.
     999900   -1    0    0    0    0 -0.00000000000E+00 -0.00000000000E+00 -0.74505805969E-08  0.93827000000E+00  0.93827000000E+00 0.  1.
     999902    2    1    2    0    0 -0.53056878745E-02  0.13535040791E-01 -0.18972925997E-01  0.10200277078E+01  0.10197476183E+01 0.  0.
     999903    2    3    3    0    0 -0.98292170411E-01  0.17797453471E-01  0.80096964093E-01  0.12958989567E+00  0.19997932095E-01 0.  0.
         14    1    1    2    0    0  0.53056878745E-02 -0.13535040791E-01  0.18972925997E-01  0.23902292232E-01  0.00000000000E+00 0.  1.
     999901    1    3    3    0    0  0.92986482536E-01 -0.42624126802E-02 -0.99069890090E-01  0.89043781210E+00  0.88000000000E+00 0. -1.
        -11    1    4    4    0    0 -0.64252558268E-01  0.21153655489E-01  0.52074518815E-01  0.85369110428E-01  0.51100000000E-03 0. -1.
         11    1    4    4    0    0 -0.34039612143E-01 -0.33562020174E-02  0.28022445278E-01  0.44220785240E-01  0.51100000000E-03 0.  1.
</event>
<event>
 8    1  0.1065239E+005  0.1043930E+01  0.7957747E-01            NaN
         13   -1    0    0    0    0  0.00000000000E+00  0.00000000000E+00  0.74505805969E-08  0.10566000000E+00  0.10566000000E+00 0.  1.
     999900   -1    0    0    0    0 -0.00000000000E+00 -0.00000000000E+00 -0.74505805969E-08  0.93827000000E+00  0.93827000000E+00 0.  1.
     999902    2    1    2    0    0 -0.66755411291E-02 -0.19364875722E-01  0.13520042402E-01  0.10193871231E+01  0.10190916317E+01 0.  0.
     999903    2    3    3    0    0  0.95631393815E-01 -0.80839737856E-01  0.33072019129E-01  0.13111455939E+00  0.20416721926E-01 0.  0.
         14    1    1    2    0    0  0.66755411291E-02  0.19364875722E-01 -0.13520042402E-01  0.24542876923E-01  0.00000000000E+00 0.  1.
     999901    1    3    3    0    0 -0.10230693494E+00  0.61474862133E-01 -0.19551976727E-01  0.88827256369E+00  0.88000000000E+00 0.  1.
        -11    1    4    4    0    0 -0.15079023997E-03 -0.34951788427E-02 -0.33130809684E-03  0.35510419448E-02  0.51100000000E-03 0. -1.
         11    1    4    4    0    0  0.95782184055E-01 -0.77344559013E-01  0.33403327226E-01  0.12756351744E+00  0.51100000000E-03 0.  1.
</event>
<event>
 8    1  0.1065239E+005  0.1043930E+01  0.7957747E-01            NaN
         13   -1    0    0    0    0  0.00000000000E+00  0.00000000000E+00  0.74505805969E-08  0.10566000000E+00  0.10566000000E+00 0. -1.
     999900   -1    0    0    0    0 -0.00000000000E+00 -0.00000000000E+00 -0.74505805969E-08  0.93827000000E+00  0.93827000000E+00 0. -1.
     999902    2    1    2    0    0 -0.21471104226E-01  0.10200520999E-01 -0.31782281252E-02  0.10199475047E+01  0.10196655100E+01 0.  0.
     999903    2    3    3    0    0 -0.76334905594E-02  0.58139862971E-01  0.11443130382E+00  0.13072218904E+00  0.23563819075E-01 0.  0.
         14    1    1    2    0    0  0.21471104226E-01 -0.10200520999E-01  0.31782281252E-02  0.23982495270E-01  0.00000000000E+00 0. -1.
     999901    1    3    3    0    0 -0.13837613667E-01 -0.47939341972E-01 -0.11760953194E+00  0.88922531569E+00  0.88000000000E+00 0. -1.
        -11    1    4    4    0    0 -0.12921279569E-01  0.30062577226E-01  0.45008925651E-01  0.55648742344E-01  0.51100000000E-03 0.  1.
         11    1    4    4    0    0  0.52877890098E-02  0.28077285744E-01  0.69422378168E-01  0.75073446697E-01  0.51100000000E-03 0. -1.
</event>
<event>
 8    1  0.1065239E+005  0.1043930E+01  0.7957747E-01            NaN
         13   -1    0    0    0    0  0.00000000000E+00  0.00000000000E+00  0.74505805969E-08  0.10566000000E+00  0.10566000000E+00 0.  1.
     999900   -1    0    0    0    0 -0.00000000000E+00 -0.00000000000E+00 -0.74505805969E-08  0.93827000000E+00  0.93827000000E+00 0. -1.
     999902    2    1    2    0    0  0.80668375028E-02 -0.13531689886E-01  0.17693114647E-01  0.10202397741E+01  0.10199646905E+01 0.  0.
     999903    2    3    3    0    0 -0.37617266136E-01  0.12145062282E+00  0.33614067175E-02  0.12866102830E+00  0.19417740660E-01 0.  0.
         14    1    1    2    0    0 -0.80668375028E-02  0.13531689886E-01 -0.17693114647E-01  0.23690225925E-01  0.00000000000E+00 0. -1.
     999901    1    3    3    0    0  0.45684103639E-01 -0.13498231271E+00  0.14331707930E-01  0.89157874578E+00  0.88000000000E+00 0. -1.
        -11    1    4    4    0    0 -0.25873082801E-01  0.95304223012E-01  0.99225726635E-02  0.99252354667E-01  0.51100000000E-03 0. -1.
         11    1    4    4    0    0 -0.11744183335E-01  0.26146399809E-01 -0.65611659460E-02  0.29408673631E-01  0.51100000000E-03 0.  1.
</event>
<event>
 8    1  0.1065239E+005  0.1043930E+01  0.7957747E-01            NaN
         13   -1    0    0    0    0  0.00000000000E+00  0.00000000000E+00  0.74505805969E-08  0.10566000000E+00  0.10566000000E+00 0. -1.
     999900   -1    0    0    0    0 -0.00000000000E+00 -0.00000000000E+00 -0.74505805969E-08  0.93827000000E+00  0.93827000000E+00 0.  1.
     999902    2    1    2    0    0 -0.76661221828E-02 -0.15051697635E-01 -0.16695664446E-01  0.10201798791E+01  0.10199033864E+01 0.  0.
     999903    2    3    3    0    0  0.10954346793E+00  0.11554654831E-03 -0.68640624459E-01  0.13076073597E+00  0.19673587081E-01 0.  0.
         14    1    1    2    0    0  0.76661221828E-02  0.15051697635E-01  0.16695664446E-01  0.23750120890E-01  0.00000000000E+00 0. -1.
     999901    1    3    3    0    0 -0.11720959011E+00 -0.15167244184E-01  0.51944960013E-01  0.88941914314E+00  0.88000000000E+00 0. -1.
        -11    1    4    4    0    0  0.44915390720E-01 -0.96018720811E-02 -0.27634355938E-01  0.53605102557E-01  0.51100000000E-03 0. -1.
         11    1    4    4    0    0  0.64628077209E-01  0.97174186294E-02 -0.41006268521E-01  0.77155633414E-01  0.51100000000E-03 0.  1.
</event>
<event>
 8    1  0.1065239E+005  0.1043930E+01  0.7957747E-01            NaN
         13   -1    0    0    0    0  0.00000000000E+00  0.00000000000E+00  0.74505805969E-08  0.10566000000E+00  0.10566000000E+00 0.  1.
     999900   -1    0    0    0    0 -0.00000000000E+00 -0.00000000000E+00 -0.74505805969E-08  0.93827000000E+00  0.93827000000E+00 0. -1.
     999902    2    1    2    0    0  0.19781546720E-01 -0.28892078401E-02 -0.27566561397E-02  0.10237494087E+01  0.10235504851E+01 0.  0.
     999903    2    3    3    0    0 -0.40717607684E-01 -0.12397541319E+00  0.17490844301E-01  0.13316983443E+00  0.20011209797E-01 0.  0.
         14    1    1    2    0    0 -0.19781546720E-01  0.28892078401E-02  0.27566561397E-02  0.20180591311E-01  0.00000000000E+00 0. -1.
     999901    1    3    3    0    0  0.60499154404E-01  0.12108620535E+00 -0.20247500441E-01  0.89057957426E+00  0.88000000000E+00 0. -1.
        -11    1    4    4    0    0 -0.23103935297E-02 -0.46678750222E-02  0.49539002338E-02  0.72061934481E-02  0.51100000000E-03 0.  1.
         11    1    4    4    0    0 -0.38407214154E-01 -0.11930753817E+00  0.12536944067E-01  0.12596364098E+00  0.51100000000E-03 0. -1.
</event>
<event>
 8    1  0.1065239E+005  0.1043930E+01  0.7957747E-01            NaN
         13   -1    0    0    0    0  0.00000000000E+00  0.00000000000E+00  0.74505805969E-08  0.10566000000E+00  0.10566000000E+00 0.  1.
     999900   -1    0    0    0    0 -0.00000000000E+00 -0.00000000000E+00 -0.74505805969E-08  0.93827000000E+00  0.93827000000E+00 0.  1.
     999902    2    1    2    0    0  0.11142372941E-01 -0.15364360218E-01 -0.13840690375E-01  0.10204399862E+01  0.10201695862E+01 0.  0.
     999903    2    3    3    0    0  0.24763686322E-02  0.90770705672E-01  0.88444248533E-01  0.12813848972E+00  0.18751907613E-01 0.  0.
         14    1    1    2    0    0 -0.11142372941E-01  0.15364360218E-01  0.13840690375E-01  0.23490013830E-01  0.00000000000E+00 0.  1.
     999901    1    3    3    0    0  0.86660043085E-02 -0.10613506589E+00 -0.10228493891E+00  0.89230149645E+00  0.88000000000E+00 0.  1.
        -11    1    4    4    0    0  0.10281147613E-01  0.63409997279E-01  0.59948802895E-01  0.87867228480E-01  0.51100000000E-03 0. -1.
         11    1    4    4    0    0 -0.78047789805E-02  0.27360708393E-01  0.28495445638E-01  0.40271261239E-01  0.51100000000E-03 0.  1.
</event>
<event>
 8    1  0.1065239E+005  0.1043930E+01  0.7957747E-01            NaN
         13   -1    0    0    0    0  0.00000000000E+00  0.00000000000E+00  0.74505805969E-08  0.10566000000E+00  0.10566000000E+00 0.  1.
     999900   -1    0    0    0    0 -0.00000000000E+00 -0.00000000000E+00 -0.74505805969E-08  0.93827000000E+00  0.93827000000E+00 0. -1.
     999902    2    1    2    0    0  0.41201171542E-02  0.22262950153E-01  0.48299961413E-02  0.10207795534E+01  0.10205170030E+01 0.  0.
     999903    2    3    3    0    0  0.60972091630E-01 -0.22744407665E-01  0.11222245883E+00  0.13129040209E+00  0.20208547116E-01 0.  0.
         14    1    1    2    0    0 -0.41201171542E-02 -0.22262950153E-01 -0.48299961413E-02  0.23150446597E-01  0.00000000000E+00 0.  1.
     999901    1    3    3    0    0 -0.56851974476E-01  0.45007357818E-01 -0.10739246269E+00  0.88948915131E+00  0.88000000000E+00 0. -1.
        -11    1    4    4    0    0  0.24179444962E-01 -0.10466968306E-01  0.27384387491E-01  0.38004852104E-01  0.51100000000E-03 0. -1.
         11    1    4    4    0    0  0.36792646668E-01 -0.12277439359E-01  0.84838071344E-01  0.93285549987E-01  0.51100000000E-03 0.  1.
</event>
<event>
 8    1  0.1065239E+005  0.1043930E+01  0.7957747E-01            NaN
         13   -1    0    0    0    0  0.00000000000E+00  0.00000000000E+00  0.74505805969E-08  0.10566000000E+00  0.10566000000E+00 0.  1.
     999900   -1    0    0    0    0 -0.00000000000E+00 -0.00000000000E+00 -0.74505805969E-08  0.93827000000E+00  0.93827000000E+00 0. -1.
     999902    2    1    2    0    0 -0.13357818460E-01 -0.17953562641E-02 -0.22665411352E-01  0.10175600267E+01  0.10172182817E+01 0.  0.
     999903    2    3    3    0    0 -0.93949312004E-01 -0.35728822009E-02  0.80376857441E-01  0.12788825716E+00  0.32491974293E-01 0.  0.
         14    1    1    2    0    0  0.13357818460E-01  0.17953562641E-02  0.22665411352E-01  0.26369973263E-01  0.00000000000E+00 0.  1.
     999901    1    3    3    0    0  0.80591493544E-01  0.17775259368E-02 -0.10304226879E+00  0.88967176958E+00  0.88000000000E+00 0.  1.
        -11    1    4    4    0    0 -0.65176020512E-01  0.39468803803E-02  0.36284981286E-01  0.74701757024E-01  0.51100000000E-03 0.  1.
         11    1    4    4    0    0 -0.28773291491E-01 -0.75197625813E-02  0.44091876156E-01  0.53186500133E-01  0.51100000000E-03 0. -1.
</event>
<event>
 7    1  0.1065239E+005  0.1043930E+01  0.7957747E-01            NaN
         13   -1    0    0    0    0  0.00000000000E+00  0.00000000000E+00  0.74505805969E-08  0.10566000000E+00  0.10566000000E+00 0.  1.
     999900   -1    0    0    0    0 -0.00000000000E+00 -0.00000000000E+00 -0.74505805969E-08  0.93827000000E+00  0.93827000000E+00 0.  1.
     999903    2    1    2    0    0 -0.71179017695E-01  0.78686917999E-01  0.38330762765E-01  0.11456589627E+00  0.19950277916E-01 0.  0.
         14    1    1    2    0    0  0.38354355008E-01 -0.16709953950E-01  0.16265948939E-01  0.44887194209E-01  0.00000000000E+00 0.  1.
     999901    1    1    2    0    0  0.32824662687E-01 -0.61976964049E-01 -0.54596711704E-01  0.88447690952E+00  0.88000000000E+00 0.  1.
        -11    1    3    3    0    0 -0.39139455458E-01  0.43998207650E-01  0.31697112883E-01  0.66878302431E-01  0.51100000000E-03 0.  1.
         11    1    3    3    0    0 -0.32039562236E-01  0.34688710349E-01  0.66336498815E-02  0.47687593835E-01  0.51100000000E-03 0. -1.
</event>
<event>
 8    1  0.1065239E+005  0.1043930E+01  0.7957747E-01            NaN
         13   -1    0    0    0    0  0.00000000000E+00  0.00000000000E+00  0.74505805969E-08  0.10566000000E+00  0.10566000000E+00 0.  1.
     999900   -1    0    0    0    0 -0.00000000000E+00 -0.00000000000E+00 -0.74505805969E-08  0.93827000000E+00  0.93827000000E+00 0. -1.
     999902    2    1    2    0    0  0.17990020014E-01 -0.49317963397E-03  0.15202012150E-01  0.10203718757E+01  0.10200998870E+01 0.  0.
     999903    2    3    3    0    0 -0.26899064205E-01 -0.45888247298E-01 -0.11518993986E+00  0.12847625223E+00  0.20202332708E-01 0.  0.
         14    1    1    2    0    0 -0.17990020014E-01  0.49317963397E-03 -0.15202012150E-01  0.23558124281E-01  0.00000000000E+00 0. -1.
     999901    1    3    3    0    0  0.44889084218E-01  0.45395067664E-01  0.13039195201E+00  0.89189562349E+00  0.88000000000E+00 0. -1.
        -11    1    4    4    0    0 -0.24445018525E-01 -0.25663212613E-01 -0.84529147126E-01  0.91660227182E-01  0.51100000000E-03 0. -1.
         11    1    4    4    0    0 -0.24540456802E-02 -0.20225034685E-01 -0.30660792734E-01  0.36816025047E-01  0.51100000000E-03 0.  1.
</event>
<event>
 8    1  0.1065239E+005  0.1043930E+01  0.7957747E-01            NaN
         13   -1    0    0    0    0  0.00000000000E+00  0.00000000000E+00  0.74505805969E-08  0.10566000000E+00  0.10566000000E+00 0. -1.
     999900   -1    0    0    0    0 -0.00000000000E+00 -0.00000000000E+00 -0.74505805969E-08  0.93827000000E+00  0.93827000000E+00 0. -1.
     999902    2    1    2    0    0  0.16068984676E-01 -0.18324180806E-01  0.15261182524E-03  0.10195576558E+01  0.10192663059E+01 0.  0.
     999903    2    3    3    0    0 -0.15454282585E-01  0.56879647608E-01 -0.11252973073E+00  0.12863305603E+00  0.20233478252E-01 0.  0.
         14    1    1    2    0    0 -0.16068984676E-01  0.18324180806E-01 -0.15261182524E-03  0.24372344185E-01  0.00000000000E+00 0. -1.
     999901    1    3    3    0    0  0.31523267261E-01 -0.75203828414E-01  0.11268234255E+00  0.89092459979E+00  0.88000000000E+00 0.  1.
        -11    1    4    4    0    0 -0.89585675172E-04  0.37852466925E-01 -0.68559688205E-01  0.78316723921E-01  0.51100000000E-03 0. -1.
         11    1    4    4    0    0 -0.15364696910E-01  0.19027180684E-01 -0.43970042524E-01  0.50316332104E-01  0.51100000000E-03 0.  1.
</event>
<event>
 8    1  0.1065239E+005  0.1043930E+01  0.7957747E-01            NaN
         13   -1    0    0    0    0  0.00000000000E+00  0.00000000000E+00  0.74505805969E-08  0.10566000000E+00  0.10566000000E+00 0.  1.
     999900   -1    0    0    0    0 -0.00000000000E+00 -0.00000000000E+00 -0.74505805969E-08  0.93827000000E+00  0.93827000000E+00 0. -1.
     999902    2    1    2    0    0  0.51704397019E-02 -0.15679453047E-01 -0.17464976924E-01  0.10198966042E+01  0.10196133969E+01 0.  0.
     999903    2    3    3    0    0 -0.68462988716E-01 -0.94531547497E-01 -0.59291725519E-01  0.13232181216E+00  0.19239515617E-01 0.  0.
         14    1    1    2    0    0 -0.51704397019E-02  0.15679453047E-01  0.17464976924E-01  0.24033395797E-01  0.00000000000E+00 0.  1.
     999901    1    3    3    0    0  0.73633428418E-01  0.78852094450E-01  0.41826748595E-01  0.88757479205E+00  0.88000000000E+00 0.  1.
        -11    1    4    4    0    0 -0.11870226268E-01 -0.18090251023E-01 -0.19811652599E-01  0.29341474970E-01  0.51100000000E-03 0.  1.
         11    1    4    4    0    0 -0.56592762448E-01 -0.76441296474E-01 -0.39480072920E-01  0.10298033719E+00  0.51100000000E-03 0. -1.
</event>
<event>
 8    1  0.1065239E+005  0.1043930E+01  0.7957747E-01            NaN
         13   -1    0    0    0    0  0.00000000000E+00  0.00000000000E+00  0.74505805969E-08  0.10566000000E+00  0.10566000000E+00 0.  1.
     999900   -1    0    0    0    0 -0.00000000000E+00 -0.00000000000E+00 -0.74505805969E-08  0.93827000000E+00  0.93827000000E+00 0.  1.
     999902    2    1    2    0    0 -0.59839921988E-03 -0.21036583063E-03 -0.21003448148E-01  0.10229169762E+01  0.10227011259E+01 0.  0.
     999903    2    3    3    0    0  0.87425512425E-03  0.15739692793E-01  0.12778072216E+00  0.13028418360E+00  0.19938738373E-01 0.  0.
         14    1    1    2    0    0  0.59839921988E-03  0.21036583063E-03  0.21003448148E-01  0.21013023807E-01  0.00000000000E+00 0.  1.
     999901    1    3    3    0    0 -0.14726543441E-02 -0.15950058624E-01 -0.14878417031E+00  0.89263279260E+00  0.88000000000E+00 0.  1.
        -11    1    4    4    0    0 -0.94078265807E-03 -0.43865539599E-02  0.37335315544E-01  0.37607364112E-01  0.51100000000E-03 0. -1.
         11    1    4    4    0    0  0.18150377823E-02  0.20126246753E-01  0.90445406619E-01  0.92676819486E-01  0.51100000000E-03 0.  1.
</event>
<event>
 8    1  0.1065239E+005  0.1043930E+01  0.7957747E-01            NaN
         13   -1    0    0    0    0  0.00000000000E+00  0.00000000000E+00  0.74505805969E-08  0.10566000000E+00  0.10566000000E+00 0.  1.
     999900   -1    0    0    0    0 -0.00000000000E+00 -0.00000000000E+00 -0.74505805969E-08  0.93827000000E+00  0.93827000000E+00 0.  1.
     999902    2    1    2    0    0 -0.18977936454E-01 -0.76029824069E-02  0.10804509990E-01  0.10208063141E+01  0.10205443773E+01 0.  0.
     999903    2    3    3    0    0  0.90193011125E-01  0.23629321158E-01  0.88670986342E-01  0.13010044754E+00  0.19247299999E-01 0.  0.
         14    1    1    2    0    0  0.18977936454E-01  0.76029824069E-02 -0.10804509990E-01  0.23123685902E-01  0.00000000000E+00 0. -1.
     999901    1    3    3    0    0 -0.10917094758E+00 -0.31232303565E-01 -0.77866476352E-01  0.89070586656E+00  0.88000000000E+00 0.  1.
        -11    1    4    4    0    0  0.53704234813E-01  0.44658560154E-02  0.53077056690E-01  0.75640754720E-01  0.51100000000E-03 0. -1.
         11    1    4    4    0    0  0.36488776312E-01  0.19163465142E-01  0.35593929652E-01  0.54459692820E-01  0.51100000000E-03 0.  1.
</event>
<event>
 8    1  0.1065239E+005  0.1043930E+01  0.7957747E-01            NaN
         13   -1    0    0    0    0  0.00000000000E+00  0.00000000000E+00  0.74505805969E-08  0.10566000000E+00  0.10566000000E+00 0.  1.
     999900   -1    0    0    0    0 -0.00000000000E+00 -0.00000000000E+00 -0.74505805969E-08  0.93827000000E+00  0.93827000000E+00 0. -1.
     999902    2    1    2    0    0  0.93337400895E-02 -0.69043340954E-02 -0.21328068220E-01  0.10196467748E+01  0.10193575772E+01 0.  0.
     999903    2    3    3    0    0  0.90474561197E-01 -0.22266830835E-01 -0.92613579340E-01  0.13291036340E+00  0.20160149866E-01 0.  0.
         14    1    1    2    0    0 -0.93337400895E-02  0.69043340954E-02  0.21328068220E-01  0.24283225225E-01  0.00000000000E+00 0.  1.
     999901    1    3    3    0    0 -0.81140821107E-01  0.15362496740E-01  0.71285511120E-01  0.88673641137E+00  0.88000000000E+00 0.  1.
        -11    1    4    4    0    0  0.90910185455E-02  0.26372964734E-02 -0.14887306395E-01  0.17649219914E-01  0.51100000000E-03 0. -1.
         11    1    4    4    0    0  0.81383542651E-01 -0.24904127309E-01 -0.77726272946E-01  0.11526114349E+00  0.51100000000E-03 0.  1.
</event>
<event>
 8    1  0.1065239E+005  0.1043930E+01  0.7957747E-01            NaN
         13   -1    0    0    0    0  0.00000000000E+00  0.00000000000E+00  0.74505805969E-08  0.10566000000E+00  0.10566000000E+00 0.  1.
     999900   -1    0    0    0    0 -0.00000000000E+00 -0.00000000000E+00 -0.74505805969E-08  0.93827000000E+00  0.93827000000E+00 0. -1.
     999902    2    1    2    0    0  0.33519752886E-02  0.10820590553E-01  0.17700497863E-01  0.10229150400E+01  0.10226991496E+01 0.  0.
     999903    2    3    3    0    0  0.11553235859E-01  0.10661026092E+00  0.80350034986E-01  0.13546482388E+00  0.19883797324E-01 0.  0.
         14    1    1    2    0    0 -0.33519752886E-02 -0.10820590553E-01 -0.17700497863E-01  0.21014959978E-01  0.00000000000E+00 0. -1.
     999901    1    3    3    0    0 -0.82012605704E-02 -0.95789670364E-01 -0.62649537123E-01  0.88745021614E+00  0.88000000000E+00 0. -1.
        -11    1    4    4    0    0  0.92070021396E-02  0.52635042208E-01  0.51508807180E-01  0.74220178487E-01  0.51100000000E-03 0. -1.
         11    1    4    4    0    0  0.23462337194E-02  0.53975218709E-01  0.28841227806E-01  0.61244645396E-01  0.51100000000E-03 0.  1.
</event>
<event>
 8    1  0.1065239E+005  0.1043930E+01  0.7957747E-01            NaN
         13   -1    0    0    0    0  0.00000000000E+00  0.00000000000E+00  0.74505805969E-08  0.10566000000E+00  0.10566000000E+00 0. -1.
     999900   -1    0    0    0    0 -0.00000000000E+00 -0.00000000000E+00 -0.74505805969E-08  0.93827000000E+00  0.93827000000E+00 0.  1.
     999902    2    1    2    0    0  0.42082000566E-02 -0.18000536711E-02 -0.21943923060E-01  0.10215138250E+01  0.10212678443E+01 0.  0.
     999903    2    3    3    0    0  0.61415259342E-01  0.46462833656E-01 -0.10809259895E+00  0.13414493427E+00  0.19499344909E-01 0.  0.
         14    1    1    2    0    0 -0.42082000566E-02  0.18000536711E-02  0.21943923060E-01  0.22416174968E-01  0.00000000000E+00 0. -1.
     999901    1    3    3    0    0 -0.57207059285E-01 -0.48262887327E-01  0.86148675892E-01  0.88736889076E+00  0.88000000000E+00 0. -1.
        -11    1    4    4    0    0  0.47082999493E-01  0.31945006279E-01 -0.64488766819E-01  0.86002060640E-01  0.51100000000E-03 0. -1.
         11    1    4    4    0    0  0.14332259849E-01  0.14517827377E-01 -0.43603832133E-01  0.48142873635E-01  0.51100000000E-03 0.  1.
</event>
<event>
 7    1  0.1065239E+005  0.1043930E+01  0.7957747E-01            NaN
         13   -1    0    0    0    0  0.00000000000E+00  0.00000000000E+00  0.74505805969E-08  0.10566000000E+00  0.10566000000E+00 0.  1.
     999900   -1    0    0    0    0 -0.00000000000E+00 -0.00000000000E+00 -0.74505805969E-08  0.93827000000E+00  0.93827000000E+00 0.  1.
     999903    2    1    2    0    0 -0.49235473554E-01  0.82741272568E-01 -0.37603261987E-01  0.10539162275E+00  0.20570337673E-01 0.  0.
         14    1    1    2    0    0 -0.42368178884E-01 -0.28219721994E-01  0.86264328144E-02  0.51631682468E-01  0.00000000000E+00 0.  1.
     999901    1    1    2    0    0  0.91603652438E-01 -0.54521550574E-01  0.28976829172E-01  0.88690669478E+00  0.88000000000E+00 0. -1.
        -11    1    3    3    0    0 -0.28748498248E-01  0.61501236414E-01 -0.18984672914E-01  0.70495086060E-01  0.51100000000E-03 0. -1.
         11    1    3    3    0    0 -0.20486975306E-01  0.21240036154E-01 -0.18618589073E-01  0.34896536692E-01  0.51100000000E-03 0.  1.
</event>
<event>
 8    1  0.1065239E+005  0.1043930E+01  0.7957747E-01            NaN
         13   -1    0    0    0    0  0.00000000000E+00  0.00000000000E+00  0.74505805969E-08  0.10566000000E+00  0.10566000000E+00 0.  1.
     999900   -1    0    0    0    0 -0.00000000000E+00 -0.00000000000E+00 -0.74505805969E-08  0.93827000000E+00  0.93827000000E+00 0.  1.
     999902    2    1    2    0    0 -0.18144748304E-01  0.11063735266E-01  0.24684873056E-03  0.10226767870E+01  0.10224559216E+01 0.  0.
     999903    2    3    3    0    0  0.12099037700E+00 -0.43161953759E-01  0.56523916107E-03  0.13009675706E+00  0.20572338810E-01 0.  0.
         14    1    1    2    0    0  0.18144748304E-01 -0.11063735266E-01 -0.24684873056E-03  0.21253213012E-01  0.00000000000E+00 0. -1.
     999901    1    3    3    0    0 -0.13913512531E+00  0.54225689025E-01 -0.31839043051E-03  0.89258002992E+00  0.88000000000E+00 0. -1.
        -11    1    4    4    0    0  0.10045843621E+00 -0.27228779054E-01 -0.39180482890E-03  0.10408514998E+00  0.51100000000E-03 0. -1.
         11    1    4    4    0    0  0.20531940788E-01 -0.15933174705E-01  0.95704398997E-03  0.26011607080E-01  0.51100000000E-03 0.  1.
</event>
<event>
 8    1  0.1065239E+005  0.1043930E+01  0.7957747E-01            NaN
         13   -1    0    0    0    0  0.00000000000E+00  0.00000000000E+00  0.74505805969E-08  0.10566000000E+00  0.10566000000E+00 0.  1.
     999900   -1    0    0    0    0 -0.00000000000E+00 -0.00000000000E+00 -0.74505805969E-08  0.93827000000E+00  0.93827000000E+00 0. -1.
     999902    2    1    2    0    0 -0.60406291866E-02  0.24917981450E-01 -0.39655740213E-02  0.10179854287E+01  0.10176547609E+01 0.  0.
     999903    2    3    3    0    0 -0.92518355038E-02  0.12954805463E+00 -0.81534138048E-02  0.13177140151E+00  0.20710605526E-01 0.  0.
         14    1    1    2    0    0  0.60406291866E-02 -0.24917981450E-01  0.39655740213E-02  0.25944571259E-01  0.00000000000E+00 0.  1.
     999901    1    3    3    0    0  0.32112063172E-02 -0.10463007318E+00  0.41878397835E-02  0.88621402723E+00  0.88000000000E+00 0. -1.
        -11    1    4    4    0    0 -0.15218486333E-01  0.10349291115E+00 -0.37310664295E-02  0.10467362113E+00  0.51100000000E-03 0. -1.
         11    1    4    4    0    0  0.59666508290E-02  0.26055143482E-01 -0.44223473752E-02  0.27097780376E-01  0.51100000000E-03 0.  1.
</event>
<event>
 8    1  0.1065239E+005  0.1043930E+01  0.7957747E-01            NaN
         13   -1    0    0    0    0  0.00000000000E+00  0.00000000000E+00  0.74505805969E-08  0.10566000000E+00  0.10566000000E+00 0. -1.
     999900   -1    0    0    0    0 -0.00000000000E+00 -0.00000000000E+00 -0.74505805969E-08  0.93827000000E+00  0.93827000000E+00 0. -1.
     999902    2    1    2    0    0  0.70813364620E-02  0.14350851117E-03 -0.23930758957E-01  0.10189730942E+01  0.10186674235E+01 0.  0.
     999903    2    3    3    0    0  0.42548262290E-02  0.31760698315E-02 -0.13077439974E+00  0.13250101393E+00  0.20649070210E-01 0.  0.
         14    1    1    2    0    0 -0.70813364620E-02 -0.14350851117E-03  0.23930758957E-01  0.24956905758E-01  0.00000000000E+00 0. -1.
     999901    1    3    3    0    0  0.28265102329E-02 -0.30325613203E-02  0.10684364078E+00  0.88647208031E+00  0.88000000000E+00 0.  1.
        -11    1    4    4    0    0  0.46791584150E-02 -0.54536618384E-02 -0.10625279086E+00  0.10649673064E+00  0.51100000000E-03 0.  1.
         11    1    4    4    0    0 -0.42433218602E-03  0.86297316698E-02 -0.24521608882E-01  0.26004283294E-01  0.51100000000E-03 0. -1.
</event>
<event>
 8    1  0.1065239E+005  0.1043930E+01  0.7957747E-01            NaN
         13   -1    0    0    0    0  0.00000000000E+00  0.00000000000E+00  0.74505805969E-08  0.10566000000E+00  0.10566000000E+00 0.  1.
     999900   -1    0    0    0    0 -0.00000000000E+00 -0.00000000000E+00 -0.74505805969E-08  0.93827000000E+00  0.93827000000E+00 0.  1.
     999902    2    1    2    0    0 -0.77277761015E-02 -0.94117839180E-02  0.19891775451E-01  0.10206065583E+01  0.10203400237E+01 0.  0.
     999903    2    3    3    0    0  0.89351221003E-01 -0.91102695109E-01 -0.19331065929E-01  0.13064241978E+00  0.20258578051E-01 0.  0.
         14    1    1    2    0    0  0.77277761015E-02  0.94117839180E-02 -0.19891775451E-01  0.23323441654E-01  0.00000000000E+00 0. -1.
     999901    1    3    3    0    0 -0.97078997105E-01  0.81690911191E-01  0.39222841380E-01  0.88996413857E+00  0.88000000000E+00 0.  1.
        -11    1    4    4    0    0  0.34470124499E-01 -0.24072014534E-01 -0.11862606342E-01  0.43687914998E-01  0.51100000000E-03 0.  1.
         11    1    4    4    0    0  0.54881096505E-01 -0.67030680575E-01 -0.74684595867E-02  0.86954504780E-01  0.51100000000E-03 0. -1.
</event>
<event>
 8    1  0.1065239E+005  0.1043930E+01  0.7957747E-01            NaN
         13   -1    0    0    0    0  0.00000000000E+00  0.00000000000E+00  0.74505805969E-08  0.10566000000E+00  0.10566000000E+00 0.  1.
     999900   -1    0    0    0    0 -0.00000000000E+00 -0.00000000000E+00 -0.74505805969E-08  0.93827000000E+00  0.93827000000E+00 0. -1.
     999902    2    1    2    0    0 -0.69933712796E-02  0.59536937147E-02  0.21809327173E-01  0.10202656711E+01  0.10199911956E+01 0.  0.
     999903    2    3    3    0    0  0.11577111858E+00  0.47469765610E-01  0.31267105479E-01  0.13072412976E+00  0.21326876768E-01 0.  0.
         14    1    1    2    0    0  0.69933712796E-02 -0.59536937147E-02 -0.21809327173E-01  0.23664328903E-01  0.00000000000E+00 0. -1.
     999901    1    3    3    0    0 -0.12276448986E+00 -0.41516071895E-01 -0.94577783061E-02  0.88954154134E+00  0.88000000000E+00 0. -1.
        -11    1    4    4    0    0  0.34722276450E-01  0.24537529755E-01  0.13763345789E-01  0.44692478748E-01  0.51100000000E-03 0. -1.
         11    1    4    4    0    0  0.81048842126E-01  0.22932235855E-01  0.17503759690E-01  0.86031651011E-01  0.51100000000E-03 0.  1.
</event>
<event>
 8    1  0.1065239E+005  0.1043930E+01  0.7957747E-01            NaN
         13   -1    0    0    0    0  0.00000000000E+00  0.00000000000E+00  0.74505805969E-08  0.10566000000E+00  0.10566000000E+00 0. -1.
     999900   -1    0    0    0    0 -0.00000000000E+00 -0.00000000000E+00 -0.74505805969E-08  0.93827000000E+00  0.93827000000E+00 0.  1.
     999902    2    1    2    0    0 -0.60591526673E-02  0.20260750718E-01 -0.11284506095E-01  0.10199601976E+01  0.10196785048E+01 0.  0.
     999903    2    3    3    0    0  0.67881115958E-01  0.10452484929E+00  0.36830980943E-01  0.13154435928E+00  0.20349626018E-01 0.  0.
         14    1    1    2    0    0  0.60591526673E-02 -0.20260750718E-01  0.11284506095E-01  0.23969802430E-01  0.00000000000E+00 0.  1.
     999901    1    3    3    0    0 -0.73940268626E-01 -0.84264098568E-01 -0.48115487039E-01  0.88841583829E+00  0.88000000000E+00 0.  1.
        -11    1    4    4    0    0  0.51401906813E-01  0.81970676473E-01  0.19601293459E-01  0.98720918005E-01  0.51100000000E-03 0. -1.
         11    1    4    4    0    0  0.16479209145E-01  0.22554172813E-01  0.17229687484E-01  0.32823441275E-01  0.51100000000E-03 0.  1.
</event>
<event>
 8    1  0.1065239E+005  0.1043930E+01  0.7957747E-01            NaN
         13   -1    0    0    0    0  0.00000000000E+00  0.00000000000E+00  0.74505805969E-08  0.10566000000E+00  0.10566000000E+00 0. -1.
     999900   -1    0    0    0    0 -0.00000000000E+00 -0.00000000000E+00 -0.74505805969E-08  0.93827000000E+00  0.93827000000E+00 0.  1.
     999902    2    1    2    0    0  0.22436770313E-01 -0.47991675782E-02 -0.79376635891E-02  0.10196514668E+01  0.10193623824E+01 0.  0.
     999903    2    3    3    0    0  0.51100922266E-01  0.10747383595E+00 -0.51195365308E-01  0.13100187911E+00  0.19457575146E-01 0.  0.
         14    1    1    2    0    0 -0.22436770313E-01  0.47991675782E-02  0.79376635891E-02  0.24278533209E-01  0.00000000000E+00 0.  1.
     999901    1    3    3    0    0 -0.28664151953E-01 -0.11227300353E+00  0.43257701718E-01  0.88864958768E+00  0.88000000000E+00 0.  1.
        -11    1    4    4    0    0  0.16546482198E-01  0.57420759929E-01 -0.25185784764E-01  0.64849939238E-01  0.51100000000E-03 0. -1.
         11    1    4    4    0    0  0.34554440067E-01  0.50053076023E-01 -0.26009580544E-01  0.66151939872E-01  0.51100000000E-03 0.  1.
</event>
<event>
 8    1  0.1065239E+005  0.1043930E+01  0.7957747E-01            NaN
         13   -1    0    0    0    0  0.00000000000E+00  0.00000000000E+00  0.74505805969E-08  0.10566000000E+00  0.10566000000E+00 0. -1.
     999900   -1    0    0    0    0 -0.00000000000E+00 -0.00000000000E+00 -0.74505805969E-08  0.93827000000E+00  0.93827000000E+00 0. -1.
     999902    2    1    2    0    0  0.21478584723E-01  0.98902622686E-02  0.27248095628E-03  0.10202821431E+01  0.10200080541E+01 0.  0.
     999903    2    3    3    0    0  0.52842974176E-01  0.12001645723E+00  0.69214359836E-02  0.13283878585E+00  0.20047613929E-01 0.  0.
         14    1    1    2    0    0 -0.21478584723E-01 -0.98902622686E-02 -0.27248095628E-03  0.23647856886E-01  0.00000000000E+00 0.  1.
     999901    1    3    3    0    0 -0.31364389453E-01 -0.11012619497E+00 -0.66489550273E-02  0.88744335726E+00  0.88000000000E+00 0.  1.
        -11    1    4    4    0    0 -0.28792848504E-04  0.58404605640E-02  0.37783684085E-02  0.69748833293E-02  0.51100000000E-03 0. -1.
         11    1    4    4    0    0  0.52871767024E-01  0.11417599667E+00  0.31430675751E-02  0.12586390252E+00  0.51100000000E-03 0.  1.
</event>
<event>
 8    1  0.1065239E+005  0.1043930E+01  0.7957747E-01            NaN
         13   -1    0    0    0    0  0.00000000000E+00  0.00000000000E+00  0.74505805969E-08  0.10566000000E+00  0.10566000000E+00 0. -1.
     999900   -1    0    0    0    0 -0.00000000000E+00 -0.00000000000E+00 -0.74505805969E-08  0.93827000000E+00  0.93827000000E+00 0.  1.
     999902    2    1    2    0    0 -0.71644222803E-02  0.18605025366E-01  0.12387283042E-01  0.10204583001E+01  0.10201883265E+01 0.  0.
     999903    2    3    3    0    0  0.48091564753E-01  0.11740663424E+00  0.35353579618E-01  0.13290974773E+00  0.17832809225E-01 0.  0.
         14    1    1    2    0    0  0.71644222803E-02 -0.18605025366E-01 -0.12387283042E-01  0.23471699910E-01  0.00000000000E+00 0.  1.
     999901    1    3    3    0    0 -0.55255987033E-01 -0.98801608878E-01 -0.22966296576E-01  0.88754855236E+00  0.88000000000E+00 0. -1.
        -11    1    4    4    0    0  0.33377825006E-01  0.71690428629E-01  0.30014003550E-01  0.84585449631E-01  0.51100000000E-03 0. -1.
         11    1    4    4    0    0  0.14713739747E-01  0.45716205614E-01  0.53395760682E-02  0.48324298098E-01  0.51100000000E-03 0.  1.
</event>
<event>
 8    1  0.1065239E+005  0.1043930E+01  0.7957747E-01            NaN
         13   -1    0    0    0    0  0.00000000000E+00  0.00000000000E+00  0.74505805969E-08  0.10566000000E+00  0.10566000000E+00 0.  1.
     999900   -1    0    0    0    0 -0.00000000000E+00 -0.00000000000E+00 -0.74505805969E-08  0.93827000000E+00  0.93827000000E+00 0.  1.
     999902    2    1    2    0    0 -0.76454537431E-02  0.18956311731E-01 -0.12530194251E-01  0.10199550029E+01  0.10196731866E+01 0.  0.
     999903    2    3    3    0    0 -0.73173853576E-02  0.12786249239E+00  0.21299640934E-01  0.13259649500E+00  0.26940577097E-01 0.  0.
         14    1    1    2    0    0  0.76454537431E-02 -0.18956311731E-01  0.12530194251E-01  0.23974997088E-01  0.00000000000E+00 0. -1.
     999901    1    3    3    0    0 -0.32806838551E-03 -0.10890618066E+00 -0.33829835185E-01  0.88735850791E+00  0.88000000000E+00 0.  1.
        -11    1    4    4    0    0 -0.17420313643E-01  0.75111931562E-01  0.10652217304E-01  0.77839581479E-01  0.51100000000E-03 0.  1.
         11    1    4    4    0    0  0.10102928285E-01  0.52750560826E-01  0.10647423631E-01  0.54756913521E-01  0.51100000000E-03 0. -1.
</event>
<event>
 8    1  0.1065239E+005  0.1043930E+01  0.7957747E-01            NaN
         13   -1    0    0    0    0  0.00000000000E+00  0.00000000000E+00  0.74505805969E-08  0.10566000000E+00  0.10566000000E+00 0. -1.
     999900   -1    0    0    0    0 -0.00000000000E+00 -0.00000000000E+00 -0.74505805969E-08  0.93827000000E+00  0.93827000000E+00 0. -1.
     999902    2    1    2    0    0 -0.95356630575E-02  0.11184264300E-01 -0.20661577872E-01  0.10185741833E+01  0.10182585377E+01 0.  0.
     999903    2    3    3    0    0  0.21269166900E-01  0.67054734164E-01  0.10428555474E+00  0.12746126520E+00  0.20547076785E-01 0.  0.
         14    1    1    2    0    0  0.95356630575E-02 -0.11184264300E-01  0.20661577872E-01  0.25355816651E-01  0.00000000000E+00 0. -1.
     999901    1    3    3    0    0 -0.30804829957E-01 -0.55870469863E-01 -0.12494713261E+00  0.89111291815E+00  0.88000000000E+00 0. -1.
        -11    1    4    4    0    0  0.12621533444E-01  0.16675053672E-01  0.20351308276E-01  0.29185568198E-01  0.51100000000E-03 0.  1.
         11    1    4    4    0    0  0.86476334559E-02  0.50379680491E-01  0.83934246460E-01  0.98275696999E-01  0.51100000000E-03 0. -1.
</event>
<event>
 8    1  0.1065239E+005  0.1043930E+01  0.7957747E-01            NaN
         13   -1    0    0    0    0  0.00000000000E+00  0.00000000000E+00  0.74505805969E-08  0.10566000000E+00  0.10566000000E+00 0. -1.
     999900   -1    0    0    0    0 -0.00000000000E+00 -0.00000000000E+00 -0.74505805969E-08  0.93827000000E+00  0.93827000000E+00 0.  1.
     999902    2    1    2    0    0  0.24280004798E-01  0.24960116789E-02  0.44877612784E-02  0.10191128948E+01  0.10188106810E+01 0.  0.
     999903    2    3    3    0    0 -0.10494612888E-01 -0.10030962420E-01 -0.12626669249E+00  0.12868438772E+00  0.20140429590E-01 0.  0.
         14    1    1    2    0    0 -0.24280004798E-01 -0.24960116789E-02 -0.44877612784E-02  0.24817105161E-01  0.00000000000E+00 0. -1.
     999901    1    3    3    0    0  0.34774617686E-01  0.12526974099E-01  0.13075445376E+00  0.89042850712E+00  0.88000000000E+00 0. -1.
        -11    1    4    4    0    0  0.35363436042E-02 -0.94257500276E-02 -0.38403461493E-01  0.39704375896E-01  0.51100000000E-03 0. -1.
         11    1    4    4    0    0 -0.14030956492E-01 -0.60521239249E-03 -0.87863230993E-01  0.88980011821E-01  0.51100000000E-03 0.  1.
</event>
<event>
 8    1  0.1065239E+005  0.1043930E+01  0.7957747E-01            NaN
         13   -1    0    0    0    0  0.00000000000E+00  0.00000000000E+00  0.74505805969E-08  0.10566000000E+00  0.10566000000E+00 0. -1.
     999900   -1    0    0    0    0 -0.00000000000E+00 -0.00000000000E+00 -0.74505805969E-08  0.93827000000E+00  0.93827000000E+00 0. -1.
     999902    2    1    2    0    0  0.35026291242E-02  0.22808188258E-01  0.47099689484E-02  0.10203786589E+01  0.10201068286E+01 0.  0.
     999903    2    3    3    0    0  0.21419726726E-01  0.81394118505E-02 -0.12679572066E+00  0.13030566084E+00  0.19425646763E-01 0.  0.
         14    1    1    2    0    0 -0.35026291242E-02 -0.22808188258E-01 -0.47099689484E-02  0.23551341148E-01  0.00000000000E+00 0. -1.
     999901    1    3    3    0    0 -0.17917097602E-01  0.14668776407E-01  0.13150568961E+00  0.89007299801E+00  0.88000000000E+00 0.  1.
        -11    1    4    4    0    0  0.11065792782E-01  0.26820923521E-02 -0.21267036448E-01  0.24128683129E-01  0.51100000000E-03 0. -1.
         11    1    4    4    0    0  0.10353933944E-01  0.54573194984E-02 -0.10552868421E+00  0.10617697771E+00  0.51100000000E-03 0.  1.
</event>
<event>
 8    1  0.1069775E+005  0.1043930E+01  0.7957747E-01            NaN
         13   -1    0    0    0    0  0.00000000000E+00  0.00000000000E+00  0.74505805969E-08  0.10566000000E+00  0.10566000000E+00 0.  1.
     999900   -1    0    0    0    0 -0.00000000000E+00 -0.00000000000E+00 -0.74505805969E-08  0.93827000000E+00  0.93827000000E+00 0. -1.
     999902    2    1    2    0    0  0.16707814987E-01  0.10677385247E-01 -0.14204471008E-01  0.10195389231E+01  0.10192471197E+01 0.  0.
     999903    2    3    3    0    0  0.12859158798E+00  0.23771511610E-01  0.67639761280E-03  0.13223352183E+00  0.19605242147E-01 0.  0.
         14    1    1    2    0    0 -0.16707814987E-01 -0.10677385247E-01  0.14204471008E-01  0.24391076934E-01  0.00000000000E+00 0.  1.
     999901    1    3    3    0    0 -0.11188377299E+00 -0.13094126363E-01 -0.14880868621E-01  0.88730540123E+00  0.88000000000E+00 0.  1.
        -11    1    4    4    0    0  0.76782942719E-01  0.23260491910E-01  0.38492831085E-02  0.80322779322E-01  0.51100000000E-03 0. -1.
         11    1    4    4    0    0  0.51808645261E-01  0.51101970064E-03 -0.31728854957E-02  0.51910742513E-01  0.51100000000E-03 0.  1.
</event>
<event>
 8    1  0.1065239E+005  0.1043930E+01  0.7957747E-01            NaN
         13   -1    0    0    0    0  0.00000000000E+00  0.00000000000E+00  0.74505805969E-08  0.10566000000E+00  0.10566000000E+00 0.  1.
     999900   -1    0    0    0    0 -0.00000000000E+00 -0.00000000000E+00 -0.74505805969E-08  0.93827000000E+00  0.93827000000E+00 0. -1.
     999902    2    1    2    0    0  0.98998168528E-03 -0.22464900273E-01 -0.76690571494E-02  0.10201715016E+01  0.10198948115E+01 0.  0.
     999903    2    3    3    0    0  0.11635352556E+00  0.31949723214E-01 -0.44574461515E-01  0.13020986908E+00  0.20218794838E-01 0.  0.
         14    1    1    2    0    0 -0.98998168528E-03  0.22464900273E-01  0.76690571494E-02  0.23758498387E-01  0.00000000000E+00 0.  1.
     999901    1    3    3    0    0 -0.11536354387E+00 -0.54414623487E-01  0.36905404366E-01  0.88996163253E+00  0.88000000000E+00 0. -1.
        -11    1    4    4    0    0  0.83605078144E-01  0.15285744504E-01 -0.36961813649E-01  0.92681712683E-01  0.51100000000E-03 0. -1.
         11    1    4    4    0    0  0.32748447411E-01  0.16663978710E-01 -0.76126478658E-02  0.37528156401E-01  0.51100000000E-03 0.  1.
</event>
<event>
 8    1  0.1065239E+005  0.1043930E+01  0.7957747E-01            NaN
         13   -1    0    0    0    0  0.00000000000E+00  0.00000000000E+00  0.74505805969E-08  0.10566000000E+00  0.10566000000E+00 0.  1.
     999900   -1    0    0    0    0 -0.00000000000E+00 -0.00000000000E+00 -0.74505805969E-08  0.93827000000E+00  0.93827000000E+00 0.  1.
     999902    2    1    2    0    0  0.16534816649E-01  0.17482015109E-01  0.32186565415E-03  0.10198649920E+01  0.10195810302E+01 0.  0.
     999903    2    3    3    0    0 -0.12524346143E+00  0.21628530269E-02  0.12974112827E-01  0.12829568103E+00  0.24512274519E-01 0.  0.
         14    1    1    2    0    0 -0.16534816649E-01 -0.17482015109E-01 -0.32186565415E-03  0.24065008028E-01  0.00000000000E+00 0. -1.
     999901    1    3    3    0    0  0.14177827808E+00  0.15319162082E-01 -0.12652247172E-01  0.89156931095E+00  0.88000000000E+00 0. -1.
        -11    1    4    4    0    0 -0.47418268577E-01 -0.87088576356E-02  0.12095901463E-01  0.49708232209E-01  0.51100000000E-03 0. -1.
         11    1    4    4    0    0 -0.77825192853E-01  0.10871710663E-01  0.87821136348E-03  0.78587448816E-01  0.51100000000E-03 0.  1.
</event>
<event>
 8    1  0.1065239E+005  0.1043930E+01  0.7957747E-01            NaN
         13   -1    0    0    0    0  0.00000000000E+00  0.00000000000E+00  0.74505805969E-08  0.10566000000E+00  0.10566000000E+00 0. -1.
     999900   -1    0    0    0    0 -0.00000000000E+00 -0.00000000000E+00 -0.74505805969E-08  0.93827000000E+00  0.93827000000E+00 0.  1.
     999902    2    1    2    0    0 -0.17518284715E-01  0.12770491229E-01  0.79557262915E-02  0.10208373751E+01  0.10205761495E+01 0.  0.
     999903    2    3    3    0    0 -0.12947111763E-01  0.41572333204E-01  0.12386294814E+00  0.13275802850E+00  0.19666662592E-01 0.  0.
         14    1    1    2    0    0  0.17518284715E-01 -0.12770491229E-01 -0.79557262915E-02  0.23092624936E-01  0.00000000000E+00 0.  1.
     999901    1    3    3    0    0 -0.45711729524E-02 -0.28801841974E-01 -0.11590722185E+00  0.88807934657E+00  0.88000000000E+00 0.  1.
        -11    1    4    4    0    0 -0.12329530618E-01  0.14269803038E-01  0.68098823405E-01  0.70663678606E-01  0.51100000000E-03 0. -1.
         11    1    4    4    0    0 -0.61758114509E-03  0.27302530166E-01  0.55764124735E-01  0.62094349891E-01  0.51100000000E-03 0.  1.
</event>
<event>
 8    1  0.1065239E+005  0.1043930E+01  0.7957747E-01            NaN
         13   -1    0    0    0    0  0.00000000000E+00  0.00000000000E+00  0.74505805969E-08  0.10566000000E+00  0.10566000000E+00 0. -1.
     999900   -1    0    0    0    0 -0.00000000000E+00 -0.00000000000E+00 -0.74505805969E-08  0.93827000000E+00  0.93827000000E+00 0. -1.
     999902    2    1    2    0    0 -0.91356704185E-02 -0.16692717969E-01 -0.15632660461E-01  0.10193030355E+01  0.10190054911E+01 0.  0.
     999903    2    3    3    0    0 -0.16892915650E-01 -0.10069025693E+00 -0.81875508906E-01  0.13279083797E+00  0.22492426501E-01 0.  0.
         14    1    1    2    0    0  0.91356704185E-02  0.16692717969E-01  0.15632660461E-01  0.24626964496E-01  0.00000000000E+00 0. -1.
     999901    1    3    3    0    0  0.77572452315E-02  0.83997538964E-01  0.66242848445E-01  0.88651219753E+00  0.88000000000E+00 0.  1.
        -11    1    4    4    0    0 -0.31106404862E-02 -0.21090664226E-01 -0.64783513316E-02  0.22287268982E-01  0.51100000000E-03 0.  1.
         11    1    4    4    0    0 -0.13782275164E-01 -0.79599592708E-01 -0.75397157574E-01  0.11050356899E+00  0.51100000000E-03 0. -1.
</event>
<event>
 8    1  0.1065239E+005  0.1043930E+01  0.7957747E-01            NaN
         13   -1    0    0    0    0  0.00000000000E+00  0.00000000000E+00  0.74505805969E-08  0.10566000000E+00  0.10566000000E+00 0. -1.
     999900   -1    0    0    0    0 -0.00000000000E+00 -0.00000000000E+00 -0.74505805969E-08  0.93827000000E+00  0.93827000000E+00 0. -1.
     999902    2    1    2    0    0 -0.15959399254E-01 -0.89597179172E-03  0.20149989299E-01  0.10182098278E+01  0.10178849278E+01 0.  0.
     999903    2    3    3    0    0 -0.99142768897E-01 -0.80522255197E-01  0.20951112095E-01  0.13070745608E+00  0.18230956334E-01 0.  0.
         14    1    1    2    0    0  0.15959399254E-01  0.89597179172E-03 -0.20149989299E-01  0.25720172214E-01  0.00000000000E+00 0. -1.
     999901    1    3    3    0    0  0.83183369644E-01  0.79626283406E-01 -0.80112279669E-03  0.88750237171E+00  0.88000000000E+00 0. -1.
        -11    1    4    4    0    0 -0.70327844636E-01 -0.45959094980E-01  0.13458284465E-01  0.85086019323E-01  0.51100000000E-03 0. -1.
         11    1    4    4    0    0 -0.28814924261E-01 -0.34563160217E-01  0.74928276309E-02  0.45621436752E-01  0.51100000000E-03 0.  1.
</event>
<event>
 8    1  0.1065239E+005  0.1043930E+01  0.7957747E-01            NaN
         13   -1    0    0    0    0  0.00000000000E+00  0.00000000000E+00  0.74505805969E-08  0.10566000000E+00  0.10566000000E+00 0.  1.
     999900   -1    0    0    0    0 -0.00000000000E+00 -0.00000000000E+00 -0.74505805969E-08  0.93827000000E+00  0.93827000000E+00 0. -1.
     999902    2    1    2    0    0 -0.15432697622E-01  0.77414284255E-02 -0.17546659343E-01  0.10193132755E+01  0.10190159815E+01 0.  0.
     999903    2    3    3    0    0  0.42196883036E-01 -0.64379510635E-01  0.98688269651E-01  0.12688223777E+00  0.20842969273E-01 0.  0.
         14    1    1    2    0    0  0.15432697622E-01 -0.77414284255E-02  0.17546659343E-01  0.24616724478E-01  0.00000000000E+00 0.  1.
     999901    1    3    3    0    0 -0.57629580658E-01  0.72120939061E-01 -0.11623492899E+00  0.89243103775E+00  0.88000000000E+00 0. -1.
        -11    1    4    4    0    0  0.24910487962E-01 -0.22234412023E-01  0.50745088436E-01  0.60747235409E-01  0.51100000000E-03 0.  1.
         11    1    4    4    0    0  0.17286395074E-01 -0.42145098612E-01  0.47943181215E-01  0.66135002364E-01  0.51100000000E-03 0. -1.
</event>
<event>
 8    1  0.1065239E+005  0.1043930E+01  0.7957747E-01            NaN
         13   -1    0    0    0    0  0.00000000000E+00  0.00000000000E+00  0.74505805969E-08  0.10566000000E+00  0.10566000000E+00 0.  1.
     999900   -1    0    0    0    0 -0.00000000000E+00 -0.00000000000E+00 -0.74505805969E-08  0.93827000000E+00  0.93827000000E+00 0. -1.
     999902    2    1    2    0    0 -0.18045508286E-01 -0.30189249260E-02 -0.16729468177E-01  0.10191382800E+01  0.10188366917E+01 0.  0.
     999903    2    3    3    0    0 -0.39479131313E-01 -0.12225404328E+00 -0.14824191961E-01  0.13083650482E+00  0.19843926453E-01 0.  0.
         14    1    1    2    0    0  0.18045508286E-01  0.30189249260E-02  0.16729468177E-01  0.24791720039E-01  0.00000000000E+00 0.  1.
     999901    1    3    3    0    0  0.21433623028E-01  0.11923511836E+00 -0.19052762159E-02  0.88830177514E+00  0.88000000000E+00 0. -1.
        -11    1    4    4    0    0 -0.27209885881E-01 -0.10692163238E+00 -0.11771599643E-01  0.11095695129E+00  0.51100000000E-03 0. -1.
         11    1    4    4    0    0 -0.12269245432E-01 -0.15332410906E-01 -0.30525923178E-02  0.19879553529E-01  0.51100000000E-03 0.  1.
</event>
<event>
 8    1  0.1065239E+005  0.1043930E+01  0.7957747E-01            NaN
         13   -1    0    0    0    0  0.00000000000E+00  0.00000000000E+00  0.74505805969E-08  0.10566000000E+00  0.10566000000E+00 0. -1.
     999900   -1    0    0    0    0 -0.00000000000E+00 -0.00000000000E+00 -0.74505805969E-08  0.93827000000E+00  0.93827000000E+00 0.  1.
     999902    2    1    2    0    0  0.14726665809E-01 -0.82624990928E-02 -0.16098100947E-01  0.10205999243E+01  0.10203332363E+01 0.  0.
     999903    2    3    3    0    0  0.12515118924E+00  0.62943735289E-02 -0.40500518085E-01  0.13324376365E+00  0.20277309513E-01 0.  0.
         14    1    1    2    0    0 -0.14726665809E-01  0.82624990928E-02  0.16098100947E-01  0.23330075679E-01  0.00000000000E+00 0.  1.
     999901    1    3    3    0    0 -0.11042452343E+00 -0.14556872622E-01  0.24402417138E-01  0.88735616067E+00  0.88000000000E+00 0. -1.
        -11    1    4    4    0    0  0.44209382935E-01  0.80250888635E-02 -0.22721357758E-01  0.50352684240E-01  0.51100000000E-03 0. -1.
         11    1    4    4    0    0  0.80941806303E-01 -0.17307153346E-02 -0.17779160327E-01  0.82891079412E-01  0.51100000000E-03 0.  1.
</event>
<event>
 8    1  0.1065239E+005  0.1043930E+01  0.7957747E-01            NaN
         13   -1    0    0    0    0  0.00000000000E+00  0.00000000000E+00  0.74505805969E-08  0.10566000000E+00  0.10566000000E+00 0.  1.
     999900   -1    0    0    0    0 -0.00000000000E+00 -0.00000000000E+00 -0.74505805969E-08  0.93827000000E+00  0.93827000000E+00 0.  1.
     999902    2    1    2    0    0 -0.14880541716E-01 -0.17911054025E-01 -0.54784967993E-03  0.10206375867E+01  0.10203717689E+01 0.  0.
     999903    2    3    3    0    0 -0.16830204013E-01 -0.10724591311E+00  0.74118719393E-01  0.13296669343E+00  0.20040343091E-01 0.  0.
         14    1    1    2    0    0  0.14880541716E-01  0.17911054025E-01  0.54784967993E-03  0.23292413299E-01  0.00000000000E+00 0.  1.
     999901    1    3    3    0    0  0.19496622977E-02  0.89334859081E-01 -0.74666569073E-01  0.88767089327E+00  0.88000000000E+00 0.  1.
        -11    1    4    4    0    0 -0.11404428297E-01 -0.42971317084E-01  0.40890832969E-01  0.60406261419E-01  0.51100000000E-03 0. -1.
         11    1    4    4    0    0 -0.54257757163E-02 -0.64274596022E-01  0.33227886424E-01  0.72560432007E-01  0.51100000000E-03 0.  1.
</event>
<event>
 8    1  0.1065239E+005  0.1043930E+01  0.7957747E-01            NaN
         13   -1    0    0    0    0  0.00000000000E+00  0.00000000000E+00  0.74505805969E-08  0.10566000000E+00  0.10566000000E+00 0. -1.
     999900   -1    0    0    0    0 -0.00000000000E+00 -0.00000000000E+00 -0.74505805969E-08  0.93827000000E+00  0.93827000000E+00 0.  1.
     999902    2    1    2    0    0 -0.21062789416E-01  0.81094016099E-03 -0.12553574568E-01  0.10193965340E+01  0.10191012719E+01 0.  0.
     999903    2    3    3    0    0 -0.12338641249E+00 -0.22623686172E-01 -0.38246536931E-01  0.13278532611E+00  0.20811229658E-01 0.  0.
         14    1    1    2    0    0  0.21062789416E-01 -0.81094016099E-03  0.12553574568E-01  0.24533466049E-01  0.00000000000E+00 0. -1.
     999901    1    3    3    0    0  0.10232362308E+00  0.23434626333E-01  0.25692962363E-01  0.88661120784E+00  0.88000000000E+00 0. -1.
        -11    1    4    4    0    0 -0.85464533597E-01 -0.24662493487E-01 -0.30389067343E-01  0.94000966074E-01  0.51100000000E-03 0.  1.
         11    1    4    4    0    0 -0.37921878895E-01  0.20388073156E-02 -0.78574695874E-02  0.38784360038E-01  0.51100000000E-03 0. -1.
</event>
<event>
 8    1  0.1065239E+005  0.1043930E+01  0.7957747E-01            NaN
         13   -1    0    0    0    0  0.00000000000E+00  0.00000000000E+00  0.74505805969E-08  0.10566000000E+00  0.10566000000E+00 0. -1.
     999900   -1    0    0    0    0 -0.00000000000E+00 -0.00000000000E+00 -0.74505805969E-08  0.93827000000E+00  0.93827000000E+00 0.  1.
     999902    2    1    2    0    0  0.18209232013E-01  0.13671340175E-01 -0.63476327909E-02  0.10202915966E+01  0.10200177293E+01 0.  0.
     999903    2    3    3    0    0  0.63676899438E-01  0.61581377267E-01  0.95613716000E-01  0.13194549453E+00  0.20508956371E-01 0.  0.
         14    1    1    2    0    0 -0.18209232013E-01 -0.13671340175E-01  0.63476327909E-02  0.23638403388E-01  0.00000000000E+00 0.  1.
     999901    1    3    3    0    0 -0.45467667425E-01 -0.47910037092E-01 -0.10196134879E+00  0.88834610208E+00  0.88000000000E+00 0.  1.
        -11    1    4    4    0    0  0.30474196287E-01  0.15790510929E-01  0.34307616813E-01  0.48531335930E-01  0.51100000000E-03 0. -1.
         11    1    4    4    0    0  0.33202703151E-01  0.45790866339E-01  0.61306099188E-01  0.83414158601E-01  0.51100000000E-03 0.  1.
</event>
<event>
 8    1  0.1065239E+005  0.1043930E+01  0.7957747E-01            NaN
         13   -1    0    0    0    0  0.00000000000E+00  0.00000000000E+00  0.74505805969E-08  0.10566000000E+00  0.10566000000E+00 0.  1.
     999900   -1    0    0    0    0 -0.00000000000E+00 -0.00000000000E+00 -0.74505805969E-08  0.93827000000E+00  0.93827000000E+00 0. -1.
     999902    2    1    2    0    0  0.30679289396E-02  0.12461291235E-01  0.18763745857E-01  0.10211973335E+01  0.10209442785E+01 0.  0.
     999903    2    3    3    0    0  0.98438975635E-01  0.80808359810E-01 -0.28891268903E-01  0.13213155486E+00  0.20095258940E-01 0.  0.
         14    1    1    2    0    0 -0.30679289396E-02 -0.12461291235E-01 -0.18763745857E-01  0.22732666491E-01  0.00000000000E+00 0.  1.
     999901    1    3    3    0    0 -0.95371046695E-01 -0.68347068576E-01  0.47655014760E-01  0.88906577865E+00  0.88000000000E+00 0.  1.
        -11    1    4    4    0    0  0.26113839717E-01  0.26986235922E-01 -0.16895950399E-01  0.41181595585E-01  0.51100000000E-03 0.  1.
         11    1    4    4    0    0  0.72325135917E-01  0.53822123888E-01 -0.11995318504E-01  0.90949959276E-01  0.51100000000E-03 0. -1.
</event>
<event>
 8    1  0.1065239E+005  0.1043930E+01  0.7957747E-01            NaN
         13   -1    0    0    0    0  0.00000000000E+00  0.00000000000E+00  0.74505805969E-08  0.10566000000E+00  0.10566000000E+00 0.  1.
     999900   -1    0    0    0    0 -0.00000000000E+00 -0.00000000000E+00 -0.74505805969E-08  0.93827000000E+00  0.93827000000E+00 0.  1.
     999902    2    1    2    0    0 -0.53272720791E-02 -0.55527339694E-02 -0.21658758540E-01  0.10209449069E+01  0.10206861361E+01 0.  0.
     999903    2    3    3    0    0 -0.10523069260E+00  0.46142673221E-01  0.58633292977E-01  0.13015878102E+00  0.17343594618E-01 0.  0.
         14    1    1    2    0    0  0.53272720791E-02  0.55527339694E-02  0.21658758540E-01  0.22985093078E-01  0.00000000000E+00 0.  1.
     999901    1    3    3    0    0  0.99903420524E-01 -0.51695407190E-01 -0.80292051517E-01  0.89078612590E+00  0.88000000000E+00 0.  1.
        -11    1    4    4    0    0 -0.39130279994E-01  0.96372783095E-02  0.25532563575E-01  0.47709840383E-01  0.51100000000E-03 0.  1.
         11    1    4    4    0    0 -0.66100412610E-01  0.36505394911E-01  0.33100729402E-01  0.82448940640E-01  0.51100000000E-03 0. -1.
</event>
<event>
 8    1  0.1065239E+005  0.1043930E+01  0.7957747E-01            NaN
         13   -1    0    0    0    0  0.00000000000E+00  0.00000000000E+00  0.74505805969E-08  0.10566000000E+00  0.10566000000E+00 0. -1.
     999900   -1    0    0    0    0 -0.00000000000E+00 -0.00000000000E+00 -0.74505805969E-08  0.93827000000E+00  0.93827000000E+00 0. -1.
     999902    2    1    2    0    0  0.21219028031E-01  0.90202627184E-02 -0.47116416984E-02  0.10203967925E+01  0.10201253855E+01 0.  0.
     999903    2    3    3    0    0  0.91605040887E-01 -0.41519680602E-01 -0.84223934170E-01  0.13257322815E+00  0.19147384707E-01 0.  0.
         14    1    1    2    0    0 -0.21219028031E-01 -0.90202627184E-02  0.47116416984E-02  0.23533207550E-01  0.00000000000E+00 0. -1.
     999901    1    3    3    0    0 -0.70386012857E-01  0.50539943321E-01  0.79512292472E-01  0.88782356430E+00  0.88000000000E+00 0.  1.
        -11    1    4    4    0    0  0.49813142218E-01 -0.13249461550E-01 -0.48232097356E-01  0.70593864502E-01  0.51100000000E-03 0.  1.
         11    1    4    4    0    0  0.41791898669E-01 -0.28270219052E-01 -0.35991836815E-01  0.61979363646E-01  0.51100000000E-03 0. -1.
</event>
<event>
 8    1  0.1065239E+005  0.1043930E+01  0.7957747E-01            NaN
         13   -1    0    0    0    0  0.00000000000E+00  0.00000000000E+00  0.74505805969E-08  0.10566000000E+00  0.10566000000E+00 0.  1.
     999900   -1    0    0    0    0 -0.00000000000E+00 -0.00000000000E+00 -0.74505805969E-08  0.93827000000E+00  0.93827000000E+00 0.  1.
     999902    2    1    2    0    0  0.13516608590E-01  0.17813800120E-01  0.11102739467E-01  0.10189640030E+01  0.10186581067E+01 0.  0.
     999903    2    3    3    0    0 -0.11108464863E-01 -0.11581004520E+00 -0.41349766443E-01  0.12699259558E+00  0.29697669708E-01 0.  0.
         14    1    1    2    0    0 -0.13516608590E-01 -0.17813800120E-01 -0.11102739467E-01  0.24965996999E-01  0.00000000000E+00 0. -1.
     999901    1    3    3    0    0  0.24625073453E-01  0.13362384532E+00  0.52452505909E-01  0.89197140742E+00  0.88000000000E+00 0. -1.
        -11    1    4    4    0    0 -0.20432616293E-01 -0.62045406205E-01 -0.25959971511E-01  0.70294419989E-01  0.51100000000E-03 0.  1.
         11    1    4    4    0    0  0.93241514300E-02 -0.53764638997E-01 -0.15389794932E-01  0.56698175591E-01  0.51100000000E-03 0. -1.
</event>
<event>
 8    1  0.1065239E+005  0.1043930E+01  0.7957747E-01            NaN
         13   -1    0    0    0    0  0.00000000000E+00  0.00000000000E+00  0.74505805969E-08  0.10566000000E+00  0.10566000000E+00 0. -1.
     999900   -1    0    0    0    0 -0.00000000000E+00 -0.00000000000E+00 -0.74505805969E-08  0.93827000000E+00  0.93827000000E+00 0.  1.
     999902    2    1    2    0    0 -0.80694679864E-02  0.21204445936E-01  0.66891984459E-02  0.10202764545E+01  0.10200022320E+01 0.  0.
     999903    2    3    3    0    0 -0.44270858229E-01  0.77141670130E-01 -0.95061137402E-01  0.13191130174E+00  0.21289094029E-01 0.  0.
         14    1    1    2    0    0  0.80694679864E-02 -0.21204445936E-01 -0.66891984459E-02  0.23653545546E-01  0.00000000000E+00 0.  1.
     999901    1    3    3    0    0  0.36201390242E-01 -0.55937224194E-01  0.10175033585E+00  0.88836515271E+00  0.88000000000E+00 0. -1.
        -11    1    4    4    0    0 -0.81335121439E-02  0.32040193657E-01 -0.27504404430E-01  0.43005597466E-01  0.51100000000E-03 0.  1.
         11    1    4    4    0    0 -0.36137346085E-01  0.45101476474E-01 -0.67556732972E-01  0.88905704277E-01  0.51100000000E-03 0. -1.
</event>
<event>
 8    1  0.1065239E+005  0.1043930E+01  0.7957747E-01            NaN
         13   -1    0    0    0    0  0.00000000000E+00  0.00000000000E+00  0.74505805969E-08  0.10566000000E+00  0.10566000000E+00 0. -1.
     999900   -1    0    0    0    0 -0.00000000000E+00 -0.00000000000E+00 -0.74505805969E-08  0.93827000000E+00  0.93827000000E+00 0. -1.
     999902    2    1    2    0    0 -0.17040166424E-01  0.77863658565E-02  0.15919914459E-01  0.10193446702E+01  0.10190481432E+01 0.  0.
     999903    2    3    3    0    0  0.18401865688E-01  0.11621925364E+00 -0.50143021013E-01  0.12952550866E+00  0.20420363913E-01 0.  0.
         14    1    1    2    0    0  0.17040166424E-01 -0.77863658565E-02 -0.15919914459E-01  0.24585329800E-01  0.00000000000E+00 0.  1.
     999901    1    3    3    0    0 -0.35442032112E-01 -0.10843288778E+00  0.66062935471E-01  0.88981916154E+00  0.88000000000E+00 0.  1.
        -11    1    4    4    0    0  0.12256794819E-01  0.24510803743E-01 -0.92994682077E-02  0.28943906946E-01  0.51100000000E-03 0.  1.
         11    1    4    4    0    0  0.61450708692E-02  0.91708449892E-01 -0.40843552805E-01  0.10058160172E+00  0.51100000000E-03 0. -1.
</event>
<event>
 8    1  0.1065239E+005  0.1043930E+01  0.7957747E-01            NaN
         13   -1    0    0    0    0  0.00000000000E+00  0.00000000000E+00  0.74505805969E-08  0.10566000000E+00  0.10566000000E+00 0.  1.
     999900   -1    0    0    0    0 -0.00000000000E+00 -0.00000000000E+00 -0.74505805969E-08  0.93827000000E+00  0.93827000000E+00 0. -1.
     999902    2    1    2    0    0  0.89762193927E-02 -0.20123496508E-01 -0.99471864404E-02  0.10197540999E+01  0.10194674836E+01 0.  0.
     999903    2    3    3    0    0 -0.96065119262E-01  0.81533120106E-01  0.62820095298E-02  0.12754832919E+00  0.18787118542E-01 0.  0.
         14    1    1    2    0    0 -0.89762193927E-02  0.20123496508E-01  0.99471864404E-02  0.24175900074E-01  0.00000000000E+00 0.  1.
     999901    1    3    3    0    0  0.10504133865E+00 -0.10165661661E+00 -0.16229195970E-01  0.89220577073E+00  0.88000000000E+00 0. -1.
        -11    1    4    4    0    0 -0.66676480806E-01  0.51915054784E-01 -0.39036987746E-02  0.84595661774E-01  0.51100000000E-03 0. -1.
         11    1    4    4    0    0 -0.29388638456E-01  0.29618065322E-01  0.10185708304E-01  0.42952667418E-01  0.51100000000E-03 0.  1.
</event>
<event>
 8    1  0.1065239E+005  0.1043930E+01  0.7957747E-01            NaN
         13   -1    0    0    0    0  0.00000000000E+00  0.00000000000E+00  0.74505805969E-08  0.10566000000E+00  0.10566000000E+00 0.  1.
     999900   -1    0    0    0    0 -0.00000000000E+00 -0.00000000000E+00 -0.74505805969E-08  0.93827000000E+00  0.93827000000E+00 0.  1.
     999902    2    1    2    0    0  0.19759868290E-01 -0.28994647454E-02  0.10155805924E-01  0.10215246505E+01  0.10212789100E+01 0.  0.
     999903    2    3    3    0    0 -0.26152670624E-01 -0.11069581408E+00 -0.61573129216E-01  0.13086587508E+00  0.19927407832E-01 0.  0.
         14    1    1    2    0    0 -0.19759868290E-01  0.28994647454E-02 -0.10155805924E-01  0.22405349464E-01  0.00000000000E+00 0.  1.
     999901    1    3    3    0    0  0.45912538914E-01  0.10779634934E+00  0.71728935140E-01  0.89065877546E+00  0.88000000000E+00 0.  1.
        -11    1    4    4    0    0 -0.17150519729E-01 -0.62953660434E-01 -0.24294302465E-01  0.69625986114E-01  0.51100000000E-03 0. -1.
         11    1    4    4    0    0 -0.90021508945E-02 -0.47742153648E-01 -0.37278826751E-01  0.61239888966E-01  0.51100000000E-03 0.  1.
</event>
<event>
 8    1  0.1065239E+005  0.1043930E+01  0.7957747E-01            NaN
         13   -1    0    0    0    0  0.00000000000E+00  0.00000000000E+00  0.74505805969E-08  0.10566000000E+00  0.10566000000E+00 0. -1.
     999900   -1    0    0    0    0 -0.00000000000E+00 -0.00000000000E+00 -0.74505805969E-08  0.93827000000E+00  0.93827000000E+00 0.  1.
     999902    2    1    2    0    0  0.22011908259E-01 -0.36131143423E-02 -0.10908990086E-01  0.10190988751E+01  0.10187963155E+01 0.  0.
     999903    2    3    3    0    0  0.34035110218E-01  0.12149771747E+00  0.21744699641E-01  0.12956891994E+00  0.19879360483E-01 0.  0.
         14    1    1    2    0    0 -0.22011908259E-01  0.36131143423E-02  0.10908990086E-01  0.24831124927E-01  0.00000000000E+00 0. -1.
     999901    1    3    3    0    0 -0.12023201959E-01 -0.12511083182E+00 -0.32653689727E-01  0.88952995513E+00  0.88000000000E+00 0.  1.
        -11    1    4    4    0    0  0.84907596160E-02  0.65667461862E-01  0.85172748531E-02  0.66761618001E-01  0.51100000000E-03 0. -1.
         11    1    4    4    0    0  0.25544350602E-01  0.55830255613E-01  0.13227424788E-01  0.62807301940E-01  0.51100000000E-03 0.  1.
</event>
<event>
 8    1  0.1065239E+005  0.1043930E+01  0.7957747E-01            NaN
         13   -1    0    0    0    0  0.00000000000E+00  0.00000000000E+00  0.74505805969E-08  0.10566000000E+00  0.10566000000E+00 0.  1.
     999900   -1    0    0    0    0 -0.00000000000E+00 -0.00000000000E+00 -0.74505805969E-08  0.93827000000E+00  0.93827000000E+00 0.  1.
     999902    2    1    2    0    0  0.19936815261E-01 -0.43579993157E-02 -0.11149266883E-01  0.10206754324E+01  0.10204104877E+01 0.  0.
     999903    2    3    3    0    0 -0.60704678606E-01 -0.11022658037E+00 -0.28527310034E-01  0.13049949287E+00  0.19528266609E-01 0.  0.
         14    1    1    2    0    0 -0.19936815261E-01  0.43579993157E-02  0.11149266883E-01  0.23254567569E-01  0.00000000000E+00 0.  1.
     999901    1    3    3    0    0  0.80641493867E-01  0.10586858106E+00  0.17378043151E-01  0.89017593956E+00  0.88000000000E+00 0. -1.
        -11    1    4    4    0    0 -0.27995757625E-01 -0.54699945386E-01 -0.23736993321E-01  0.65875279454E-01  0.51100000000E-03 0. -1.
         11    1    4    4    0    0 -0.32708920981E-01 -0.55526634986E-01 -0.47903167134E-02  0.64624213418E-01  0.51100000000E-03 0.  1.
</event>
<event>
 8    1  0.1065239E+005  0.1043930E+01  0.7957747E-01            NaN
         13   -1    0    0    0    0  0.00000000000E+00  0.00000000000E+00  0.74505805969E-08  0.10566000000E+00  0.10566000000E+00 0. -1.
     999900   -1    0    0    0    0 -0.00000000000E+00 -0.00000000000E+00 -0.74505805969E-08  0.93827000000E+00  0.93827000000E+00 0. -1.
     999902    2    1    2    0    0 -0.22128216148E-01  0.30548509995E-02 -0.43044236408E-02  0.10211809752E+01  0.10209275518E+01 0.  0.
     999903    2    3    3    0    0 -0.33065546402E-02  0.93135857621E-01 -0.91538548854E-01  0.13209232089E+00  0.19592193183E-01 0.  0.
         14    1    1    2    0    0  0.22128216148E-01 -0.30548509995E-02  0.43044236408E-02  0.22749024757E-01  0.00000000000E+00 0. -1.
     999901    1    3    3    0    0 -0.18821661508E-01 -0.90081006622E-01  0.87234125213E-01  0.88908865435E+00  0.88000000000E+00 0.  1.
        -11    1    4    4    0    0  0.79336245407E-02  0.43221799752E-01 -0.45584869496E-01  0.63319095225E-01  0.51100000000E-03 0.  1.
         11    1    4    4    0    0 -0.11240179181E-01  0.49914057869E-01 -0.45953679357E-01  0.68773225666E-01  0.51100000000E-03 0. -1.
</event>
<event>
 8    1  0.1065239E+005  0.1043930E+01  0.7957747E-01            NaN
         13   -1    0    0    0    0  0.00000000000E+00  0.00000000000E+00  0.74505805969E-08  0.10566000000E+00  0.10566000000E+00 0.  1.
     999900   -1    0    0    0    0 -0.00000000000E+00 -0.00000000000E+00 -0.74505805969E-08  0.93827000000E+00  0.93827000000E+00 0.  1.
     999902    2    1    2    0    0  0.11515412629E-01 -0.23873779573E-02 -0.20540147755E-01  0.10202614138E+01  0.10199868384E+01 0.  0.
     999903    2    3    3    0    0 -0.92300057133E-01 -0.20771776331E-01 -0.88948791376E-01  0.13133206884E+00  0.19633073604E-01 0.  0.
         14    1    1    2    0    0 -0.11515412629E-01  0.23873779573E-02  0.20540147755E-01  0.23668586171E-01  0.00000000000E+00 0.  1.
     999901    1    3    3    0    0  0.10381546976E+00  0.18384398374E-01  0.68408643621E-01  0.88892934499E+00  0.88000000000E+00 0. -1.
        -11    1    4    4    0    0 -0.41937891624E-01 -0.12724964062E-01 -0.28680963990E-01  0.52379101564E-01  0.51100000000E-03 0. -1.
         11    1    4    4    0    0 -0.50362165510E-01 -0.80468122687E-02 -0.60267827386E-01  0.78952967274E-01  0.51100000000E-03 0.  1.
</event>
<event>
 8    1  0.1065239E+005  0.1043930E+01  0.7957747E-01            NaN
         13   -1    0    0    0    0  0.00000000000E+00  0.00000000000E+00  0.74505805969E-08  0.10566000000E+00  0.10566000000E+00 0. -1.
     999900   -1    0    0    0    0 -0.00000000000E+00 -0.00000000000E+00 -0.74505805969E-08  0.93827000000E+00  0.93827000000E+00 0.  1.
     999902    2    1    2    0    0 -0.11760135791E-01 -0.13459040572E-01  0.16004563171E-01  0.10199384888E+01  0.10196562795E+01 0.  0.
     999903    2    3    3    0    0  0.10671868282E+00 -0.52555320470E-01 -0.45907202995E-01  0.12898460877E+00  0.19458135598E-01 0.  0.
         14    1    1    2    0    0  0.11760135791E-01  0.13459040572E-01 -0.16004563171E-01  0.23991511191E-01  0.00000000000E+00 0.  1.
     999901    1    3    3    0    0 -0.11847881861E+00  0.39096279898E-01  0.61911766165E-01  0.89095388004E+00  0.88000000000E+00 0.  1.
        -11    1    4    4    0    0  0.37509137960E-01 -0.24519137210E-01 -0.90906295281E-02  0.45727717921E-01  0.51100000000E-03 0.  1.
         11    1    4    4    0    0  0.69209544860E-01 -0.28036183260E-01 -0.36816573467E-01  0.83256890852E-01  0.51100000000E-03 0. -1.
</event>
<event>
 8    1  0.1065239E+005  0.1043930E+01  0.7957747E-01            NaN
         13   -1    0    0    0    0  0.00000000000E+00  0.00000000000E+00  0.74505805969E-08  0.10566000000E+00  0.10566000000E+00 0.  1.
     999900   -1    0    0    0    0 -0.00000000000E+00 -0.00000000000E+00 -0.74505805969E-08  0.93827000000E+00  0.93827000000E+00 0.  1.
     999902    2    1    2    0    0  0.32629107644E-03  0.23413291939E-01 -0.41250035743E-02  0.10201538700E+01  0.10198767641E+01 0.  0.
     999903    2    3    3    0    0 -0.35478954421E-01 -0.86882248855E-01 -0.85881897958E-01  0.12878901105E+00  0.20090485223E-01 0.  0.
         14    1    1    2    0    0 -0.32629107644E-03 -0.23413291939E-01  0.41250035743E-02  0.23776130042E-01  0.00000000000E+00 0. -1.
     999901    1    3    3    0    0  0.35805245498E-01  0.11029554079E+00  0.81756894383E-01  0.89136485891E+00  0.88000000000E+00 0. -1.
        -11    1    4    4    0    0 -0.45941880114E-02 -0.36883875177E-01 -0.31696000436E-01  0.48851042734E-01  0.51100000000E-03 0. -1.
         11    1    4    4    0    0 -0.30884766410E-01 -0.49998373678E-01 -0.54185897522E-01  0.79937968312E-01  0.51100000000E-03 0.  1.
</event>
<event>
 8    1  0.1065239E+005  0.1043930E+01  0.7957747E-01            NaN
         13   -1    0    0    0    0  0.00000000000E+00  0.00000000000E+00  0.74505805969E-08  0.10566000000E+00  0.10566000000E+00 0.  1.
     999900   -1    0    0    0    0 -0.00000000000E+00 -0.00000000000E+00 -0.74505805969E-08  0.93827000000E+00  0.93827000000E+00 0. -1.
     999902    2    1    2    0    0  0.13364620865E-01 -0.87083367038E-02  0.16897216598E-01  0.10206928714E+01  0.10204283284E+01 0.  0.
     999903    2    3    3    0    0 -0.12307604718E+00 -0.26024592778E-01 -0.21587788567E-01  0.12917898798E+00  0.19904409088E-01 0.  0.
         14    1    1    2    0    0 -0.13364620865E-01  0.87083367038E-02 -0.16897216598E-01  0.23237128647E-01  0.00000000000E+00 0. -1.
     999901    1    3    3    0    0  0.13644066805E+00  0.17316256074E-01  0.38485005164E-01  0.89151388337E+00  0.88000000000E+00 0. -1.
        -11    1    4    4    0    0 -0.10179100664E+00 -0.26960792154E-01 -0.23126296438E-01  0.10781178069E+00  0.51100000000E-03 0. -1.
         11    1    4    4    0    0 -0.21285040540E-01  0.93619937683E-03  0.15385078717E-02  0.21367207294E-01  0.51100000000E-03 0.  1.
</event>
<event>
 8    1  0.1065239E+005  0.1043930E+01  0.7957747E-01            NaN
         13   -1    0    0    0    0  0.00000000000E+00  0.00000000000E+00  0.74505805969E-08  0.10566000000E+00  0.10566000000E+00 0.  1.
     999900   -1    0    0    0    0 -0.00000000000E+00 -0.00000000000E+00 -0.74505805969E-08  0.93827000000E+00  0.93827000000E+00 0.  1.
     999902    2    1    2    0    0 -0.19549275600E-01  0.43640934960E-02 -0.13293226578E-01  0.10198898386E+01  0.10196064699E+01 0.  0.
     999903    2    3    3    0    0  0.34461413807E-01 -0.33744545798E-01  0.11685546729E+00  0.12786511612E+00  0.19183437393E-01 0.  0.
         14    1    1    2    0    0  0.19549275600E-01 -0.43640934960E-02  0.13293226578E-01  0.24040161426E-01  0.00000000000E+00 0.  1.
     999901    1    3    3    0    0 -0.54010689407E-01  0.38108639294E-01 -0.13014869387E+00  0.89202472246E+00  0.88000000000E+00 0.  1.
        -11    1    4    4    0    0  0.32386334564E-01 -0.22393101718E-01  0.78731979393E-01  0.88030173072E-01  0.51100000000E-03 0. -1.
         11    1    4    4    0    0  0.20750792434E-02 -0.11351444081E-01  0.38123487900E-01  0.39834943043E-01  0.51100000000E-03 0.  1.
</event>
<event>
 8    1  0.1065239E+005  0.1043930E+01  0.7957747E-01            NaN
         13   -1    0    0    0    0  0.00000000000E+00  0.00000000000E+00  0.74505805969E-08  0.10566000000E+00  0.10566000000E+00 0.  1.
     999900   -1    0    0    0    0 -0.00000000000E+00 -0.00000000000E+00 -0.74505805969E-08  0.93827000000E+00  0.93827000000E+00 0. -1.
     999902    2    1    2    0    0 -0.94157062349E-02  0.24382629762E-01 -0.11222912066E-02  0.10177684309E+01  0.10174321360E+01 0.  0.
     999903    2    3    3    0    0  0.24947220446E-01 -0.11342445564E+00  0.43686745296E-01  0.12525543201E+00  0.17114922961E-01 0.  0.
         14    1    1    2    0    0  0.94157062349E-02 -0.24382629762E-01  0.11222912066E-02  0.26161569058E-01  0.00000000000E+00 0.  1.
     999901    1    3    3    0    0 -0.34362926681E-01  0.13780708540E+00 -0.44809036503E-01  0.89251299894E+00  0.88000000000E+00 0.  1.
        -11    1    4    4    0    0  0.52735391714E-02 -0.34370986023E-01  0.21252092150E-01  0.40756440440E-01  0.51100000000E-03 0.  1.
         11    1    4    4    0    0  0.19673681275E-01 -0.79053469614E-01  0.22434653146E-01  0.84498991566E-01  0.51100000000E-03 0. -1.
</event>
<event>
 8    1  0.1065239E+005  0.1043930E+01  0.7957747E-01            NaN
         13   -1    0    0    0    0  0.00000000000E+00  0.00000000000E+00  0.74505805969E-08  0.10566000000E+00  0.10566000000E+00 0.  1.
     999900   -1    0    0    0    0 -0.00000000000E+00 -0.00000000000E+00 -0.74505805969E-08  0.93827000000E+00  0.93827000000E+00 0.  1.
     999902    2    1    2    0    0 -0.12134222223E-01 -0.80531750138E-02 -0.18521210520E-01  0.10203688409E+01  0.10200967814E+01 0.  0.
     999903    2    3    3    0    0  0.11854432801E+00  0.33240503242E-01  0.30920581540E-01  0.12838983774E+00  0.19240044553E-01 0.  0.
         14    1    1    2    0    0  0.12134222223E-01  0.80531750138E-02  0.18521210520E-01  0.23561159052E-01  0.00000000000E+00 0.  1.
     999901    1    3    3    0    0 -0.13067855023E+00 -0.41293678256E-01 -0.49441792060E-01  0.89197900320E+00  0.88000000000E+00 0.  1.
        -11    1    4    4    0    0  0.73388769885E-01  0.19448736678E-01  0.94146072035E-02  0.76505299512E-01  0.51100000000E-03 0. -1.
         11    1    4    4    0    0  0.45155558123E-01  0.13791766565E-01  0.21505974337E-01  0.51884538232E-01  0.51100000000E-03 0.  1.
</event>
<event>
 8    1  0.1065239E+005  0.1043930E+01  0.7957747E-01            NaN
         13   -1    0    0    0    0  0.00000000000E+00  0.00000000000E+00  0.74505805969E-08  0.10566000000E+00  0.10566000000E+00 0.  1.
     999900   -1    0    0    0    0 -0.00000000000E+00 -0.00000000000E+00 -0.74505805969E-08  0.93827000000E+00  0.93827000000E+00 0.  1.
     999902    2    1    2    0    0  0.11771900242E-02 -0.18302071829E-01  0.15193583612E-01  0.10201141105E+01  0.10198360662E+01 0.  0.
     999903    2    3    3    0    0  0.10716871578E+00  0.21695647007E-02 -0.69494596097E-01  0.12948209939E+00  0.21125210597E-01 0.  0.
         14    1    1    2    0    0 -0.11771900242E-02  0.18302071829E-01 -0.15193583612E-01  0.23815889498E-01  0.00000000000E+00 0. -1.
     999901    1    3    3    0    0 -0.10599152576E+00 -0.20471636530E-01  0.84688179709E-01  0.89063201111E+00  0.88000000000E+00 0. -1.
        -11    1    4    4    0    0  0.27130083605E-01  0.84102852023E-02 -0.12566900749E-01  0.31063844724E-01  0.51100000000E-03 0. -1.
         11    1    4    4    0    0  0.80038632176E-01 -0.62407205016E-02 -0.56927695348E-01  0.98418254666E-01  0.51100000000E-03 0.  1.
</event>
<event>
 8    1  0.1065239E+005  0.1043930E+01  0.7957747E-01            NaN
         13   -1    0    0    0    0  0.00000000000E+00  0.00000000000E+00  0.74505805969E-08  0.10566000000E+00  0.10566000000E+00 0.  1.
     999900   -1    0    0    0    0 -0.00000000000E+00 -0.00000000000E+00 -0.74505805969E-08  0.93827000000E+00  0.93827000000E+00 0.  1.
     999902    2    1    2    0    0  0.23313423501E-01  0.44207113101E-02 -0.11727903824E-02  0.10201721836E+01  0.10198955095E+01 0.  0.
     999903    2    3    3    0    0  0.16496134810E-02  0.80187261253E-01 -0.10168782775E+00  0.13095164654E+00  0.19370114301E-01 0.  0.
         14    1    1    2    0    0 -0.23313423501E-01 -0.44207113101E-02  0.11727903824E-02  0.23757816421E-01  0.00000000000E+00 0. -1.
     999901    1    3    3    0    0  0.21663810020E-01 -0.75766549943E-01  0.10051503736E+00  0.88922053704E+00  0.88000000000E+00 0.  1.
        -11    1    4    4    0    0 -0.41146305641E-02  0.64996764107E-01 -0.71864720214E-01  0.96986126129E-01  0.51100000000E-03 0.  1.
         11    1    4    4    0    0  0.57642440451E-02  0.15190497146E-01 -0.29823107532E-01  0.33965520412E-01  0.51100000000E-03 0. -1.
</event>
<event>
 8    1  0.1065239E+005  0.1043930E+01  0.7957747E-01            NaN
         13   -1    0    0    0    0  0.00000000000E+00  0.00000000000E+00  0.74505805969E-08  0.10566000000E+00  0.10566000000E+00 0. -1.
     999900   -1    0    0    0    0 -0.00000000000E+00 -0.00000000000E+00 -0.74505805969E-08  0.93827000000E+00  0.93827000000E+00 0.  1.
     999902    2    1    2    0    0  0.20081624062E-01 -0.34528586224E-02  0.14631157822E-01  0.10188448523E+01  0.10185359927E+01 0.  0.
     999903    2    3    3    0    0  0.37072002148E-01 -0.25609238704E-01 -0.11846763339E+00  0.12839841011E+00  0.20528153993E-01 0.  0.
         14    1    1    2    0    0 -0.20081624062E-01  0.34528586224E-02 -0.14631157822E-01  0.25085147734E-01  0.00000000000E+00 0.  1.
     999901    1    3    3    0    0 -0.16990378086E-01  0.22156380081E-01  0.13309879122E+00  0.89044644216E+00  0.88000000000E+00 0. -1.
        -11    1    4    4    0    0  0.34137840200E-01 -0.17812735900E-01 -0.10983858283E+00  0.11639356121E+00  0.51100000000E-03 0.  1.
         11    1    4    4    0    0  0.29341619480E-02 -0.77965028035E-02 -0.86290505680E-02  0.12004848896E-01  0.51100000000E-03 0. -1.
</event>
<event>
 8    1  0.1065239E+005  0.1043930E+01  0.7957747E-01            NaN
         13   -1    0    0    0    0  0.00000000000E+00  0.00000000000E+00  0.74505805969E-08  0.10566000000E+00  0.10566000000E+00 0. -1.
     999900   -1    0    0    0    0 -0.00000000000E+00 -0.00000000000E+00 -0.74505805969E-08  0.93827000000E+00  0.93827000000E+00 0.  1.
     999902    2    1    2    0    0 -0.10958041953E-02 -0.22572376898E-01 -0.72984763238E-02  0.10201817213E+01  0.10199052719E+01 0.  0.
     999903    2    3    3    0    0 -0.19192086557E-01  0.39070561984E-01 -0.12127619192E+00  0.13050860883E+00  0.20730104977E-01 0.  0.
         14    1    1    2    0    0  0.10958041953E-02  0.22572376898E-01  0.72984763238E-02  0.23748278723E-01  0.00000000000E+00 0. -1.
     999901    1    3    3    0    0  0.18096282362E-01 -0.61642938883E-01  0.11397771560E+00  0.88967311244E+00  0.88000000000E+00 0. -1.
        -11    1    4    4    0    0 -0.84696570641E-02  0.29918136889E-01 -0.59437958445E-01  0.67081756319E-01  0.51100000000E-03 0.  1.
         11    1    4    4    0    0 -0.10722429493E-01  0.91524250949E-02 -0.61838233478E-01  0.63426852515E-01  0.51100000000E-03 0. -1.
</event>
<event>
 8    1  0.1065239E+005  0.1043930E+01  0.7957747E-01            NaN
         13   -1    0    0    0    0  0.00000000000E+00  0.00000000000E+00  0.74505805969E-08  0.10566000000E+00  0.10566000000E+00 0. -1.
     999900   -1    0    0    0    0 -0.00000000000E+00 -0.00000000000E+00 -0.74505805969E-08  0.93827000000E+00  0.93827000000E+00 0.  1.
     999902    2    1    2    0    0 -0.39042025313E-02  0.22793922769E-01  0.62602693167E-02  0.10199717721E+01  0.10196903546E+01 0.  0.
     999903    2    3    3    0    0 -0.33790319037E-01  0.12732642605E+00 -0.40143624118E-02  0.13322164254E+00  0.19444446640E-01 0.  0.
         14    1    1    2    0    0  0.39042025313E-02 -0.22793922769E-01 -0.62602693167E-02  0.23958227909E-01  0.00000000000E+00 0.  1.
     999901    1    3    3    0    0  0.29886116506E-01 -0.10453250328E+00  0.10274631729E-01  0.88675012955E+00  0.88000000000E+00 0. -1.
        -11    1    4    4    0    0 -0.11800638686E-01  0.58357845713E-01 -0.10801624485E-01  0.60513051833E-01  0.51100000000E-03 0. -1.
         11    1    4    4    0    0 -0.21989680351E-01  0.68968580334E-01  0.67872620728E-02  0.72708590707E-01  0.51100000000E-03 0.  1.
</event>
<event>
 8    1  0.1065239E+005  0.1043930E+01  0.7957747E-01            NaN
         13   -1    0    0    0    0  0.00000000000E+00  0.00000000000E+00  0.74505805969E-08  0.10566000000E+00  0.10566000000E+00 0.  1.
     999900   -1    0    0    0    0 -0.00000000000E+00 -0.00000000000E+00 -0.74505805969E-08  0.93827000000E+00  0.93827000000E+00 0.  1.
     999902    2    1    2    0    0  0.45573485279E-02 -0.19217156443E-02  0.22602655312E-01  0.10207925316E+01  0.10205302789E+01 0.  0.
     999903    2    3    3    0    0 -0.99211832624E-01  0.60182507806E-01 -0.48794855195E-01  0.12965697400E+00  0.31065592441E-01 0.  0.
         14    1    1    2    0    0 -0.45573485279E-02  0.19217156443E-02 -0.22602655312E-01  0.23137468396E-01  0.00000000000E+00 0. -1.
     999901    1    3    3    0    0  0.10376918115E+00 -0.62104223450E-01  0.71397510507E-01  0.89113555761E+00  0.88000000000E+00 0. -1.
        -11    1    4    4    0    0 -0.77334079068E-01  0.30243707688E-01 -0.34045882466E-01  0.89747561939E-01  0.51100000000E-03 0.  1.
         11    1    4    4    0    0 -0.21877753556E-01  0.29938800118E-01 -0.14748972728E-01  0.39909412056E-01  0.51100000000E-03 0. -1.
</event>
<event>
 8    1  0.1065239E+005  0.1043930E+01  0.7957747E-01            NaN
         13   -1    0    0    0    0  0.00000000000E+00  0.00000000000E+00  0.74505805969E-08  0.10566000000E+00  0.10566000000E+00 0.  1.
     999900   -1    0    0    0    0 -0.00000000000E+00 -0.00000000000E+00 -0.74505805969E-08  0.93827000000E+00  0.93827000000E+00 0.  1.
     999902    2    1    2    0    0  0.53642082899E-02 -0.87193855737E-02 -0.21903063699E-01  0.10197526012E+01  0.10194659489E+01 0.  0.
     999903    2    3    3    0    0 -0.10559326374E+00  0.20908067336E-01 -0.71950506433E-01  0.13088022950E+00  0.19122616793E-01 0.  0.
         14    1    1    2    0    0 -0.53642082899E-02  0.87193855737E-02  0.21903063699E-01  0.24177398842E-01  0.00000000000E+00 0.  1.
     999901    1    3    3    0    0  0.11095747203E+00 -0.29627452910E-01  0.50047442734E-01  0.88887237165E+00  0.88000000000E+00 0. -1.
        -11    1    4    4    0    0 -0.73196367109E-01  0.22828681516E-01 -0.46922063382E-01  0.89893258984E-01  0.51100000000E-03 0. -1.
         11    1    4    4    0    0 -0.32396896628E-01 -0.19206141803E-02 -0.25028443051E-01  0.40986970521E-01  0.51100000000E-03 0.  1.
</event>
<event>
 8    1  0.1065239E+005  0.1043930E+01  0.7957747E-01            NaN
         13   -1    0    0    0    0  0.00000000000E+00  0.00000000000E+00  0.74505805969E-08  0.10566000000E+00  0.10566000000E+00 0. -1.
     999900   -1    0    0    0    0 -0.00000000000E+00 -0.00000000000E+00 -0.74505805969E-08  0.93827000000E+00  0.93827000000E+00 0.  1.
     999902    2    1    2    0    0 -0.74224579781E-02 -0.22404731639E-01 -0.11848416308E-02  0.10202980570E+01  0.10200243410E+01 0.  0.
     999903    2    3    3    0    0 -0.87920765611E-01 -0.89732652276E-02  0.95083259979E-01  0.13129415977E+00  0.19665948942E-01 0.  0.
         14    1    1    2    0    0  0.74224579781E-02  0.22404731639E-01  0.11848416308E-02  0.23631943042E-01  0.00000000000E+00 0.  1.
     999901    1    3    3    0    0  0.80498307633E-01 -0.13431466412E-01 -0.96268101610E-01  0.88900389718E+00  0.88000000000E+00 0.  1.
        -11    1    4    4    0    0 -0.38036801961E-01  0.58394831117E-02  0.39285195373E-01  0.54995323101E-01  0.51100000000E-03 0.  1.
         11    1    4    4    0    0 -0.49883963649E-01 -0.14812748339E-01  0.55798064607E-01  0.76298836672E-01  0.51100000000E-03 0. -1.
</event>
<event>
 8    1  0.1065239E+005  0.1043930E+01  0.7957747E-01            NaN
         13   -1    0    0    0    0  0.00000000000E+00  0.00000000000E+00  0.74505805969E-08  0.10566000000E+00  0.10566000000E+00 0.  1.
     999900   -1    0    0    0    0 -0.00000000000E+00 -0.00000000000E+00 -0.74505805969E-08  0.93827000000E+00  0.93827000000E+00 0.  1.
     999902    2    1    2    0    0  0.19683264014E-01 -0.17659195480E-01 -0.51381232920E-02  0.10169915817E+01  0.10166347422E+01 0.  0.
     999903    2    3    3    0    0 -0.43631139966E-01  0.10569615781E+00 -0.46763909914E-01  0.12516314362E+00  0.20089676421E-01 0.  0.
         14    1    1    2    0    0 -0.19683264014E-01  0.17659195480E-01  0.51381232920E-02  0.26938418258E-01  0.00000000000E+00 0. -1.
     999901    1    3    3    0    0  0.63314403981E-01 -0.12335535329E+00  0.41625786622E-01  0.89182843813E+00  0.88000000000E+00 0.  1.
        -11    1    4    4    0    0 -0.67929930403E-02  0.38051282369E-01 -0.20675996722E-01  0.43838371386E-01  0.51100000000E-03 0.  1.
         11    1    4    4    0    0 -0.36838146926E-01  0.67644875443E-01 -0.26087913192E-01  0.81324772230E-01  0.51100000000E-03 0. -1.
</event>
<event>
 8    1  0.1065239E+005  0.1043930E+01  0.7957747E-01            NaN
         13   -1    0    0    0    0  0.00000000000E+00  0.00000000000E+00  0.74505805969E-08  0.10566000000E+00  0.10566000000E+00 0.  1.
     999900   -1    0    0    0    0 -0.00000000000E+00 -0.00000000000E+00 -0.74505805969E-08  0.93827000000E+00  0.93827000000E+00 0.  1.
     999902    2    1    2    0    0  0.11789219814E-01 -0.13793510518E-01 -0.14773333995E-01  0.10205313241E+01  0.10202630472E+01 0.  0.
     999903    2    3    3    0    0 -0.75632495842E-01 -0.98648010469E-01 -0.39555151475E-01  0.13179234049E+00  0.18785808625E-01 0.  0.
         14    1    1    2    0    0 -0.11789219814E-01  0.13793510518E-01  0.14773333995E-01  0.23398675893E-01  0.00000000000E+00 0.  1.
     999901    1    3    3    0    0  0.87421715656E-01  0.84854499951E-01  0.24781817480E-01  0.88873898362E+00  0.88000000000E+00 0. -1.
        -11    1    4    4    0    0 -0.58645224565E-01 -0.73430674102E-01 -0.21423399167E-01  0.96387496161E-01  0.51100000000E-03 0. -1.
         11    1    4    4    0    0 -0.16987271277E-01 -0.25217336367E-01 -0.18131752308E-01  0.35404844324E-01  0.51100000000E-03 0.  1.
</event>
<event>
 7    1  0.1065239E+005  0.1043930E+01  0.7957747E-01            NaN
         13   -1    0    0    0    0  0.00000000000E+00  0.00000000000E+00  0.74505805969E-08  0.10566000000E+00  0.10566000000E+00 0. -1.
     999900   -1    0    0    0    0 -0.00000000000E+00 -0.00000000000E+00 -0.74505805969E-08  0.93827000000E+00  0.93827000000E+00 0. -1.
     999903    2    1    2    0    0  0.27455798117E-01  0.33602689961E-01  0.34989907846E-01  0.62304931279E-01  0.27832520328E-01 0.  0.
         14    1    1    2    0    0 -0.70453228132E-01 -0.69082374984E-01  0.65034375761E-02  0.98885421514E-01  0.00000000000E+00 0.  1.
     999901    1    1    2    0    0  0.42997430015E-01  0.35479685023E-01 -0.41493345422E-01  0.88273964721E+00  0.88000000000E+00 0.  1.
        -11    1    3    3    0    0  0.51861928036E-02 -0.61682936896E-03  0.16808985390E-01  0.17609093818E-01  0.51100000000E-03 0. -1.
         11    1    3    3    0    0  0.22269605313E-01  0.34219519330E-01  0.18180922456E-01  0.44695837461E-01  0.51100000000E-03 0.  1.
</event>
<event>
 8    1  0.1065239E+005  0.1043930E+01  0.7957747E-01            NaN
         13   -1    0    0    0    0  0.00000000000E+00  0.00000000000E+00  0.74505805969E-08  0.10566000000E+00  0.10566000000E+00 0. -1.
     999900   -1    0    0    0    0 -0.00000000000E+00 -0.00000000000E+00 -0.74505805969E-08  0.93827000000E+00  0.93827000000E+00 0. -1.
     999902    2    1    2    0    0  0.64811193292E-03  0.94114897335E-02 -0.21874110893E-01  0.10201083100E+01  0.10198301286E+01 0.  0.
     999903    2    3    3    0    0 -0.24623332486E-01  0.29150295626E-01  0.12076130513E+00  0.12804714153E+00  0.18887281422E-01 0.  0.
         14    1    1    2    0    0 -0.64811193292E-03 -0.94114897335E-02  0.21874110893E-01  0.23821690020E-01  0.00000000000E+00 0. -1.
     999901    1    3    3    0    0  0.25271444419E-01 -0.19738805892E-01 -0.14263541602E+00  0.89206116845E+00  0.88000000000E+00 0. -1.
        -11    1    4    4    0    0 -0.13917817162E-01  0.36542264517E-02  0.51296150808E-01  0.53278656273E-01  0.51100000000E-03 0.  1.
         11    1    4    4    0    0 -0.10705515324E-01  0.25496069174E-01  0.69465154317E-01  0.74768485253E-01  0.51100000000E-03 0. -1.
</event>
<event>
 8    1  0.1065239E+005  0.1043930E+01  0.7957747E-01            NaN
         13   -1    0    0    0    0  0.00000000000E+00  0.00000000000E+00  0.74505805969E-08  0.10566000000E+00  0.10566000000E+00 0.  1.
     999900   -1    0    0    0    0 -0.00000000000E+00 -0.00000000000E+00 -0.74505805969E-08  0.93827000000E+00  0.93827000000E+00 0.  1.
     999902    2    1    2    0    0  0.22558497180E-01  0.34291668248E-02 -0.69906899084E-02  0.10200654923E+01  0.10197862982E+01 0.  0.
     999903    2    3    3    0    0  0.39475690576E-02 -0.12375552033E+00 -0.35843288330E-01  0.13025945521E+00  0.18755592202E-01 0.  0.
         14    1    1    2    0    0 -0.22558497180E-01 -0.34291668248E-02  0.69906899084E-02  0.23864507653E-01  0.00000000000E+00 0. -1.
     999901    1    3    3    0    0  0.18610928122E-01  0.12718468716E+00  0.28852598421E-01  0.88980603714E+00  0.88000000000E+00 0. -1.
        -11    1    4    4    0    0  0.10232114901E-01 -0.42002191225E-01 -0.12099061080E-01  0.44894639358E-01  0.51100000000E-03 0. -1.
         11    1    4    4    0    0 -0.62845458437E-02 -0.81753329107E-01 -0.23744227249E-01  0.85364815851E-01  0.51100000000E-03 0.  1.
</event>
<event>
 8    1  0.1065239E+005  0.1043930E+01  0.7957747E-01            NaN
         13   -1    0    0    0    0  0.00000000000E+00  0.00000000000E+00  0.74505805969E-08  0.10566000000E+00  0.10566000000E+00 0.  1.
     999900   -1    0    0    0    0 -0.00000000000E+00 -0.00000000000E+00 -0.74505805969E-08  0.93827000000E+00  0.93827000000E+00 0.  1.
     999902    2    1    2    0    0  0.13657010190E-03 -0.39226301960E-02  0.20083095606E-01  0.10234669502E+01  0.10232623621E+01 0.  0.
     999903    2    3    3    0    0 -0.72236693665E-01 -0.45182108670E-01 -0.98336604646E-01  0.13163543061E+00  0.19955849375E-01 0.  0.
         14    1    1    2    0    0 -0.13657010190E-03  0.39226301960E-02 -0.20083095606E-01  0.20463049825E-01  0.00000000000E+00 0. -1.
     999901    1    3    3    0    0  0.72373263767E-01  0.41259478474E-01  0.11841970025E+00  0.89183151956E+00  0.88000000000E+00 0. -1.
        -11    1    4    4    0    0 -0.36191112771E-01 -0.33684196550E-01 -0.60364564379E-01  0.78029247686E-01  0.51100000000E-03 0.  1.
         11    1    4    4    0    0 -0.36045580894E-01 -0.11497912120E-01 -0.37972040267E-01  0.53606182928E-01  0.51100000000E-03 0. -1.
</event>
<event>
 8    1  0.1065239E+005  0.1043930E+01  0.7957747E-01            NaN
         13   -1    0    0    0    0  0.00000000000E+00  0.00000000000E+00  0.74505805969E-08  0.10566000000E+00  0.10566000000E+00 0.  1.
     999900   -1    0    0    0    0 -0.00000000000E+00 -0.00000000000E+00 -0.74505805969E-08  0.93827000000E+00  0.93827000000E+00 0.  1.
     999902    2    1    2    0    0 -0.16540575643E-01 -0.13565143797E-01 -0.20183279964E-01  0.10145196522E+01  0.10140932679E+01 0.  0.
     999903    2    3    3    0    0  0.91982926354E-01  0.25773585237E-01 -0.78380832925E-01  0.12507497079E+00  0.19366386098E-01 0.  0.
         14    1    1    2    0    0  0.16540575643E-01  0.13565143797E-01  0.20183279964E-01  0.29410347821E-01  0.00000000000E+00 0.  1.
     999901    1    3    3    0    0 -0.10852350200E+00 -0.39338729034E-01  0.58197552961E-01  0.88944468139E+00  0.88000000000E+00 0. -1.
        -11    1    4    4    0    0  0.76626668343E-01  0.14063307376E-01 -0.59168516578E-01  0.97829430085E-01  0.51100000000E-03 0. -1.
         11    1    4    4    0    0  0.15356258011E-01  0.11710277861E-01 -0.19212316348E-01  0.27245540701E-01  0.51100000000E-03 0.  1.
</event>
<event>
 8    1  0.1065239E+005  0.1043930E+01  0.7957747E-01            NaN
         13   -1    0    0    0    0  0.00000000000E+00  0.00000000000E+00  0.74505805969E-08  0.10566000000E+00  0.10566000000E+00 0.  1.
     999900   -1    0    0    0    0 -0.00000000000E+00 -0.00000000000E+00 -0.74505805969E-08  0.93827000000E+00  0.93827000000E+00 0. -1.
     999902    2    1    2    0    0 -0.94745713557E-02 -0.17324347672E-01 -0.17094936705E-01  0.10178122400E+01  0.10174770850E+01 0.  0.
     999903    2    3    3    0    0  0.10732505599E+00 -0.48348596354E-01 -0.48834445665E-01  0.12898601777E+00  0.19908171296E-01 0.  0.
         14    1    1    2    0    0  0.94745713557E-02  0.17324347672E-01  0.17094936705E-01  0.26117759965E-01  0.00000000000E+00 0.  1.
     999901    1    3    3    0    0 -0.11679962735E+00  0.31024248682E-01  0.31739508960E-01  0.88882622226E+00  0.88000000000E+00 0.  1.
        -11    1    4    4    0    0  0.56926567919E-01 -0.36165440570E-01 -0.30037654237E-01  0.73831531339E-01  0.51100000000E-03 0.  1.
         11    1    4    4    0    0  0.50398488071E-01 -0.12183155784E-01 -0.18796791428E-01  0.55154486433E-01  0.51100000000E-03 0. -1.
</event>
<event>
 8    1  0.1065239E+005  0.1043930E+01  0.7957747E-01            NaN
         13   -1    0    0    0    0  0.00000000000E+00  0.00000000000E+00  0.74505805969E-08  0.10566000000E+00  0.10566000000E+00 0.  1.
     999900   -1    0    0    0    0 -0.00000000000E+00 -0.00000000000E+00 -0.74505805969E-08  0.93827000000E+00  0.93827000000E+00 0.  1.
     999902    2    1    2    0    0 -0.16766453240E-01  0.13326718033E-02 -0.17265751828E-01  0.10198261382E+01  0.10195412478E+01 0.  0.
     999903    2    3    3    0    0 -0.74445594711E-01  0.63898046348E-01  0.83279262922E-01  0.13002244666E+00  0.18582090939E-01 0.  0.
         14    1    1    2    0    0  0.16766453240E-01 -0.13326718033E-02  0.17265751828E-01  0.24103861819E-01  0.00000000000E+00 0.  1.
     999901    1    3    3    0    0  0.57679141471E-01 -0.62565374545E-01 -0.10054501475E+00  0.88980369152E+00  0.88000000000E+00 0.  1.
        -11    1    4    4    0    0 -0.30410603498E-01  0.32092960885E-01  0.47938653007E-01  0.65216090933E-01  0.51100000000E-03 0. -1.
         11    1    4    4    0    0 -0.44034991213E-01  0.31805085464E-01  0.35340609915E-01  0.64806355728E-01  0.51100000000E-03 0.  1.
</event>
<event>
 8    1  0.1065239E+005  0.1043930E+01  0.7957747E-01            NaN
         13   -1    0    0    0    0  0.00000000000E+00  0.00000000000E+00  0.74505805969E-08  0.10566000000E+00  0.10566000000E+00 0.  1.
     999900   -1    0    0    0    0 -0.00000000000E+00 -0.00000000000E+00 -0.74505805969E-08  0.93827000000E+00  0.93827000000E+00 0.  1.
     999902    2    1    2    0    0  0.14680935366E-01  0.86269993226E-02  0.16570497667E-01  0.10201700258E+01  0.10198933009E+01 0.  0.
     999903    2    3    3    0    0  0.13614805722E-01  0.12611850169E+00 -0.27069735293E-01  0.13128878532E+00  0.20315884895E-01 0.  0.
         14    1    1    2    0    0 -0.14680935366E-01 -0.86269993226E-02 -0.16570497667E-01  0.23759974189E-01  0.00000000000E+00 0. -1.
     999901    1    3    3    0    0  0.10661296438E-02 -0.11749150237E+00  0.43640232959E-01  0.88888124049E+00  0.88000000000E+00 0.  1.
        -11    1    4    4    0    0  0.32994912339E-02  0.91641830977E-01 -0.12882617068E-01  0.92603103462E-01  0.51100000000E-03 0. -1.
         11    1    4    4    0    0  0.10315314489E-01  0.34476670713E-01 -0.14187118225E-01  0.38685681860E-01  0.51100000000E-03 0.  1.
</event>
<event>
 8    1  0.1065239E+005  0.1043930E+01  0.7957747E-01            NaN
         13   -1    0    0    0    0  0.00000000000E+00  0.00000000000E+00  0.74505805969E-08  0.10566000000E+00  0.10566000000E+00 0.  1.
     999900   -1    0    0    0    0 -0.00000000000E+00 -0.00000000000E+00 -0.74505805969E-08  0.93827000000E+00  0.93827000000E+00 0.  1.
     999902    2    1    2    0    0 -0.72043743602E-02 -0.47148513329E-02  0.20318593800E-01  0.10218624200E+01  0.10216241125E+01 0.  0.
     999903    2    3    3    0    0 -0.40403912229E-01  0.86997965470E-01 -0.86018444274E-01  0.13011076413E+00  0.18125012218E-01 0.  0.
         14    1    1    2    0    0  0.72043743602E-02  0.47148513329E-02 -0.20318593800E-01  0.22067580000E-01  0.00000000000E+00 0. -1.
     999901    1    3    3    0    0  0.33199537869E-01 -0.91712816803E-01  0.10633703807E+00  0.89175165587E+00  0.88000000000E+00 0. -1.
        -11    1    4    4    0    0 -0.97517687208E-02  0.18825125716E-01 -0.98207966009E-02  0.23370740645E-01  0.51100000000E-03 0.  1.
         11    1    4    4    0    0 -0.30652143509E-01  0.68172839754E-01 -0.76197647673E-01  0.10674002349E+00  0.51100000000E-03 0. -1.
</event>
<event>
 8    1  0.1065239E+005  0.1043930E+01  0.7957747E-01            NaN
         13   -1    0    0    0    0  0.00000000000E+00  0.00000000000E+00  0.74505805969E-08  0.10566000000E+00  0.10566000000E+00 0. -1.
     999900   -1    0    0    0    0 -0.00000000000E+00 -0.00000000000E+00 -0.74505805969E-08  0.93827000000E+00  0.93827000000E+00 0.  1.
     999902    2    1    2    0    0  0.15044410166E-01  0.48682570730E-02 -0.17713235654E-01  0.10201856760E+01  0.10199093198E+01 0.  0.
     999903    2    3    3    0    0 -0.72732933484E-01  0.83606052915E-01 -0.66962131247E-01  0.13095569661E+00  0.19632008470E-01 0.  0.
         14    1    1    2    0    0 -0.15044410166E-01 -0.48682570730E-02  0.17713235654E-01  0.23744323985E-01  0.00000000000E+00 0. -1.
     999901    1    3    3    0    0  0.87777343650E-01 -0.78737795842E-01  0.49248895592E-01  0.88922997940E+00  0.88000000000E+00 0. -1.
        -11    1    4    4    0    0 -0.12761849316E-01  0.55509575633E-02 -0.59348152795E-02  0.15138067289E-01  0.51100000000E-03 0. -1.
         11    1    4    4    0    0 -0.59971084168E-01  0.78055095352E-01 -0.61027315967E-01  0.11581762932E+00  0.51100000000E-03 0.  1.
</event>
<event>
 8    1  0.1065239E+005  0.1043930E+01  0.7957747E-01            NaN
         13   -1    0    0    0    0  0.00000000000E+00  0.00000000000E+00  0.74505805969E-08  0.10566000000E+00  0.10566000000E+00 0.  1.
     999900   -1    0    0    0    0 -0.00000000000E+00 -0.00000000000E+00 -0.74505805969E-08  0.93827000000E+00  0.93827000000E+00 0.  1.
     999902    2    1    2    0    0  0.15029580532E-01 -0.66275972744E-03 -0.24522334823E-01  0.10151607031E+01  0.10147529653E+01 0.  0.
     999903    2    3    3    0    0 -0.10133016301E+00 -0.69222103323E-01 -0.90231888455E-02  0.12472249799E+00  0.20366198560E-01 0.  0.
         14    1    1    2    0    0 -0.15029580532E-01  0.66275972744E-03  0.24522334823E-01  0.28769296943E-01  0.00000000000E+00 0.  1.
     999901    1    3    3    0    0  0.11635974355E+00  0.68559343595E-01 -0.15499145977E-01  0.89043820506E+00  0.88000000000E+00 0. -1.
        -11    1    4    4    0    0 -0.47782392351E-01 -0.22693851415E-01 -0.96841171588E-02  0.53779281857E-01  0.51100000000E-03 0. -1.
         11    1    4    4    0    0 -0.53547770662E-01 -0.46528251908E-01  0.66092831331E-03  0.70943216136E-01  0.51100000000E-03 0.  1.
</event>
<event>
 8    1  0.1065239E+005  0.1043930E+01  0.7957747E-01            NaN
         13   -1    0    0    0    0  0.00000000000E+00  0.00000000000E+00  0.74505805969E-08  0.10566000000E+00  0.10566000000E+00 0. -1.
     999900   -1    0    0    0    0 -0.00000000000E+00 -0.00000000000E+00 -0.74505805969E-08  0.93827000000E+00  0.93827000000E+00 0.  1.
     999902    2    1    2    0    0 -0.18855511525E-01 -0.14040988729E-01 -0.46768197112E-02  0.10199601789E+01  0.10196784857E+01 0.  0.
     999903    2    3    3    0    0  0.19936550500E-01 -0.53506254038E-02 -0.12729930559E+00  0.13056902734E+00  0.20422107070E-01 0.  0.
         14    1    1    2    0    0  0.18855511525E-01  0.14040988729E-01  0.46768197112E-02  0.23969821067E-01  0.00000000000E+00 0.  1.
     999901    1    3    3    0    0 -0.38792062025E-01 -0.86903633250E-02  0.12262248588E+00  0.88939115159E+00  0.88000000000E+00 0. -1.
        -11    1    4    4    0    0  0.10401580705E-03 -0.43070919646E-02 -0.65748980188E-01  0.65891967471E-01  0.51100000000E-03 0. -1.
         11    1    4    4    0    0  0.19832534693E-01 -0.10435334392E-02 -0.61550325407E-01  0.64677059867E-01  0.51100000000E-03 0.  1.
</event>
<event>
 8    1  0.1065239E+005  0.1043930E+01  0.7957747E-01            NaN
         13   -1    0    0    0    0  0.00000000000E+00  0.00000000000E+00  0.74505805969E-08  0.10566000000E+00  0.10566000000E+00 0.  1.
     999900   -1    0    0    0    0 -0.00000000000E+00 -0.00000000000E+00 -0.74505805969E-08  0.93827000000E+00  0.93827000000E+00 0.  1.
     999902    2    1    2    0    0  0.14398242015E-01  0.14382764221E-01 -0.10404731074E-01  0.10210732350E+01  0.10208173781E+01 0.  0.
     999903    2    3    3    0    0 -0.11254484786E+00  0.46261892425E-01 -0.44468565259E-01  0.13074117797E+00  0.17586837471E-01 0.  0.
         14    1    1    2    0    0 -0.14398242015E-01 -0.14382764221E-01  0.10404731074E-01  0.22856765049E-01  0.00000000000E+00 0.  1.
     999901    1    3    3    0    0  0.12694308987E+00 -0.31879128204E-01  0.34063834185E-01  0.89033205698E+00  0.88000000000E+00 0. -1.
        -11    1    4    4    0    0 -0.10691134041E+00  0.43146646503E-01 -0.37489545157E-01  0.12123281293E+00  0.51100000000E-03 0. -1.
         11    1    4    4    0    0 -0.56335074425E-02  0.31152459225E-02 -0.69790201021E-02  0.95083650460E-02  0.51100000000E-03 0.  1.
</event>
<event>
 8    1  0.1065239E+005  0.1043930E+01  0.7957747E-01            NaN
         13   -1    0    0    0    0  0.00000000000E+00  0.00000000000E+00  0.74505805969E-08  0.10566000000E+00  0.10566000000E+00 0. -1.
     999900   -1    0    0    0    0 -0.00000000000E+00 -0.00000000000E+00 -0.74505805969E-08  0.93827000000E+00  0.93827000000E+00 0. -1.
     999902    2    1    2    0    0 -0.23172744704E-01 -0.79693105772E-02  0.91798325977E-03  0.10194079956E+01  0.10191130127E+01 0.  0.
     999903    2    3    3    0    0  0.26401651940E-01  0.58490561568E-01 -0.10964575425E+00  0.12862245715E+00  0.20083626154E-01 0.  0.
         14    1    1    2    0    0  0.23172744704E-01  0.79693105772E-02 -0.91798325977E-03  0.24522004434E-01  0.00000000000E+00 0.  1.
     999901    1    3    3    0    0 -0.49574396644E-01 -0.66459872145E-01  0.11056373751E+00  0.89078553842E+00  0.88000000000E+00 0.  1.
        -11    1    4    4    0    0  0.93230568821E-02  0.41027601741E-02 -0.18172873549E-01  0.20839061512E-01  0.51100000000E-03 0. -1.
         11    1    4    4    0    0  0.17078595058E-01  0.54387801394E-01 -0.91472880700E-01  0.10778339563E+00  0.51100000000E-03 0.  1.
</event>
<event>
 8    1  0.1065239E+005  0.1043930E+01  0.7957747E-01            NaN
         13   -1    0    0    0    0  0.00000000000E+00  0.00000000000E+00  0.74505805969E-08  0.10566000000E+00  0.10566000000E+00 0.  1.
     999900   -1    0    0    0    0 -0.00000000000E+00 -0.00000000000E+00 -0.74505805969E-08  0.93827000000E+00  0.93827000000E+00 0.  1.
     999902    2    1    2    0    0 -0.95314834406E-02 -0.13149524843E-01 -0.17185023762E-01  0.10202850381E+01  0.10200110170E+01 0.  0.
     999903    2    3    3    0    0 -0.94896331042E-01  0.86214251435E-01  0.10064400036E-01  0.13017108568E+00  0.20124825564E-01 0.  0.
         14    1    1    2    0    0  0.95314834406E-02  0.13149524843E-01  0.17185023762E-01  0.23644961871E-01  0.00000000000E+00 0.  1.
     999901    1    3    3    0    0  0.85364847601E-01 -0.99363776278E-01 -0.27249423798E-01  0.89011395245E+00  0.88000000000E+00 0.  1.
        -11    1    4    4    0    0 -0.84868371098E-01  0.79853701038E-01  0.14614254869E-01  0.11744399324E+00  0.51100000000E-03 0.  1.
         11    1    4    4    0    0 -0.10027959944E-01  0.63605503978E-02 -0.45498548330E-02  0.12727092441E-01  0.51100000000E-03 0. -1.
</event>
<event>
 8    1  0.1065239E+005  0.1043930E+01  0.7957747E-01            NaN
         13   -1    0    0    0    0  0.00000000000E+00  0.00000000000E+00  0.74505805969E-08  0.10566000000E+00  0.10566000000E+00 0.  1.
     999900   -1    0    0    0    0 -0.00000000000E+00 -0.00000000000E+00 -0.74505805969E-08  0.93827000000E+00  0.93827000000E+00 0.  1.
     999902    2    1    2    0    0  0.19592983614E-03 -0.19500649759E-01 -0.14038037225E-01  0.10199012626E+01  0.10196181664E+01 0.  0.
     999903    2    3    3    0    0 -0.64111755481E-01  0.98190305319E-01  0.46461270729E-01  0.12768671134E+00  0.19839186643E-01 0.  0.
         14    1    1    2    0    0 -0.19592983614E-03  0.19500649759E-01  0.14038037225E-01  0.24028737351E-01  0.00000000000E+00 0.  1.
     999901    1    3    3    0    0  0.64307685317E-01 -0.11769095508E+00 -0.60499307955E-01  0.89221455131E+00  0.88000000000E+00 0.  1.
        -11    1    4    4    0    0 -0.20307435262E-01  0.17683201269E-01  0.14716726075E-01  0.30690889225E-01  0.51100000000E-03 0. -1.
         11    1    4    4    0    0 -0.43804320219E-01  0.80507104049E-01  0.31744544655E-01  0.96995822119E-01  0.51100000000E-03 0.  1.
</event>
<event>
 8    1  0.1065239E+005  0.1043930E+01  0.7957747E-01            NaN
         13   -1    0    0    0    0  0.00000000000E+00  0.00000000000E+00  0.74505805969E-08  0.10566000000E+00  0.10566000000E+00 0. -1.
     999900   -1    0    0    0    0 -0.00000000000E+00 -0.00000000000E+00 -0.74505805969E-08  0.93827000000E+00  0.93827000000E+00 0.  1.
     999902    2    1    2    0    0 -0.70096996439E-02  0.10906203260E-01 -0.20295285871E-01  0.10198472305E+01  0.10195628444E+01 0.  0.
     999903    2    3    3    0    0  0.34191980151E-01 -0.71161192206E-01 -0.10314104277E+00  0.13119878749E+00  0.18494332976E-01 0.  0.
         14    1    1    2    0    0  0.70096996439E-02 -0.10906203260E-01  0.20295285871E-01  0.24082769509E-01  0.00000000000E+00 0. -1.
     999901    1    3    3    0    0 -0.41201679795E-01  0.82067395466E-01  0.82845756896E-01  0.88864844300E+00  0.88000000000E+00 0. -1.
        -11    1    4    4    0    0  0.20045471894E-01 -0.23504389571E-01 -0.46577986728E-01  0.55893177054E-01  0.51100000000E-03 0. -1.
         11    1    4    4    0    0  0.14146508257E-01 -0.47656802635E-01 -0.56563056039E-01  0.75305610433E-01  0.51100000000E-03 0.  1.
</event>
<event>
 8    1  0.1065239E+005  0.1043930E+01  0.7957747E-01            NaN
         13   -1    0    0    0    0  0.00000000000E+00  0.00000000000E+00  0.74505805969E-08  0.10566000000E+00  0.10566000000E+00 0. -1.
     999900   -1    0    0    0    0 -0.00000000000E+00 -0.00000000000E+00 -0.74505805969E-08  0.93827000000E+00  0.93827000000E+00 0. -1.
     999902    2    1    2    0    0 -0.16029420773E-01  0.15153071670E-01  0.77956084278E-02  0.10205349274E+01  0.10202667341E+01 0.  0.
     999903    2    3    3    0    0 -0.11219047193E+00  0.60192297789E-01 -0.33475110486E-01  0.13319127813E+00  0.20236571944E-01 0.  0.
         14    1    1    2    0    0  0.16029420773E-01 -0.15153071670E-01 -0.77956084278E-02  0.23395072603E-01  0.00000000000E+00 0.  1.
     999901    1    3    3    0    0  0.96161051157E-01 -0.45039226119E-01  0.41270718913E-01  0.88734364926E+00  0.88000000000E+00 0. -1.
        -11    1    4    4    0    0 -0.75542000572E-01  0.38969182220E-01 -0.12460158048E-01  0.85911045116E-01  0.51100000000E-03 0.  1.
         11    1    4    4    0    0 -0.36648471357E-01  0.21223115569E-01 -0.21014952437E-01  0.47280233018E-01  0.51100000000E-03 0. -1.
</event>
<event>
 8    1  0.1065239E+005  0.1043930E+01  0.7957747E-01            NaN
         13   -1    0    0    0    0  0.00000000000E+00  0.00000000000E+00  0.74505805969E-08  0.10566000000E+00  0.10566000000E+00 0. -1.
     999900   -1    0    0    0    0 -0.00000000000E+00 -0.00000000000E+00 -0.74505805969E-08  0.93827000000E+00  0.93827000000E+00 0.  1.
     999902    2    1    2    0    0  0.33853222618E-02 -0.39711846946E-02 -0.22908925640E-01  0.10204342645E+01  0.10201637312E+01 0.  0.
     999903    2    3    3    0    0 -0.68866211599E-01 -0.10344639661E+00  0.33730249490E-01  0.13008399738E+00  0.18450056117E-01 0.  0.
         14    1    1    2    0    0 -0.33853222618E-02  0.39711846946E-02  0.22908925640E-01  0.23495735543E-01  0.00000000000E+00 0. -1.
     999901    1    3    3    0    0  0.72251533861E-01  0.99475211918E-01 -0.56639175130E-01  0.89035026708E+00  0.88000000000E+00 0. -1.
        -11    1    4    4    0    0 -0.65854840886E-01 -0.89607228321E-01  0.32507972305E-01  0.11585915941E+00  0.51100000000E-03 0.  1.
         11    1    4    4    0    0 -0.30113707130E-02 -0.13839168292E-01  0.12222771846E-02  0.14224837964E-01  0.51100000000E-03 0. -1.
</event>
<event>
 7    1  0.1065239E+005  0.1043930E+01  0.7957747E-01            NaN
         13   -1    0    0    0    0  0.00000000000E+00  0.00000000000E+00  0.74505805969E-08  0.10566000000E+00  0.10566000000E+00 0. -1.
     999900   -1    0    0    0    0 -0.00000000000E+00 -0.00000000000E+00 -0.74505805969E-08  0.93827000000E+00  0.93827000000E+00 0.  1.
     999903    2    1    2    0    0  0.78651009992E-01  0.61968094901E-01 -0.87001076526E-02  0.10359616256E+00  0.25108701003E-01 0.  0.
         14    1    1    2    0    0  0.15181069436E-01 -0.48976232299E-01 -0.19352552810E-01  0.54805633831E-01  0.00000000000E+00 0. -1.
     999901    1    1    2    0    0 -0.93832079428E-01 -0.12991862602E-01  0.28052660462E-01  0.88552820361E+00  0.88000000000E+00 0. -1.
        -11    1    3    3    0    0  0.35949085898E-01  0.41469265812E-01 -0.11750015170E-01  0.56128074628E-01  0.51100000000E-03 0.  1.
         11    1    3    3    0    0  0.42701924093E-01  0.20498829089E-01  0.30499075172E-02  0.47468087934E-01  0.51100000000E-03 0. -1.
</event>
<event>
 7    1  0.1065239E+005  0.1043930E+01  0.7957747E-01            NaN
         13   -1    0    0    0    0  0.00000000000E+00  0.00000000000E+00  0.74505805969E-08  0.10566000000E+00  0.10566000000E+00 0.  1.
     999900   -1    0    0    0    0 -0.00000000000E+00 -0.00000000000E+00 -0.74505805969E-08  0.93827000000E+00  0.93827000000E+00 0. -1.
     999903    2    1    2    0    0  0.47081221766E-01 -0.86150020471E-01  0.57180616935E-02  0.10024355506E+00  0.19432103132E-01 0.  0.
         14    1    1    2    0    0 -0.99829804691E-03  0.55793055258E-01  0.25617503867E-01  0.61401287596E-01  0.00000000000E+00 0.  1.
     999901    1    1    2    0    0 -0.46082923719E-01  0.30356965213E-01 -0.31335565561E-01  0.88228515734E+00  0.88000000000E+00 0.  1.
        -11    1    3    3    0    0  0.13094199590E-01 -0.26156243621E-01 -0.71095058662E-02  0.30106699220E-01  0.51100000000E-03 0.  1.
         11    1    3    3    0    0  0.33987022176E-01 -0.59993776850E-01  0.12827567560E-01  0.70136855844E-01  0.51100000000E-03 0. -1.
</event>
<event>
 8    1  0.1065239E+005  0.1043930E+01  0.7957747E-01            NaN
         13   -1    0    0    0    0  0.00000000000E+00  0.00000000000E+00  0.74505805969E-08  0.10566000000E+00  0.10566000000E+00 0.  1.
     999900   -1    0    0    0    0 -0.00000000000E+00 -0.00000000000E+00 -0.74505805969E-08  0.93827000000E+00  0.93827000000E+00 0.  1.
     999902    2    1    2    0    0 -0.19061115683E-01  0.65892768839E-02 -0.12328630906E-01  0.10202923216E+01  0.10200184712E+01 0.  0.
     999903    2    3    3    0    0 -0.18745294826E-01 -0.17259581665E-01 -0.12849847137E+00  0.13233719905E+00  0.18761606282E-01 0.  0.
         14    1    1    2    0    0  0.19061115683E-01 -0.65892768839E-02  0.12328630906E-01  0.23637678417E-01  0.00000000000E+00 0.  1.
     999901    1    3    3    0    0 -0.31582085700E-03  0.23848858549E-01  0.11616984047E+00  0.88795512253E+00  0.88000000000E+00 0. -1.
        -11    1    4    4    0    0 -0.36973989466E-02 -0.18580405857E-02 -0.67844895964E-01  0.67972892415E-01  0.51100000000E-03 0. -1.
         11    1    4    4    0    0 -0.15047895880E-01 -0.15401541079E-01 -0.60653575408E-01  0.64364306636E-01  0.51100000000E-03 0.  1.
</event>
<event>
 8    1  0.1065239E+005  0.1043930E+01  0.7957747E-01            NaN
         13   -1    0    0    0    0  0.00000000000E+00  0.00000000000E+00  0.74505805969E-08  0.10566000000E+00  0.10566000000E+00 0. -1.
     999900   -1    0    0    0    0 -0.00000000000E+00 -0.00000000000E+00 -0.74505805969E-08  0.93827000000E+00  0.93827000000E+00 0. -1.
     999902    2    1    2    0    0  0.12670836907E-01  0.11622863134E-01  0.16624703430E-01  0.10200130224E+01  0.10197325845E+01 0.  0.
     999903    2    3    3    0    0 -0.40020635674E-01  0.42144487267E-01  0.11704508630E+00  0.13221112209E+00  0.20060396087E-01 0.  0.
         14    1    1    2    0    0 -0.12670836907E-01 -0.11622863134E-01 -0.16624703430E-01  0.23916977641E-01  0.00000000000E+00 0.  1.
     999901    1    3    3    0    0  0.52691472581E-01 -0.30521624133E-01 -0.10042038287E+00  0.88780190027E+00  0.88000000000E+00 0. -1.
        -11    1    4    4    0    0 -0.78166026547E-02  0.86389560120E-02  0.44919492064E-01  0.46408541523E-01  0.51100000000E-03 0.  1.
         11    1    4    4    0    0 -0.32204033019E-01  0.33505531255E-01  0.72125594235E-01  0.85802580568E-01  0.51100000000E-03 0. -1.
</event>
<event>
 8    1  0.1065239E+005  0.1043930E+01  0.7957747E-01            NaN
         13   -1    0    0    0    0  0.00000000000E+00  0.00000000000E+00  0.74505805969E-08  0.10566000000E+00  0.10566000000E+00 0. -1.
     999900   -1    0    0    0    0 -0.00000000000E+00 -0.00000000000E+00 -0.74505805969E-08  0.93827000000E+00  0.93827000000E+00 0.  1.
     999902    2    1    2    0    0  0.45576321716E-02 -0.12669102388E-01 -0.19719773062E-01  0.10200522360E+01  0.10197727278E+01 0.  0.
     999903    2    3    3    0    0  0.90372202626E-01  0.90176434554E-01 -0.13999991452E-01  0.12989828248E+00  0.19458665823E-01 0.  0.
         14    1    1    2    0    0 -0.45576321716E-02  0.12669102388E-01  0.19719773062E-01  0.23877764048E-01  0.00000000000E+00 0. -1.
     999901    1    3    3    0    0 -0.85814570454E-01 -0.10284553694E+00 -0.57197816092E-02  0.89015395347E+00  0.88000000000E+00 0.  1.
        -11    1    4    4    0    0  0.51041220390E-01  0.55958513878E-01 -0.17182287295E-01  0.77666296243E-01  0.51100000000E-03 0. -1.
         11    1    4    4    0    0  0.39330982236E-01  0.34217920675E-01  0.31822958425E-02  0.52231986242E-01  0.51100000000E-03 0.  1.
</event>
<event>
 8    1  0.1065239E+005  0.1043930E+01  0.7957747E-01            NaN
         13   -1    0    0    0    0  0.00000000000E+00  0.00000000000E+00  0.74505805969E-08  0.10566000000E+00  0.10566000000E+00 0.  1.
     999900   -1    0    0    0    0 -0.00000000000E+00 -0.00000000000E+00 -0.74505805969E-08  0.93827000000E+00  0.93827000000E+00 0.  1.
     999902    2    1    2    0    0 -0.22100496927E-01 -0.69507160072E-02  0.76367503468E-02  0.10195360587E+01  0.10192441859E+01 0.  0.
     999903    2    3    3    0    0 -0.61659986092E-01  0.40325085807E-01  0.10735486617E+00  0.13176150551E+00  0.20198034888E-01 0.  0.
         14    1    1    2    0    0  0.22100496927E-01  0.69507160072E-02 -0.76367503468E-02  0.24393941324E-01  0.00000000000E+00 0. -1.
     999901    1    3    3    0    0  0.39559489165E-01 -0.47275801815E-01 -0.99718115828E-01  0.88777455316E+00  0.88000000000E+00 0.  1.
        -11    1    4    4    0    0 -0.53758084395E-01  0.34663464371E-01  0.10265106340E+00  0.12095035899E+00  0.51100000000E-03 0.  1.
         11    1    4    4    0    0 -0.79019016969E-02  0.56616214368E-02  0.47038027726E-02  0.10811146528E-01  0.51100000000E-03 0. -1.
</event>
<event>
 8    1  0.1065239E+005  0.1043930E+01  0.7957747E-01            NaN
         13   -1    0    0    0    0  0.00000000000E+00  0.00000000000E+00  0.74505805969E-08  0.10566000000E+00  0.10566000000E+00 0.  1.
     999900   -1    0    0    0    0 -0.00000000000E+00 -0.00000000000E+00 -0.74505805969E-08  0.93827000000E+00  0.93827000000E+00 0.  1.
     999902    2    1    2    0    0  0.19431200427E-01  0.12994134199E-01 -0.28849200788E-02  0.10203770419E+01  0.10201051738E+01 0.  0.
     999903    2    3    3    0    0  0.45999905742E-01 -0.10153490140E+00  0.63997978493E-01  0.13004220696E+00  0.19746058116E-01 0.  0.
         14    1    1    2    0    0 -0.19431200427E-01 -0.12994134199E-01  0.28849200788E-02  0.23552958147E-01  0.00000000000E+00 0.  1.
     999901    1    3    3    0    0 -0.26568705315E-01  0.11452903559E+00 -0.66882898572E-01  0.89033483489E+00  0.88000000000E+00 0.  1.
        -11    1    4    4    0    0  0.28702917251E-01 -0.50552319460E-01  0.23646887175E-01  0.62760105605E-01  0.51100000000E-03 0.  1.
         11    1    4    4    0    0  0.17296988491E-01 -0.50982581935E-01  0.40351091318E-01  0.67282101359E-01  0.51100000000E-03 0. -1.
</event>
<event>
 8    1  0.1065239E+005  0.1043930E+01  0.7957747E-01            NaN
         13   -1    0    0    0    0  0.00000000000E+00  0.00000000000E+00  0.74505805969E-08  0.10566000000E+00  0.10566000000E+00 0.  1.
     999900   -1    0    0    0    0 -0.00000000000E+00 -0.00000000000E+00 -0.74505805969E-08  0.93827000000E+00  0.93827000000E+00 0.  1.
     999902    2    1    2    0    0 -0.11647458892E-01  0.14966132098E-01 -0.14174611664E-01  0.10202536822E+01  0.10199789253E+01 0.  0.
     999903    2    3    3    0    0  0.66565522012E-01  0.19406923644E-01  0.10626679924E+00  0.12860177452E+00  0.20932901955E-01 0.  0.
         14    1    1    2    0    0  0.11647458892E-01 -0.14966132098E-01  0.14174611664E-01  0.23676317797E-01  0.00000000000E+00 0. -1.
     999901    1    3    3    0    0 -0.78212980904E-01 -0.44407915468E-02 -0.12044141090E+00  0.89165190768E+00  0.88000000000E+00 0.  1.
        -11    1    4    4    0    0  0.32042879846E-01  0.17165039290E-02  0.35187858694E-01  0.47624983517E-01  0.51100000000E-03 0.  1.
         11    1    4    4    0    0  0.34522642166E-01  0.17690419715E-01  0.71078940542E-01  0.80976791005E-01  0.51100000000E-03 0. -1.
</event>
<event>
 8    1  0.1065239E+005  0.1043930E+01  0.7957747E-01            NaN
         13   -1    0    0    0    0  0.00000000000E+00  0.00000000000E+00  0.74505805969E-08  0.10566000000E+00  0.10566000000E+00 0. -1.
     999900   -1    0    0    0    0 -0.00000000000E+00 -0.00000000000E+00 -0.74505805969E-08  0.93827000000E+00  0.93827000000E+00 0.  1.
     999902    2    1    2    0    0 -0.33974453473E-02 -0.10193089111E-01  0.21119584419E-01  0.10202344615E+01  0.10199592530E+01 0.  0.
     999903    2    3    3    0    0 -0.11623030925E+00  0.13400482742E-02 -0.53163618583E-01  0.12985125032E+00  0.22884412864E-01 0.  0.
         14    1    1    2    0    0  0.33974453473E-02  0.10193089111E-01 -0.21119584419E-01  0.23695538537E-01  0.00000000000E+00 0.  1.
     999901    1    3    3    0    0  0.11283286390E+00 -0.11533137385E-01  0.74283203002E-01  0.89038321114E+00  0.88000000000E+00 0. -1.
        -11    1    4    4    0    0 -0.15830899447E-01 -0.77696782915E-02 -0.72118544631E-02  0.19059308588E-01  0.51100000000E-03 0. -1.
         11    1    4    4    0    0 -0.10039940980E+00  0.91097265657E-02 -0.45951764120E-01  0.11079194173E+00  0.51100000000E-03 0.  1.
</event>
<event>
 8    1  0.1065239E+005  0.1043930E+01  0.7957747E-01            NaN
         13   -1    0    0    0    0  0.00000000000E+00  0.00000000000E+00  0.74505805969E-08  0.10566000000E+00  0.10566000000E+00 0. -1.
     999900   -1    0    0    0    0 -0.00000000000E+00 -0.00000000000E+00 -0.74505805969E-08  0.93827000000E+00  0.93827000000E+00 0. -1.
     999902    2    1    2    0    0 -0.19392994298E-01 -0.13175038062E-01 -0.11954836461E-03  0.10204846562E+01  0.10202152956E+01 0.  0.
     999903    2    3    3    0    0 -0.36398050608E-01 -0.64793629136E-01  0.10752803087E+00  0.13226078112E+00  0.20189213336E-01 0.  0.
         14    1    1    2    0    0  0.19392994298E-01  0.13175038062E-01  0.11954836461E-03  0.23445343836E-01  0.00000000000E+00 0.  1.
     999901    1    3    3    0    0  0.17005056310E-01  0.51618591074E-01 -0.10764757923E+00  0.88822387504E+00  0.88000000000E+00 0. -1.
        -11    1    4    4    0    0 -0.25271083475E-01 -0.26780820710E-01  0.59888712489E-01  0.70304758178E-01  0.51100000000E-03 0. -1.
         11    1    4    4    0    0 -0.11126967133E-01 -0.38012808426E-01  0.47639318379E-01  0.61956022941E-01  0.51100000000E-03 0.  1.
</event>
<event>
 8    1  0.1065239E+005  0.1043930E+01  0.7957747E-01            NaN
         13   -1    0    0    0    0  0.00000000000E+00  0.00000000000E+00  0.74505805969E-08  0.10566000000E+00  0.10566000000E+00 0. -1.
     999900   -1    0    0    0    0 -0.00000000000E+00 -0.00000000000E+00 -0.74505805969E-08  0.93827000000E+00  0.93827000000E+00 0. -1.
     999902    2    1    2    0    0  0.16950343681E-01 -0.10304939143E-01 -0.12637309040E-01  0.10204096365E+01  0.10201385292E+01 0.  0.
     999903    2    3    3    0    0  0.16494803835E-01  0.11326137056E+00 -0.59480202524E-01  0.13054273793E+00  0.20082214005E-01 0.  0.
         14    1    1    2    0    0 -0.16950343681E-01  0.10304939143E-01  0.12637309040E-01  0.23520363548E-01  0.00000000000E+00 0. -1.
     999901    1    3    3    0    0  0.45553984643E-03 -0.12356630971E+00  0.46842893483E-01  0.88986689852E+00  0.88000000000E+00 0.  1.
        -11    1    4    4    0    0  0.78212248143E-02  0.28433048101E-01 -0.66584437815E-02  0.30235835965E-01  0.51100000000E-03 0. -1.
         11    1    4    4    0    0  0.86735790205E-02  0.84828322462E-01 -0.52821758742E-01  0.10030690197E+00  0.51100000000E-03 0.  1.
</event>
<event>
 8    1  0.1065239E+005  0.1043930E+01  0.7957747E-01            NaN
         13   -1    0    0    0    0  0.00000000000E+00  0.00000000000E+00  0.74505805969E-08  0.10566000000E+00  0.10566000000E+00 0.  1.
     999900   -1    0    0    0    0 -0.00000000000E+00 -0.00000000000E+00 -0.74505805969E-08  0.93827000000E+00  0.93827000000E+00 0.  1.
     999902    2    1    2    0    0  0.64788660215E-02 -0.20087091201E-01  0.91586402010E-02  0.10209224441E+01  0.10206631615E+01 0.  0.
     999903    2    3    3    0    0  0.65019102320E-01 -0.11444479710E+00  0.12990547769E-01  0.13393596200E+00  0.21094841417E-01 0.  0.
         14    1    1    2    0    0 -0.64788660215E-02  0.20087091201E-01 -0.91586402010E-02  0.23007555893E-01  0.00000000000E+00 0. -1.
     999901    1    3    3    0    0 -0.58540236299E-01  0.94357705902E-01 -0.38319075675E-02  0.88698648211E+00  0.88000000000E+00 0.  1.
        -11    1    4    4    0    0  0.45282617652E-01 -0.76157892137E-01  0.18475904063E-01  0.90510552690E-01  0.51100000000E-03 0. -1.
         11    1    4    4    0    0  0.19736484668E-01 -0.38286904966E-01 -0.54853562941E-02  0.43425409308E-01  0.51100000000E-03 0.  1.
</event>
<event>
 8    1  0.1065239E+005  0.1043930E+01  0.7957747E-01            NaN
         13   -1    0    0    0    0  0.00000000000E+00  0.00000000000E+00  0.74505805969E-08  0.10566000000E+00  0.10566000000E+00 0.  1.
     999900   -1    0    0    0    0 -0.00000000000E+00 -0.00000000000E+00 -0.74505805969E-08  0.93827000000E+00  0.93827000000E+00 0. -1.
     999902    2    1    2    0    0  0.11610707756E-01  0.65981447570E-03  0.20884147340E-01  0.10200262032E+01  0.10197460781E+01 0.  0.
     999903    2    3    3    0    0 -0.56296590242E-01  0.96887437004E-03  0.11781152033E+00  0.13210367718E+00  0.20039521269E-01 0.  0.
         14    1    1    2    0    0 -0.11610707756E-01 -0.65981447570E-03 -0.20884147340E-01  0.23903796766E-01  0.00000000000E+00 0. -1.
     999901    1    3    3    0    0  0.67907297998E-01 -0.30905989434E-03 -0.96927372986E-01  0.88792252605E+00  0.88000000000E+00 0. -1.
        -11    1    4    4    0    0 -0.34595730842E-01  0.68526006496E-02  0.87646096280E-01  0.94477097977E-01  0.51100000000E-03 0. -1.
         11    1    4    4    0    0 -0.21700859400E-01 -0.58837262796E-02  0.30165424046E-01  0.37626579203E-01  0.51100000000E-03 0.  1.
</event>
<event>
 8    1  0.1065239E+005  0.1043930E+01  0.7957747E-01            NaN
         13   -1    0    0    0    0  0.00000000000E+00  0.00000000000E+00  0.74505805969E-08  0.10566000000E+00  0.10566000000E+00 0.  1.
     999900   -1    0    0    0    0 -0.00000000000E+00 -0.00000000000E+00 -0.74505805969E-08  0.93827000000E+00  0.93827000000E+00 0.  1.
     999902    2    1    2    0    0 -0.66485847212E-02  0.18727329649E-01  0.11986367606E-01  0.10207224675E+01  0.10204586058E+01 0.  0.
     999903    2    3    3    0    0  0.79432535194E-01  0.93219942775E-01  0.46895771744E-01  0.13270345022E+00  0.20285633226E-01 0.  0.
         14    1    1    2    0    0  0.66485847212E-02 -0.18727329649E-01 -0.11986367606E-01  0.23207532462E-01  0.00000000000E+00 0. -1.
     999901    1    3    3    0    0 -0.86081119915E-01 -0.74492613126E-01 -0.34909404138E-01  0.88801901732E+00  0.88000000000E+00 0. -1.
        -11    1    4    4    0    0  0.52956080048E-01  0.46681868034E-01  0.26729975247E-01  0.75487057930E-01  0.51100000000E-03 0. -1.
         11    1    4    4    0    0  0.26476455145E-01  0.46538074741E-01  0.20165796497E-01  0.57216392293E-01  0.51100000000E-03 0.  1.
</event>
<event>
 8    1  0.1065239E+005  0.1043930E+01  0.7957747E-01            NaN
         13   -1    0    0    0    0  0.00000000000E+00  0.00000000000E+00  0.74505805969E-08  0.10566000000E+00  0.10566000000E+00 0.  1.
     999900   -1    0    0    0    0 -0.00000000000E+00 -0.00000000000E+00 -0.74505805969E-08  0.93827000000E+00  0.93827000000E+00 0. -1.
     999902    2    1    2    0    0 -0.17356890776E-01  0.16469234590E-01  0.13052485067E-02  0.10199675081E+01  0.10196859892E+01 0.  0.
     999903    2    3    3    0    0 -0.92169361793E-01  0.90820840801E-01  0.24859363734E-01  0.13335605794E+00  0.20548329571E-01 0.  0.
         14    1    1    2    0    0  0.17356890776E-01 -0.16469234590E-01 -0.13052485067E-02  0.23962491921E-01  0.00000000000E+00 0. -1.
     999901    1    3    3    0    0  0.74812471017E-01 -0.74351606211E-01 -0.23554115228E-01  0.88661145013E+00  0.88000000000E+00 0.  1.
        -11    1    4    4    0    0 -0.24221599215E-01  0.12504591924E-01  0.34171695834E-02  0.27477060554E-01  0.51100000000E-03 0. -1.
         11    1    4    4    0    0 -0.67947762578E-01  0.78316248877E-01  0.21442194151E-01  0.10587899739E+00  0.51100000000E-03 0.  1.
</event>
<event>
 8    1  0.1065239E+005  0.1043930E+01  0.7957747E-01            NaN
         13   -1    0    0    0    0  0.00000000000E+00  0.00000000000E+00  0.74505805969E-08  0.10566000000E+00  0.10566000000E+00 0. -1.
     999900   -1    0    0    0    0 -0.00000000000E+00 -0.00000000000E+00 -0.74505805969E-08  0.93827000000E+00  0.93827000000E+00 0. -1.
     999902    2    1    2    0    0  0.16221473306E-01 -0.17490716065E-01 -0.90687473674E-02  0.10184093510E+01  0.10180895357E+01 0.  0.
     999903    2    3    3    0    0 -0.91690013971E-01 -0.36599718009E-02  0.84813770620E-01  0.12675352856E+00  0.21275038426E-01 0.  0.
         14    1    1    2    0    0 -0.16221473306E-01  0.17490716065E-01  0.90687473674E-02  0.25520648963E-01  0.00000000000E+00 0. -1.
     999901    1    3    3    0    0  0.10791148728E+00 -0.13830744264E-01 -0.93882517987E-01  0.89165582248E+00  0.88000000000E+00 0. -1.
        -11    1    4    4    0    0 -0.10823668023E-01 -0.71522008036E-02  0.15222207399E-01  0.20007060877E-01  0.51100000000E-03 0. -1.
         11    1    4    4    0    0 -0.80866345948E-01  0.34922290027E-02  0.69591563220E-01  0.10674646768E+00  0.51100000000E-03 0.  1.
</event>
<event>
 8    1  0.1065239E+005  0.1043930E+01  0.7957747E-01            NaN
         13   -1    0    0    0    0  0.00000000000E+00  0.00000000000E+00  0.74505805969E-08  0.10566000000E+00  0.10566000000E+00 0.  1.
     999900   -1    0    0    0    0 -0.00000000000E+00 -0.00000000000E+00 -0.74505805969E-08  0.93827000000E+00  0.93827000000E+00 0. -1.
     999902    2    1    2    0    0  0.15569861287E-01  0.15343058635E-01  0.83293180537E-02  0.10205375318E+01  0.10202693989E+01 0.  0.
     999903    2    3    3    0    0 -0.25293780971E-01 -0.12994062214E-01 -0.12438205599E+00  0.12919857357E+00  0.20316361691E-01 0.  0.
         14    1    1    2    0    0 -0.15569861287E-01 -0.15343058635E-01 -0.83293180537E-02  0.23392468190E-01  0.00000000000E+00 0.  1.
     999901    1    3    3    0    0  0.40863642258E-01  0.28337120849E-01  0.13271137404E+00  0.89133895824E+00  0.88000000000E+00 0.  1.
        -11    1    4    4    0    0 -0.47791336975E-02  0.50226252660E-02 -0.16308552938E-01  0.17728420781E-01  0.51100000000E-03 0.  1.
         11    1    4    4    0    0 -0.20514647273E-01 -0.18016687480E-01 -0.10807350305E+00  0.11147015279E+00  0.51100000000E-03 0. -1.
</event>
<event>
 8    1  0.1065239E+005  0.1043930E+01  0.7957747E-01            NaN
         13   -1    0    0    0    0  0.00000000000E+00  0.00000000000E+00  0.74505805969E-08  0.10566000000E+00  0.10566000000E+00 0. -1.
     999900   -1    0    0    0    0 -0.00000000000E+00 -0.00000000000E+00 -0.74505805969E-08  0.93827000000E+00  0.93827000000E+00 0.  1.
     999902    2    1    2    0    0 -0.27399393685E-01  0.77832635757E-02 -0.15106375685E-01  0.10116885895E+01  0.10111747097E+01 0.  0.
     999903    2    3    3    0    0 -0.60265777699E-01 -0.91278842769E-01  0.53730133841E-01  0.12285116612E+00  0.15546402680E-01 0.  0.
         14    1    1    2    0    0  0.27399393685E-01 -0.77832635757E-02  0.15106375685E-01  0.32241410523E-01  0.00000000000E+00 0. -1.
     999901    1    3    3    0    0  0.32866384014E-01  0.99062106344E-01 -0.68836509525E-01  0.88883742335E+00  0.88000000000E+00 0.  1.
        -11    1    4    4    0    0 -0.62420140832E-02 -0.35327235841E-02  0.56327983520E-02  0.91341345518E-02  0.51100000000E-03 0. -1.
         11    1    4    4    0    0 -0.54023763616E-01 -0.87746119185E-01  0.48097335488E-01  0.11371703157E+00  0.51100000000E-03 0.  1.
</event>
<event>
 8    1  0.1065239E+005  0.1043930E+01  0.7957747E-01            NaN
         13   -1    0    0    0    0  0.00000000000E+00  0.00000000000E+00  0.74505805969E-08  0.10566000000E+00  0.10566000000E+00 0. -1.
     999900   -1    0    0    0    0 -0.00000000000E+00 -0.00000000000E+00 -0.74505805969E-08  0.93827000000E+00  0.93827000000E+00 0.  1.
     999902    2    1    2    0    0 -0.80923725947E-02  0.69220888951E-02 -0.22122863734E-01  0.10193775478E+01  0.10190818230E+01 0.  0.
     999903    2    3    3    0    0 -0.11539892551E+00 -0.77791676665E-02 -0.60379353123E-01  0.13191240358E+00  0.19436781488E-01 0.  0.
         14    1    1    2    0    0  0.80923725947E-02 -0.69220888951E-02  0.22122863734E-01  0.24552452193E-01  0.00000000000E+00 0. -1.
     999901    1    3    3    0    0  0.10730655292E+00  0.14701256562E-01  0.38256489388E-01  0.88746514423E+00  0.88000000000E+00 0. -1.
        -11    1    4    4    0    0 -0.76236591112E-01 -0.68386888992E-02 -0.49847493190E-01  0.91344508256E-01  0.51100000000E-03 0.  1.
         11    1    4    4    0    0 -0.39162334402E-01 -0.94047876736E-03 -0.10531859933E-01  0.40567895321E-01  0.51100000000E-03 0. -1.
</event>
<event>
 8    1  0.1065239E+005  0.1043930E+01  0.7957747E-01            NaN
         13   -1    0    0    0    0  0.00000000000E+00  0.00000000000E+00  0.74505805969E-08  0.10566000000E+00  0.10566000000E+00 0. -1.
     999900   -1    0    0    0    0 -0.00000000000E+00 -0.00000000000E+00 -0.74505805969E-08  0.93827000000E+00  0.93827000000E+00 0. -1.
     999902    2    1    2    0    0  0.21331799835E-01  0.18472829983E-01  0.12974736783E-01  0.10128714275E+01  0.10123951273E+01 0.  0.
     999903    2    3    3    0    0  0.36446991082E-01  0.29077690071E-01  0.11611014100E+00  0.12665596629E+00  0.19653847876E-01 0.  0.
         14    1    1    2    0    0 -0.21331799835E-01 -0.18472829983E-01 -0.12974736783E-01  0.31058572510E-01  0.00000000000E+00 0. -1.
     999901    1    3    3    0    0 -0.15115191247E-01 -0.10604860088E-01 -0.10313540421E+00  0.88621546120E+00  0.88000000000E+00 0. -1.
        -11    1    4    4    0    0  0.21926645607E-01  0.51430154097E-02  0.55122248531E-01  0.59547895002E-01  0.51100000000E-03 0. -1.
         11    1    4    4    0    0  0.14520345475E-01  0.23934674661E-01  0.60987892465E-01  0.67108071289E-01  0.51100000000E-03 0.  1.
</event>
<event>
 8    1  0.1065239E+005  0.1043930E+01  0.7957747E-01            NaN
         13   -1    0    0    0    0  0.00000000000E+00  0.00000000000E+00  0.74505805969E-08  0.10566000000E+00  0.10566000000E+00 0.  1.
     999900   -1    0    0    0    0 -0.00000000000E+00 -0.00000000000E+00 -0.74505805969E-08  0.93827000000E+00  0.93827000000E+00 0.  1.
     999902    2    1    2    0    0 -0.17755513166E-01 -0.11618184489E-01  0.14849569424E-01  0.10180311550E+01  0.10177016667E+01 0.  0.
     999903    2    3    3    0    0  0.67283052685E-01  0.98851858449E-01  0.36913496429E-01  0.12678371187E+00  0.20317585468E-01 0.  0.
         14    1    1    2    0    0  0.17755513166E-01  0.11618184489E-01 -0.14849569424E-01  0.25898844968E-01  0.00000000000E+00 0. -1.
     999901    1    3    3    0    0 -0.85038565851E-01 -0.11047004294E+00 -0.22063927005E-01  0.89124744316E+00  0.88000000000E+00 0.  1.
        -11    1    4    4    0    0  0.18522058876E-01  0.24478247008E-01  0.18874407595E-01  0.36038252242E-01  0.51100000000E-03 0.  1.
         11    1    4    4    0    0  0.48760993810E-01  0.74373611441E-01  0.18039088834E-01  0.90745459628E-01  0.51100000000E-03 0. -1.
</event>
<event>
 8    1  0.1065239E+005  0.1043930E+01  0.7957747E-01            NaN
         13   -1    0    0    0    0  0.00000000000E+00  0.00000000000E+00  0.74505805969E-08  0.10566000000E+00  0.10566000000E+00 0.  1.
     999900   -1    0    0    0    0 -0.00000000000E+00 -0.00000000000E+00 -0.74505805969E-08  0.93827000000E+00  0.93827000000E+00 0. -1.
     999902    2    1    2    0    0 -0.51094360288E-03  0.23265473035E-01  0.51700923519E-02  0.10200915195E+01  0.10198129412E+01 0.  0.
     999903    2    3    3    0    0  0.32184334232E-01 -0.71142302930E-01 -0.99888260875E-01  0.12822882436E+00  0.19180930624E-01 0.  0.
         14    1    1    2    0    0  0.51094360288E-03 -0.23265473035E-01 -0.51700923519E-02  0.23838480527E-01  0.00000000000E+00 0.  1.
     999901    1    3    3    0    0 -0.32695277835E-01  0.94407775964E-01  0.10505835323E+00  0.89186269512E+00  0.88000000000E+00 0.  1.
        -11    1    4    4    0    0  0.25611263589E-01 -0.33582917072E-01 -0.54349740644E-01  0.68832438361E-01  0.51100000000E-03 0.  1.
         11    1    4    4    0    0  0.65730706428E-02 -0.37559385858E-01 -0.45538520231E-01  0.59396385997E-01  0.51100000000E-03 0. -1.
</event>
<event>
 8    1  0.1065239E+005  0.1043930E+01  0.7957747E-01            NaN
         13   -1    0    0    0    0  0.00000000000E+00  0.00000000000E+00  0.74505805969E-08  0.10566000000E+00  0.10566000000E+00 0. -1.
     999900   -1    0    0    0    0 -0.00000000000E+00 -0.00000000000E+00 -0.74505805969E-08  0.93827000000E+00  0.93827000000E+00 0.  1.
     999902    2    1    2    0    0  0.17978394426E-01  0.12909908641E-01 -0.84456431145E-02  0.10202399748E+01  0.10199648959E+01 0.  0.
     999903    2    3    3    0    0  0.44822235280E-01  0.70636587816E-01 -0.10154218168E+00  0.13304218016E+00  0.19769843911E-01 0.  0.
         14    1    1    2    0    0 -0.17978394426E-01 -0.12909908641E-01  0.84456431145E-02  0.23690025219E-01  0.00000000000E+00 0.  1.
     999901    1    3    3    0    0 -0.26843840854E-01 -0.57726679175E-01  0.93096538567E-01  0.88719779462E+00  0.88000000000E+00 0. -1.
        -11    1    4    4    0    0  0.19104524626E-01  0.15817839448E-01 -0.36939616492E-01  0.44497003198E-01  0.51100000000E-03 0. -1.
         11    1    4    4    0    0  0.25717710654E-01  0.54818748367E-01 -0.64602565190E-01  0.88545176966E-01  0.51100000000E-03 0.  1.
</event>
<event>
 7    1  0.1065239E+005  0.1043930E+01  0.7957747E-01            NaN
         13   -1    0    0    0    0  0.00000000000E+00  0.00000000000E+00  0.74505805969E-08  0.10566000000E+00  0.10566000000E+00 0. -1.
     999900   -1    0    0    0    0 -0.00000000000E+00 -0.00000000000E+00 -0.74505805969E-08  0.93827000000E+00  0.93827000000E+00 0.  1.
     999903    2    1    2    0    0  0.86559148003E-01 -0.10887239422E-01  0.23278202619E-01  0.92347210670E-01  0.19367873299E-01 0.  0.
         14    1    1    2    0    0  0.47106003018E-01 -0.66988147401E-02 -0.38469199427E-01  0.61186019186E-01  0.00000000000E+00 0.  1.
     999901    1    1    2    0    0 -0.13366515102E+00  0.17586054162E-01  0.15190996808E-01  0.89039677014E+00  0.88000000000E+00 0. -1.
        -11    1    3    3    0    0  0.47415565441E-01 -0.15556180718E-01  0.14304581293E-01  0.51914475550E-01  0.51100000000E-03 0.  1.
         11    1    3    3    0    0  0.39143582562E-01  0.46689412961E-02  0.89736213259E-02  0.40432735120E-01  0.51100000000E-03 0. -1.
</event>
<event>
 8    1  0.1065239E+005  0.1043930E+01  0.7957747E-01            NaN
         13   -1    0    0    0    0  0.00000000000E+00  0.00000000000E+00  0.74505805969E-08  0.10566000000E+00  0.10566000000E+00 0.  1.
     999900   -1    0    0    0    0 -0.00000000000E+00 -0.00000000000E+00 -0.74505805969E-08  0.93827000000E+00  0.93827000000E+00 0.  1.
     999902    2    1    2    0    0  0.44211587052E-02  0.18877550876E-01  0.16858974469E-01  0.10182369350E+01  0.10179127281E+01 0.  0.
     999903    2    3    3    0    0  0.40842905335E-01 -0.11760846490E+00  0.14784000442E-01  0.12696857938E+00  0.20063886646E-01 0.  0.
         14    1    1    2    0    0 -0.44211587052E-02 -0.18877550876E-01 -0.16858974469E-01  0.25693065047E-01  0.00000000000E+00 0. -1.
     999901    1    3    3    0    0 -0.36421746630E-01  0.13648601578E+00  0.20749740270E-02  0.89126835557E+00  0.88000000000E+00 0. -1.
        -11    1    4    4    0    0  0.20263478539E-01 -0.85135635697E-01  0.74963593258E-02  0.87835878502E-01  0.51100000000E-03 0.  1.
         11    1    4    4    0    0  0.20579426796E-01 -0.32472829206E-01  0.72876411161E-02  0.39132700877E-01  0.51100000000E-03 0. -1.
</event>
<event>
 8    1  0.1065239E+005  0.1043930E+01  0.7957747E-01            NaN
         13   -1    0    0    0    0  0.00000000000E+00  0.00000000000E+00  0.74505805969E-08  0.10566000000E+00  0.10566000000E+00 0. -1.
     999900   -1    0    0    0    0 -0.00000000000E+00 -0.00000000000E+00 -0.74505805969E-08  0.93827000000E+00  0.93827000000E+00 0.  1.
     999902    2    1    2    0    0  0.17187837830E-01  0.46263702250E-02 -0.15938540484E-01  0.10200372784E+01  0.10197574159E+01 0.  0.
     999903    2    3    3    0    0  0.11287343144E+00 -0.57709568017E-01  0.28915220300E-01  0.13152539789E+00  0.19799862591E-01 0.  0.
         14    1    1    2    0    0 -0.17187837830E-01 -0.46263702250E-02  0.15938540484E-01  0.23892721559E-01  0.00000000000E+00 0. -1.
     999901    1    3    3    0    0 -0.95685593614E-01  0.62335938242E-01 -0.44853760784E-01  0.88851188055E+00  0.88000000000E+00 0.  1.
        -11    1    4    4    0    0  0.23636956635E-01 -0.13446367228E-01 -0.18737871095E-02  0.27263211655E-01  0.51100000000E-03 0. -1.
         11    1    4    4    0    0  0.89236474810E-01 -0.44263200788E-01  0.30789007409E-01  0.10426218624E+00  0.51100000000E-03 0.  1.
</event>
<event>
 8    1  0.1065239E+005  0.1043930E+01  0.7957747E-01            NaN
         13   -1    0    0    0    0  0.00000000000E+00  0.00000000000E+00  0.74505805969E-08  0.10566000000E+00  0.10566000000E+00 0.  1.
     999900   -1    0    0    0    0 -0.00000000000E+00 -0.00000000000E+00 -0.74505805969E-08  0.93827000000E+00  0.93827000000E+00 0.  1.
     999902    2    1    2    0    0  0.74391207025E-02 -0.17292173021E-01 -0.13392243541E-01  0.10208277934E+01  0.10205663485E+01 0.  0.
     999903    2    3    3    0    0  0.61674604859E-01 -0.10647097285E+00  0.45353071789E-01  0.13271442326E+00  0.20405687362E-01 0.  0.
         14    1    1    2    0    0 -0.74391207025E-02  0.17292173021E-01  0.13392243541E-01  0.23102206641E-01  0.00000000000E+00 0.  1.
     999901    1    3    3    0    0 -0.54235484157E-01  0.89178799824E-01 -0.58745315330E-01  0.88811337010E+00  0.88000000000E+00 0.  1.
        -11    1    4    4    0    0  0.44033406834E-01 -0.55977578222E-01  0.26845028046E-01  0.76114038343E-01  0.51100000000E-03 0.  1.
         11    1    4    4    0    0  0.17641198026E-01 -0.50493394623E-01  0.18508043743E-01  0.56600384915E-01  0.51100000000E-03 0. -1.
</event>
<event>
 8    1  0.1065239E+005  0.1043930E+01  0.7957747E-01            NaN
         13   -1    0    0    0    0  0.00000000000E+00  0.00000000000E+00  0.74505805969E-08  0.10566000000E+00  0.10566000000E+00 0.  1.
     999900   -1    0    0    0    0 -0.00000000000E+00 -0.00000000000E+00 -0.74505805969E-08  0.93827000000E+00  0.93827000000E+00 0. -1.
     999902    2    1    2    0    0  0.15994905990E-01 -0.36114740459E-02 -0.16519599371E-01  0.10206538980E+01  0.10203884567E+01 0.  0.
     999903    2    3    3    0    0 -0.70797865736E-01  0.74966599360E-01  0.73416266656E-01  0.12835576458E+00  0.21282041252E-01 0.  0.
         14    1    1    2    0    0 -0.15994905990E-01  0.36114740459E-02  0.16519599371E-01  0.23276102032E-01  0.00000000000E+00 0.  1.
     999901    1    3    3    0    0  0.86792771725E-01 -0.78578073406E-01 -0.89935866027E-01  0.89229813338E+00  0.88000000000E+00 0. -1.
        -11    1    4    4    0    0 -0.15164724317E-01  0.30103912225E-01  0.26229499040E-01  0.42713723038E-01  0.51100000000E-03 0. -1.
         11    1    4    4    0    0 -0.55633141419E-01  0.44862687135E-01  0.47186767616E-01  0.85642041546E-01  0.51100000000E-03 0.  1.
</event>
<event>
 8    1  0.1065239E+005  0.1043930E+01  0.7957747E-01            NaN
         13   -1    0    0    0    0  0.00000000000E+00  0.00000000000E+00  0.74505805969E-08  0.10566000000E+00  0.10566000000E+00 0.  1.
     999900   -1    0    0    0    0 -0.00000000000E+00 -0.00000000000E+00 -0.74505805969E-08  0.93827000000E+00  0.93827000000E+00 0.  1.
     999902    2    1    2    0    0  0.26317469663E-02  0.19491420159E-01 -0.12464575666E-01  0.10206446570E+01  0.10203790025E+01 0.  0.
     999903    2    3    3    0    0 -0.11213672050E+00 -0.60258291995E-01  0.98483573968E-02  0.12933680632E+00  0.20623129883E-01 0.  0.
         14    1    1    2    0    0 -0.26317469663E-02 -0.19491420159E-01  0.12464575666E-01  0.23285342997E-01  0.00000000000E+00 0.  1.
     999901    1    3    3    0    0  0.11476846747E+00  0.79749712155E-01 -0.22312933063E-01  0.89130785069E+00  0.88000000000E+00 0.  1.
        -11    1    4    4    0    0 -0.89655089301E-01 -0.40722978782E-01  0.13235231550E-01  0.99357075811E-01  0.51100000000E-03 0. -1.
         11    1    4    4    0    0 -0.22481631199E-01 -0.19535313213E-01 -0.33868741529E-02  0.29979730507E-01  0.51100000000E-03 0.  1.
</event>
<event>
 8    1  0.1065239E+005  0.1043930E+01  0.7957747E-01            NaN
         13   -1    0    0    0    0  0.00000000000E+00  0.00000000000E+00  0.74505805969E-08  0.10566000000E+00  0.10566000000E+00 0. -1.
     999900   -1    0    0    0    0 -0.00000000000E+00 -0.00000000000E+00 -0.74505805969E-08  0.93827000000E+00  0.93827000000E+00 0.  1.
     999902    2    1    2    0    0  0.22973334880E-01 -0.58705016686E-02  0.21903840336E-03  0.10202174530E+01  0.10199418447E+01 0.  0.
     999903    2    3    3    0    0 -0.67943361365E-01 -0.23220553267E-01  0.10549577721E+00  0.12912258622E+00  0.19692354210E-01 0.  0.
         14    1    1    2    0    0 -0.22973334880E-01  0.58705016686E-02 -0.21903840336E-03  0.23712546957E-01  0.00000000000E+00 0.  1.
     999901    1    3    3    0    0  0.90916696246E-01  0.17350051599E-01 -0.10527673881E+00  0.89109486682E+00  0.88000000000E+00 0.  1.
        -11    1    4    4    0    0 -0.26005654935E-01 -0.15197788830E-02  0.48945114537E-01  0.55448076382E-01  0.51100000000E-03 0.  1.
         11    1    4    4    0    0 -0.41937706431E-01 -0.21700774384E-01  0.56550662676E-01  0.73674509837E-01  0.51100000000E-03 0. -1.
</event>
<event>
 8    1  0.1065239E+005  0.1043930E+01  0.7957747E-01            NaN
         13   -1    0    0    0    0  0.00000000000E+00  0.00000000000E+00  0.74505805969E-08  0.10566000000E+00  0.10566000000E+00 0.  1.
     999900   -1    0    0    0    0 -0.00000000000E+00 -0.00000000000E+00 -0.74505805969E-08  0.93827000000E+00  0.93827000000E+00 0.  1.
     999902    2    1    2    0    0 -0.18684704933E-01 -0.70914513668E-03 -0.15476596096E-01  0.10196576678E+01  0.10193687328E+01 0.  0.
     999903    2    3    3    0    0 -0.41555424829E-01 -0.80520869922E-01 -0.94335518173E-01  0.13223910202E+00  0.19430035731E-01 0.  0.
         14    1    1    2    0    0  0.18684704933E-01  0.70914513668E-03  0.15476596096E-01  0.24272332232E-01  0.00000000000E+00 0.  1.
     999901    1    3    3    0    0  0.22870719896E-01  0.79811724785E-01  0.78858922077E-01  0.88741856575E+00  0.88000000000E+00 0. -1.
        -11    1    4    4    0    0 -0.14312684152E-01 -0.32542802161E-01 -0.50547559904E-01  0.61799707389E-01  0.51100000000E-03 0. -1.
         11    1    4    4    0    0 -0.27242740677E-01 -0.47978067761E-01 -0.43787958269E-01  0.70439394631E-01  0.51100000000E-03 0.  1.
</event>
<event>
 8    1  0.1065239E+005  0.1043930E+01  0.7957747E-01            NaN
         13   -1    0    0    0    0  0.00000000000E+00  0.00000000000E+00  0.74505805969E-08  0.10566000000E+00  0.10566000000E+00 0.  1.
     999900   -1    0    0    0    0 -0.00000000000E+00 -0.00000000000E+00 -0.74505805969E-08  0.93827000000E+00  0.93827000000E+00 0. -1.
     999902    2    1    2    0    0 -0.14291235148E-01 -0.18624404590E-01 -0.44714267472E-02  0.10200322699E+01  0.10197522886E+01 0.  0.
     999903    2    3    3    0    0 -0.36167255173E-02 -0.46523656939E-01  0.12040191564E+00  0.13071474216E+00  0.20302491715E-01 0.  0.
         14    1    1    2    0    0  0.14291235148E-01  0.18624404590E-01  0.44714267472E-02  0.23897730134E-01  0.00000000000E+00 0.  1.
     999901    1    3    3    0    0 -0.10674509631E-01  0.27899252349E-01 -0.12487334239E+00  0.88931752770E+00  0.88000000000E+00 0.  1.
        -11    1    4    4    0    0  0.10078641171E-03 -0.31624649016E-01  0.54203659138E-01  0.62756883035E-01  0.51100000000E-03 0. -1.
         11    1    4    4    0    0 -0.37175119290E-02 -0.14899007924E-01  0.66198256506E-01  0.67957859130E-01  0.51100000000E-03 0.  1.
</event>
<event>
 8    1  0.1065239E+005  0.1043930E+01  0.7957747E-01            NaN
         13   -1    0    0    0    0  0.00000000000E+00  0.00000000000E+00  0.74505805969E-08  0.10566000000E+00  0.10566000000E+00 0.  1.
     999900   -1    0    0    0    0 -0.00000000000E+00 -0.00000000000E+00 -0.74505805969E-08  0.93827000000E+00  0.93827000000E+00 0. -1.
     999902    2    1    2    0    0  0.14489774586E-01  0.18581921169E-01  0.13298541477E-03  0.10203660647E+01  0.10200939403E+01 0.  0.
     999903    2    3    3    0    0 -0.35887579202E-01 -0.10980148886E+00 -0.51496716538E-01  0.12812965888E+00  0.20518586060E-01 0.  0.
         14    1    1    2    0    0 -0.14489774586E-01 -0.18581921169E-01 -0.13298541477E-03  0.23563935304E-01  0.00000000000E+00 0.  1.
     999901    1    3    3    0    0  0.50377353788E-01  0.12838341002E+00  0.51629701953E-01  0.89223640582E+00  0.88000000000E+00 0.  1.
        -11    1    4    4    0    0 -0.61106139972E-02 -0.35499630819E-01 -0.75372961235E-02  0.36805371151E-01  0.51100000000E-03 0. -1.
         11    1    4    4    0    0 -0.29776965205E-01 -0.74301858037E-01 -0.43959420415E-01  0.91324287726E-01  0.51100000000E-03 0.  1.
</event>
<event>
 8    1  0.1065239E+005  0.1043930E+01  0.7957747E-01            NaN
         13   -1    0    0    0    0  0.00000000000E+00  0.00000000000E+00  0.74505805969E-08  0.10566000000E+00  0.10566000000E+00 0. -1.
     999900   -1    0    0    0    0 -0.00000000000E+00 -0.00000000000E+00 -0.74505805969E-08  0.93827000000E+00  0.93827000000E+00 0.  1.
     999902    2    1    2    0    0  0.81596122651E-02 -0.19107582536E-01  0.12481147026E-01  0.10196924668E+01  0.10194043697E+01 0.  0.
     999903    2    3    3    0    0  0.51329162639E-01 -0.10986914684E+00  0.51143737445E-01  0.13312827428E+00  0.20038542031E-01 0.  0.
         14    1    1    2    0    0 -0.81596122651E-02  0.19107582536E-01 -0.12481147026E-01  0.24237533161E-01  0.00000000000E+00 0.  1.
     999901    1    3    3    0    0 -0.43169550374E-01  0.90761564308E-01 -0.38662590419E-01  0.88656419256E+00  0.88000000000E+00 0.  1.
        -11    1    4    4    0    0  0.33836537221E-01 -0.67479529108E-01  0.21388334451E-01  0.78460946154E-01  0.51100000000E-03 0.  1.
         11    1    4    4    0    0  0.17492625417E-01 -0.42389617736E-01  0.29755402994E-01  0.54667328123E-01  0.51100000000E-03 0. -1.
</event>
<event>
 8    1  0.1065239E+005  0.1043930E+01  0.7957747E-01            NaN
         13   -1    0    0    0    0  0.00000000000E+00  0.00000000000E+00  0.74505805969E-08  0.10566000000E+00  0.10566000000E+00 0.  1.
     999900   -1    0    0    0    0 -0.00000000000E+00 -0.00000000000E+00 -0.74505805969E-08  0.93827000000E+00  0.93827000000E+00 0. -1.
     999902    2    1    2    0    0 -0.11429288039E-01 -0.60658451244E-02 -0.19883618753E-01  0.10202069859E+01  0.10199311314E+01 0.  0.
     999903    2    3    3    0    0 -0.10020487431E+00  0.80832038107E-01  0.11743929025E-01  0.13091926611E+00  0.20666377320E-01 0.  0.
         14    1    1    2    0    0  0.11429288039E-01  0.60658451244E-02  0.19883618753E-01  0.23723014076E-01  0.00000000000E+00 0.  1.
     999901    1    3    3    0    0  0.88775586266E-01 -0.86897883232E-01 -0.31627547778E-01  0.88928771981E+00  0.88000000000E+00 0.  1.
        -11    1    4    4    0    0 -0.75763695357E-01  0.66910272520E-01  0.18515973120E-02  0.10109802983E+00  0.51100000000E-03 0. -1.
         11    1    4    4    0    0 -0.24441178949E-01  0.13921765587E-01  0.98923317133E-02  0.29821236279E-01  0.51100000000E-03 0.  1.
</event>
<event>
 8    1  0.1065239E+005  0.1043930E+01  0.7957747E-01            NaN
         13   -1    0    0    0    0  0.00000000000E+00  0.00000000000E+00  0.74505805969E-08  0.10566000000E+00  0.10566000000E+00 0. -1.
     999900   -1    0    0    0    0 -0.00000000000E+00 -0.00000000000E+00 -0.74505805969E-08  0.93827000000E+00  0.93827000000E+00 0.  1.
     999902    2    1    2    0    0  0.90965237474E-03  0.92713872432E-02 -0.21403156247E-01  0.10205873098E+01  0.10203203300E+01 0.  0.
     999903    2    3    3    0    0  0.79972512631E-01 -0.27461808664E-02  0.99063250974E-01  0.12878715668E+00  0.19221335722E-01 0.  0.
         14    1    1    2    0    0 -0.90965237474E-03 -0.92713872432E-02  0.21403156247E-01  0.23342690209E-01  0.00000000000E+00 0. -1.
     999901    1    3    3    0    0 -0.79062860256E-01  0.12017568110E-01 -0.12046640722E+00  0.89180015311E+00  0.88000000000E+00 0.  1.
        -11    1    4    4    0    0  0.39314726576E-01 -0.64275467381E-02  0.61695327817E-01  0.73440694974E-01  0.51100000000E-03 0. -1.
         11    1    4    4    0    0  0.40657786055E-01  0.36813658717E-02  0.37367923157E-01  0.55346461709E-01  0.51100000000E-03 0.  1.
</event>
<event>
 8    1  0.1065239E+005  0.1043930E+01  0.7957747E-01            NaN
         13   -1    0    0    0    0  0.00000000000E+00  0.00000000000E+00  0.74505805969E-08  0.10566000000E+00  0.10566000000E+00 0. -1.
     999900   -1    0    0    0    0 -0.00000000000E+00 -0.00000000000E+00 -0.74505805969E-08  0.93827000000E+00  0.93827000000E+00 0. -1.
     999902    2    1    2    0    0  0.62246649313E-02  0.10674670323E-02  0.23479706550E-01  0.10196157540E+01  0.10193258082E+01 0.  0.
     999903    2    3    3    0    0 -0.37621312753E-01 -0.33006819478E-01 -0.11509736094E+00  0.12704243465E+00  0.19686655437E-01 0.  0.
         14    1    1    2    0    0 -0.62246649313E-02 -0.10674670323E-02 -0.23479706550E-01  0.24314246010E-01  0.00000000000E+00 0.  1.
     999901    1    3    3    0    0  0.43845977684E-01  0.34074286510E-01  0.13857706749E+00  0.89257331934E+00  0.88000000000E+00 0.  1.
        -11    1    4    4    0    0 -0.30950002499E-01 -0.14929184028E-01 -0.69283412559E-01  0.77338448182E-01  0.51100000000E-03 0.  1.
         11    1    4    4    0    0 -0.66713102537E-02 -0.18077635450E-01 -0.45813948379E-01  0.49703986470E-01  0.51100000000E-03 0. -1.
</event>
<event>
 8    1  0.1065239E+005  0.1043930E+01  0.7957747E-01            NaN
         13   -1    0    0    0    0  0.00000000000E+00  0.00000000000E+00  0.74505805969E-08  0.10566000000E+00  0.10566000000E+00 0. -1.
     999900   -1    0    0    0    0 -0.00000000000E+00 -0.00000000000E+00 -0.74505805969E-08  0.93827000000E+00  0.93827000000E+00 0.  1.
     999902    2    1    2    0    0 -0.46422135326E-03  0.89165521164E-02 -0.19106035110E-01  0.10228406430E+01  0.10226232052E+01 0.  0.
     999903    2    3    3    0    0 -0.62251706342E-01  0.39903635015E-02  0.11311669099E+00  0.13080655732E+00  0.20585716251E-01 0.  0.
         14    1    1    2    0    0  0.46422135326E-03 -0.89165521164E-02  0.19106035110E-01  0.21089357049E-01  0.00000000000E+00 0. -1.
     999901    1    3    3    0    0  0.61787484989E-01  0.49261886149E-02 -0.13222272610E+00  0.89203408563E+00  0.88000000000E+00 0.  1.
        -11    1    4    4    0    0 -0.44281671946E-01  0.98975562839E-02  0.91096985110E-01  0.10177303134E+00  0.51100000000E-03 0.  1.
         11    1    4    4    0    0 -0.17970034396E-01 -0.59071927824E-02  0.22019705878E-01  0.29033525978E-01  0.51100000000E-03 0. -1.
</event>
<event>
 8    1  0.1065239E+005  0.1043930E+01  0.7957747E-01            NaN
         13   -1    0    0    0    0  0.00000000000E+00  0.00000000000E+00  0.74505805969E-08  0.10566000000E+00  0.10566000000E+00 0. -1.
     999900   -1    0    0    0    0 -0.00000000000E+00 -0.00000000000E+00 -0.74505805969E-08  0.93827000000E+00  0.93827000000E+00 0.  1.
     999902    2    1    2    0    0  0.16529927728E-01  0.20200812406E-02 -0.18849662265E-01  0.10187778827E+01  0.10184673511E+01 0.  0.
     999903    2    3    3    0    0  0.70891833577E-01  0.25756355422E-01 -0.10662593161E+00  0.13242394604E+00  0.21862531404E-01 0.  0.
         14    1    1    2    0    0 -0.16529927728E-01 -0.20200812406E-02  0.18849662265E-01  0.25152117335E-01  0.00000000000E+00 0. -1.
     999901    1    3    3    0    0 -0.54361905849E-01 -0.23736274182E-01  0.87776269344E-01  0.88635393663E+00  0.88000000000E+00 0. -1.
        -11    1    4    4    0    0  0.36599031461E-01  0.21795111013E-02 -0.44755994973E-01  0.57858444324E-01  0.51100000000E-03 0.  1.
         11    1    4    4    0    0  0.34292802116E-01  0.23576844321E-01 -0.61869936636E-01  0.74565501711E-01  0.51100000000E-03 0. -1.
</event>
<event>
 8    1  0.1065239E+005  0.1043930E+01  0.7957747E-01            NaN
         13   -1    0    0    0    0  0.00000000000E+00  0.00000000000E+00  0.74505805969E-08  0.10566000000E+00  0.10566000000E+00 0. -1.
     999900   -1    0    0    0    0 -0.00000000000E+00 -0.00000000000E+00 -0.74505805969E-08  0.93827000000E+00  0.93827000000E+00 0.  1.
     999902    2    1    2    0    0  0.63057265906E-02  0.20593492534E-01 -0.97023205686E-02  0.10203082061E+01  0.10200347280E+01 0.  0.
     999903    2    3    3    0    0 -0.53978274746E-01 -0.51472221639E-01 -0.10487134258E+00  0.13020440837E+00  0.19802669524E-01 0.  0.
         14    1    1    2    0    0 -0.63057265906E-02 -0.20593492534E-01  0.97023205686E-02  0.23621793899E-01  0.00000000000E+00 0. -1.
     999901    1    3    3    0    0  0.60284001336E-01  0.72065714173E-01  0.95169022013E-01  0.89010379773E+00  0.88000000000E+00 0. -1.
        -11    1    4    4    0    0 -0.39838192812E-01 -0.39552329049E-01 -0.62743531707E-01  0.84193112733E-01  0.51100000000E-03 0.  1.
         11    1    4    4    0    0 -0.14140081934E-01 -0.11919892590E-01 -0.42127810875E-01  0.46011295641E-01  0.51100000000E-03 0. -1.
</event>
<event>
 8    1  0.1065239E+005  0.1043930E+01  0.7957747E-01            NaN
         13   -1    0    0    0    0  0.00000000000E+00  0.00000000000E+00  0.74505805969E-08  0.10566000000E+00  0.10566000000E+00 0.  1.
     999900   -1    0    0    0    0 -0.00000000000E+00 -0.00000000000E+00 -0.74505805969E-08  0.93827000000E+00  0.93827000000E+00 0.  1.
     999902    2    1    2    0    0  0.58935594031E-02 -0.14857230898E-02 -0.22590846491E-01  0.10205358178E+01  0.10202676451E+01 0.  0.
     999903    2    3    3    0    0  0.16674666218E-01 -0.12117057092E+00  0.39379924130E-01  0.13020943300E+00  0.21056264323E-01 0.  0.
         14    1    1    2    0    0 -0.58935594031E-02  0.14857230898E-02  0.22590846491E-01  0.23394182198E-01  0.00000000000E+00 0.  1.
     999901    1    3    3    0    0 -0.10781106815E-01  0.11968484783E+00 -0.61970770622E-01  0.89032638480E+00  0.88000000000E+00 0. -1.
        -11    1    4    4    0    0  0.21385669993E-01 -0.10257620905E+00  0.31015287714E-01  0.10927687192E+00  0.51100000000E-03 0.  1.
         11    1    4    4    0    0 -0.47110037745E-02 -0.18594361866E-01  0.83646364167E-02  0.20932561075E-01  0.51100000000E-03 0. -1.
</event>
<event>
 8    1  0.1065239E+005  0.1043930E+01  0.7957747E-01            NaN
         13   -1    0    0    0    0  0.00000000000E+00  0.00000000000E+00  0.74505805969E-08  0.10566000000E+00  0.10566000000E+00 0.  1.
     999900   -1    0    0    0    0 -0.00000000000E+00 -0.00000000000E+00 -0.74505805969E-08  0.93827000000E+00  0.93827000000E+00 0.  1.
     999902    2    1    2    0    0 -0.13664397328E-01  0.47344358327E-02 -0.18496350377E-01  0.10204513796E+01  0.10201812450E+01 0.  0.
     999903    2    3    3    0    0  0.25286416633E-01 -0.26243964024E-02 -0.12868717332E+00  0.13269390387E+00  0.20024815186E-01 0.  0.
         14    1    1    2    0    0  0.13664397328E-01 -0.47344358327E-02  0.18496350377E-01  0.23478620365E-01  0.00000000000E+00 0.  1.
     999901    1    3    3    0    0 -0.38950813961E-01  0.73588322350E-02  0.11019082294E+00  0.88775747577E+00  0.88000000000E+00 0. -1.
        -11    1    4    4    0    0  0.86472526719E-02 -0.89196727260E-02 -0.77728596642E-01  0.78716779642E-01  0.51100000000E-03 0. -1.
         11    1    4    4    0    0  0.16639163961E-01  0.62952763237E-02 -0.50958576681E-01  0.53977124225E-01  0.51100000000E-03 0.  1.
</event>
<event>
 8    1  0.1065239E+005  0.1043930E+01  0.7957747E-01            NaN
         13   -1    0    0    0    0  0.00000000000E+00  0.00000000000E+00  0.74505805969E-08  0.10566000000E+00  0.10566000000E+00 0.  1.
     999900   -1    0    0    0    0 -0.00000000000E+00 -0.00000000000E+00 -0.74505805969E-08  0.93827000000E+00  0.93827000000E+00 0. -1.
     999902    2    1    2    0    0 -0.37947884231E-03  0.96300155364E-02 -0.20522248690E-01  0.10212574639E+01  0.10210057608E+01 0.  0.
     999903    2    3    3    0    0  0.11053542647E+00 -0.49750493989E-01 -0.47920087050E-01  0.13188757306E+00  0.20119767094E-01 0.  0.
         14    1    1    2    0    0  0.37947884231E-03 -0.96300155364E-02  0.20522248690E-01  0.22672536134E-01  0.00000000000E+00 0.  1.
     999901    1    3    3    0    0 -0.11091490531E+00  0.59380509526E-01  0.27397838359E-01  0.88936989081E+00  0.88000000000E+00 0. -1.
        -11    1    4    4    0    0  0.21048473348E-01 -0.18563290949E-01 -0.95942857255E-02  0.29663874338E-01  0.51100000000E-03 0.  1.
         11    1    4    4    0    0  0.89486953117E-01 -0.31187203040E-01 -0.38325801324E-01  0.10222369872E+00  0.51100000000E-03 0. -1.
</event>
<event>
 7    1  0.1065239E+005  0.1043930E+01  0.7957747E-01            NaN
         13   -1    0    0    0    0  0.00000000000E+00  0.00000000000E+00  0.74505805969E-08  0.10566000000E+00  0.10566000000E+00 0.  1.
     999900   -1    0    0    0    0 -0.00000000000E+00 -0.00000000000E+00 -0.74505805969E-08  0.93827000000E+00  0.93827000000E+00 0.  1.
     999903    2    1    2    0    0 -0.54552683724E-01  0.77032581779E-01  0.61692918078E-01  0.11546666493E+00  0.24829833107E-01 0.  0.
         14    1    1    2    0    0  0.32958581367E-01  0.22952051942E-01  0.23100019731E-02  0.40229353502E-01  0.00000000000E+00 0.  1.
     999901    1    1    2    0    0  0.21594102357E-01 -0.99984633721E-01 -0.64002920051E-01  0.88823398157E+00  0.88000000000E+00 0.  1.
        -11    1    3    3    0    0 -0.45619378196E-01  0.50080648086E-01  0.52199713273E-01  0.85523506515E-01  0.51100000000E-03 0.  1.
         11    1    3    3    0    0 -0.89333055277E-02  0.26951933693E-01  0.94932048047E-02  0.29943158416E-01  0.51100000000E-03 0. -1.
</event>
<event>
 8    1  0.1065239E+005  0.1043930E+01  0.7957747E-01            NaN
         13   -1    0    0    0    0  0.00000000000E+00  0.00000000000E+00  0.74505805969E-08  0.10566000000E+00  0.10566000000E+00 0. -1.
     999900   -1    0    0    0    0 -0.00000000000E+00 -0.00000000000E+00 -0.74505805969E-08  0.93827000000E+00  0.93827000000E+00 0.  1.
     999902    2    1    2    0    0 -0.94418528489E-02  0.16402944931E-01  0.16987865756E-01  0.10184978792E+01  0.10181803068E+01 0.  0.
     999903    2    3    3    0    0  0.96642935159E-01  0.73287557323E-01 -0.37394067601E-01  0.12863989271E+00  0.20951914695E-01 0.  0.
         14    1    1    2    0    0  0.94418528489E-02 -0.16402944931E-01 -0.16987865756E-01  0.25432120843E-01  0.00000000000E+00 0.  1.
     999901    1    3    3    0    0 -0.10608478801E+00 -0.56884612392E-01  0.54381933357E-01  0.88985798645E+00  0.88000000000E+00 0. -1.
        -11    1    4    4    0    0  0.15910779909E-01  0.95003429977E-02 -0.13710235019E-01  0.23057343725E-01  0.51100000000E-03 0.  1.
         11    1    4    4    0    0  0.80732155250E-01  0.63787214325E-01 -0.23683832581E-01  0.10558254898E+00  0.51100000000E-03 0. -1.
</event>
<event>
 8    1  0.1065239E+005  0.1043930E+01  0.7957747E-01            NaN
         13   -1    0    0    0    0  0.00000000000E+00  0.00000000000E+00  0.74505805969E-08  0.10566000000E+00  0.10566000000E+00 0.  1.
     999900   -1    0    0    0    0 -0.00000000000E+00 -0.00000000000E+00 -0.74505805969E-08  0.93827000000E+00  0.93827000000E+00 0. -1.
     999902    2    1    2    0    0 -0.42602010488E-02 -0.23304774779E-01  0.65598049482E-02  0.10193476307E+01  0.10190511760E+01 0.  0.
     999903    2    3    3    0    0  0.92675273325E-01 -0.90710388199E-01  0.55486315713E-02  0.13146192554E+00  0.20841538868E-01 0.  0.
         14    1    1    2    0    0  0.42602010488E-02  0.23304774779E-01 -0.65598049482E-02  0.24582369321E-01  0.00000000000E+00 0. -1.
     999901    1    3    3    0    0 -0.96935474374E-01  0.67405613420E-01  0.10111733769E-02  0.88788570514E+00  0.88000000000E+00 0. -1.
        -11    1    4    4    0    0  0.69079101370E-01 -0.63116159701E-01 -0.48291065262E-02  0.93697135775E-01  0.51100000000E-03 0. -1.
         11    1    4    4    0    0  0.23596171955E-01 -0.27594228497E-01  0.10377738097E-01  0.37764789769E-01  0.51100000000E-03 0.  1.
</event>
<event>
 8    1  0.1065239E+005  0.1043930E+01  0.7957747E-01            NaN
         13   -1    0    0    0    0  0.00000000000E+00  0.00000000000E+00  0.74505805969E-08  0.10566000000E+00  0.10566000000E+00 0. -1.
     999900   -1    0    0    0    0 -0.00000000000E+00 -0.00000000000E+00 -0.74505805969E-08  0.93827000000E+00  0.93827000000E+00 0.  1.
     999902    2    1    2    0    0 -0.22604175509E-01  0.73152597353E-03 -0.67223121837E-02  0.10203360736E+01  0.10200632479E+01 0.  0.
     999903    2    3    3    0    0  0.51550037190E-01  0.11595496477E+00 -0.17907991656E-01  0.12966194268E+00  0.19712002035E-01 0.  0.
         14    1    1    2    0    0  0.22604175509E-01 -0.73152597353E-03  0.67223121837E-02  0.23593926375E-01  0.00000000000E+00 0. -1.
     999901    1    3    3    0    0 -0.74154212699E-01 -0.11522343880E+00  0.11185679472E-01  0.89067413095E+00  0.88000000000E+00 0. -1.
        -11    1    4    4    0    0  0.44806639779E-01  0.98352094038E-01 -0.80365807307E-02  0.10837719834E+00  0.51100000000E-03 0. -1.
         11    1    4    4    0    0  0.67433974105E-02  0.17602870737E-01 -0.98714109254E-02  0.21284744336E-01  0.51100000000E-03 0.  1.
</event>
<event>
 8    1  0.1065239E+005  0.1043930E+01  0.7957747E-01            NaN
         13   -1    0    0    0    0  0.00000000000E+00  0.00000000000E+00  0.74505805969E-08  0.10566000000E+00  0.10566000000E+00 0.  1.
     999900   -1    0    0    0    0 -0.00000000000E+00 -0.00000000000E+00 -0.74505805969E-08  0.93827000000E+00  0.93827000000E+00 0. -1.
     999902    2    1    2    0    0 -0.21671477281E-01  0.30430273562E-02 -0.64075941329E-02  0.10211271448E+01  0.10208725070E+01 0.  0.
     999903    2    3    3    0    0  0.53386465753E-02 -0.12906703840E+00 -0.17463336732E-02  0.13084385077E+00  0.20742759103E-01 0.  0.
         14    1    1    2    0    0  0.21671477281E-01 -0.30430273562E-02  0.64075941329E-02  0.22802855208E-01  0.00000000000E+00 0. -1.
     999901    1    3    3    0    0 -0.27010123857E-01  0.13211006575E+00 -0.46612604597E-02  0.89028329402E+00  0.88000000000E+00 0. -1.
        -11    1    4    4    0    0 -0.20829214977E-02 -0.39066713764E-01 -0.93177868859E-02  0.40219758325E-01  0.51100000000E-03 0. -1.
         11    1    4    4    0    0  0.74215680730E-02 -0.90000324634E-01  0.75714532127E-02  0.90624092446E-01  0.51100000000E-03 0.  1.
</event>
<event>
 8    1  0.1065239E+005  0.1043930E+01  0.7957747E-01            NaN
         13   -1    0    0    0    0  0.00000000000E+00  0.00000000000E+00  0.74505805969E-08  0.10566000000E+00  0.10566000000E+00 0.  1.
     999900   -1    0    0    0    0 -0.00000000000E+00 -0.00000000000E+00 -0.74505805969E-08  0.93827000000E+00  0.93827000000E+00 0. -1.
     999902    2    1    2    0    0  0.63724478625E-02  0.14116783645E-01  0.26706239999E-01  0.10130574405E+01  0.10125869162E+01 0.  0.
     999903    2    3    3    0    0 -0.94694963932E-01  0.41661236805E-01 -0.62821737499E-01  0.12233381485E+00  0.17781920775E-01 0.  0.
         14    1    1    2    0    0 -0.63724478625E-02 -0.14116783645E-01 -0.26706239999E-01  0.30872559452E-01  0.00000000000E+00 0. -1.
     999901    1    3    3    0    0  0.10106741179E+00 -0.27544453160E-01  0.89527977498E-01  0.89072362570E+00  0.88000000000E+00 0.  1.
        -11    1    4    4    0    0 -0.50872423332E-01  0.13134334139E-01 -0.34601182725E-01  0.62912774187E-01  0.51100000000E-03 0. -1.
         11    1    4    4    0    0 -0.43822540600E-01  0.28526902667E-01 -0.28220554774E-01  0.59421040660E-01  0.51100000000E-03 0.  1.
</event>
<event>
 8    1  0.1065239E+005  0.1043930E+01  0.7957747E-01            NaN
         13   -1    0    0    0    0  0.00000000000E+00  0.00000000000E+00  0.74505805969E-08  0.10566000000E+00  0.10566000000E+00 0. -1.
     999900   -1    0    0    0    0 -0.00000000000E+00 -0.00000000000E+00 -0.74505805969E-08  0.93827000000E+00  0.93827000000E+00 0. -1.
     999902    2    1    2    0    0  0.42490857745E-02 -0.21885902546E-01  0.76859469639E-02  0.10203477770E+01  0.10200752251E+01 0.  0.
     999903    2    3    3    0    0 -0.74332885254E-01  0.54569741631E-01 -0.87853659677E-01  0.12841257302E+00  0.16379525576E-01 0.  0.
         14    1    1    2    0    0 -0.42490857745E-02  0.21885902546E-01 -0.76859469639E-02  0.23582222984E-01  0.00000000000E+00 0. -1.
     999901    1    3    3    0    0  0.78581971028E-01 -0.76455644177E-01  0.95539606641E-01  0.89193520400E+00  0.88000000000E+00 0.  1.
        -11    1    4    4    0    0 -0.15485682632E-01  0.15599504028E-01 -0.13060822228E-01  0.25573366825E-01  0.51100000000E-03 0.  1.
         11    1    4    4    0    0 -0.58847202622E-01  0.38970237603E-01 -0.74792837449E-01  0.10283920619E+00  0.51100000000E-03 0. -1.
</event>
<event>
 8    1  0.1065239E+005  0.1043930E+01  0.7957747E-01            NaN
         13   -1    0    0    0    0  0.00000000000E+00  0.00000000000E+00  0.74505805969E-08  0.10566000000E+00  0.10566000000E+00 0. -1.
     999900   -1    0    0    0    0 -0.00000000000E+00 -0.00000000000E+00 -0.74505805969E-08  0.93827000000E+00  0.93827000000E+00 0.  1.
     999902    2    1    2    0    0 -0.10744387176E-01 -0.20732149635E-02 -0.20607207684E-01  0.10205976815E+01  0.10203309416E+01 0.  0.
     999903    2    3    3    0    0  0.11392154690E+00 -0.50065102514E-01 -0.31761848077E-01  0.13044643462E+00  0.22865344422E-01 0.  0.
         14    1    1    2    0    0  0.10744387176E-01  0.20732149635E-02  0.20607207684E-01  0.23332318457E-01  0.00000000000E+00 0. -1.
     999901    1    3    3    0    0 -0.12466593407E+00  0.47991887551E-01  0.11154640393E-01  0.89015124692E+00  0.88000000000E+00 0.  1.
        -11    1    4    4    0    0  0.11109196757E+00 -0.43529040193E-01 -0.30908784603E-01  0.12325508787E+00  0.51100000000E-03 0.  1.
         11    1    4    4    0    0  0.28295793230E-02 -0.65360623215E-02 -0.85306347370E-03  0.71913467518E-02  0.51100000000E-03 0. -1.
</event>
<event>
 8    1  0.1065239E+005  0.1043930E+01  0.7957747E-01            NaN
         13   -1    0    0    0    0  0.00000000000E+00  0.00000000000E+00  0.74505805969E-08  0.10566000000E+00  0.10566000000E+00 0. -1.
     999900   -1    0    0    0    0 -0.00000000000E+00 -0.00000000000E+00 -0.74505805969E-08  0.93827000000E+00  0.93827000000E+00 0. -1.
     999902    2    1    2    0    0  0.14314456296E-01 -0.78374699868E-02 -0.16998274938E-01  0.10203658122E+01  0.10200936819E+01 0.  0.
     999903    2    3    3    0    0 -0.11497856129E-01  0.10382142058E+00  0.72147545350E-01  0.12846841869E+00  0.19692085576E-01 0.  0.
         14    1    1    2    0    0 -0.14314456296E-01  0.78374699868E-02  0.16998274938E-01  0.23564187779E-01  0.00000000000E+00 0. -1.
     999901    1    3    3    0    0  0.25812312424E-01 -0.11165889056E+00 -0.89145820287E-01  0.89189739353E+00  0.88000000000E+00 0. -1.
        -11    1    4    4    0    0 -0.11379426617E-01  0.88456581224E-01  0.52396936198E-01  0.10343963532E+00  0.51100000000E-03 0.  1.
         11    1    4    4    0    0 -0.11842951164E-03  0.15364839352E-01  0.19750609151E-01  0.25028783365E-01  0.51100000000E-03 0. -1.
</event>
<event>
 8    1  0.1074078E+005  0.1043930E+01  0.7957747E-01            NaN
         13   -1    0    0    0    0  0.00000000000E+00  0.00000000000E+00  0.74505805969E-08  0.10566000000E+00  0.10566000000E+00 0. -1.
     999900   -1    0    0    0    0 -0.00000000000E+00 -0.00000000000E+00 -0.74505805969E-08  0.93827000000E+00  0.93827000000E+00 0.  1.
     999902    2    1    2    0    0  0.37856071536E-02  0.26837575690E-01  0.12893427625E-02  0.10167960969E+01  0.10164339890E+01 0.  0.
     999903    2    3    3    0    0 -0.63623546934E-01  0.10286207211E+00 -0.43079306746E-01  0.12983933634E+00  0.19335588685E-01 0.  0.
         14    1    1    2    0    0 -0.37856071536E-02 -0.26837575690E-01 -0.12893427625E-02  0.27133903059E-01  0.00000000000E+00 0.  1.
     999901    1    3    3    0    0  0.67409154087E-01 -0.76024496417E-01  0.44368649508E-01  0.88695676060E+00  0.88000000000E+00 0.  1.
        -11    1    4    4    0    0 -0.25780123146E-01  0.58192022762E-01 -0.17988891760E-01  0.66142177242E-01  0.51100000000E-03 0. -1.
         11    1    4    4    0    0 -0.37843423787E-01  0.44670049346E-01 -0.25090414985E-01  0.63697159102E-01  0.51100000000E-03 0.  1.
</event>
<event>
 8    1  0.1065239E+005  0.1043930E+01  0.7957747E-01            NaN
         13   -1    0    0    0    0  0.00000000000E+00  0.00000000000E+00  0.74505805969E-08  0.10566000000E+00  0.10566000000E+00 0.  1.
     999900   -1    0    0    0    0 -0.00000000000E+00 -0.00000000000E+00 -0.74505805969E-08  0.93827000000E+00  0.93827000000E+00 0.  1.
     999902    2    1    2    0    0 -0.23274167472E-01  0.73258573648E-02 -0.62270867786E-02  0.10187480289E+01  0.10184367505E+01 0.  0.
     999903    2    3    3    0    0 -0.11848582028E+00  0.25199994240E-01  0.47676107267E-01  0.13179239422E+00  0.20549809066E-01 0.  0.
         14    1    1    2    0    0  0.23274167472E-01 -0.73258573648E-02  0.62270867786E-02  0.25181971078E-01  0.00000000000E+00 0.  1.
     999901    1    3    3    0    0  0.95211652810E-01 -0.17874136875E-01 -0.53903194046E-01  0.88695563470E+00  0.88000000000E+00 0.  1.
        -11    1    4    4    0    0 -0.41161109743E-01  0.17964712142E-01  0.21852183921E-01  0.49947441383E-01  0.51100000000E-03 0. -1.
         11    1    4    4    0    0 -0.77324710539E-01  0.72352820983E-02  0.25823923346E-01  0.81844952837E-01  0.51100000000E-03 0.  1.
</event>
<event>
 8    1  0.1065239E+005  0.1043930E+01  0.7957747E-01            NaN
         13   -1    0    0    0    0  0.00000000000E+00  0.00000000000E+00  0.74505805969E-08  0.10566000000E+00  0.10566000000E+00 0.  1.
     999900   -1    0    0    0    0 -0.00000000000E+00 -0.00000000000E+00 -0.74505805969E-08  0.93827000000E+00  0.93827000000E+00 0.  1.
     999902    2    1    2    0    0 -0.14394779485E-02  0.12967536244E-01  0.19951459218E-01  0.10200911700E+01  0.10198125834E+01 0.  0.
     999903    2    3    3    0    0 -0.83002359929E-01 -0.27400845008E-01 -0.91678899466E-01  0.12838300755E+00  0.20904017770E-01 0.  0.
         14    1    1    2    0    0  0.14394779485E-02 -0.12967536244E-01 -0.19951459218E-01  0.23838830045E-01  0.00000000000E+00 0. -1.
     999901    1    3    3    0    0  0.81562881981E-01  0.40368381253E-01  0.11163035868E+00  0.89170816241E+00  0.88000000000E+00 0. -1.
        -11    1    4    4    0    0 -0.21488608771E-01  0.21938314326E-02 -0.21656551294E-01  0.30591510885E-01  0.51100000000E-03 0.  1.
         11    1    4    4    0    0 -0.61513751158E-01 -0.29594676441E-01 -0.70022348172E-01  0.97791496663E-01  0.51100000000E-03 0. -1.
</event>
<event>
 8    1  0.1065239E+005  0.1043930E+01  0.7957747E-01            NaN
         13   -1    0    0    0    0  0.00000000000E+00  0.00000000000E+00  0.74505805969E-08  0.10566000000E+00  0.10566000000E+00 0.  1.
     999900   -1    0    0    0    0 -0.00000000000E+00 -0.00000000000E+00 -0.74505805969E-08  0.93827000000E+00  0.93827000000E+00 0.  1.
     999902    2    1    2    0    0  0.14364010679E-01  0.83344449396E-02  0.21858307189E-01  0.10164787092E+01  0.10161079632E+01 0.  0.
     999903    2    3    3    0    0  0.11086902329E-01  0.10933535878E-01 -0.12210385750E+00  0.12477102188E+00  0.20395937696E-01 0.  0.
         14    1    1    2    0    0 -0.14364010679E-01 -0.83344449396E-02 -0.21858307189E-01  0.27451290833E-01  0.00000000000E+00 0. -1.
     999901    1    3    3    0    0  0.32771083498E-02 -0.25990909385E-02  0.14396216469E+00  0.89170768729E+00  0.88000000000E+00 0. -1.
        -11    1    4    4    0    0  0.76273545015E-02  0.11712945195E-01 -0.36437308998E-01  0.39029581472E-01  0.51100000000E-03 0.  1.
         11    1    4    4    0    0  0.34595478277E-02 -0.77940931679E-03 -0.85666548498E-01  0.85741440405E-01  0.51100000000E-03 0. -1.
</event>
<event>
 8    1  0.1065239E+005  0.1043930E+01  0.7957747E-01            NaN
         13   -1    0    0    0    0  0.00000000000E+00  0.00000000000E+00  0.74505805969E-08  0.10566000000E+00  0.10566000000E+00 0.  1.
     999900   -1    0    0    0    0 -0.00000000000E+00 -0.00000000000E+00 -0.74505805969E-08  0.93827000000E+00  0.93827000000E+00 0. -1.
     999902    2    1    2    0    0 -0.39245894765E-02  0.23512225606E-01  0.25420920522E-02  0.10199573200E+01  0.10196755588E+01 0.  0.
     999903    2    3    3    0    0 -0.67652645284E-01  0.10559687781E+00  0.39623391570E-01  0.13306714752E+00  0.20230461516E-01 0.  0.
         14    1    1    2    0    0  0.39245894765E-02 -0.23512225606E-01 -0.25420920522E-02  0.23972680023E-01  0.00000000000E+00 0. -1.
     999901    1    3    3    0    0  0.63728055808E-01 -0.82084652202E-01 -0.37081299517E-01  0.88689017246E+00  0.88000000000E+00 0. -1.
        -11    1    4    4    0    0 -0.33498991376E-01  0.45398649453E-01  0.80565230972E-02  0.56994635544E-01  0.51100000000E-03 0.  1.
         11    1    4    4    0    0 -0.34153653909E-01  0.60198228355E-01  0.31566868472E-01  0.76072511977E-01  0.51100000000E-03 0. -1.
</event>
<event>
 8    1  0.1392719E+005  0.1043930E+01  0.7957747E-01            NaN
         13   -1    0    0    0    0  0.00000000000E+00  0.00000000000E+00  0.74505805969E-08  0.10566000000E+00  0.10566000000E+00 0.  1.
     999900   -1    0    0    0    0 -0.00000000000E+00 -0.00000000000E+00 -0.74505805969E-08  0.93827000000E+00  0.93827000000E+00 0.  1.
     999902    2    1    2    0    0  0.21919633689E-01 -0.26706287392E-02 -0.94984643542E-02  0.10198920420E+01  0.10196087259E+01 0.  0.
     999903    2    3    3    0    0  0.18405344109E-01 -0.97126830939E-01 -0.84672474924E-01  0.13164350910E+00  0.19702981961E-01 0.  0.
         14    1    1    2    0    0 -0.21919633689E-01  0.26706287392E-02  0.94984643542E-02  0.24037957984E-01  0.00000000000E+00 0. -1.
     999901    1    3    3    0    0  0.35142895799E-02  0.94456202200E-01  0.75174010569E-01  0.88824853292E+00  0.88000000000E+00 0. -1.
        -11    1    4    4    0    0  0.45476283784E-02 -0.66454506754E-01 -0.49753941020E-01  0.83142036058E-01  0.51100000000E-03 0. -1.
         11    1    4    4    0    0  0.13857715731E-01 -0.30672324185E-01 -0.34918533904E-01  0.48501473041E-01  0.51100000000E-03 0.  1.
</event>
<event>
 8    1  0.1065239E+005  0.1043930E+01  0.7957747E-01            NaN
         13   -1    0    0    0    0  0.00000000000E+00  0.00000000000E+00  0.74505805969E-08  0.10566000000E+00  0.10566000000E+00 0.  1.
     999900   -1    0    0    0    0 -0.00000000000E+00 -0.00000000000E+00 -0.74505805969E-08  0.93827000000E+00  0.93827000000E+00 0. -1.
     999902    2    1    2    0    0  0.14611028492E-01 -0.74475259768E-02  0.17159875963E-01  0.10201937589E+01  0.10199175931E+01 0.  0.
     999903    2    3    3    0    0  0.62046159361E-01  0.45049620431E-01 -0.10222037993E+00  0.12931908340E+00  0.19880268241E-01 0.  0.
         14    1    1    2    0    0 -0.14611028492E-01  0.74475259768E-02 -0.17159875963E-01  0.23736241064E-01  0.00000000000E+00 0. -1.
     999901    1    3    3    0    0 -0.47435130869E-01 -0.52497146408E-01  0.11938025589E+00  0.89087467554E+00  0.88000000000E+00 0.  1.
        -11    1    4    4    0    0  0.30392647843E-01  0.23221477825E-01 -0.34849545191E-01  0.51746516756E-01  0.51100000000E-03 0. -1.
         11    1    4    4    0    0  0.31653511518E-01  0.21828142605E-01 -0.67370834737E-01  0.77572566640E-01  0.51100000000E-03 0.  1.
</event>
<event>
 8    1  0.1065239E+005  0.1043930E+01  0.7957747E-01            NaN
         13   -1    0    0    0    0  0.00000000000E+00  0.00000000000E+00  0.74505805969E-08  0.10566000000E+00  0.10566000000E+00 0.  1.
     999900   -1    0    0    0    0 -0.00000000000E+00 -0.00000000000E+00 -0.74505805969E-08  0.93827000000E+00  0.93827000000E+00 0. -1.
     999902    2    1    2    0    0 -0.20753692727E-01  0.69587594865E-02  0.93376787581E-02  0.10201322619E+01  0.10198546462E+01 0.  0.
     999903    2    3    3    0    0  0.84559465140E-01 -0.91568625091E-01  0.23020730891E-01  0.12828825497E+00  0.19819335684E-01 0.  0.
         14    1    1    2    0    0  0.20753692727E-01 -0.69587594865E-02 -0.93376787581E-02  0.23797738127E-01  0.00000000000E+00 0.  1.
     999901    1    3    3    0    0 -0.10531315787E+00  0.98527384577E-01 -0.13683052132E-01  0.89184400690E+00  0.88000000000E+00 0.  1.
        -11    1    4    4    0    0  0.30613581827E-01 -0.46156198373E-01  0.57434249228E-02  0.55685133487E-01  0.51100000000E-03 0. -1.
         11    1    4    4    0    0  0.53945883312E-01 -0.45412426717E-01  0.17277305968E-01  0.72603121484E-01  0.51100000000E-03 0.  1.
</event>
<event>
 8    1  0.1065239E+005  0.1043930E+01  0.7957747E-01            NaN
         13   -1    0    0    0    0  0.00000000000E+00  0.00000000000E+00  0.74505805969E-08  0.10566000000E+00  0.10566000000E+00 0. -1.
     999900   -1    0    0    0    0 -0.00000000000E+00 -0.00000000000E+00 -0.74505805969E-08  0.93827000000E+00  0.93827000000E+00 0.  1.
     999902    2    1    2    0    0  0.22627437118E-01  0.64784528741E-02 -0.60082485508E-03  0.10203857384E+01  0.10201140735E+01 0.  0.
     999903    2    3    3    0    0  0.85851860828E-01  0.35502587199E-02  0.99164279652E-01  0.13248992351E+00  0.18354267332E-01 0.  0.
         14    1    1    2    0    0 -0.22627437118E-01 -0.64784528741E-02  0.60082485508E-03  0.23544261566E-01  0.00000000000E+00 0.  1.
     999901    1    3    3    0    0 -0.63224423710E-01  0.29281941542E-02 -0.99765104507E-01  0.88789581492E+00  0.88000000000E+00 0.  1.
        -11    1    4    4    0    0  0.62810611386E-01  0.97896452303E-02  0.77620884624E-01  0.10033081734E+00  0.51100000000E-03 0.  1.
         11    1    4    4    0    0  0.23041249443E-01 -0.62393865104E-02  0.21543395028E-01  0.32159106179E-01  0.51100000000E-03 0. -1.
</event>
<event>
 8    1  0.1065239E+005  0.1043930E+01  0.7957747E-01            NaN
         13   -1    0    0    0    0  0.00000000000E+00  0.00000000000E+00  0.74505805969E-08  0.10566000000E+00  0.10566000000E+00 0.  1.
     999900   -1    0    0    0    0 -0.00000000000E+00 -0.00000000000E+00 -0.74505805969E-08  0.93827000000E+00  0.93827000000E+00 0.  1.
     999902    2    1    2    0    0 -0.77652927926E-02  0.84325001103E-02  0.20851353866E-01  0.10201353412E+01  0.10198577982E+01 0.  0.
     999903    2    3    3    0    0 -0.11360937932E+00 -0.63397917788E-02 -0.59606969716E-01  0.13002594729E+00  0.20161153282E-01 0.  0.
         14    1    1    2    0    0  0.77652927926E-02 -0.84325001103E-02 -0.20851353866E-01  0.23794658819E-01  0.00000000000E+00 0.  1.
     999901    1    3    3    0    0  0.10584408652E+00  0.14772291889E-01  0.80458323581E-01  0.89010939389E+00  0.88000000000E+00 0. -1.
        -11    1    4    4    0    0 -0.77403644462E-01  0.36182189728E-02 -0.34304582428E-01  0.84743620297E-01  0.51100000000E-03 0. -1.
         11    1    4    4    0    0 -0.36205734854E-01 -0.99580107516E-02 -0.25302387287E-01  0.45282326993E-01  0.51100000000E-03 0.  1.
</event>
<event>
 8    1  0.1065239E+005  0.1043930E+01  0.7957747E-01            NaN
         13   -1    0    0    0    0  0.00000000000E+00  0.00000000000E+00  0.74505805969E-08  0.10566000000E+00  0.10566000000E+00 0.  1.
     999900   -1    0    0    0    0 -0.00000000000E+00 -0.00000000000E+00 -0.74505805969E-08  0.93827000000E+00  0.93827000000E+00 0. -1.
     999902    2    1    2    0    0  0.13047446804E-01  0.20375791573E-01 -0.50756949867E-02  0.10192081184E+01  0.10189082477E+01 0.  0.
     999903    2    3    3    0    0  0.53732779748E-01 -0.14929489682E-01  0.11432435780E+00  0.12951259081E+00  0.24358799478E-01 0.  0.
         14    1    1    2    0    0 -0.13047446804E-01 -0.20375791573E-01  0.50756949867E-02  0.24721881602E-01  0.00000000000E+00 0.  1.
     999901    1    3    3    0    0 -0.40685332944E-01  0.35305281255E-01 -0.11940005278E+00  0.88969552759E+00  0.88000000000E+00 0. -1.
        -11    1    4    4    0    0  0.28888486763E-01 -0.19422807618E-01  0.76291643607E-01  0.83859800432E-01  0.51100000000E-03 0. -1.
         11    1    4    4    0    0  0.24844292985E-01  0.44933179357E-02  0.38032714189E-01  0.45652790381E-01  0.51100000000E-03 0.  1.
</event>
<event>
 8    1  0.1065239E+005  0.1043930E+01  0.7957747E-01            NaN
         13   -1    0    0    0    0  0.00000000000E+00  0.00000000000E+00  0.74505805969E-08  0.10566000000E+00  0.10566000000E+00 0. -1.
     999900   -1    0    0    0    0 -0.00000000000E+00 -0.00000000000E+00 -0.74505805969E-08  0.93827000000E+00  0.93827000000E+00 0. -1.
     999902    2    1    2    0    0 -0.22346290108E-02 -0.20498387913E-01 -0.97319013568E-02  0.10211289610E+01  0.10208743643E+01 0.  0.
     999903    2    3    3    0    0  0.65260012894E-01  0.10590588183E-01 -0.11235305656E+00  0.13205463759E+00  0.21075771624E-01 0.  0.
         14    1    1    2    0    0  0.22346290108E-02  0.20498387913E-01  0.97319013568E-02  0.22801038964E-01  0.00000000000E+00 0. -1.
     999901    1    3    3    0    0 -0.67494641905E-01 -0.31088976096E-01  0.10262115520E+00  0.88907432345E+00  0.88000000000E+00 0.  1.
        -11    1    4    4    0    0  0.12439076101E-01  0.88044063044E-02 -0.36948494187E-01  0.39971246269E-01  0.51100000000E-03 0.  1.
         11    1    4    4    0    0  0.52820936793E-01  0.17861818784E-02 -0.75404562370E-01  0.92083391318E-01  0.51100000000E-03 0. -1.
</event>
<event>
 8    1  0.1134239E+005  0.1043930E+01  0.7957747E-01            NaN
         13   -1    0    0    0    0  0.00000000000E+00  0.00000000000E+00  0.74505805969E-08  0.10566000000E+00  0.10566000000E+00 0. -1.
     999900   -1    0    0    0    0 -0.00000000000E+00 -0.00000000000E+00 -0.74505805969E-08  0.93827000000E+00  0.93827000000E+00 0.  1.
     999902    2    1    2    0    0  0.68990412251E-02 -0.12981239129E-01 -0.18898679688E-01  0.10199869544E+01  0.10197058976E+01 0.  0.
     999903    2    3    3    0    0  0.30441429291E-01 -0.10662739164E+00  0.66324692588E-01  0.13061252868E+00  0.19094149311E-01 0.  0.
         14    1    1    2    0    0 -0.68990412251E-02  0.12981239129E-01  0.18898679688E-01  0.23943045610E-01  0.00000000000E+00 0. -1.
     999901    1    3    3    0    0 -0.23542388066E-01  0.93646152508E-01 -0.85223372276E-01  0.88937442570E+00  0.88000000000E+00 0. -1.
        -11    1    4    4    0    0  0.32332381108E-02 -0.44765795225E-01  0.24536277272E-01  0.51153888163E-01  0.51100000000E-03 0. -1.
         11    1    4    4    0    0  0.27208191180E-01 -0.61861596412E-01  0.41788415316E-01  0.79458640522E-01  0.51100000000E-03 0.  1.
</event>
<event>
 8    1  0.1065239E+005  0.1043930E+01  0.7957747E-01            NaN
         13   -1    0    0    0    0  0.00000000000E+00  0.00000000000E+00  0.74505805969E-08  0.10566000000E+00  0.10566000000E+00 0. -1.
     999900   -1    0    0    0    0 -0.00000000000E+00 -0.00000000000E+00 -0.74505805969E-08  0.93827000000E+00  0.93827000000E+00 0. -1.
     999902    2    1    2    0    0 -0.34707741404E-02 -0.14315128877E-01  0.18615838151E-01  0.10201914529E+01  0.10199152327E+01 0.  0.
     999903    2    3    3    0    0 -0.54554605177E-01  0.10134447782E+00 -0.53050017224E-01  0.12827066201E+00  0.19802784514E-01 0.  0.
         14    1    1    2    0    0  0.34707741404E-02  0.14315128877E-01 -0.18615838151E-01  0.23738547090E-01  0.00000000000E+00 0.  1.
     999901    1    3    3    0    0  0.51083831037E-01 -0.11565960669E+00  0.71665855375E-01  0.89192079090E+00  0.88000000000E+00 0.  1.
        -11    1    4    4    0    0 -0.29943127338E-01  0.37565425088E-01 -0.16835215580E-01  0.50906165063E-01  0.51100000000E-03 0.  1.
         11    1    4    4    0    0 -0.24611477840E-01  0.63779052730E-01 -0.36214801644E-01  0.77364496946E-01  0.51100000000E-03 0. -1.
</event>
<event>
 8    1  0.1065239E+005  0.1043930E+01  0.7957747E-01            NaN
         13   -1    0    0    0    0  0.00000000000E+00  0.00000000000E+00  0.74505805969E-08  0.10566000000E+00  0.10566000000E+00 0.  1.
     999900   -1    0    0    0    0 -0.00000000000E+00 -0.00000000000E+00 -0.74505805969E-08  0.93827000000E+00  0.93827000000E+00 0. -1.
     999902    2    1    2    0    0 -0.14103673094E-01 -0.19154545056E-01 -0.12071195002E-02  0.10201126255E+01  0.10198345461E+01 0.  0.
     999903    2    3    3    0    0 -0.53155284001E-01  0.36923699575E-01  0.11129421252E+00  0.13032256736E+00  0.20216973481E-01 0.  0.
         14    1    1    2    0    0  0.14103673094E-01  0.19154545056E-01  0.12071195002E-02  0.23817374510E-01  0.00000000000E+00 0. -1.
     999901    1    3    3    0    0  0.39051610907E-01 -0.56078244631E-01 -0.11250133202E+00  0.88979005813E+00  0.88000000000E+00 0. -1.
        -11    1    4    4    0    0 -0.78130233077E-02 -0.17060299850E-02  0.10044286762E-01  0.12849229124E-01  0.51100000000E-03 0.  1.
         11    1    4    4    0    0 -0.45342260693E-01  0.38629729560E-01  0.10124992576E+00  0.11747333824E+00  0.51100000000E-03 0. -1.
</event>
<event>
 8    1  0.1065239E+005  0.1043930E+01  0.7957747E-01            NaN
         13   -1    0    0    0    0  0.00000000000E+00  0.00000000000E+00  0.74505805969E-08  0.10566000000E+00  0.10566000000E+00 0.  1.
     999900   -1    0    0    0    0 -0.00000000000E+00 -0.00000000000E+00 -0.74505805969E-08  0.93827000000E+00  0.93827000000E+00 0. -1.
     999902    2    1    2    0    0  0.14405947620E-01  0.17994239658E-01  0.22817369273E-02  0.10207668761E+01  0.10205040347E+01 0.  0.
     999903    2    3    3    0    0  0.40440440213E-01 -0.92046527664E-01  0.80169199058E-01  0.13011923414E+00  0.19897792761E-01 0.  0.
         14    1    1    2    0    0 -0.14405947620E-01 -0.17994239658E-01 -0.22817369273E-02  0.23163123950E-01  0.00000000000E+00 0. -1.
     999901    1    3    3    0    0 -0.26034492593E-01  0.11004076732E+00 -0.77887462131E-01  0.89064764191E+00  0.88000000000E+00 0.  1.
        -11    1    4    4    0    0  0.33938731150E-01 -0.57858339090E-01  0.45938044181E-01  0.81301844373E-01  0.51100000000E-03 0.  1.
         11    1    4    4    0    0  0.65017090626E-02 -0.34188188573E-01  0.34231154878E-01  0.48817389770E-01  0.51100000000E-03 0. -1.
</event>
<event>
 8    1  0.1065239E+005  0.1043930E+01  0.7957747E-01            NaN
         13   -1    0    0    0    0  0.00000000000E+00  0.00000000000E+00  0.74505805969E-08  0.10566000000E+00  0.10566000000E+00 0.  1.
     999900   -1    0    0    0    0 -0.00000000000E+00 -0.00000000000E+00 -0.74505805969E-08  0.93827000000E+00  0.93827000000E+00 0. -1.
     999902    2    1    2    0    0  0.53004804418E-02  0.50472783588E-02 -0.21556198240E-01  0.10211651193E+01  0.10209113385E+01 0.  0.
     999903    2    3    3    0    0 -0.12915105413E+00  0.39125560997E-02  0.52873884340E-03  0.13067859653E+00  0.19527241167E-01 0.  0.
         14    1    1    2    0    0 -0.53004804418E-02 -0.50472783588E-02  0.21556198240E-01  0.22764880722E-01  0.00000000000E+00 0.  1.
     999901    1    3    3    0    0  0.13445153458E+00  0.11347222590E-02 -0.22084937083E-01  0.89048652275E+00  0.88000000000E+00 0. -1.
        -11    1    4    4    0    0 -0.33862121139E-01 -0.55877038559E-02 -0.53375099237E-02  0.34736375971E-01  0.51100000000E-03 0.  1.
         11    1    4    4    0    0 -0.95288932995E-01  0.95002599556E-02  0.58662487671E-02  0.95942220561E-01  0.51100000000E-03 0. -1.
</event>
<event>
 8    1  0.1065239E+005  0.1043930E+01  0.7957747E-01            NaN
         13   -1    0    0    0    0  0.00000000000E+00  0.00000000000E+00  0.74505805969E-08  0.10566000000E+00  0.10566000000E+00 0. -1.
     999900   -1    0    0    0    0 -0.00000000000E+00 -0.00000000000E+00 -0.74505805969E-08  0.93827000000E+00  0.93827000000E+00 0. -1.
     999902    2    1    2    0    0  0.15176890597E-01 -0.67537390152E-02 -0.15772639154E-01  0.10210230765E+01  0.10207660827E+01 0.  0.
     999903    2    3    3    0    0 -0.11129110659E+00 -0.26976017010E-01 -0.59844265372E-01  0.13066056432E+00  0.19427585285E-01 0.  0.
         14    1    1    2    0    0 -0.15176890597E-01  0.67537390152E-02  0.15772639154E-01  0.22906923511E-01  0.00000000000E+00 0. -1.
     999901    1    3    3    0    0  0.12646799719E+00  0.20222277995E-01  0.44071626218E-01  0.89036251217E+00  0.88000000000E+00 0.  1.
        -11    1    4    4    0    0 -0.44257865484E-01 -0.14633554466E-01 -0.34271716439E-01  0.57859409279E-01  0.51100000000E-03 0.  1.
         11    1    4    4    0    0 -0.67033241109E-01 -0.12342462544E-01 -0.25572548932E-01  0.72801155039E-01  0.51100000000E-03 0. -1.
</event>
<event>
 7    1  0.1065239E+005  0.1043930E+01  0.7957747E-01            NaN
         13   -1    0    0    0    0  0.00000000000E+00  0.00000000000E+00  0.74505805969E-08  0.10566000000E+00  0.10566000000E+00 0.  1.
     999900   -1    0    0    0    0 -0.00000000000E+00 -0.00000000000E+00 -0.74505805969E-08  0.93827000000E+00  0.93827000000E+00 0. -1.
     999903    2    1    2    0    0  0.12168133276E-01  0.19964576413E-01 -0.96327167244E-01  0.10086116165E+00  0.18638750019E-01 0.  0.
         14    1    1    2    0    0  0.47179201729E-01  0.27854468618E-01  0.80023675163E-02  0.55369543827E-01  0.00000000000E+00 0.  1.
     999901    1    1    2    0    0 -0.59347335005E-01 -0.47819045031E-01  0.88324799728E-01  0.88769929452E+00  0.88000000000E+00 0.  1.
        -11    1    3    3    0    0 -0.15539006007E-02  0.13051084594E-01 -0.59819787914E-01  0.61248784177E-01  0.51100000000E-03 0.  1.
         11    1    3    3    0    0  0.13722033876E-01  0.69134918194E-02 -0.36507379331E-01  0.39612377478E-01  0.51100000000E-03 0. -1.
</event>
<event>
 8    1  0.1065239E+005  0.1043930E+01  0.7957747E-01            NaN
         13   -1    0    0    0    0  0.00000000000E+00  0.00000000000E+00  0.74505805969E-08  0.10566000000E+00  0.10566000000E+00 0.  1.
     999900   -1    0    0    0    0 -0.00000000000E+00 -0.00000000000E+00 -0.74505805969E-08  0.93827000000E+00  0.93827000000E+00 0.  1.
     999902    2    1    2    0    0  0.12589191927E-02 -0.24054248295E-01 -0.34903161133E-02  0.10195912645E+01  0.10193007273E+01 0.  0.
     999903    2    3    3    0    0 -0.10695622422E-01 -0.64045814765E-01  0.11203035759E+00  0.13106030697E+00  0.20242043245E-01 0.  0.
         14    1    1    2    0    0 -0.12589191927E-02  0.24054248295E-01  0.34903161133E-02  0.24338735488E-01  0.00000000000E+00 0. -1.
     999901    1    3    3    0    0  0.11954541614E-01  0.39991566470E-01 -0.11552067370E+00  0.88853095754E+00  0.88000000000E+00 0.  1.
        -11    1    4    4    0    0  0.58985245427E-02 -0.18126839975E-01  0.35009953425E-01  0.39866438003E-01  0.51100000000E-03 0.  1.
         11    1    4    4    0    0 -0.16594146965E-01 -0.45918974791E-01  0.77020404162E-01  0.91193868969E-01  0.51100000000E-03 0. -1.
</event>
<event>
 8    1  0.1065239E+005  0.1043930E+01  0.7957747E-01            NaN
         13   -1    0    0    0    0  0.00000000000E+00  0.00000000000E+00  0.74505805969E-08  0.10566000000E+00  0.10566000000E+00 0. -1.
     999900   -1    0    0    0    0 -0.00000000000E+00 -0.00000000000E+00 -0.74505805969E-08  0.93827000000E+00  0.93827000000E+00 0. -1.
     999902    2    1    2    0    0 -0.10236781397E-01  0.19142150184E-01 -0.92169771732E-02  0.10203468222E+01  0.10200742479E+01 0.  0.
     999903    2    3    3    0    0  0.19043634569E-01 -0.11005481347E+00 -0.61186024615E-01  0.12891540023E+00  0.20018212290E-01 0.  0.
         14    1    1    2    0    0  0.10236781397E-01 -0.19142150184E-01  0.92169771732E-02  0.23583177802E-01  0.00000000000E+00 0. -1.
     999901    1    3    3    0    0 -0.29280415966E-01  0.12919696365E+00  0.51969047442E-01  0.89143142197E+00  0.88000000000E+00 0.  1.
        -11    1    4    4    0    0  0.32312503676E-02 -0.37467403301E-01 -0.10732677527E-01  0.39111363783E-01  0.51100000000E-03 0. -1.
         11    1    4    4    0    0  0.15812384201E-01 -0.72587410168E-01 -0.50453347088E-01  0.89804036448E-01  0.51100000000E-03 0.  1.
</event>
<event>
 8    1  0.1065239E+005  0.1043930E+01  0.7957747E-01            NaN
         13   -1    0    0    0    0  0.00000000000E+00  0.00000000000E+00  0.74505805969E-08  0.10566000000E+00  0.10566000000E+00 0. -1.
     999900   -1    0    0    0    0 -0.00000000000E+00 -0.00000000000E+00 -0.74505805969E-08  0.93827000000E+00  0.93827000000E+00 0.  1.
     999902    2    1    2    0    0  0.98023864810E-02 -0.18177872565E-01 -0.11612752316E-01  0.10202365864E+01  0.10199614279E+01 0.  0.
     999903    2    3    3    0    0  0.90878944813E-01  0.87497319494E-01 -0.23847096995E-01  0.13012966377E+00  0.21219845142E-01 0.  0.
         14    1    1    2    0    0 -0.98023864810E-02  0.18177872565E-01  0.11612752316E-01  0.23693413601E-01  0.00000000000E+00 0.  1.
     999901    1    3    3    0    0 -0.81076558332E-01 -0.10567519206E+00  0.12234344678E-01  0.89010692263E+00  0.88000000000E+00 0. -1.
        -11    1    4    4    0    0  0.52841281329E-01  0.37667762244E-01 -0.73840488902E-02  0.65313449028E-01  0.51100000000E-03 0.  1.
         11    1    4    4    0    0  0.38037663485E-01  0.49829557251E-01 -0.16463048105E-01  0.64816214739E-01  0.51100000000E-03 0. -1.
</event>
<event>
 8    1  0.1065239E+005  0.1043930E+01  0.7957747E-01            NaN
         13   -1    0    0    0    0  0.00000000000E+00  0.00000000000E+00  0.74505805969E-08  0.10566000000E+00  0.10566000000E+00 0. -1.
     999900   -1    0    0    0    0 -0.00000000000E+00 -0.00000000000E+00 -0.74505805969E-08  0.93827000000E+00  0.93827000000E+00 0. -1.
     999902    2    1    2    0    0  0.50274288515E-02 -0.10100177028E-01  0.21608606123E-01  0.10195533621E+01  0.10192619083E+01 0.  0.
     999903    2    3    3    0    0  0.12027355948E+00 -0.47741016987E-01  0.64493615085E-02  0.13111185803E+00  0.20094557404E-01 0.  0.
         14    1    1    2    0    0 -0.50274288515E-02  0.10100177028E-01 -0.21608606123E-01  0.24376637903E-01  0.00000000000E+00 0.  1.
     999901    1    3    3    0    0 -0.11524613063E+00  0.37640839958E-01  0.15159244615E-01  0.88844150407E+00  0.88000000000E+00 0.  1.
        -11    1    4    4    0    0  0.66217130537E-01 -0.16672354797E-01  0.79219563117E-02  0.68743685557E-01  0.51100000000E-03 0.  1.
         11    1    4    4    0    0  0.54056428947E-01 -0.31068662190E-01 -0.14725948032E-02  0.62368172469E-01  0.51100000000E-03 0. -1.
</event>
<event>
 8    1  0.1230377E+005  0.1043930E+01  0.7957747E-01            NaN
         13   -1    0    0    0    0  0.00000000000E+00  0.00000000000E+00  0.74505805969E-08  0.10566000000E+00  0.10566000000E+00 0. -1.
     999900   -1    0    0    0    0 -0.00000000000E+00 -0.00000000000E+00 -0.74505805969E-08  0.93827000000E+00  0.93827000000E+00 0.  1.
     999902    2    1    2    0    0 -0.90523689108E-03  0.33959295966E-02 -0.23994988451E-01  0.10196789946E+01  0.10193905732E+01 0.  0.
     999903    2    3    3    0    0  0.35664372196E-01 -0.37798992403E-01  0.11436710739E+00  0.12716657034E+00  0.19768411391E-01 0.  0.
         14    1    1    2    0    0  0.90523689108E-03 -0.33959295966E-02  0.23994988451E-01  0.24251005390E-01  0.00000000000E+00 0. -1.
     999901    1    3    3    0    0 -0.36569609087E-01  0.41194921999E-01 -0.13836209584E+00  0.89251242427E+00  0.88000000000E+00 0.  1.
        -11    1    4    4    0    0  0.14397193462E-01 -0.70242401548E-02  0.52253719573E-01  0.54656485978E-01  0.51100000000E-03 0. -1.
         11    1    4    4    0    0  0.21267178734E-01 -0.30774752248E-01  0.62113387818E-01  0.72510084364E-01  0.51100000000E-03 0.  1.
</event>
<event>
 8    1  0.1065239E+005  0.1043930E+01  0.7957747E-01            NaN
         13   -1    0    0    0    0  0.00000000000E+00  0.00000000000E+00  0.74505805969E-08  0.10566000000E+00  0.10566000000E+00 0. -1.
     999900   -1    0    0    0    0 -0.00000000000E+00 -0.00000000000E+00 -0.74505805969E-08  0.93827000000E+00  0.93827000000E+00 0. -1.
     999902    2    1    2    0    0  0.21837948056E-01 -0.75591030855E-02  0.10890487334E-02  0.10207951336E+01  0.10205329406E+01 0.  0.
     999903    2    3    3    0    0  0.49788546342E-01  0.11452537027E+00 -0.34857975711E-01  0.13120081983E+00  0.20090218325E-01 0.  0.
         14    1    1    2    0    0 -0.21837948056E-01  0.75591030855E-02 -0.10890487334E-02  0.23134866369E-01  0.00000000000E+00 0.  1.
     999901    1    3    3    0    0 -0.27950598286E-01 -0.12208447335E+00  0.35947024444E-01  0.88959431380E+00  0.88000000000E+00 0.  1.
        -11    1    4    4    0    0  0.41244631556E-01  0.71439930537E-01 -0.20731374434E-01  0.85057829235E-01  0.51100000000E-03 0. -1.
         11    1    4    4    0    0  0.85439147865E-02  0.43085439729E-01 -0.14126601277E-01  0.46142990596E-01  0.51100000000E-03 0.  1.
</event>
<event>
 8    1  0.1065239E+005  0.1043930E+01  0.7957747E-01            NaN
         13   -1    0    0    0    0  0.00000000000E+00  0.00000000000E+00  0.74505805969E-08  0.10566000000E+00  0.10566000000E+00 0. -1.
     999900   -1    0    0    0    0 -0.00000000000E+00 -0.00000000000E+00 -0.74505805969E-08  0.93827000000E+00  0.93827000000E+00 0. -1.
     999902    2    1    2    0    0 -0.42601027234E-02  0.17651327567E-01  0.14111626554E-01  0.10209331340E+01  0.10206740951E+01 0.  0.
     999903    2    3    3    0    0 -0.12735626265E+00  0.18883628297E-01  0.22883078285E-01  0.13232122689E+00  0.20225300021E-01 0.  0.
         14    1    1    2    0    0  0.42601027234E-02 -0.17651327567E-01 -0.14111626554E-01  0.22996865962E-01  0.00000000000E+00 0.  1.
     999901    1    3    3    0    0  0.12309615993E+00 -0.12323007294E-02 -0.87714517313E-02  0.88861190714E+00  0.88000000000E+00 0.  1.
        -11    1    4    4    0    0 -0.50875405179E-01  0.14594970631E-01  0.22013484215E-02  0.52975721569E-01  0.51100000000E-03 0.  1.
         11    1    4    4    0    0 -0.76480857471E-01  0.42886576656E-02  0.20681729863E-01  0.79345505324E-01  0.51100000000E-03 0. -1.
</event>
<event>
 8    1  0.1065239E+005  0.1043930E+01  0.7957747E-01            NaN
         13   -1    0    0    0    0  0.00000000000E+00  0.00000000000E+00  0.74505805969E-08  0.10566000000E+00  0.10566000000E+00 0.  1.
     999900   -1    0    0    0    0 -0.00000000000E+00 -0.00000000000E+00 -0.74505805969E-08  0.93827000000E+00  0.93827000000E+00 0. -1.
     999902    2    1    2    0    0 -0.16430560029E-01 -0.17336862231E-01  0.10654884863E-01  0.10177755230E+01  0.10174394127E+01 0.  0.
     999903    2    3    3    0    0  0.27949932932E-02 -0.11938035690E+00 -0.46793632299E-01  0.12980996691E+00  0.20037511906E-01 0.  0.
         14    1    1    2    0    0  0.16430560029E-01  0.17336862231E-01 -0.10654884863E-01  0.26154476984E-01  0.00000000000E+00 0. -1.
     999901    1    3    3    0    0 -0.19225553322E-01  0.10204349467E+00  0.57448517162E-01  0.88796555611E+00  0.88000000000E+00 0.  1.
        -11    1    4    4    0    0 -0.66410128645E-02 -0.87970555835E-01 -0.32289315902E-01  0.93945637409E-01  0.51100000000E-03 0. -1.
         11    1    4    4    0    0  0.94360061577E-02 -0.31409801069E-01 -0.14504316397E-01  0.35864329501E-01  0.51100000000E-03 0.  1.
</event>
<event>
 8    1  0.1065239E+005  0.1043930E+01  0.7957747E-01            NaN
         13   -1    0    0    0    0  0.00000000000E+00  0.00000000000E+00  0.74505805969E-08  0.10566000000E+00  0.10566000000E+00 0. -1.
     999900   -1    0    0    0    0 -0.00000000000E+00 -0.00000000000E+00 -0.74505805969E-08  0.93827000000E+00  0.93827000000E+00 0.  1.
     999902    2    1    2    0    0  0.91783402768E-03 -0.24303318404E-01 -0.72833255529E-02  0.10185421971E+01  0.10182257445E+01 0.  0.
     999903    2    3    3    0    0 -0.69989014646E-01 -0.93234981373E-01  0.56045845296E-01  0.13074157803E+00  0.18999987586E-01 0.  0.
         14    1    1    2    0    0 -0.91783402768E-03  0.24303318404E-01  0.72833255529E-02  0.25387802896E-01  0.00000000000E+00 0. -1.
     999901    1    3    3    0    0  0.70906848673E-01  0.68931662968E-01 -0.63329170848E-01  0.88780061907E+00  0.88000000000E+00 0.  1.
        -11    1    4    4    0    0 -0.26248758954E-01 -0.38757905439E-01  0.32604696087E-01  0.57048224413E-01  0.51100000000E-03 0. -1.
         11    1    4    4    0    0 -0.43740255691E-01 -0.54477075933E-01  0.23441149208E-01  0.73693353617E-01  0.51100000000E-03 0.  1.
</event>
<event>
 8    1  0.1065239E+005  0.1043930E+01  0.7957747E-01            NaN
         13   -1    0    0    0    0  0.00000000000E+00  0.00000000000E+00  0.74505805969E-08  0.10566000000E+00  0.10566000000E+00 0.  1.
     999900   -1    0    0    0    0 -0.00000000000E+00 -0.00000000000E+00 -0.74505805969E-08  0.93827000000E+00  0.93827000000E+00 0. -1.
     999902    2    1    2    0    0  0.14505792768E-01 -0.19460317772E-01  0.79283106544E-02  0.10183960990E+01  0.10180759472E+01 0.  0.
     999903    2    3    3    0    0  0.86615874353E-01 -0.76019845208E-01  0.61046586641E-01  0.13204380149E+00  0.20677360014E-01 0.  0.
         14    1    1    2    0    0 -0.14505792768E-01  0.19460317772E-01 -0.79283106544E-02  0.25533901023E-01  0.00000000000E+00 0. -1.
     999901    1    3    3    0    0 -0.72110081585E-01  0.56559527436E-01 -0.53118275987E-01  0.88635229748E+00  0.88000000000E+00 0. -1.
        -11    1    4    4    0    0  0.74115002750E-01 -0.61087222008E-01  0.42098732416E-01  0.10486775824E+00  0.51100000000E-03 0. -1.
         11    1    4    4    0    0  0.12500871602E-01 -0.14932623200E-01  0.18947854225E-01  0.27176043259E-01  0.51100000000E-03 0.  1.
</event>
<event>
 8    1  0.1065239E+005  0.1043930E+01  0.7957747E-01            NaN
         13   -1    0    0    0    0  0.00000000000E+00  0.00000000000E+00  0.74505805969E-08  0.10566000000E+00  0.10566000000E+00 0. -1.
     999900   -1    0    0    0    0 -0.00000000000E+00 -0.00000000000E+00 -0.74505805969E-08  0.93827000000E+00  0.93827000000E+00 0.  1.
     999902    2    1    2    0    0  0.17923986449E-01  0.49450653631E-02 -0.15429101161E-01  0.10197684577E+01  0.10194821859E+01 0.  0.
     999903    2    3    3    0    0  0.11286627609E+00 -0.34521817904E-01  0.53589027750E-01  0.13109800400E+00  0.19604860780E-01 0.  0.
         14    1    1    2    0    0 -0.17923986449E-01 -0.49450653631E-02  0.15429101161E-01  0.24161542259E-01  0.00000000000E+00 0. -1.
     999901    1    3    3    0    0 -0.94942289645E-01  0.39466883267E-01 -0.69018128911E-01  0.88867045374E+00  0.88000000000E+00 0.  1.
        -11    1    4    4    0    0  0.75761027169E-01 -0.27627281980E-01  0.45151847870E-01  0.92422672729E-01  0.51100000000E-03 0.  1.
         11    1    4    4    0    0  0.37105248926E-01 -0.68945359245E-02  0.84371798801E-02  0.38675331269E-01  0.51100000000E-03 0. -1.
</event>
<event>
 8    1  0.1065239E+005  0.1043930E+01  0.7957747E-01            NaN
         13   -1    0    0    0    0  0.00000000000E+00  0.00000000000E+00  0.74505805969E-08  0.10566000000E+00  0.10566000000E+00 0. -1.
     999900   -1    0    0    0    0 -0.00000000000E+00 -0.00000000000E+00 -0.74505805969E-08  0.93827000000E+00  0.93827000000E+00 0.  1.
     999902    2    1    2    0    0 -0.17820349771E-01  0.13107475312E-01 -0.99234060934E-02  0.10196844898E+01  0.10193962007E+01 0.  0.
     999903    2    3    3    0    0 -0.88076987637E-01 -0.20276045423E-01  0.92271651982E-01  0.13036211604E+00  0.17650772514E-01 0.  0.
         14    1    1    2    0    0  0.17820349771E-01 -0.13107475312E-01  0.99234060934E-02  0.24245510172E-01  0.00000000000E+00 0. -1.
     999901    1    3    3    0    0  0.70256637866E-01  0.33383520735E-01 -0.10219505808E+00  0.88932237379E+00  0.88000000000E+00 0.  1.
        -11    1    4    4    0    0 -0.58693429730E-01 -0.21904451468E-01  0.62121078263E-01  0.88227054656E-01  0.51100000000E-03 0.  1.
         11    1    4    4    0    0 -0.29383557907E-01  0.16284060444E-02  0.30150573719E-01  0.42135061387E-01  0.51100000000E-03 0. -1.
</event>
<event>
 8    1  0.1065239E+005  0.1043930E+01  0.7957747E-01            NaN
         13   -1    0    0    0    0  0.00000000000E+00  0.00000000000E+00  0.74505805969E-08  0.10566000000E+00  0.10566000000E+00 0. -1.
     999900   -1    0    0    0    0 -0.00000000000E+00 -0.00000000000E+00 -0.74505805969E-08  0.93827000000E+00  0.93827000000E+00 0.  1.
     999902    2    1    2    0    0  0.20074910028E-01  0.98905669069E-02  0.73774359215E-02  0.10203662166E+01  0.10200940957E+01 0.  0.
     999903    2    3    3    0    0  0.34220648102E-01 -0.10864703462E+00  0.61013316025E-01  0.13068758222E+00  0.19529171107E-01 0.  0.
         14    1    1    2    0    0 -0.20074910028E-01 -0.98905669069E-02 -0.73774359215E-02  0.23563783379E-01  0.00000000000E+00 0. -1.
     999901    1    3    3    0    0 -0.14145738074E-01  0.11853760153E+00 -0.53635880104E-01  0.88967863440E+00  0.88000000000E+00 0.  1.
        -11    1    4    4    0    0  0.17737872751E-01 -0.28808434752E-01  0.21543208890E-01  0.40111457377E-01  0.51100000000E-03 0.  1.
         11    1    4    4    0    0  0.16482775351E-01 -0.79838599871E-01  0.39470107136E-01  0.90576124839E-01  0.51100000000E-03 0. -1.
</event>
<event>
 8    1  0.1065239E+005  0.1043930E+01  0.7957747E-01            NaN
         13   -1    0    0    0    0  0.00000000000E+00  0.00000000000E+00  0.74505805969E-08  0.10566000000E+00  0.10566000000E+00 0. -1.
     999900   -1    0    0    0    0 -0.00000000000E+00 -0.00000000000E+00 -0.74505805969E-08  0.93827000000E+00  0.93827000000E+00 0. -1.
     999902    2    1    2    0    0  0.41094156725E-02  0.22253395970E-01  0.73040563909E-02  0.10201508039E+01  0.10198736257E+01 0.  0.
     999903    2    3    3    0    0 -0.93075639911E-01  0.78969277642E-01 -0.44660709547E-01  0.13146527840E+00  0.19731165475E-01 0.  0.
         14    1    1    2    0    0 -0.41094156725E-02 -0.22253395970E-01 -0.73040563909E-02  0.23779196142E-01  0.00000000000E+00 0.  1.
     999901    1    3    3    0    0  0.97185055584E-01 -0.56715881671E-01  0.51964765938E-01  0.88868552546E+00  0.88000000000E+00 0. -1.
        -11    1    4    4    0    0 -0.68055707048E-01  0.68247638896E-01 -0.36187391730E-01  0.10295196898E+00  0.51100000000E-03 0. -1.
         11    1    4    4    0    0 -0.25019932864E-01  0.10721638746E-01 -0.84733178170E-02  0.28513309414E-01  0.51100000000E-03 0.  1.
</event>
<event>
 8    1  0.1065239E+005  0.1043930E+01  0.7957747E-01            NaN
         13   -1    0    0    0    0  0.00000000000E+00  0.00000000000E+00  0.74505805969E-08  0.10566000000E+00  0.10566000000E+00 0.  1.
     999900   -1    0    0    0    0 -0.00000000000E+00 -0.00000000000E+00 -0.74505805969E-08  0.93827000000E+00  0.93827000000E+00 0. -1.
     999902    2    1    2    0    0 -0.17763227207E-01  0.14683307855E-01  0.77839622493E-02  0.10196046667E+01  0.10193144532E+01 0.  0.
     999903    2    3    3    0    0  0.28679461486E-01 -0.11010841554E+00 -0.53777210851E-01  0.12746136233E+00  0.20199895891E-01 0.  0.
         14    1    1    2    0    0  0.17763227207E-01 -0.14683307855E-01 -0.77839622493E-02  0.24325333269E-01  0.00000000000E+00 0. -1.
     999901    1    3    3    0    0 -0.46442688693E-01  0.12479172340E+00  0.61561173100E-01  0.89214330441E+00  0.88000000000E+00 0.  1.
        -11    1    4    4    0    0  0.27035436314E-01 -0.68442315872E-01 -0.38471146524E-01  0.83039482504E-01  0.51100000000E-03 0.  1.
         11    1    4    4    0    0  0.16440251720E-02 -0.41666099673E-01 -0.15306064327E-01  0.44421879821E-01  0.51100000000E-03 0. -1.
</event>
<event>
 8    1  0.1065239E+005  0.1043930E+01  0.7957747E-01            NaN
         13   -1    0    0    0    0  0.00000000000E+00  0.00000000000E+00  0.74505805969E-08  0.10566000000E+00  0.10566000000E+00 0.  1.
     999900   -1    0    0    0    0 -0.00000000000E+00 -0.00000000000E+00 -0.74505805969E-08  0.93827000000E+00  0.93827000000E+00 0. -1.
     999902    2    1    2    0    0  0.38557802128E-03 -0.15848588103E-01 -0.18148365821E-01  0.10198324981E+01  0.10195477598E+01 0.  0.
     999903    2    3    3    0    0 -0.34312817715E-01  0.49128134867E-01  0.11036129611E+00  0.12745327020E+00  0.21766426233E-01 0.  0.
         14    1    1    2    0    0 -0.38557802128E-03  0.15848588103E-01  0.18148365821E-01  0.24097501888E-01  0.00000000000E+00 0.  1.
     999901    1    3    3    0    0  0.34698395736E-01 -0.64976722969E-01 -0.12850966193E+00  0.89237922791E+00  0.88000000000E+00 0. -1.
        -11    1    4    4    0    0 -0.26100591165E-01  0.30937190504E-01  0.91203379176E-01  0.99783105331E-01  0.51100000000E-03 0.  1.
         11    1    4    4    0    0 -0.82122265491E-02  0.18190944362E-01  0.19157916936E-01  0.27670164871E-01  0.51100000000E-03 0. -1.
</event>
<event>
 8    1  0.1065239E+005  0.1043930E+01  0.7957747E-01            NaN
         13   -1    0    0    0    0  0.00000000000E+00  0.00000000000E+00  0.74505805969E-08  0.10566000000E+00  0.10566000000E+00 0.  1.
     999900   -1    0    0    0    0 -0.00000000000E+00 -0.00000000000E+00 -0.74505805969E-08  0.93827000000E+00  0.93827000000E+00 0.  1.
     999902    2    1    2    0    0  0.17024614282E-01  0.16581486029E-01  0.41030699390E-02  0.10198132350E+01  0.10195280359E+01 0.  0.
     999903    2    3    3    0    0 -0.24150701507E-01  0.12445184158E+00  0.31099417674E-01  0.13186040799E+00  0.18667516135E-01 0.  0.
         14    1    1    2    0    0 -0.17024614282E-01 -0.16581486029E-01 -0.41030699390E-02  0.24116764984E-01  0.00000000000E+00 0. -1.
     999901    1    3    3    0    0  0.41175315789E-01 -0.10787035555E+00 -0.26996347735E-01  0.88795282703E+00  0.88000000000E+00 0.  1.
        -11    1    4    4    0    0 -0.13901474308E-01  0.45955506981E-01  0.39786493931E-02  0.48179356387E-01  0.51100000000E-03 0. -1.
         11    1    4    4    0    0 -0.10249227199E-01  0.78496334600E-01  0.27120768281E-01  0.83681051600E-01  0.51100000000E-03 0.  1.
</event>
<event>
 8    1  0.1065239E+005  0.1043930E+01  0.7957747E-01            NaN
         13   -1    0    0    0    0  0.00000000000E+00  0.00000000000E+00  0.74505805969E-08  0.10566000000E+00  0.10566000000E+00 0.  1.
     999900   -1    0    0    0    0 -0.00000000000E+00 -0.00000000000E+00 -0.74505805969E-08  0.93827000000E+00  0.93827000000E+00 0. -1.
     999902    2    1    2    0    0  0.19009236590E-01  0.69626480052E-02 -0.86378892968E-02  0.10219199415E+01  0.10216828883E+01 0.  0.
     999903    2    3    3    0    0 -0.11801173803E-02 -0.70213561626E-01 -0.11059949700E+00  0.13244821808E+00  0.19466505165E-01 0.  0.
         14    1    1    2    0    0 -0.19009236590E-01 -0.69626480052E-02  0.86378892968E-02  0.22010058484E-01  0.00000000000E+00 0. -1.
     999901    1    3    3    0    0  0.20189353971E-01  0.77176209632E-01  0.10196160770E+00  0.88947172344E+00  0.88000000000E+00 0.  1.
        -11    1    4    4    0    0 -0.43980575225E-02 -0.65840952982E-01 -0.10760282262E+00  0.12622599794E+00  0.51100000000E-03 0.  1.
         11    1    4    4    0    0  0.32179401422E-02 -0.43726086445E-02 -0.29966743735E-02  0.62222201357E-02  0.51100000000E-03 0. -1.
</event>
<event>
 8    1  0.1161791E+005  0.1043930E+01  0.7957747E-01            NaN
         13   -1    0    0    0    0  0.00000000000E+00  0.00000000000E+00  0.74505805969E-08  0.10566000000E+00  0.10566000000E+00 0. -1.
     999900   -1    0    0    0    0 -0.00000000000E+00 -0.00000000000E+00 -0.74505805969E-08  0.93827000000E+00  0.93827000000E+00 0. -1.
     999902    2    1    2    0    0 -0.17224003674E-01 -0.16605964638E-01 -0.56295635951E-02  0.10193512215E+01  0.10190548545E+01 0.  0.
     999903    2    3    3    0    0 -0.95701407416E-01  0.13314588263E-01 -0.86994458667E-01  0.13161579444E+00  0.20460788485E-01 0.  0.
         14    1    1    2    0    0  0.17224003674E-01  0.16605964638E-01  0.56295635951E-02  0.24578778456E-01  0.00000000000E+00 0.  1.
     999901    1    3    3    0    0  0.78477403741E-01 -0.29920552901E-01  0.81364895072E-01  0.88773542710E+00  0.88000000000E+00 0.  1.
        -11    1    4    4    0    0 -0.53452244174E-01 -0.10675726635E-02 -0.39753371296E-01  0.66624873502E-01  0.51100000000E-03 0. -1.
         11    1    4    4    0    0 -0.42249163241E-01  0.14382160926E-01 -0.47241087371E-01  0.64990920939E-01  0.51100000000E-03 0.  1.
</event>
<event>
 8    1  0.1065239E+005  0.1043930E+01  0.7957747E-01            NaN
         13   -1    0    0    0    0  0.00000000000E+00  0.00000000000E+00  0.74505805969E-08  0.10566000000E+00  0.10566000000E+00 0.  1.
     999900   -1    0    0    0    0 -0.00000000000E+00 -0.00000000000E+00 -0.74505805969E-08  0.93827000000E+00  0.93827000000E+00 0.  1.
     999902    2    1    2    0    0  0.12637847404E-01  0.10509229057E-01 -0.16628601572E-01  0.10205490361E+01  0.10202811699E+01 0.  0.
     999903    2    3    3    0    0 -0.67608200636E-01 -0.21791796386E-01 -0.10904032385E+00  0.13149183272E+00  0.18829728251E-01 0.  0.
         14    1    1    2    0    0 -0.12637847404E-01 -0.10509229057E-01  0.16628601572E-01  0.23380963894E-01  0.00000000000E+00 0.  1.
     999901    1    3    3    0    0  0.80246048040E-01  0.32301025443E-01  0.92411722273E-01  0.88905720338E+00  0.88000000000E+00 0. -1.
        -11    1    4    4    0    0 -0.14841200759E-01 -0.11912760431E-01 -0.20748951922E-01  0.28159460718E-01  0.51100000000E-03 0. -1.
         11    1    4    4    0    0 -0.52766999877E-01 -0.98790359546E-02 -0.88291371923E-01  0.10333237201E+00  0.51100000000E-03 0.  1.
</event>
<event>
 8    1  0.1065239E+005  0.1043930E+01  0.7957747E-01            NaN
         13   -1    0    0    0    0  0.00000000000E+00  0.00000000000E+00  0.74505805969E-08  0.10566000000E+00  0.10566000000E+00 0. -1.
     999900   -1    0    0    0    0 -0.00000000000E+00 -0.00000000000E+00 -0.74505805969E-08  0.93827000000E+00  0.93827000000E+00 0. -1.
     999902    2    1    2    0    0 -0.14959858796E-01  0.51361693550E-02 -0.17197198976E-01  0.10205650420E+01  0.10202975466E+01 0.  0.
     999903    2    3    3    0    0 -0.84453505831E-02  0.12386981557E+00  0.36351714282E-01  0.13095411372E+00  0.20309544906E-01 0.  0.
         14    1    1    2    0    0  0.14959858796E-01 -0.51361693550E-02  0.17197198976E-01  0.23364958024E-01  0.00000000000E+00 0.  1.
     999901    1    3    3    0    0 -0.65145082130E-02 -0.11873364621E+00 -0.53548913258E-01  0.88961092826E+00  0.88000000000E+00 0.  1.
        -11    1    4    4    0    0 -0.10736263938E-01  0.86342243875E-01  0.33536030032E-01  0.93247932267E-01  0.51100000000E-03 0. -1.
         11    1    4    4    0    0  0.22909133554E-02  0.37527571691E-01  0.28156842496E-02  0.37706181454E-01  0.51100000000E-03 0.  1.
</event>
<event>
 8    1  0.1065239E+005  0.1043930E+01  0.7957747E-01            NaN
         13   -1    0    0    0    0  0.00000000000E+00  0.00000000000E+00  0.74505805969E-08  0.10566000000E+00  0.10566000000E+00 0.  1.
     999900   -1    0    0    0    0 -0.00000000000E+00 -0.00000000000E+00 -0.74505805969E-08  0.93827000000E+00  0.93827000000E+00 0. -1.
     999902    2    1    2    0    0 -0.11891990546E-01  0.19500577681E-01  0.49822216087E-02  0.10205523504E+01  0.10202845610E+01 0.  0.
     999903    2    3    3    0    0 -0.12631750246E+00  0.21292056293E-01  0.27672732506E-01  0.13285236365E+00  0.21783188844E-01 0.  0.
         14    1    1    2    0    0  0.11891990546E-01 -0.19500577681E-01 -0.49822216087E-02  0.23377649608E-01  0.00000000000E+00 0. -1.
     999901    1    3    3    0    0  0.11442551191E+00 -0.17914786119E-02 -0.22690510897E-01  0.88769998674E+00  0.88000000000E+00 0.  1.
        -11    1    4    4    0    0 -0.72487516977E-01  0.12085786943E-01  0.48134690806E-02  0.73647382636E-01  0.51100000000E-03 0.  1.
         11    1    4    4    0    0 -0.53829985478E-01  0.92062693502E-02  0.22859263425E-01  0.59204981018E-01  0.51100000000E-03 0. -1.
</event>
<event>
 8    1  0.1065239E+005  0.1043930E+01  0.7957747E-01            NaN
         13   -1    0    0    0    0  0.00000000000E+00  0.00000000000E+00  0.74505805969E-08  0.10566000000E+00  0.10566000000E+00 0.  1.
     999900   -1    0    0    0    0 -0.00000000000E+00 -0.00000000000E+00 -0.74505805969E-08  0.93827000000E+00  0.93827000000E+00 0. -1.
     999902    2    1    2    0    0  0.10582137927E-01  0.18170759759E-01  0.12848495214E-01  0.10192877196E+01  0.10189898004E+01 0.  0.
     999903    2    3    3    0    0  0.52201123216E-01 -0.11118495616E+00 -0.28878012740E-01  0.12788088621E+00  0.20797348321E-01 0.  0.
         14    1    1    2    0    0 -0.10582137927E-01 -0.18170759759E-01 -0.12848495214E-01  0.24642280385E-01  0.00000000000E+00 0. -1.
     999901    1    3    3    0    0 -0.41618985289E-01  0.12935571592E+00  0.41726507954E-01  0.89140683341E+00  0.88000000000E+00 0.  1.
        -11    1    4    4    0    0  0.22314214012E-01 -0.49097260062E-01 -0.23289269405E-01  0.58746202286E-01  0.51100000000E-03 0.  1.
         11    1    4    4    0    0  0.29886909204E-01 -0.62087696095E-01 -0.55887433354E-02  0.69134683924E-01  0.51100000000E-03 0. -1.
</event>
<event>
 8    1  0.1065239E+005  0.1043930E+01  0.7957747E-01            NaN
         13   -1    0    0    0    0  0.00000000000E+00  0.00000000000E+00  0.74505805969E-08  0.10566000000E+00  0.10566000000E+00 0. -1.
     999900   -1    0    0    0    0 -0.00000000000E+00 -0.00000000000E+00 -0.74505805969E-08  0.93827000000E+00  0.93827000000E+00 0.  1.
     999902    2    1    2    0    0  0.56603690811E-03 -0.19767741081E-02 -0.23603037934E-01  0.10202375659E+01  0.10199624304E+01 0.  0.
     999903    2    3    3    0    0 -0.11199291178E-01  0.12725490219E+00 -0.10863985550E-01  0.13063004988E+00  0.25038959559E-01 0.  0.
         14    1    1    2    0    0 -0.56603690811E-03  0.19767741081E-02  0.23603037934E-01  0.23692434096E-01  0.00000000000E+00 0. -1.
     999901    1    3    3    0    0  0.11765328086E-01 -0.12923167630E+00 -0.12739052384E-01  0.88960751602E+00  0.88000000000E+00 0.  1.
        -11    1    4    4    0    0  0.51097415893E-02  0.46742993103E-01 -0.11775828178E-01  0.48476263404E-01  0.51100000000E-03 0.  1.
         11    1    4    4    0    0 -0.16309032767E-01  0.80511909090E-01  0.91184262772E-03  0.82153786480E-01  0.51100000000E-03 0. -1.
</event>
<event>
 8    1  0.1065239E+005  0.1043930E+01  0.7957747E-01            NaN
         13   -1    0    0    0    0  0.00000000000E+00  0.00000000000E+00  0.74505805969E-08  0.10566000000E+00  0.10566000000E+00 0.  1.
     999900   -1    0    0    0    0 -0.00000000000E+00 -0.00000000000E+00 -0.74505805969E-08  0.93827000000E+00  0.93827000000E+00 0. -1.
     999902    2    1    2    0    0 -0.12135968975E-01 -0.15707169772E-01  0.12647504915E-01  0.10203937236E+01  0.10201222451E+01 0.  0.
     999903    2    3    3    0    0  0.46884589794E-01 -0.10531848700E+00  0.62059236587E-01  0.13250007359E+00  0.20365956685E-01 0.  0.
         14    1    1    2    0    0  0.12135968975E-01  0.15707169772E-01 -0.12647504915E-01  0.23536276379E-01  0.00000000000E+00 0. -1.
     999901    1    3    3    0    0 -0.59020558769E-01  0.89611317231E-01 -0.49411731672E-01  0.88789365003E+00  0.88000000000E+00 0. -1.
        -11    1    4    4    0    0  0.10864530031E-01 -0.86590447008E-02  0.67734134714E-02  0.15464712056E-01  0.51100000000E-03 0. -1.
         11    1    4    4    0    0  0.36020059763E-01 -0.96659442302E-01  0.55285823116E-01  0.11703536154E+00  0.51100000000E-03 0.  1.
</event>
<event>
 8    1  0.1065239E+005  0.1043930E+01  0.7957747E-01            NaN
         13   -1    0    0    0    0  0.00000000000E+00  0.00000000000E+00  0.74505805969E-08  0.10566000000E+00  0.10566000000E+00 0.  1.
     999900   -1    0    0    0    0 -0.00000000000E+00 -0.00000000000E+00 -0.74505805969E-08  0.93827000000E+00  0.93827000000E+00 0.  1.
     999902    2    1    2    0    0 -0.67480889495E-02 -0.10767827798E-01  0.14513485196E-01  0.10246394823E+01  0.10244578784E+01 0.  0.
     999903    2    3    3    0    0 -0.68634003234E-01 -0.10002355374E+00  0.59994896101E-01  0.13679658533E+00  0.19964480884E-01 0.  0.
         14    1    1    2    0    0  0.67480889495E-02  0.10767827798E-01 -0.14513485196E-01  0.19290517683E-01  0.00000000000E+00 0. -1.
     999901    1    3    3    0    0  0.61885914284E-01  0.89255725937E-01 -0.45481410905E-01  0.88784289699E+00  0.88000000000E+00 0.  1.
        -11    1    4    4    0    0 -0.18059536192E-01 -0.43244020218E-01  0.24424873516E-01  0.52849103108E-01  0.51100000000E-03 0. -1.
         11    1    4    4    0    0 -0.50574467042E-01 -0.56779533517E-01  0.35570022585E-01  0.83947482218E-01  0.51100000000E-03 0.  1.
</event>
<event>
 8    1  0.1065239E+005  0.1043930E+01  0.7957747E-01            NaN
         13   -1    0    0    0    0  0.00000000000E+00  0.00000000000E+00  0.74505805969E-08  0.10566000000E+00  0.10566000000E+00 0.  1.
     999900   -1    0    0    0    0 -0.00000000000E+00 -0.00000000000E+00 -0.74505805969E-08  0.93827000000E+00  0.93827000000E+00 0.  1.
     999902    2    1    2    0    0 -0.17052756733E-01  0.16133171751E-01  0.11237928068E-02  0.10204281138E+01  0.10201574373E+01 0.  0.
     999903    2    3    3    0    0 -0.54784256419E-01 -0.40711070067E-01 -0.10979796812E+00  0.13084474453E+00  0.20150617605E-01 0.  0.
         14    1    1    2    0    0  0.17052756733E-01 -0.16133171751E-01 -0.11237928068E-02  0.23501886163E-01  0.00000000000E+00 0.  1.
     999901    1    3    3    0    0  0.37731499686E-01  0.56844241818E-01  0.11092176093E+00  0.88958336931E+00  0.88000000000E+00 0. -1.
        -11    1    4    4    0    0 -0.96705360041E-02 -0.15860591027E-01 -0.39932145166E-01  0.44044465633E-01  0.51100000000E-03 0.  1.
         11    1    4    4    0    0 -0.45113720415E-01 -0.24850479040E-01 -0.69865822959E-01  0.86800278899E-01  0.51100000000E-03 0. -1.
</event>
<event>
 8    1  0.1065239E+005  0.1043930E+01  0.7957747E-01            NaN
         13   -1    0    0    0    0  0.00000000000E+00  0.00000000000E+00  0.74505805969E-08  0.10566000000E+00  0.10566000000E+00 0.  1.
     999900   -1    0    0    0    0 -0.00000000000E+00 -0.00000000000E+00 -0.74505805969E-08  0.93827000000E+00  0.93827000000E+00 0. -1.
     999902    2    1    2    0    0 -0.14546259699E-01 -0.18939537853E-01 -0.48836085462E-02  0.10195548200E+01  0.10192634015E+01 0.  0.
     999903    2    3    3    0    0 -0.25953541874E-01 -0.12807451874E+00  0.12357950172E-01  0.13257238421E+00  0.18602404038E-01 0.  0.
         14    1    1    2    0    0  0.14546259699E-01  0.18939537853E-01  0.48836085462E-02  0.24375179954E-01  0.00000000000E+00 0. -1.
     999901    1    3    3    0    0  0.11407282174E-01  0.10913498089E+00 -0.17241558718E-01  0.88698243584E+00  0.88000000000E+00 0.  1.
        -11    1    4    4    0    0 -0.22933990722E-01 -0.11024064836E+00  0.17033588052E-01  0.11388315382E+00  0.51100000000E-03 0.  1.
         11    1    4    4    0    0 -0.30195511516E-02 -0.17833870375E-01 -0.46756378802E-02  0.18689230383E-01  0.51100000000E-03 0. -1.
</event>
<event>
 8    1  0.1065239E+005  0.1043930E+01  0.7957747E-01            NaN
         13   -1    0    0    0    0  0.00000000000E+00  0.00000000000E+00  0.74505805969E-08  0.10566000000E+00  0.10566000000E+00 0. -1.
     999900   -1    0    0    0    0 -0.00000000000E+00 -0.00000000000E+00 -0.74505805969E-08  0.93827000000E+00  0.93827000000E+00 0. -1.
     999902    2    1    2    0    0  0.57752977703E-02  0.13089787394E-01  0.19569088267E-01  0.10196885930E+01  0.10194004026E+01 0.  0.
     999903    2    3    3    0    0 -0.57567642249E-01 -0.11086803425E+00 -0.18956871931E-01  0.12791389094E+00  0.19920995189E-01 0.  0.
         14    1    1    2    0    0 -0.57752977703E-02 -0.13089787394E-01 -0.19569088267E-01  0.24241407012E-01  0.00000000000E+00 0.  1.
     999901    1    3    3    0    0  0.63342940019E-01  0.12395782165E+00  0.38525960198E-01  0.89177470204E+00  0.88000000000E+00 0.  1.
        -11    1    4    4    0    0 -0.49711305620E-01 -0.90645424155E-01 -0.82404051466E-02  0.10371100339E+00  0.51100000000E-03 0. -1.
         11    1    4    4    0    0 -0.78563366288E-02 -0.20222610098E-01 -0.10716466785E-01  0.24202887550E-01  0.51100000000E-03 0.  1.
</event>
<event>
 8    1  0.1065239E+005  0.1043930E+01  0.7957747E-01            NaN
         13   -1    0    0    0    0  0.00000000000E+00  0.00000000000E+00  0.74505805969E-08  0.10566000000E+00  0.10566000000E+00 0. -1.
     999900   -1    0    0    0    0 -0.00000000000E+00 -0.00000000000E+00 -0.74505805969E-08  0.93827000000E+00  0.93827000000E+00 0. -1.
     999902    2    1    2    0    0 -0.16179443572E-01  0.29560504742E-02 -0.17720892798E-01  0.10197526827E+01  0.10194660324E+01 0.  0.
     999903    2    3    3    0    0 -0.32652620914E-01 -0.71496615424E-01  0.99794938827E-01  0.12867213883E+00  0.20482427275E-01 0.  0.
         14    1    1    2    0    0  0.16179443572E-01 -0.29560504742E-02  0.17720892798E-01  0.24177317268E-01  0.00000000000E+00 0.  1.
     999901    1    3    3    0    0  0.16473177343E-01  0.74452665898E-01 -0.11751583163E+00  0.89108054390E+00  0.88000000000E+00 0. -1.
        -11    1    4    4    0    0 -0.28133059890E-01 -0.67403900340E-01  0.98132753093E-01  0.12233173419E+00  0.51100000000E-03 0.  1.
         11    1    4    4    0    0 -0.45195610246E-02 -0.40927150840E-02  0.16621857337E-02  0.63404046422E-02  0.51100000000E-03 0. -1.
</event>
<event>
 8    1  0.1065239E+005  0.1043930E+01  0.7957747E-01            NaN
         13   -1    0    0    0    0  0.00000000000E+00  0.00000000000E+00  0.74505805969E-08  0.10566000000E+00  0.10566000000E+00 0. -1.
     999900   -1    0    0    0    0 -0.00000000000E+00 -0.00000000000E+00 -0.74505805969E-08  0.93827000000E+00  0.93827000000E+00 0.  1.
     999902    2    1    2    0    0 -0.17145317523E-01  0.14885692217E-01  0.75631827728E-02  0.10199978568E+01  0.10197170590E+01 0.  0.
     999903    2    3    3    0    0  0.59640514563E-01  0.77028259726E-01  0.85288002212E-01  0.13106652632E+00  0.20348150447E-01 0.  0.
         14    1    1    2    0    0  0.17145317523E-01 -0.14885692217E-01 -0.75631827728E-02  0.23932143226E-01  0.00000000000E+00 0.  1.
     999901    1    3    3    0    0 -0.76785832086E-01 -0.62142567509E-01 -0.77724819439E-01  0.88893133045E+00  0.88000000000E+00 0.  1.
        -11    1    4    4    0    0  0.35335326839E-01  0.38673375880E-01  0.33471374152E-01  0.62167590700E-01  0.51100000000E-03 0. -1.
         11    1    4    4    0    0  0.24305187723E-01  0.38354883846E-01  0.51816628060E-01  0.68898935620E-01  0.51100000000E-03 0.  1.
</event>
<event>
 8    1  0.1065239E+005  0.1043930E+01  0.7957747E-01            NaN
         13   -1    0    0    0    0  0.00000000000E+00  0.00000000000E+00  0.74505805969E-08  0.10566000000E+00  0.10566000000E+00 0.  1.
     999900   -1    0    0    0    0 -0.00000000000E+00 -0.00000000000E+00 -0.74505805969E-08  0.93827000000E+00  0.93827000000E+00 0. -1.
     999902    2    1    2    0    0  0.64438873645E-02 -0.20020002868E-01 -0.10165390142E-01  0.10205706474E+01  0.10203032818E+01 0.  0.
     999903    2    3    3    0    0 -0.81404269904E-01 -0.21928172018E-01 -0.99193913734E-01  0.13172475641E+00  0.20111664324E-01 0.  0.
         14    1    1    2    0    0 -0.64438873645E-02  0.20020002868E-01  0.10165390142E-01  0.23359352644E-01  0.00000000000E+00 0.  1.
     999901    1    3    3    0    0  0.87848157268E-01  0.19081691494E-02  0.89028523591E-01  0.88884589095E+00  0.88000000000E+00 0.  1.
        -11    1    4    4    0    0 -0.32741151920E-01  0.69531344335E-03 -0.42532205365E-01  0.53681617934E-01  0.51100000000E-03 0. -1.
         11    1    4    4    0    0 -0.48663117984E-01 -0.22623485461E-01 -0.56661708369E-01  0.78043138472E-01  0.51100000000E-03 0.  1.
</event>
<event>
 8    1  0.1065239E+005  0.1043930E+01  0.7957747E-01            NaN
         13   -1    0    0    0    0  0.00000000000E+00  0.00000000000E+00  0.74505805969E-08  0.10566000000E+00  0.10566000000E+00 0.  1.
     999900   -1    0    0    0    0 -0.00000000000E+00 -0.00000000000E+00 -0.74505805969E-08  0.93827000000E+00  0.93827000000E+00 0.  1.
     999902    2    1    2    0    0 -0.46966796311E-02  0.38332357004E-02 -0.23127930528E-01  0.10200207201E+01  0.10197404649E+01 0.  0.
     999903    2    3    3    0    0 -0.56614577887E-01  0.96704925073E-01  0.62396728197E-01  0.12949554577E+00  0.17851938858E-01 0.  0.
         14    1    1    2    0    0  0.46966796311E-02 -0.38332357004E-02  0.23127930528E-01  0.23909279914E-01  0.00000000000E+00 0.  1.
     999901    1    3    3    0    0  0.51917898256E-01 -0.92871689373E-01 -0.85524658726E-01  0.89052517432E+00  0.88000000000E+00 0.  1.
        -11    1    4    4    0    0 -0.43016893178E-01  0.72528262031E-01  0.37770824034E-01  0.92399665373E-01  0.51100000000E-03 0. -1.
         11    1    4    4    0    0 -0.13597684709E-01  0.24176663042E-01  0.24625904163E-01  0.37095880393E-01  0.51100000000E-03 0.  1.
</event>
<event>
 8    1  0.1065239E+005  0.1043930E+01  0.7957747E-01            NaN
         13   -1    0    0    0    0  0.00000000000E+00  0.00000000000E+00  0.74505805969E-08  0.10566000000E+00  0.10566000000E+00 0.  1.
     999900   -1    0    0    0    0 -0.00000000000E+00 -0.00000000000E+00 -0.74505805969E-08  0.93827000000E+00  0.93827000000E+00 0. -1.
     999902    2    1    2    0    0  0.33903958606E-02  0.23532512919E-01  0.54009993759E-02  0.10195487625E+01  0.10192571973E+01 0.  0.
     999903    2    3    3    0    0 -0.45509073427E-01  0.12215174512E+00 -0.18401628257E-01  0.13237151067E+00  0.13837352215E-01 0.  0.
         14    1    1    2    0    0 -0.33903958606E-02 -0.23532512919E-01 -0.54009993759E-02  0.24381237513E-01  0.00000000000E+00 0.  1.
     999901    1    3    3    0    0  0.48899469288E-01 -0.98619232196E-01  0.23802627633E-01  0.88717725181E+00  0.88000000000E+00 0. -1.
        -11    1    4    4    0    0 -0.20342566022E-01  0.72791212711E-01 -0.81142997920E-02  0.76016337865E-01  0.51100000000E-03 0. -1.
         11    1    4    4    0    0 -0.25166507406E-01  0.49360532404E-01 -0.10287328465E-01  0.56355172807E-01  0.51100000000E-03 0.  1.
</event>
<event>
 8    1  0.1065239E+005  0.1043930E+01  0.7957747E-01            NaN
         13   -1    0    0    0    0  0.00000000000E+00  0.00000000000E+00  0.74505805969E-08  0.10566000000E+00  0.10566000000E+00 0. -1.
     999900   -1    0    0    0    0 -0.00000000000E+00 -0.00000000000E+00 -0.74505805969E-08  0.93827000000E+00  0.93827000000E+00 0.  1.
     999902    2    1    2    0    0  0.20200962147E-01  0.11014738796E-01  0.57920405686E-02  0.10202034099E+01  0.10199274712E+01 0.  0.
     999903    2    3    3    0    0  0.71807392786E-01  0.28762722505E-01 -0.10449132018E+00  0.13164241919E+00  0.20680780241E-01 0.  0.
         14    1    1    2    0    0 -0.20200962147E-01 -0.11014738796E-01 -0.57920405686E-02  0.23726590070E-01  0.00000000000E+00 0.  1.
     999901    1    3    3    0    0 -0.51606430639E-01 -0.17747983709E-01  0.11028336075E+00  0.88856099074E+00  0.88000000000E+00 0. -1.
        -11    1    4    4    0    0  0.31584050728E-01  0.14848328557E-01 -0.63974529603E-01  0.72876791094E-01  0.51100000000E-03 0. -1.
         11    1    4    4    0    0  0.40223342059E-01  0.13914393948E-01 -0.40516790580E-01  0.58765628094E-01  0.51100000000E-03 0.  1.
</event>
<event>
 8    1  0.1065239E+005  0.1043930E+01  0.7957747E-01            NaN
         13   -1    0    0    0    0  0.00000000000E+00  0.00000000000E+00  0.74505805969E-08  0.10566000000E+00  0.10566000000E+00 0. -1.
     999900   -1    0    0    0    0 -0.00000000000E+00 -0.00000000000E+00 -0.74505805969E-08  0.93827000000E+00  0.93827000000E+00 0. -1.
     999902    2    1    2    0    0 -0.39615756076E-02  0.42765023062E-02  0.21814232994E-01  0.10213502898E+01  0.10211006665E+01 0.  0.
     999903    2    3    3    0    0 -0.13912457999E-01 -0.27265288903E-01  0.12909623881E+00  0.13421820635E+00  0.20291268426E-01 0.  0.
         14    1    1    2    0    0  0.39615756076E-02 -0.42765023062E-02 -0.21814232994E-01  0.22579710237E-01  0.00000000000E+00 0.  1.
     999901    1    3    3    0    0  0.99508823918E-02  0.31541791209E-01 -0.10728200581E+00  0.88713208342E+00  0.88000000000E+00 0. -1.
        -11    1    4    4    0    0 -0.44115397129E-02 -0.26721412852E-01  0.90836065405E-01  0.94788962895E-01  0.51100000000E-03 0. -1.
         11    1    4    4    0    0 -0.95009182865E-02 -0.54387605083E-03  0.38260173403E-01  0.39429243453E-01  0.51100000000E-03 0.  1.
</event>
<event>
 8    1  0.1065239E+005  0.1043930E+01  0.7957747E-01            NaN
         13   -1    0    0    0    0  0.00000000000E+00  0.00000000000E+00  0.74505805969E-08  0.10566000000E+00  0.10566000000E+00 0. -1.
     999900   -1    0    0    0    0 -0.00000000000E+00 -0.00000000000E+00 -0.74505805969E-08  0.93827000000E+00  0.93827000000E+00 0.  1.
     999902    2    1    2    0    0  0.16690695277E-01  0.15449786185E-01  0.25531689055E-02  0.10210434565E+01  0.10207869250E+01 0.  0.
     999903    2    3    3    0    0 -0.10915768040E+00 -0.34883879734E-01  0.55785780024E-01  0.12907652747E+00  0.20406186223E-01 0.  0.
         14    1    1    2    0    0 -0.16690695277E-01 -0.15449786185E-01 -0.25531689055E-02  0.22886543502E-01  0.00000000000E+00 0. -1.
     999901    1    3    3    0    0  0.12584837568E+00  0.50333665919E-01 -0.53232611119E-01  0.89196692902E+00  0.88000000000E+00 0. -1.
        -11    1    4    4    0    0 -0.77486724134E-01 -0.14919259998E-01  0.39510136439E-01  0.88250148659E-01  0.51100000000E-03 0. -1.
         11    1    4    4    0    0 -0.31670956267E-01 -0.19964619736E-01  0.16275643585E-01  0.40826378815E-01  0.51100000000E-03 0.  1.
</event>
<event>
 7    1  0.1065239E+005  0.1043930E+01  0.7957747E-01            NaN
         13   -1    0    0    0    0  0.00000000000E+00  0.00000000000E+00  0.74505805969E-08  0.10566000000E+00  0.10566000000E+00 0. -1.
     999900   -1    0    0    0    0 -0.00000000000E+00 -0.00000000000E+00 -0.74505805969E-08  0.93827000000E+00  0.93827000000E+00 0. -1.
     999903    2    1    2    0    0  0.10178650364E+00  0.45792626058E-01  0.27129182630E-01  0.11704837598E+00  0.22513836742E-01 0.  0.
         14    1    1    2    0    0 -0.10995283531E-01  0.27663769382E-01 -0.25449497540E-01  0.39164490567E-01  0.00000000000E+00 0.  1.
     999901    1    1    2    0    0 -0.90791220111E-01 -0.73456395440E-01 -0.16796850904E-02  0.88771713345E+00  0.88000000000E+00 0.  1.
        -11    1    3    3    0    0  0.68594194520E-01  0.41910785678E-01  0.20774084025E-01  0.83027111031E-01  0.51100000000E-03 0. -1.
         11    1    3    3    0    0  0.33192309122E-01  0.38818403796E-02  0.63550986053E-02  0.34021264951E-01  0.51100000000E-03 0.  1.
</event>
<event>
 8    1  0.1065239E+005  0.1043930E+01  0.7957747E-01            NaN
         13   -1    0    0    0    0  0.00000000000E+00  0.00000000000E+00  0.74505805969E-08  0.10566000000E+00  0.10566000000E+00 0.  1.
     999900   -1    0    0    0    0 -0.00000000000E+00 -0.00000000000E+00 -0.74505805969E-08  0.93827000000E+00  0.93827000000E+00 0.  1.
     999902    2    1    2    0    0 -0.15713888919E-01 -0.17583224527E-01 -0.51345338916E-02  0.10197958017E+01  0.10195101851E+01 0.  0.
     999903    2    3    3    0    0  0.74600312253E-01 -0.10234492756E+00 -0.26954194746E-01  0.13085412822E+00  0.18883417937E-01 0.  0.
         14    1    1    2    0    0  0.15713888919E-01  0.17583224527E-01  0.51345338916E-02  0.24134198309E-01  0.00000000000E+00 0. -1.
     999901    1    3    3    0    0 -0.90314201172E-01  0.84761703029E-01  0.21819660855E-01  0.88894167347E+00  0.88000000000E+00 0. -1.
        -11    1    4    4    0    0  0.23808599903E-01 -0.43639813350E-01 -0.17240524273E-01  0.52619193616E-01  0.51100000000E-03 0.  1.
         11    1    4    4    0    0  0.50791712350E-01 -0.58705114206E-01 -0.97136704730E-02  0.78234934604E-01  0.51100000000E-03 0. -1.
</event>
<event>
 8    1  0.1245693E+005  0.1043930E+01  0.7957747E-01            NaN
         13   -1    0    0    0    0  0.00000000000E+00  0.00000000000E+00  0.74505805969E-08  0.10566000000E+00  0.10566000000E+00 0.  1.
     999900   -1    0    0    0    0 -0.00000000000E+00 -0.00000000000E+00 -0.74505805969E-08  0.93827000000E+00  0.93827000000E+00 0. -1.
     999902    2    1    2    0    0 -0.12743013495E-01 -0.19617739278E-01 -0.93154369104E-02  0.10187502968E+01  0.10184390752E+01 0.  0.
     999903    2    3    3    0    0 -0.88235347454E-01  0.91334359142E-01 -0.78758366286E-03  0.12853561209E+00  0.19832841132E-01 0.  0.
         14    1    1    2    0    0  0.12743013495E-01  0.19617739278E-01  0.93154369104E-02  0.25179703178E-01  0.00000000000E+00 0. -1.
     999901    1    3    3    0    0  0.75492333959E-01 -0.11095209842E+00 -0.85278532476E-02  0.89021468473E+00  0.88000000000E+00 0. -1.
        -11    1    4    4    0    0 -0.40085246050E-01  0.37217981185E-01  0.90075624051E-02  0.55438275369E-01  0.51100000000E-03 0. -1.
         11    1    4    4    0    0 -0.48150101404E-01  0.54116377957E-01 -0.97951460679E-02  0.73097336722E-01  0.51100000000E-03 0.  1.
</event>
<event>
 8    1  0.1065239E+005  0.1043930E+01  0.7957747E-01            NaN
         13   -1    0    0    0    0  0.00000000000E+00  0.00000000000E+00  0.74505805969E-08  0.10566000000E+00  0.10566000000E+00 0.  1.
     999900   -1    0    0    0    0 -0.00000000000E+00 -0.00000000000E+00 -0.74505805969E-08  0.93827000000E+00  0.93827000000E+00 0. -1.
     999902    2    1    2    0    0 -0.14142903490E-01 -0.18474999771E-01  0.31835496742E-03  0.10206609501E+01  0.10203956714E+01 0.  0.
     999903    2    3    3    0    0 -0.94607224184E-01  0.37249915167E-01 -0.77174635035E-01  0.13184998221E+00  0.33021363823E-01 0.  0.
         14    1    1    2    0    0  0.14142903490E-01  0.18474999771E-01 -0.31835496742E-03  0.23269049950E-01  0.00000000000E+00 0. -1.
     999901    1    3    3    0    0  0.80464320694E-01 -0.55724914938E-01  0.77492990003E-01  0.88881096784E+00  0.88000000000E+00 0.  1.
        -11    1    4    4    0    0 -0.16547945584E-01  0.20844866591E-01 -0.25123159085E-01  0.36602967225E-01  0.51100000000E-03 0.  1.
         11    1    4    4    0    0 -0.78059278601E-01  0.16405048576E-01 -0.52051475950E-01  0.95247014988E-01  0.51100000000E-03 0. -1.
</event>
<event>
 8    1  0.1065239E+005  0.1043930E+01  0.7957747E-01            NaN
         13   -1    0    0    0    0  0.00000000000E+00  0.00000000000E+00  0.74505805969E-08  0.10566000000E+00  0.10566000000E+00 0.  1.
     999900   -1    0    0    0    0 -0.00000000000E+00 -0.00000000000E+00 -0.74505805969E-08  0.93827000000E+00  0.93827000000E+00 0.  1.
     999902    2    1    2    0    0 -0.61479604484E-02  0.11693921492E-01  0.18573461141E-01  0.10211370477E+01  0.10208826335E+01 0.  0.
     999903    2    3    3    0    0  0.34792778485E-02  0.11272678607E+00  0.68928930378E-01  0.13387384166E+00  0.21250279170E-01 0.  0.
         14    1    1    2    0    0  0.61479604484E-02 -0.11693921492E-01 -0.18573461141E-01  0.22792952339E-01  0.00000000000E+00 0. -1.
     999901    1    3    3    0    0 -0.96272382969E-02 -0.10103286458E+00 -0.50355469237E-01  0.88726320600E+00  0.88000000000E+00 0.  1.
        -11    1    4    4    0    0  0.74313251012E-02  0.13224273249E-01  0.95370080042E-02  0.17925446672E-01  0.51100000000E-03 0.  1.
         11    1    4    4    0    0 -0.39520472527E-02  0.99502512824E-01  0.59391922374E-01  0.11594839499E+00  0.51100000000E-03 0. -1.
</event>
<event>
 8    1  0.1065239E+005  0.1043930E+01  0.7957747E-01            NaN
         13   -1    0    0    0    0  0.00000000000E+00  0.00000000000E+00  0.74505805969E-08  0.10566000000E+00  0.10566000000E+00 0.  1.
     999900   -1    0    0    0    0 -0.00000000000E+00 -0.00000000000E+00 -0.74505805969E-08  0.93827000000E+00  0.93827000000E+00 0. -1.
     999902    2    1    2    0    0 -0.15109148441E-01  0.14445607930E-01 -0.10504003584E-01  0.10205356407E+01  0.10202674639E+01 0.  0.
     999903    2    3    3    0    0 -0.17737081000E-01  0.13014761419E+00  0.23409545018E-02  0.13286517639E+00  0.19866290762E-01 0.  0.
         14    1    1    2    0    0  0.15109148441E-01 -0.14445607930E-01  0.10504003584E-01  0.23394359285E-01  0.00000000000E+00 0.  1.
     999901    1    3    3    0    0  0.26279325594E-02 -0.11570200626E+00 -0.12844958085E-01  0.88767046432E+00  0.88000000000E+00 0.  1.
        -11    1    4    4    0    0  0.12313165351E-02  0.21530064062E-01  0.64842403743E-02  0.22524792855E-01  0.51100000000E-03 0.  1.
         11    1    4    4    0    0 -0.18968397535E-01  0.10861755013E+00 -0.41432858725E-02  0.11034038354E+00  0.51100000000E-03 0. -1.
</event>
<event>
 8    1  0.1065239E+005  0.1043930E+01  0.7957747E-01            NaN
         13   -1    0    0    0    0  0.00000000000E+00  0.00000000000E+00  0.74505805969E-08  0.10566000000E+00  0.10566000000E+00 0. -1.
     999900   -1    0    0    0    0 -0.00000000000E+00 -0.00000000000E+00 -0.74505805969E-08  0.93827000000E+00  0.93827000000E+00 0.  1.
     999902    2    1    2    0    0  0.76993154478E-02 -0.95305398782E-02 -0.20240208861E-01  0.10202703993E+01  0.10199960348E+01 0.  0.
     999903    2    3    3    0    0 -0.74797372214E-01  0.36314023056E-01 -0.10003198550E+00  0.13163427862E+00  0.20194801925E-01 0.  0.
         14    1    1    2    0    0 -0.76993154478E-02  0.95305398782E-02  0.20240208861E-01  0.23659600662E-01  0.00000000000E+00 0. -1.
     999901    1    3    3    0    0  0.82496687662E-01 -0.45844562935E-01  0.79791776636E-01  0.88863612072E+00  0.88000000000E+00 0. -1.
        -11    1    4    4    0    0 -0.35128858688E-01  0.93181155936E-02 -0.32290254764E-01  0.48618778930E-01  0.51100000000E-03 0.  1.
         11    1    4    4    0    0 -0.39668513526E-01  0.26995907463E-01 -0.67741730733E-01  0.83015499690E-01  0.51100000000E-03 0. -1.
</event>
<event>
 8    1  0.1065239E+005  0.1043930E+01  0.7957747E-01            NaN
         13   -1    0    0    0    0  0.00000000000E+00  0.00000000000E+00  0.74505805969E-08  0.10566000000E+00  0.10566000000E+00 0. -1.
     999900   -1    0    0    0    0 -0.00000000000E+00 -0.00000000000E+00 -0.74505805969E-08  0.93827000000E+00  0.93827000000E+00 0.  1.
     999902    2    1    2    0    0  0.23149048430E-01  0.79675924943E-02  0.17786274823E-03  0.10194475040E+01  0.10191534825E+01 0.  0.
     999903    2    3    3    0    0  0.85085823810E-01  0.97271255076E-01 -0.21097683112E-01  0.13250671845E+00  0.20288512094E-01 0.  0.
         14    1    1    2    0    0 -0.23149048430E-01 -0.79675924943E-02 -0.17786274823E-03  0.24482495962E-01  0.00000000000E+00 0.  1.
     999901    1    3    3    0    0 -0.61936775380E-01 -0.89303662582E-01  0.21275545860E-01  0.88694078559E+00  0.88000000000E+00 0. -1.
        -11    1    4    4    0    0  0.15374690571E-01  0.11664994170E-01 -0.94458545081E-02  0.21492754302E-01  0.51100000000E-03 0.  1.
         11    1    4    4    0    0  0.69711133240E-01  0.85606260907E-01 -0.11651828603E-01  0.11101396414E+00  0.51100000000E-03 0. -1.
</event>
<event>
 8    1  0.1065239E+005  0.1043930E+01  0.7957747E-01            NaN
         13   -1    0    0    0    0  0.00000000000E+00  0.00000000000E+00  0.74505805969E-08  0.10566000000E+00  0.10566000000E+00 0.  1.
     999900   -1    0    0    0    0 -0.00000000000E+00 -0.00000000000E+00 -0.74505805969E-08  0.93827000000E+00  0.93827000000E+00 0. -1.
     999902    2    1    2    0    0  0.48799656209E-03  0.30841127051E-02  0.22294865803E-01  0.10214175383E+01  0.10211694162E+01 0.  0.
     999903    2    3    3    0    0 -0.26157394432E-01 -0.12488248707E+00 -0.20293807504E-01  0.13074407251E+00  0.20058140847E-01 0.  0.
         14    1    1    2    0    0 -0.48799656209E-03 -0.30841127051E-02 -0.22294865803E-01  0.22512461727E-01  0.00000000000E+00 0. -1.
     999901    1    3    3    0    0  0.26645390994E-01  0.12796659977E+00  0.42588673308E-01  0.89067346576E+00  0.88000000000E+00 0.  1.
        -11    1    4    4    0    0 -0.19078146728E-01 -0.11612984215E+00 -0.16417581307E-01  0.11882724443E+00  0.51100000000E-03 0. -1.
         11    1    4    4    0    0 -0.70792477046E-02 -0.87526449127E-02 -0.38762261977E-02  0.11916828083E-01  0.51100000000E-03 0.  1.
</event>
<event>
 8    1  0.1065239E+005  0.1043930E+01  0.7957747E-01            NaN
         13   -1    0    0    0    0  0.00000000000E+00  0.00000000000E+00  0.74505805969E-08  0.10566000000E+00  0.10566000000E+00 0. -1.
     999900   -1    0    0    0    0 -0.00000000000E+00 -0.00000000000E+00 -0.74505805969E-08  0.93827000000E+00  0.93827000000E+00 0. -1.
     999902    2    1    2    0    0 -0.97153087866E-02  0.14314644003E-01 -0.17384473271E-01  0.10194041734E+01  0.10191090975E+01 0.  0.
     999903    2    3    3    0    0 -0.97141270401E-01  0.81127052633E-01 -0.32689074288E-01  0.13241971612E+00  0.21174998344E-01 0.  0.
         14    1    1    2    0    0  0.97153087866E-02 -0.14314644003E-01  0.17384473271E-01  0.24525826564E-01  0.00000000000E+00 0. -1.
     999901    1    3    3    0    0  0.87425961614E-01 -0.66812408630E-01  0.15304601017E-01  0.88698445732E+00  0.88000000000E+00 0.  1.
        -11    1    4    4    0    0 -0.65229858096E-01  0.42407531583E-01 -0.15157751772E-01  0.79267595409E-01  0.51100000000E-03 0. -1.
         11    1    4    4    0    0 -0.31911412305E-01  0.38719521050E-01 -0.17531322516E-01  0.53152120709E-01  0.51100000000E-03 0.  1.
</event>
<event>
 8    1  0.1065239E+005  0.1043930E+01  0.7957747E-01            NaN
         13   -1    0    0    0    0  0.00000000000E+00  0.00000000000E+00  0.74505805969E-08  0.10566000000E+00  0.10566000000E+00 0.  1.
     999900   -1    0    0    0    0 -0.00000000000E+00 -0.00000000000E+00 -0.74505805969E-08  0.93827000000E+00  0.93827000000E+00 0.  1.
     999902    2    1    2    0    0 -0.13382935591E-01  0.15159869301E-01 -0.11882581000E-01  0.10204753558E+01  0.10202057790E+01 0.  0.
     999903    2    3    3    0    0 -0.55470129626E-01 -0.11558089129E+00  0.81106566504E-03  0.12973094408E+00  0.19838909057E-01 0.  0.
         14    1    1    2    0    0  0.13382935591E-01 -0.15159869301E-01  0.11882581000E-01  0.23454644177E-01  0.00000000000E+00 0.  1.
     999901    1    3    3    0    0  0.42087194035E-01  0.13074076059E+00 -0.12693646665E-01  0.89074441174E+00  0.88000000000E+00 0.  1.
        -11    1    4    4    0    0 -0.48271198872E-01 -0.92740933887E-01  0.76170614880E-02  0.10482972005E+00  0.51100000000E-03 0. -1.
         11    1    4    4    0    0 -0.71989307541E-02 -0.22839957404E-01 -0.68059958230E-02  0.24901224034E-01  0.51100000000E-03 0.  1.
</event>
<event>
 8    1  0.1065239E+005  0.1043930E+01  0.7957747E-01            NaN
         13   -1    0    0    0    0  0.00000000000E+00  0.00000000000E+00  0.74505805969E-08  0.10566000000E+00  0.10566000000E+00 0. -1.
     999900   -1    0    0    0    0 -0.00000000000E+00 -0.00000000000E+00 -0.74505805969E-08  0.93827000000E+00  0.93827000000E+00 0.  1.
     999902    2    1    2    0    0 -0.21513450447E-01 -0.17285382080E-02 -0.81449177269E-02  0.10208614916E+01  0.10206008176E+01 0.  0.
     999903    2    3    3    0    0  0.74428795509E-01 -0.10212536522E+00  0.20229102454E-01  0.12952007417E+00  0.19924788666E-01 0.  0.
         14    1    1    2    0    0  0.21513450447E-01  0.17285382080E-02  0.81449177269E-02  0.23068508388E-01  0.00000000000E+00 0. -1.
     999901    1    3    3    0    0 -0.95942245956E-01  0.10039682701E+00 -0.28374020181E-01  0.89134141745E+00  0.88000000000E+00 0.  1.
        -11    1    4    4    0    0  0.65983149197E-01 -0.81375486247E-01  0.11209876274E-01  0.10536445410E+00  0.51100000000E-03 0.  1.
         11    1    4    4    0    0  0.84456463117E-02 -0.20749878975E-01  0.90192261800E-02  0.24155620070E-01  0.51100000000E-03 0. -1.
</event>
<event>
 8    1  0.1065239E+005  0.1043930E+01  0.7957747E-01            NaN
         13   -1    0    0    0    0  0.00000000000E+00  0.00000000000E+00  0.74505805969E-08  0.10566000000E+00  0.10566000000E+00 0. -1.
     999900   -1    0    0    0    0 -0.00000000000E+00 -0.00000000000E+00 -0.74505805969E-08  0.93827000000E+00  0.93827000000E+00 0. -1.
     999902    2    1    2    0    0  0.11633312910E-01  0.35971277878E-02  0.20202640779E-01  0.10203414436E+01  0.10200687436E+01 0.  0.
     999903    2    3    3    0    0 -0.14879726582E-01  0.71806221419E-01  0.10890740745E+00  0.13285963685E+00  0.20330273230E-01 0.  0.
         14    1    1    2    0    0 -0.11633312910E-01 -0.35971277878E-02 -0.20202640779E-01  0.23588556379E-01  0.00000000000E+00 0.  1.
     999901    1    3    3    0    0  0.26513039492E-01 -0.68209093631E-01 -0.88704766669E-01  0.88748180677E+00  0.88000000000E+00 0. -1.
        -11    1    4    4    0    0  0.17679833461E-03  0.15271640883E-01  0.37826340011E-01  0.40796413966E-01  0.51100000000E-03 0. -1.
         11    1    4    4    0    0 -0.15056524917E-01  0.56534580536E-01  0.71081067438E-01  0.92063222886E-01  0.51100000000E-03 0.  1.
</event>
<event>
 8    1  0.1065239E+005  0.1043930E+01  0.7957747E-01            NaN
         13   -1    0    0    0    0  0.00000000000E+00  0.00000000000E+00  0.74505805969E-08  0.10566000000E+00  0.10566000000E+00 0. -1.
     999900   -1    0    0    0    0 -0.00000000000E+00 -0.00000000000E+00 -0.74505805969E-08  0.93827000000E+00  0.93827000000E+00 0.  1.
     999902    2    1    2    0    0 -0.18184521236E-01  0.14446695066E-02 -0.15211279855E-01  0.10201782229E+01  0.10199016911E+01 0.  0.
     999903    2    3    3    0    0 -0.52564499005E-01  0.11072077777E+00  0.41333401890E-01  0.13095353149E+00  0.20451408529E-01 0.  0.
         14    1    1    2    0    0  0.18184521236E-01 -0.14446695066E-02  0.15211279855E-01  0.23751777142E-01  0.00000000000E+00 0. -1.
     999901    1    3    3    0    0  0.34379977769E-01 -0.10927610827E+00 -0.56544681745E-01  0.88922469137E+00  0.88000000000E+00 0.  1.
        -11    1    4    4    0    0 -0.49934178961E-01  0.86472528127E-01  0.33794160520E-01  0.10541929024E+00  0.51100000000E-03 0.  1.
         11    1    4    4    0    0 -0.26303200433E-02  0.24248249647E-01  0.75392413697E-02  0.25534241244E-01  0.51100000000E-03 0. -1.
</event>
<event>
 8    1  0.1065239E+005  0.1043930E+01  0.7957747E-01            NaN
         13   -1    0    0    0    0  0.00000000000E+00  0.00000000000E+00  0.74505805969E-08  0.10566000000E+00  0.10566000000E+00 0. -1.
     999900   -1    0    0    0    0 -0.00000000000E+00 -0.00000000000E+00 -0.74505805969E-08  0.93827000000E+00  0.93827000000E+00 0. -1.
     999902    2    1    2    0    0 -0.17701119838E-01  0.15071469183E-01 -0.18139259222E-02  0.10206111417E+01  0.10203447130E+01 0.  0.
     999903    2    3    3    0    0  0.91323369584E-01 -0.86676693272E-01  0.11476595214E-01  0.12796582251E+00  0.19766954848E-01 0.  0.
         14    1    1    2    0    0  0.17701119838E-01 -0.15071469183E-01  0.18139259222E-02  0.23318858336E-01  0.00000000000E+00 0. -1.
     999901    1    3    3    0    0 -0.10902448942E+00  0.10174816245E+00 -0.13290521136E-01  0.89264531915E+00  0.88000000000E+00 0. -1.
        -11    1    4    4    0    0  0.56962439320E-01 -0.41643638678E-01  0.10262016866E-01  0.71305555511E-01  0.51100000000E-03 0. -1.
         11    1    4    4    0    0  0.34360930264E-01 -0.45033054594E-01  0.12145783480E-02  0.56660266998E-01  0.51100000000E-03 0.  1.
</event>
<event>
 8    1  0.1065239E+005  0.1043930E+01  0.7957747E-01            NaN
         13   -1    0    0    0    0  0.00000000000E+00  0.00000000000E+00  0.74505805969E-08  0.10566000000E+00  0.10566000000E+00 0. -1.
     999900   -1    0    0    0    0 -0.00000000000E+00 -0.00000000000E+00 -0.74505805969E-08  0.93827000000E+00  0.93827000000E+00 0. -1.
     999902    2    1    2    0    0 -0.12579115174E-01 -0.11461153853E-01  0.31292995452E-04  0.10269125629E+01  0.10267715514E+01 0.  0.
     999903    2    3    3    0    0  0.68282072811E-01 -0.24434773056E-02  0.11546455914E+00  0.13565239373E+00  0.20027367782E-01 0.  0.
         14    1    1    2    0    0  0.12579115174E-01  0.11461153853E-01 -0.31292995452E-04  0.17017437100E-01  0.00000000000E+00 0. -1.
     999901    1    3    3    0    0 -0.80861187985E-01 -0.90176765470E-02 -0.11543326614E+00  0.89126016917E+00  0.88000000000E+00 0. -1.
        -11    1    4    4    0    0  0.36204931804E-01 -0.75124514744E-02  0.46412088927E-01  0.59342877699E-01  0.51100000000E-03 0. -1.
         11    1    4    4    0    0  0.32077141007E-01  0.50689741688E-02  0.69052470208E-01  0.76309516033E-01  0.51100000000E-03 0.  1.
</event>
<event>
 8    1  0.1065239E+005  0.1043930E+01  0.7957747E-01            NaN
         13   -1    0    0    0    0  0.00000000000E+00  0.00000000000E+00  0.74505805969E-08  0.10566000000E+00  0.10566000000E+00 0.  1.
     999900   -1    0    0    0    0 -0.00000000000E+00 -0.00000000000E+00 -0.74505805969E-08  0.93827000000E+00  0.93827000000E+00 0.  1.
     999902    2    1    2    0    0  0.10133424106E-02  0.15130076976E-01 -0.17917335514E-01  0.10204571006E+01  0.10201870991E+01 0.  0.
     999903    2    3    3    0    0  0.92625510186E-02  0.12605112458E+00 -0.37991601667E-01  0.13322854813E+00  0.18215470919E-01 0.  0.
         14    1    1    2    0    0 -0.10133424106E-02 -0.15130076976E-01  0.17917335514E-01  0.23472899353E-01  0.00000000000E+00 0.  1.
     999901    1    3    3    0    0 -0.82492086081E-02 -0.11092104760E+00  0.20074266153E-01  0.88722855252E+00  0.88000000000E+00 0.  1.
        -11    1    4    4    0    0  0.20984397214E-02  0.10179171367E+00 -0.35411707924E-01  0.10779706211E+00  0.51100000000E-03 0.  1.
         11    1    4    4    0    0  0.71641112972E-02  0.24259410909E-01 -0.25798937424E-02  0.25431486017E-01  0.51100000000E-03 0. -1.
</event>
<event>
 8    1  0.1065239E+005  0.1043930E+01  0.7957747E-01            NaN
         13   -1    0    0    0    0  0.00000000000E+00  0.00000000000E+00  0.74505805969E-08  0.10566000000E+00  0.10566000000E+00 0.  1.
     999900   -1    0    0    0    0 -0.00000000000E+00 -0.00000000000E+00 -0.74505805969E-08  0.93827000000E+00  0.93827000000E+00 0.  1.
     999902    2    1    2    0    0 -0.17144800304E-02  0.16680294832E-01  0.19575212999E-01  0.10181548057E+01  0.10178284962E+01 0.  0.
     999903    2    3    3    0    0  0.11124968725E+00 -0.53161549627E-01  0.28411693140E-01  0.12814532838E+00  0.20281952726E-01 0.  0.
         14    1    1    2    0    0  0.17144800304E-02 -0.16680294832E-01 -0.19575212999E-01  0.25775194305E-01  0.00000000000E+00 0.  1.
     999901    1    3    3    0    0 -0.11296416728E+00  0.69841844460E-01 -0.88364801407E-02  0.89000947731E+00  0.88000000000E+00 0. -1.
        -11    1    4    4    0    0  0.63078688992E-01 -0.18943697060E-01  0.14558162861E-01  0.67453583227E-01  0.51100000000E-03 0. -1.
         11    1    4    4    0    0  0.48170998260E-01 -0.34217852567E-01  0.13853530279E-01  0.60691745155E-01  0.51100000000E-03 0.  1.
</event>
<event>
 8    1  0.1065239E+005  0.1043930E+01  0.7957747E-01            NaN
         13   -1    0    0    0    0  0.00000000000E+00  0.00000000000E+00  0.74505805969E-08  0.10566000000E+00  0.10566000000E+00 0. -1.
     999900   -1    0    0    0    0 -0.00000000000E+00 -0.00000000000E+00 -0.74505805969E-08  0.93827000000E+00  0.93827000000E+00 0. -1.
     999902    2    1    2    0    0  0.81712863462E-02  0.38575338648E-03 -0.30243448954E-01  0.10125997442E+01  0.10121149426E+01 0.  0.
     999903    2    3    3    0    0 -0.25657857349E-01 -0.11372846775E+00 -0.38762789567E-01  0.12454622911E+00  0.20413703969E-01 0.  0.
         14    1    1    2    0    0 -0.81712863462E-02 -0.38575338648E-03  0.30243448954E-01  0.31330255837E-01  0.00000000000E+00 0. -1.
     999901    1    3    3    0    0  0.33829143695E-01  0.11411422114E+00  0.85193406134E-02  0.88805351505E+00  0.88000000000E+00 0. -1.
        -11    1    4    4    0    0 -0.85150343966E-02 -0.80035397123E-01 -0.28290096608E-01  0.85315656772E-01  0.51100000000E-03 0.  1.
         11    1    4    4    0    0 -0.17142822953E-01 -0.33693070630E-01 -0.10472692959E-01  0.39230572340E-01  0.51100000000E-03 0. -1.
</event>
<event>
 8    1  0.1065239E+005  0.1043930E+01  0.7957747E-01            NaN
         13   -1    0    0    0    0  0.00000000000E+00  0.00000000000E+00  0.74505805969E-08  0.10566000000E+00  0.10566000000E+00 0. -1.
     999900   -1    0    0    0    0 -0.00000000000E+00 -0.00000000000E+00 -0.74505805969E-08  0.93827000000E+00  0.93827000000E+00 0. -1.
     999902    2    1    2    0    0  0.17749530131E-02  0.16846273547E-01 -0.16201959727E-01  0.10204896312E+01  0.10202203862E+01 0.  0.
     999903    2    3    3    0    0  0.12119898886E+00 -0.20257704531E-01  0.37208265307E-01  0.13004510307E+00  0.20681013831E-01 0.  0.
         14    1    1    2    0    0 -0.17749530131E-02 -0.16846273547E-01  0.16201959727E-01  0.23440368803E-01  0.00000000000E+00 0.  1.
     999901    1    3    3    0    0 -0.11942403585E+00  0.37103978078E-01 -0.53410225034E-01  0.89044452812E+00  0.88000000000E+00 0. -1.
        -11    1    4    4    0    0  0.44232024309E-01  0.23827017902E-02  0.11013298258E-01  0.45647596890E-01  0.51100000000E-03 0.  1.
         11    1    4    4    0    0  0.76966964550E-01 -0.22640406321E-01  0.26194967049E-01  0.84397506184E-01  0.51100000000E-03 0. -1.
</event>
<event>
 8    1  0.1065239E+005  0.1043930E+01  0.7957747E-01            NaN
         13   -1    0    0    0    0  0.00000000000E+00  0.00000000000E+00  0.74505805969E-08  0.10566000000E+00  0.10566000000E+00 0.  1.
     999900   -1    0    0    0    0 -0.00000000000E+00 -0.00000000000E+00 -0.74505805969E-08  0.93827000000E+00  0.93827000000E+00 0.  1.
     999902    2    1    2    0    0 -0.17684039392E-02  0.84666968195E-02 -0.23435122927E-01  0.10189496639E+01  0.10186434117E+01 0.  0.
     999903    2    3    3    0    0  0.67599051495E-01  0.45531023538E-01  0.96434742916E-01  0.12734751439E+00  0.16583844919E-01 0.  0.
         14    1    1    2    0    0  0.17684039392E-02 -0.84666968195E-02  0.23435122927E-01  0.24980336149E-01  0.00000000000E+00 0.  1.
     999901    1    3    3    0    0 -0.69367455434E-01 -0.37064326719E-01 -0.11986986584E+00  0.89160214946E+00  0.88000000000E+00 0.  1.
        -11    1    4    4    0    0  0.39852305465E-01  0.35116088700E-01  0.55682891755E-01  0.76955776207E-01  0.51100000000E-03 0.  1.
         11    1    4    4    0    0  0.27746746030E-01  0.10414934839E-01  0.40751851160E-01  0.50391738181E-01  0.51100000000E-03 0. -1.
</event>
<event>
 8    1  0.1065239E+005  0.1043930E+01  0.7957747E-01            NaN
         13   -1    0    0    0    0  0.00000000000E+00  0.00000000000E+00  0.74505805969E-08  0.10566000000E+00  0.10566000000E+00 0.  1.
     999900   -1    0    0    0    0 -0.00000000000E+00 -0.00000000000E+00 -0.74505805969E-08  0.93827000000E+00  0.93827000000E+00 0.  1.
     999902    2    1    2    0    0 -0.18951108100E-01  0.14960036479E-01  0.12226233204E-02  0.10197547648E+01  0.10194681644E+01 0.  0.
     999903    2    3    3    0    0  0.63006425167E-01 -0.99626391422E-01 -0.43998716856E-01  0.12740278473E+00  0.20008872799E-01 0.  0.
         14    1    1    2    0    0  0.18951108100E-01 -0.14960036479E-01 -0.12226233204E-02  0.24175235210E-01  0.00000000000E+00 0.  1.
     999901    1    3    3    0    0 -0.81957533267E-01  0.11458642790E+00  0.45221340176E-01  0.89235198006E+00  0.88000000000E+00 0.  1.
        -11    1    4    4    0    0  0.87150139204E-02 -0.25341319062E-01 -0.16047096867E-01  0.31239467958E-01  0.51100000000E-03 0. -1.
         11    1    4    4    0    0  0.54291411246E-01 -0.74285072361E-01 -0.27951619988E-01  0.96163316767E-01  0.51100000000E-03 0.  1.
</event>
<event>
 8    1  0.1065239E+005  0.1043930E+01  0.7957747E-01            NaN
         13   -1    0    0    0    0  0.00000000000E+00  0.00000000000E+00  0.74505805969E-08  0.10566000000E+00  0.10566000000E+00 0. -1.
     999900   -1    0    0    0    0 -0.00000000000E+00 -0.00000000000E+00 -0.74505805969E-08  0.93827000000E+00  0.93827000000E+00 0. -1.
     999902    2    1    2    0    0  0.19839064151E-01 -0.88708205748E-02 -0.92059191595E-02  0.10203285409E+01  0.10200555389E+01 0.  0.
     999903    2    3    3    0    0  0.63143425518E-01 -0.85489033548E-01 -0.78412205715E-01  0.13323489964E+00  0.17538455829E-01 0.  0.
         14    1    1    2    0    0 -0.19839064151E-01  0.88708205748E-02  0.92059191595E-02  0.23601459100E-01  0.00000000000E+00 0. -1.
     999901    1    3    3    0    0 -0.43304361367E-01  0.76618212973E-01  0.69206286556E-01  0.88709364126E+00  0.88000000000E+00 0.  1.
        -11    1    4    4    0    0  0.39130703164E-01 -0.66091424523E-01 -0.54361057267E-01  0.94099277329E-01  0.51100000000E-03 0.  1.
         11    1    4    4    0    0  0.24012722354E-01 -0.19397609025E-01 -0.24051148448E-01  0.39135622308E-01  0.51100000000E-03 0. -1.
</event>
<event>
 8    1  0.1065239E+005  0.1043930E+01  0.7957747E-01            NaN
         13   -1    0    0    0    0  0.00000000000E+00  0.00000000000E+00  0.74505805969E-08  0.10566000000E+00  0.10566000000E+00 0. -1.
     999900   -1    0    0    0    0 -0.00000000000E+00 -0.00000000000E+00 -0.74505805969E-08  0.93827000000E+00  0.93827000000E+00 0. -1.
     999902    2    1    2    0    0 -0.41339073815E-03  0.20352497607E-01 -0.89946015272E-02  0.10216747106E+01  0.10214322867E+01 0.  0.
     999903    2    3    3    0    0 -0.36589071704E-01  0.20472733800E-01  0.12279245092E+00  0.13112627195E+00  0.18926705840E-01 0.  0.
         14    1    1    2    0    0  0.41339073815E-03 -0.20352497607E-01  0.89946015272E-02  0.22255289425E-01  0.00000000000E+00 0. -1.
     999901    1    3    3    0    0  0.36175680966E-01 -0.12023619233E-03 -0.13178705245E+00  0.89054843863E+00  0.88000000000E+00 0. -1.
        -11    1    4    4    0    0 -0.21324987357E-01  0.11725684125E-01  0.96238731956E-01  0.99269337681E-01  0.51100000000E-03 0. -1.
         11    1    4    4    0    0 -0.15264084347E-01  0.87470496746E-02  0.26553718965E-01  0.31856934266E-01  0.51100000000E-03 0.  1.
</event>
<event>
 8    1  0.1065239E+005  0.1043930E+01  0.7957747E-01            NaN
         13   -1    0    0    0    0  0.00000000000E+00  0.00000000000E+00  0.74505805969E-08  0.10566000000E+00  0.10566000000E+00 0.  1.
     999900   -1    0    0    0    0 -0.00000000000E+00 -0.00000000000E+00 -0.74505805969E-08  0.93827000000E+00  0.93827000000E+00 0. -1.
     999902    2    1    2    0    0  0.18178204966E-01  0.51399673158E-02  0.13551465195E-01  0.10206811590E+01  0.10204163462E+01 0.  0.
     999903    2    3    3    0    0 -0.88700916955E-01  0.17541092234E-01  0.91867107902E-01  0.13067538681E+00  0.21469713990E-01 0.  0.
         14    1    1    2    0    0 -0.18178204966E-01 -0.51399673158E-02 -0.13551465195E-01  0.23248841019E-01  0.00000000000E+00 0. -1.
     999901    1    3    3    0    0  0.10687912192E+00 -0.12401124918E-01 -0.78315642708E-01  0.89000577217E+00  0.88000000000E+00 0. -1.
        -11    1    4    4    0    0 -0.31662351982E-01  0.16070077860E-01  0.29718498158E-01  0.46305530871E-01  0.51100000000E-03 0. -1.
         11    1    4    4    0    0 -0.57038564972E-01  0.14710143740E-02  0.62148609744E-01  0.84369855941E-01  0.51100000000E-03 0.  1.
</event>
<event>
 8    1  0.1065239E+005  0.1043930E+01  0.7957747E-01            NaN
         13   -1    0    0    0    0  0.00000000000E+00  0.00000000000E+00  0.74505805969E-08  0.10566000000E+00  0.10566000000E+00 0. -1.
     999900   -1    0    0    0    0 -0.00000000000E+00 -0.00000000000E+00 -0.74505805969E-08  0.93827000000E+00  0.93827000000E+00 0.  1.
     999902    2    1    2    0    0 -0.21206863326E-01  0.25365164732E-02 -0.12995031156E-01  0.10189292840E+01  0.10186225257E+01 0.  0.
     999903    2    3    3    0    0 -0.18397237992E-01  0.95362417636E-01 -0.85442094799E-01  0.13108182017E+00  0.21204786075E-01 0.  0.
         14    1    1    2    0    0  0.21206863326E-01 -0.25365164732E-02  0.12995031156E-01  0.25000716043E-01  0.00000000000E+00 0. -1.
     999901    1    3    3    0    0 -0.28096253338E-02 -0.92825901163E-01  0.72447063643E-01  0.88784746379E+00  0.88000000000E+00 0. -1.
        -11    1    4    4    0    0 -0.17927434680E-01  0.95552567366E-01 -0.80886297001E-01  0.12646952284E+00  0.51100000000E-03 0.  1.
         11    1    4    4    0    0 -0.46980331226E-03 -0.19014972960E-03 -0.45557977977E-02  0.46122973284E-02  0.51100000000E-03 0. -1.
</event>
<event>
 8    1  0.1065239E+005  0.1043930E+01  0.7957747E-01            NaN
         13   -1    0    0    0    0  0.00000000000E+00  0.00000000000E+00  0.74505805969E-08  0.10566000000E+00  0.10566000000E+00 0. -1.
     999900   -1    0    0    0    0 -0.00000000000E+00 -0.00000000000E+00 -0.74505805969E-08  0.93827000000E+00  0.93827000000E+00 0. -1.
     999902    2    1    2    0    0  0.22589408375E-01  0.27487479672E-02  0.65999364799E-02  0.10202362002E+01  0.10199610326E+01 0.  0.
     999903    2    3    3    0    0  0.94785279948E-01  0.75478177034E-02  0.91222077420E-01  0.13322087811E+00  0.19624375338E-01 0.  0.
         14    1    1    2    0    0 -0.22589408375E-01 -0.27487479672E-02 -0.65999364799E-02  0.23693799772E-01  0.00000000000E+00 0.  1.
     999901    1    3    3    0    0 -0.72195871573E-01 -0.47990697361E-02 -0.84622140940E-01  0.88701532212E+00  0.88000000000E+00 0. -1.
        -11    1    4    4    0    0  0.71855559558E-01  0.61174780869E-03  0.58485465902E-01  0.92652072387E-01  0.51100000000E-03 0. -1.
         11    1    4    4    0    0  0.22929720390E-01  0.69360698947E-02  0.32736611518E-01  0.40568805719E-01  0.51100000000E-03 0.  1.
</event>
<event>
 8    1  0.1065239E+005  0.1043930E+01  0.7957747E-01            NaN
         13   -1    0    0    0    0  0.00000000000E+00  0.00000000000E+00  0.74505805969E-08  0.10566000000E+00  0.10566000000E+00 0. -1.
     999900   -1    0    0    0    0 -0.00000000000E+00 -0.00000000000E+00 -0.74505805969E-08  0.93827000000E+00  0.93827000000E+00 0.  1.
     999902    2    1    2    0    0 -0.22787987233E-01 -0.64633467471E-02 -0.32089989150E-02  0.10200267599E+01  0.10197466480E+01 0.  0.
     999903    2    3    3    0    0  0.76905625040E-01  0.29192471324E-01  0.96202281119E-01  0.12812275369E+00  0.19846550740E-01 0.  0.
         14    1    1    2    0    0  0.22787987233E-01  0.64633467471E-02  0.32089989150E-02  0.23903240101E-01  0.00000000000E+00 0. -1.
     999901    1    3    3    0    0 -0.99693612272E-01 -0.35655818071E-01 -0.99411280034E-01  0.89190400621E+00  0.88000000000E+00 0.  1.
        -11    1    4    4    0    0  0.73154694609E-02 -0.30206329224E-02  0.93397438388E-02  0.12252846717E-01  0.51100000000E-03 0. -1.
         11    1    4    4    0    0  0.69590155579E-01  0.32213104246E-01  0.86862537281E-01  0.11586990698E+00  0.51100000000E-03 0.  1.
</event>
<event>
 8    1  0.1065239E+005  0.1043930E+01  0.7957747E-01            NaN
         13   -1    0    0    0    0  0.00000000000E+00  0.00000000000E+00  0.74505805969E-08  0.10566000000E+00  0.10566000000E+00 0. -1.
     999900   -1    0    0    0    0 -0.00000000000E+00 -0.00000000000E+00 -0.74505805969E-08  0.93827000000E+00  0.93827000000E+00 0. -1.
     999902    2    1    2    0    0  0.12905039561E-01  0.42370412591E-02  0.20309060037E-01  0.10194974298E+01  0.10192046208E+01 0.  0.
     999903    2    3    3    0    0  0.33948539833E-01 -0.83166426135E-01 -0.89454053170E-01  0.12813323041E+00  0.18626307038E-01 0.  0.
         14    1    1    2    0    0 -0.12905039561E-01 -0.42370412591E-02 -0.20309060037E-01  0.24432570154E-01  0.00000000000E+00 0.  1.
     999901    1    3    3    0    0 -0.21043500271E-01  0.87403467394E-01  0.10976311321E+00  0.89136419944E+00  0.88000000000E+00 0.  1.
        -11    1    4    4    0    0  0.22088465617E-01 -0.60279331211E-01 -0.74426978631E-01  0.98291069552E-01  0.51100000000E-03 0. -1.
         11    1    4    4    0    0  0.11860074216E-01 -0.22887094924E-01 -0.15027074539E-01  0.29842160858E-01  0.51100000000E-03 0.  1.
</event>
<event>
 8    1  0.1065239E+005  0.1043930E+01  0.7957747E-01            NaN
         13   -1    0    0    0    0  0.00000000000E+00  0.00000000000E+00  0.74505805969E-08  0.10566000000E+00  0.10566000000E+00 0. -1.
     999900   -1    0    0    0    0 -0.00000000000E+00 -0.00000000000E+00 -0.74505805969E-08  0.93827000000E+00  0.93827000000E+00 0.  1.
     999902    2    1    2    0    0  0.23204065674E-01  0.35475900596E-02  0.30963246078E-02  0.10202529798E+01  0.10199782064E+01 0.  0.
     999903    2    3    3    0    0  0.75663757357E-01  0.90566066260E-01 -0.56627035766E-01  0.13239538187E+00  0.19867043678E-01 0.  0.
         14    1    1    2    0    0 -0.23204065674E-01 -0.35475900596E-02 -0.30963246078E-02  0.23677020190E-01  0.00000000000E+00 0. -1.
     999901    1    3    3    0    0 -0.52459691684E-01 -0.87018476200E-01  0.59723360374E-01  0.88785759794E+00  0.88000000000E+00 0.  1.
        -11    1    4    4    0    0  0.33774725634E-01  0.48337659446E-01 -0.37625496787E-01  0.69951415581E-01  0.51100000000E-03 0.  1.
         11    1    4    4    0    0  0.41889031723E-01  0.42228406814E-01 -0.19001538979E-01  0.62443966285E-01  0.51100000000E-03 0. -1.
</event>
<event>
 8    1  0.1065239E+005  0.1043930E+01  0.7957747E-01            NaN
         13   -1    0    0    0    0  0.00000000000E+00  0.00000000000E+00  0.74505805969E-08  0.10566000000E+00  0.10566000000E+00 0.  1.
     999900   -1    0    0    0    0 -0.00000000000E+00 -0.00000000000E+00 -0.74505805969E-08  0.93827000000E+00  0.93827000000E+00 0. -1.
     999902    2    1    2    0    0 -0.39941756310E-03  0.18150047657E-01  0.13368759215E-01  0.10213843244E+01  0.10211354615E+01 0.  0.
     999903    2    3    3    0    0  0.84577253067E-01 -0.93729012546E-01  0.24313558280E-01  0.13017293127E+00  0.20381447176E-01 0.  0.
         14    1    1    2    0    0  0.39941756310E-03 -0.18150047657E-01 -0.13368759215E-01  0.22545675578E-01  0.00000000000E+00 0. -1.
     999901    1    3    3    0    0 -0.84976670630E-01  0.11187906020E+00 -0.10944799065E-01  0.89121139316E+00  0.88000000000E+00 0.  1.
        -11    1    4    4    0    0  0.59130086672E-01 -0.52063986222E-01  0.10876589701E-01  0.79533559807E-01  0.51100000000E-03 0. -1.
         11    1    4    4    0    0  0.25447166395E-01 -0.41665026324E-01  0.13436968579E-01  0.50639371459E-01  0.51100000000E-03 0.  1.
</event>
<event>
 8    1  0.1065239E+005  0.1043930E+01  0.7957747E-01            NaN
         13   -1    0    0    0    0  0.00000000000E+00  0.00000000000E+00  0.74505805969E-08  0.10566000000E+00  0.10566000000E+00 0. -1.
     999900   -1    0    0    0    0 -0.00000000000E+00 -0.00000000000E+00 -0.74505805969E-08  0.93827000000E+00  0.93827000000E+00 0.  1.
     999902    2    1    2    0    0 -0.70346961524E-02  0.22745874948E-01 -0.64187429652E-03  0.10201124901E+01  0.10198344074E+01 0.  0.
     999903    2    3    3    0    0 -0.22189919384E-01 -0.91804873902E-01  0.84760119890E-01  0.12845949956E+00  0.19925805117E-01 0.  0.
         14    1    1    2    0    0  0.70346961524E-02 -0.22745874948E-01  0.64187429652E-03  0.23817509940E-01  0.00000000000E+00 0. -1.
     999901    1    3    3    0    0  0.15155223232E-01  0.11455074885E+00 -0.85401994186E-01  0.89165299050E+00  0.88000000000E+00 0.  1.
        -11    1    4    4    0    0 -0.16557336655E-01 -0.57700773363E-01  0.65650695438E-01  0.88959538984E-01  0.51100000000E-03 0. -1.
         11    1    4    4    0    0 -0.56325827296E-02 -0.34104100539E-01  0.19109424452E-01  0.39499960578E-01  0.51100000000E-03 0.  1.
</event>
<event>
 8    1  0.1065239E+005  0.1043930E+01  0.7957747E-01            NaN
         13   -1    0    0    0    0  0.00000000000E+00  0.00000000000E+00  0.74505805969E-08  0.10566000000E+00  0.10566000000E+00 0.  1.
     999900   -1    0    0    0    0 -0.00000000000E+00 -0.00000000000E+00 -0.74505805969E-08  0.93827000000E+00  0.93827000000E+00 0.  1.
     999902    2    1    2    0    0 -0.17939516163E-02 -0.14691291466E-01  0.19352432917E-01  0.10195667291E+01  0.10192755987E+01 0.  0.
     999903    2    3    3    0    0 -0.89214963414E-01  0.82529820954E-01 -0.35471064912E-01  0.12821943772E+00  0.20286614289E-01 0.  0.
         14    1    1    2    0    0  0.17939516163E-02  0.14691291466E-01 -0.19352432917E-01  0.24363270863E-01  0.00000000000E+00 0. -1.
     999901    1    3    3    0    0  0.87421011798E-01 -0.97221112420E-01  0.54823497829E-01  0.89134729142E+00  0.88000000000E+00 0. -1.
        -11    1    4    4    0    0 -0.38226492688E-01  0.28013686627E-01 -0.52407366332E-02  0.47683936741E-01  0.51100000000E-03 0.  1.
         11    1    4    4    0    0 -0.50988470727E-01  0.54516134327E-01 -0.30230328279E-01  0.80535500978E-01  0.51100000000E-03 0. -1.
</event>
<event>
 8    1  0.1065239E+005  0.1043930E+01  0.7957747E-01            NaN
         13   -1    0    0    0    0  0.00000000000E+00  0.00000000000E+00  0.74505805969E-08  0.10566000000E+00  0.10566000000E+00 0. -1.
     999900   -1    0    0    0    0 -0.00000000000E+00 -0.00000000000E+00 -0.74505805969E-08  0.93827000000E+00  0.93827000000E+00 0. -1.
     999902    2    1    2    0    0 -0.34706639739E-02 -0.12945903038E-01  0.19675182656E-01  0.10201233890E+01  0.10198455638E+01 0.  0.
     999903    2    3    3    0    0 -0.69248597436E-01  0.71925115296E-01 -0.78116452469E-01  0.12821922927E+00  0.19219785376E-01 0.  0.
         14    1    1    2    0    0  0.34706639739E-02  0.12945903038E-01 -0.19675182656E-01  0.23806610982E-01  0.00000000000E+00 0.  1.
     999901    1    3    3    0    0  0.65777933462E-01 -0.84871018334E-01  0.97791635125E-01  0.89190415975E+00  0.88000000000E+00 0.  1.
        -11    1    4    4    0    0 -0.43015096237E-01  0.32797755287E-01 -0.47874385563E-01  0.72237173049E-01  0.51100000000E-03 0.  1.
         11    1    4    4    0    0 -0.26233501199E-01  0.39127360009E-01 -0.30242066907E-01  0.55982056216E-01  0.51100000000E-03 0. -1.
</event>
<event>
 8    1  0.1065239E+005  0.1043930E+01  0.7957747E-01            NaN
         13   -1    0    0    0    0  0.00000000000E+00  0.00000000000E+00  0.74505805969E-08  0.10566000000E+00  0.10566000000E+00 0. -1.
     999900   -1    0    0    0    0 -0.00000000000E+00 -0.00000000000E+00 -0.74505805969E-08  0.93827000000E+00  0.93827000000E+00 0.  1.
     999902    2    1    2    0    0 -0.23427296696E-02  0.80039908123E-03  0.24437355476E-01  0.10193675619E+01  0.10190715936E+01 0.  0.
     999903    2    3    3    0    0  0.45662707818E-01  0.10415259654E+00 -0.56084559096E-01  0.12837374744E+00  0.20037340407E-01 0.  0.
         14    1    1    2    0    0  0.23427296696E-02 -0.80039908123E-03 -0.24437355476E-01  0.24562438064E-01  0.00000000000E+00 0.  1.
     999901    1    3    3    0    0 -0.48005437487E-01 -0.10335219746E+00  0.80521914571E-01  0.89099381450E+00  0.88000000000E+00 0. -1.
        -11    1    4    4    0    0  0.25183366454E-01  0.65561341235E-01 -0.24202722042E-01  0.74286770597E-01  0.51100000000E-03 0.  1.
         11    1    4    4    0    0  0.20479341363E-01  0.38591255307E-01 -0.31881837053E-01  0.54086976840E-01  0.51100000000E-03 0. -1.
</event>
<event>
 8    1  0.1065239E+005  0.1043930E+01  0.7957747E-01            NaN
         13   -1    0    0    0    0  0.00000000000E+00  0.00000000000E+00  0.74505805969E-08  0.10566000000E+00  0.10566000000E+00 0. -1.
     999900   -1    0    0    0    0 -0.00000000000E+00 -0.00000000000E+00 -0.74505805969E-08  0.93827000000E+00  0.93827000000E+00 0. -1.
     999902    2    1    2    0    0 -0.74200183453E-02 -0.21644842430E-01 -0.75755273696E-02  0.10198272099E+01  0.10195423451E+01 0.  0.
     999903    2    3    3    0    0  0.60211799773E-01 -0.10119927280E+00  0.55894110641E-01  0.13138398427E+00  0.16457401705E-01 0.  0.
         14    1    1    2    0    0  0.74200183453E-02  0.21644842430E-01  0.75755273696E-02  0.24102790108E-01  0.00000000000E+00 0. -1.
     999901    1    3    3    0    0 -0.67631818118E-01  0.79554430366E-01 -0.63469638011E-01  0.88844322563E+00  0.88000000000E+00 0. -1.
        -11    1    4    4    0    0  0.29582453488E-01 -0.34721387216E-01  0.23922414165E-01  0.51509604008E-01  0.51100000000E-03 0.  1.
         11    1    4    4    0    0  0.30629346285E-01 -0.66477885580E-01  0.31971696476E-01  0.79874380258E-01  0.51100000000E-03 0. -1.
</event>
<event>
 8    1  0.1065239E+005  0.1043930E+01  0.7957747E-01            NaN
         13   -1    0    0    0    0  0.00000000000E+00  0.00000000000E+00  0.74505805969E-08  0.10566000000E+00  0.10566000000E+00 0. -1.
     999900   -1    0    0    0    0 -0.00000000000E+00 -0.00000000000E+00 -0.74505805969E-08  0.93827000000E+00  0.93827000000E+00 0.  1.
     999902    2    1    2    0    0 -0.22137091725E-01  0.76048312890E-02 -0.78114140624E-02  0.10192540506E+01  0.10189553068E+01 0.  0.
     999903    2    3    3    0    0 -0.88119671916E-01  0.91028342978E-01  0.31983292775E-01  0.13195657969E+00  0.18394893410E-01 0.  0.
         14    1    1    2    0    0  0.22137091725E-01 -0.76048312890E-02  0.78114140624E-02  0.24675949397E-01  0.00000000000E+00 0. -1.
     999901    1    3    3    0    0  0.65982580191E-01 -0.83423511689E-01 -0.39794706837E-01  0.88729747091E+00  0.88000000000E+00 0.  1.
        -11    1    4    4    0    0 -0.46870546464E-01  0.35623564654E-01  0.12508186731E-01  0.60188058125E-01  0.51100000000E-03 0.  1.
         11    1    4    4    0    0 -0.41249125452E-01  0.55404778324E-01  0.19475106043E-01  0.71768521568E-01  0.51100000000E-03 0. -1.
</event>
<event>
 8    1  0.1065239E+005  0.1043930E+01  0.7957747E-01            NaN
         13   -1    0    0    0    0  0.00000000000E+00  0.00000000000E+00  0.74505805969E-08  0.10566000000E+00  0.10566000000E+00 0.  1.
     999900   -1    0    0    0    0 -0.00000000000E+00 -0.00000000000E+00 -0.74505805969E-08  0.93827000000E+00  0.93827000000E+00 0. -1.
     999902    2    1    2    0    0 -0.20220710907E-01  0.67274914378E-02 -0.48552800256E-02  0.10220734212E+01  0.10218396980E+01 0.  0.
     999903    2    3    3    0    0 -0.12417837563E+00 -0.36728116275E-01  0.29132527385E-01  0.13423855093E+00  0.20051456429E-01 0.  0.
         14    1    1    2    0    0  0.20220710907E-01 -0.67274914378E-02  0.48552800256E-02  0.21856578753E-01  0.00000000000E+00 0.  1.
     999901    1    3    3    0    0  0.10395766472E+00  0.43455607713E-01 -0.33987807410E-01  0.88783487032E+00  0.88000000000E+00 0. -1.
        -11    1    4    4    0    0 -0.88888936222E-01 -0.31623881447E-01  0.13526355976E-01  0.95312833802E-01  0.51100000000E-03 0. -1.
         11    1    4    4    0    0 -0.35289439409E-01 -0.51042348284E-02  0.15606171409E-01  0.38925717130E-01  0.51100000000E-03 0.  1.
</event>
<event>
 8    1  0.1065239E+005  0.1043930E+01  0.7957747E-01            NaN
         13   -1    0    0    0    0  0.00000000000E+00  0.00000000000E+00  0.74505805969E-08  0.10566000000E+00  0.10566000000E+00 0.  1.
     999900   -1    0    0    0    0 -0.00000000000E+00 -0.00000000000E+00 -0.74505805969E-08  0.93827000000E+00  0.93827000000E+00 0.  1.
     999902    2    1    2    0    0  0.14882260542E-01 -0.19347885081E-02 -0.99980091434E-02  0.10258971058E+01  0.10257386053E+01 0.  0.
     999903    2    3    3    0    0 -0.38810477005E-01 -0.67389834458E-02 -0.12902425331E+00  0.13624928947E+00  0.19103505323E-01 0.  0.
         14    1    1    2    0    0 -0.14882260542E-01  0.19347885081E-02  0.99980091434E-02  0.18032894173E-01  0.00000000000E+00 0. -1.
     999901    1    3    3    0    0  0.53692737547E-01  0.48041949377E-02  0.11902624416E+00  0.88964781636E+00  0.88000000000E+00 0. -1.
        -11    1    4    4    0    0 -0.31437129914E-01 -0.81681184598E-02 -0.75412790395E-01  0.82111883260E-01  0.51100000000E-03 0. -1.
         11    1    4    4    0    0 -0.73733470906E-02  0.14291350140E-02 -0.53611462912E-01  0.54137406207E-01  0.51100000000E-03 0.  1.
</event>
<event>
 8    1  0.1065239E+005  0.1043930E+01  0.7957747E-01            NaN
         13   -1    0    0    0    0  0.00000000000E+00  0.00000000000E+00  0.74505805969E-08  0.10566000000E+00  0.10566000000E+00 0.  1.
     999900   -1    0    0    0    0 -0.00000000000E+00 -0.00000000000E+00 -0.74505805969E-08  0.93827000000E+00  0.93827000000E+00 0.  1.
     999902    2    1    2    0    0  0.66462255633E-03  0.63340220685E-02 -0.22370272312E-01  0.10206707945E+01  0.10204057428E+01 0.  0.
     999903    2    3    3    0    0  0.59526379251E-02  0.53778769369E-01  0.11638363537E+00  0.12852079920E+00  0.66974109238E-02 0.  0.
         14    1    1    2    0    0 -0.66462255633E-03 -0.63340220685E-02  0.22370272312E-01  0.23259205533E-01  0.00000000000E+00 0.  1.
     999901    1    3    3    0    0 -0.52880153687E-02 -0.47444747301E-01 -0.13875390768E+00  0.89214999526E+00  0.88000000000E+00 0.  1.
        -11    1    4    4    0    0 -0.13724648154E-02  0.94171105777E-02  0.18921670367E-01  0.21186230476E-01  0.51100000000E-03 0.  1.
         11    1    4    4    0    0  0.73251027405E-02  0.44361658792E-01  0.97461965001E-01  0.10733456873E+00  0.51100000000E-03 0. -1.
</event>
<event>
 8    1  0.1065239E+005  0.1043930E+01  0.7957747E-01            NaN
         13   -1    0    0    0    0  0.00000000000E+00  0.00000000000E+00  0.74505805969E-08  0.10566000000E+00  0.10566000000E+00 0. -1.
     999900   -1    0    0    0    0 -0.00000000000E+00 -0.00000000000E+00 -0.74505805969E-08  0.93827000000E+00  0.93827000000E+00 0.  1.
     999902    2    1    2    0    0  0.19433814965E-02  0.71655840466E-02  0.22739029311E-01  0.10200095949E+01  0.10197290757E+01 0.  0.
     999903    2    3    3    0    0 -0.12251210136E+00  0.32467942953E-01 -0.20250578603E-01  0.12985371924E+00  0.19710914944E-01 0.  0.
         14    1    1    2    0    0 -0.19433814965E-02 -0.71655840466E-02 -0.22739029311E-01  0.23920405105E-01  0.00000000000E+00 0.  1.
     999901    1    3    3    0    0  0.12445548285E+00 -0.25302358907E-01  0.42989607915E-01  0.89015587566E+00  0.88000000000E+00 0. -1.
        -11    1    4    4    0    0 -0.10724583045E+00  0.21629717408E-01 -0.15215667512E-01  0.11045945176E+00  0.51100000000E-03 0.  1.
         11    1    4    4    0    0 -0.15266270904E-01  0.10838225545E-01 -0.50349110917E-02  0.19394267477E-01  0.51100000000E-03 0. -1.
</event>
<event>
 8    1  0.1065239E+005  0.1043930E+01  0.7957747E-01            NaN
         13   -1    0    0    0    0  0.00000000000E+00  0.00000000000E+00  0.74505805969E-08  0.10566000000E+00  0.10566000000E+00 0.  1.
     999900   -1    0    0    0    0 -0.00000000000E+00 -0.00000000000E+00 -0.74505805969E-08  0.93827000000E+00  0.93827000000E+00 0.  1.
     999902    2    1    2    0    0 -0.18938279097E-02  0.21466431585E-01  0.95261784941E-02  0.10203685411E+01  0.10200964745E+01 0.  0.
     999903    2    3    3    0    0  0.38363888781E-02 -0.68961610044E-01 -0.10618209354E+00  0.12818107743E+00  0.19629826398E-01 0.  0.
         14    1    1    2    0    0  0.18938279097E-02 -0.21466431585E-01 -0.95261784941E-02  0.23561458907E-01  0.00000000000E+00 0. -1.
     999901    1    3    3    0    0 -0.57302167878E-02  0.90428041628E-01  0.11570827203E+00  0.89218746366E+00  0.88000000000E+00 0. -1.
        -11    1    4    4    0    0  0.11511379811E-01 -0.48366112805E-01 -0.70469735322E-01  0.86244057479E-01  0.51100000000E-03 0.  1.
         11    1    4    4    0    0 -0.76749909333E-02 -0.20595497238E-01 -0.35712358214E-01  0.41937019953E-01  0.51100000000E-03 0. -1.
</event>
<event>
 8    1  0.1065239E+005  0.1043930E+01  0.7957747E-01            NaN
         13   -1    0    0    0    0  0.00000000000E+00  0.00000000000E+00  0.74505805969E-08  0.10566000000E+00  0.10566000000E+00 0. -1.
     999900   -1    0    0    0    0 -0.00000000000E+00 -0.00000000000E+00 -0.74505805969E-08  0.93827000000E+00  0.93827000000E+00 0. -1.
     999902    2    1    2    0    0 -0.82537373340E-02 -0.19899817144E-01  0.12165485445E-01  0.10191888210E+01  0.10188884762E+01 0.  0.
     999903    2    3    3    0    0  0.10885278628E+00  0.47943677356E-02  0.67200442864E-01  0.12938401814E+00  0.18772575397E-01 0.  0.
         14    1    1    2    0    0  0.82537373340E-02  0.19899817144E-01 -0.12165485445E-01  0.24741179003E-01  0.00000000000E+00 0.  1.
     999901    1    3    3    0    0 -0.11710652361E+00 -0.24694184880E-01 -0.55034957420E-01  0.88980480285E+00  0.88000000000E+00 0.  1.
        -11    1    4    4    0    0  0.39677692564E-01 -0.21416544342E-02  0.34184643287E-01  0.52419051199E-01  0.51100000000E-03 0. -1.
         11    1    4    4    0    0  0.69175093717E-01  0.69360221697E-02  0.33015799578E-01  0.76964966946E-01  0.51100000000E-03 0.  1.
</event>
<event>
 8    1  0.1065239E+005  0.1043930E+01  0.7957747E-01            NaN
         13   -1    0    0    0    0  0.00000000000E+00  0.00000000000E+00  0.74505805969E-08  0.10566000000E+00  0.10566000000E+00 0.  1.
     999900   -1    0    0    0    0 -0.00000000000E+00 -0.00000000000E+00 -0.74505805969E-08  0.93827000000E+00  0.93827000000E+00 0.  1.
     999902    2    1    2    0    0  0.11236527023E-01 -0.21163847505E-01 -0.47952266798E-02  0.10194930980E+01  0.10192001838E+01 0.  0.
     999903    2    3    3    0    0 -0.37136202974E-01 -0.30428977470E-01  0.11823638462E+00  0.12957032549E+00  0.22441175514E-01 0.  0.
         14    1    1    2    0    0 -0.11236527023E-01  0.21163847505E-01  0.47952266798E-02  0.24436902007E-01  0.00000000000E+00 0.  1.
     999901    1    3    3    0    0  0.48372729997E-01  0.92651299643E-02 -0.12303161130E+00  0.88992277250E+00  0.88000000000E+00 0.  1.
        -11    1    4    4    0    0 -0.28628551100E-01 -0.12148626640E-01  0.86951990763E-01  0.92347673961E-01  0.51100000000E-03 0. -1.
         11    1    4    4    0    0 -0.85076518733E-02 -0.18280350830E-01  0.31284393857E-01  0.37222651529E-01  0.51100000000E-03 0.  1.
</event>
<event>
 8    1  0.1065239E+005  0.1043930E+01  0.7957747E-01            NaN
         13   -1    0    0    0    0  0.00000000000E+00  0.00000000000E+00  0.74505805969E-08  0.10566000000E+00  0.10566000000E+00 0.  1.
     999900   -1    0    0    0    0 -0.00000000000E+00 -0.00000000000E+00 -0.74505805969E-08  0.93827000000E+00  0.93827000000E+00 0.  1.
     999902    2    1    2    0    0  0.10268916167E-02  0.14610514889E-01  0.20753664382E-01  0.10185284993E+01  0.10182117008E+01 0.  0.
     999903    2    3    3    0    0  0.70452419984E-01 -0.10398009182E+00  0.15843204345E-01  0.12785024730E+00  0.17868285722E-01 0.  0.
         14    1    1    2    0    0 -0.10268916167E-02 -0.14610514889E-01 -0.20753664382E-01  0.25401500684E-01  0.00000000000E+00 0. -1.
     999901    1    3    3    0    0 -0.69425528367E-01  0.11859060671E+00  0.49104600369E-02  0.89067825201E+00  0.88000000000E+00 0. -1.
        -11    1    4    4    0    0  0.34740946668E-01 -0.64582559967E-01  0.13880420220E-01  0.74637575079E-01  0.51100000000E-03 0. -1.
         11    1    4    4    0    0  0.35711473316E-01 -0.39397531857E-01  0.19627841246E-02  0.53212672225E-01  0.51100000000E-03 0.  1.
</event>
<event>
 8    1  0.1065239E+005  0.1043930E+01  0.7957747E-01            NaN
         13   -1    0    0    0    0  0.00000000000E+00  0.00000000000E+00  0.74505805969E-08  0.10566000000E+00  0.10566000000E+00 0.  1.
     999900   -1    0    0    0    0 -0.00000000000E+00 -0.00000000000E+00 -0.74505805969E-08  0.93827000000E+00  0.93827000000E+00 0.  1.
     999902    2    1    2    0    0  0.18918149621E-01 -0.88884863368E-02 -0.10233328103E-01  0.10206572138E+01  0.10203918490E+01 0.  0.
     999903    2    3    3    0    0  0.13165779569E+00  0.11716485730E-02 -0.60156451239E-02  0.13339782501E+00  0.20582609296E-01 0.  0.
         14    1    1    2    0    0 -0.18918149621E-01  0.88884863368E-02  0.10233328103E-01  0.23272786221E-01  0.00000000000E+00 0.  1.
     999901    1    3    3    0    0 -0.11273964607E+00 -0.10060134910E-01 -0.42176829793E-02  0.88725938877E+00  0.88000000000E+00 0. -1.
        -11    1    4    4    0    0  0.51974314676E-01 -0.83708298036E-02 -0.71867060407E-02  0.53134828902E-01  0.51100000000E-03 0. -1.
         11    1    4    4    0    0  0.79683481011E-01  0.95424783765E-02  0.11710609167E-02  0.80262996108E-01  0.51100000000E-03 0.  1.
</event>
<event>
 8    1  0.1065239E+005  0.1043930E+01  0.7957747E-01            NaN
         13   -1    0    0    0    0  0.00000000000E+00  0.00000000000E+00  0.74505805969E-08  0.10566000000E+00  0.10566000000E+00 0. -1.
     999900   -1    0    0    0    0 -0.00000000000E+00 -0.00000000000E+00 -0.74505805969E-08  0.93827000000E+00  0.93827000000E+00 0. -1.
     999902    2    1    2    0    0  0.17583709690E-01  0.12376634448E-01 -0.44127880575E-02  0.10219791316E+01  0.10217433654E+01 0.  0.
     999903    2    3    3    0    0 -0.96027082451E-01 -0.75701716284E-01  0.30255339496E-01  0.12964114233E+00  0.30651097934E-01 0.  0.
         14    1    1    2    0    0 -0.17583709690E-01 -0.12376634448E-01  0.44127880575E-02  0.21950868437E-01  0.00000000000E+00 0.  1.
     999901    1    3    3    0    0  0.11361079214E+00  0.88078350731E-01 -0.34668127553E-01  0.89233798923E+00  0.88000000000E+00 0. -1.
        -11    1    4    4    0    0 -0.13097392107E-01 -0.25715396178E-01  0.11158536799E-01  0.30945069802E-01  0.51100000000E-03 0. -1.
         11    1    4    4    0    0 -0.82929690344E-01 -0.49986320106E-01  0.19096802697E-01  0.98696072528E-01  0.51100000000E-03 0.  1.
</event>
<event>
 8    1  0.1065239E+005  0.1043930E+01  0.7957747E-01            NaN
         13   -1    0    0    0    0  0.00000000000E+00  0.00000000000E+00  0.74505805969E-08  0.10566000000E+00  0.10566000000E+00 0.  1.
     999900   -1    0    0    0    0 -0.00000000000E+00 -0.00000000000E+00 -0.74505805969E-08  0.93827000000E+00  0.93827000000E+00 0. -1.
     999902    2    1    2    0    0 -0.84571959624E-02 -0.12919471067E-01  0.17069328983E-01  0.10209126394E+01  0.10206531333E+01 0.  0.
     999903    2    3    3    0    0 -0.91322675078E-01  0.82662053783E-01  0.42135382199E-01  0.13151350374E+00  0.18643098296E-01 0.  0.
         14    1    1    2    0    0  0.84571959624E-02  0.12919471067E-01 -0.17069328983E-01  0.23017360581E-01  0.00000000000E+00 0. -1.
     999901    1    3    3    0    0  0.82865479115E-01 -0.95581524850E-01 -0.25066053216E-01  0.88939913568E+00  0.88000000000E+00 0. -1.
        -11    1    4    4    0    0 -0.78743530867E-01  0.73859713922E-01  0.42800380661E-01  0.11613756799E+00  0.51100000000E-03 0.  1.
         11    1    4    4    0    0 -0.12579144211E-01  0.88023398616E-02 -0.66499846173E-03  0.15375935746E-01  0.51100000000E-03 0. -1.
</event>
<event>
 8    1  0.1065239E+005  0.1043930E+01  0.7957747E-01            NaN
         13   -1    0    0    0    0  0.00000000000E+00  0.00000000000E+00  0.74505805969E-08  0.10566000000E+00  0.10566000000E+00 0. -1.
     999900   -1    0    0    0    0 -0.00000000000E+00 -0.00000000000E+00 -0.74505805969E-08  0.93827000000E+00  0.93827000000E+00 0.  1.
     999902    2    1    2    0    0  0.46949471368E-02  0.22373615855E-01  0.77457494506E-02  0.10197925219E+01  0.10195068268E+01 0.  0.
     999903    2    3    3    0    0 -0.93226755595E-01 -0.73030489656E-01 -0.43733332698E-01  0.12774953015E+00  0.19561638117E-01 0.  0.
         14    1    1    2    0    0 -0.46949471368E-02 -0.22373615855E-01 -0.77457494506E-02  0.24137478112E-01  0.00000000000E+00 0.  1.
     999901    1    3    3    0    0  0.97921702732E-01  0.95404105511E-01  0.51479082149E-01  0.89204299174E+00  0.88000000000E+00 0. -1.
        -11    1    4    4    0    0 -0.11807404011E-01 -0.20279408752E-02 -0.48200395541E-02  0.12923669602E-01  0.51100000000E-03 0. -1.
         11    1    4    4    0    0 -0.81419351584E-01 -0.71002548781E-01 -0.38913293144E-01  0.11482586055E+00  0.51100000000E-03 0.  1.
</event>
<event>
 8    1  0.1065239E+005  0.1043930E+01  0.7957747E-01            NaN
         13   -1    0    0    0    0  0.00000000000E+00  0.00000000000E+00  0.74505805969E-08  0.10566000000E+00  0.10566000000E+00 0.  1.
     999900   -1    0    0    0    0 -0.00000000000E+00 -0.00000000000E+00 -0.74505805969E-08  0.93827000000E+00  0.93827000000E+00 0.  1.
     999902    2    1    2    0    0 -0.16414672177E-01 -0.16258022091E-01  0.80085889869E-02  0.10194779604E+01  0.10191846788E+01 0.  0.
     999903    2    3    3    0    0  0.42849498796E-01 -0.11814544297E+00  0.32306882503E-01  0.13128671093E+00  0.19950954054E-01 0.  0.
         14    1    1    2    0    0  0.16414672177E-01  0.16258022091E-01 -0.80085889869E-02  0.24452039640E-01  0.00000000000E+00 0. -1.
     999901    1    3    3    0    0 -0.59264170973E-01  0.10188742088E+00 -0.24298293516E-01  0.88819124943E+00  0.88000000000E+00 0.  1.
        -11    1    4    4    0    0  0.16098528135E-01 -0.50069070583E-01  0.23519892156E-01  0.57615283434E-01  0.51100000000E-03 0.  1.
         11    1    4    4    0    0  0.26750970661E-01 -0.68076372390E-01  0.87869903475E-02  0.73671427497E-01  0.51100000000E-03 0. -1.
</event>
<event>
 8    1  0.1065239E+005  0.1043930E+01  0.7957747E-01            NaN
         13   -1    0    0    0    0  0.00000000000E+00  0.00000000000E+00  0.74505805969E-08  0.10566000000E+00  0.10566000000E+00 0.  1.
     999900   -1    0    0    0    0 -0.00000000000E+00 -0.00000000000E+00 -0.74505805969E-08  0.93827000000E+00  0.93827000000E+00 0. -1.
     999902    2    1    2    0    0  0.89344705924E-02  0.11968064481E-01  0.16380270263E-01  0.10217630745E+01  0.10215225929E+01 0.  0.
     999903    2    3    3    0    0  0.17499659840E-01 -0.11091965062E+00 -0.62022035830E-01  0.12973074628E+00  0.19337182162E-01 0.  0.
         14    1    1    2    0    0 -0.89344705924E-02 -0.11968064481E-01 -0.16380270263E-01  0.22166925499E-01  0.00000000000E+00 0. -1.
     999901    1    3    3    0    0 -0.85651892471E-02  0.12288771510E+00  0.78402306093E-01  0.89203232822E+00  0.88000000000E+00 0.  1.
        -11    1    4    4    0    0  0.17637937890E-02 -0.42992108917E-01 -0.14750397179E-01  0.45489204605E-01  0.51100000000E-03 0. -1.
         11    1    4    4    0    0  0.15735866051E-01 -0.67927541702E-01 -0.47271638651E-01  0.84241541675E-01  0.51100000000E-03 0.  1.
</event>
<event>
 8    1  0.1065239E+005  0.1043930E+01  0.7957747E-01            NaN
         13   -1    0    0    0    0  0.00000000000E+00  0.00000000000E+00  0.74505805969E-08  0.10566000000E+00  0.10566000000E+00 0.  1.
     999900   -1    0    0    0    0 -0.00000000000E+00 -0.00000000000E+00 -0.74505805969E-08  0.93827000000E+00  0.93827000000E+00 0. -1.
     999902    2    1    2    0    0  0.15151811377E-01 -0.48855617874E-02 -0.16682610897E-01  0.10208701733E+01  0.10206096977E+01 0.  0.
     999903    2    3    3    0    0  0.11499317721E+00  0.53391913185E-01  0.31114823683E-01  0.13202307891E+00  0.19693499289E-01 0.  0.
         14    1    1    2    0    0 -0.15151811377E-01  0.48855617874E-02  0.16682610897E-01  0.23059826719E-01  0.00000000000E+00 0.  1.
     999901    1    3    3    0    0 -0.99841365829E-01 -0.58277474972E-01 -0.47797434580E-01  0.88884709437E+00  0.88000000000E+00 0. -1.
        -11    1    4    4    0    0  0.71983276091E-01  0.42805397039E-01  0.24305784862E-01  0.87206228855E-01  0.51100000000E-03 0. -1.
         11    1    4    4    0    0  0.43009901116E-01  0.10586516146E-01  0.68090388215E-02  0.44816850054E-01  0.51100000000E-03 0.  1.
</event>
<event>
 8    1  0.1065239E+005  0.1043930E+01  0.7957747E-01            NaN
         13   -1    0    0    0    0  0.00000000000E+00  0.00000000000E+00  0.74505805969E-08  0.10566000000E+00  0.10566000000E+00 0. -1.
     999900   -1    0    0    0    0 -0.00000000000E+00 -0.00000000000E+00 -0.74505805969E-08  0.93827000000E+00  0.93827000000E+00 0.  1.
     999902    2    1    2    0    0  0.75736626142E-02  0.22183967368E-01 -0.21349358668E-02  0.10203918029E+01  0.10201202795E+01 0.  0.
     999903    2    3    3    0    0  0.87573558168E-01 -0.23419728779E-01  0.91821666171E-01  0.13061232262E+00  0.20266935006E-01 0.  0.
         14    1    1    2    0    0 -0.75736626142E-02 -0.22183967368E-01  0.21349358668E-02  0.23538197143E-01  0.00000000000E+00 0.  1.
     999901    1    3    3    0    0 -0.79999895554E-01  0.45603696147E-01 -0.93956602037E-01  0.88977948024E+00  0.88000000000E+00 0.  1.
        -11    1    4    4    0    0  0.27790400061E-01 -0.13786872755E-01  0.21174186290E-01  0.37563166559E-01  0.51100000000E-03 0. -1.
         11    1    4    4    0    0  0.59783158107E-01 -0.96328560244E-02  0.70647479881E-01  0.93049156057E-01  0.51100000000E-03 0.  1.
</event>
<event>
 8    1  0.1065239E+005  0.1043930E+01  0.7957747E-01            NaN
         13   -1    0    0    0    0  0.00000000000E+00  0.00000000000E+00  0.74505805969E-08  0.10566000000E+00  0.10566000000E+00 0.  1.
     999900   -1    0    0    0    0 -0.00000000000E+00 -0.00000000000E+00 -0.74505805969E-08  0.93827000000E+00  0.93827000000E+00 0.  1.
     999902    2    1    2    0    0  0.19839202826E-01 -0.67519240395E-02 -0.11000428340E-01  0.10202616272E+01  0.10199870568E+01 0.  0.
     999903    2    3    3    0    0 -0.93357597504E-01  0.70064886349E-01  0.47822691313E-01  0.12775140465E+00  0.20215891633E-01 0.  0.
         14    1    1    2    0    0 -0.19839202826E-01  0.67519240395E-02  0.11000428340E-01  0.23668372793E-01  0.00000000000E+00 0. -1.
     999901    1    3    3    0    0  0.11319680033E+00 -0.76816810389E-01 -0.58823119654E-01  0.89251022256E+00  0.88000000000E+00 0. -1.
        -11    1    4    4    0    0 -0.60616261794E-01  0.33242447100E-01  0.29773337338E-01  0.75273529347E-01  0.51100000000E-03 0. -1.
         11    1    4    4    0    0 -0.32741335711E-01  0.36822439249E-01  0.18049353975E-01  0.52477875303E-01  0.51100000000E-03 0.  1.
</event>
<event>
 8    1  0.1065239E+005  0.1043930E+01  0.7957747E-01            NaN
         13   -1    0    0    0    0  0.00000000000E+00  0.00000000000E+00  0.74505805969E-08  0.10566000000E+00  0.10566000000E+00 0. -1.
     999900   -1    0    0    0    0 -0.00000000000E+00 -0.00000000000E+00 -0.74505805969E-08  0.93827000000E+00  0.93827000000E+00 0.  1.
     999902    2    1    2    0    0  0.17324567541E-02 -0.15006012747E-01  0.88379455921E-02  0.10264288255E+01  0.10262796124E+01 0.  0.
     999903    2    3    3    0    0  0.93176139863E-01 -0.76082420302E-01 -0.62052968961E-01  0.13675596629E+00  0.19526792846E-01 0.  0.
         14    1    1    2    0    0 -0.17324567541E-02  0.15006012747E-01 -0.88379455921E-02  0.17501174453E-01  0.00000000000E+00 0.  1.
     999901    1    3    3    0    0 -0.91443683109E-01  0.61076407556E-01  0.70890914553E-01  0.88967285926E+00  0.88000000000E+00 0. -1.
        -11    1    4    4    0    0  0.44015566379E-01 -0.25217759659E-01 -0.31383550564E-01  0.59653112684E-01  0.51100000000E-03 0. -1.
         11    1    4    4    0    0  0.49160573484E-01 -0.50864660643E-01 -0.30669418397E-01  0.77102853601E-01  0.51100000000E-03 0.  1.
</event>
<event>
 8    1  0.1065239E+005  0.1043930E+01  0.7957747E-01            NaN
         13   -1    0    0    0    0  0.00000000000E+00  0.00000000000E+00  0.74505805969E-08  0.10566000000E+00  0.10566000000E+00 0.  1.
     999900   -1    0    0    0    0 -0.00000000000E+00 -0.00000000000E+00 -0.74505805969E-08  0.93827000000E+00  0.93827000000E+00 0.  1.
     999902    2    1    2    0    0 -0.14476927989E-01 -0.12822408611E-01 -0.14570413035E-01  0.10197165215E+01  0.10194290027E+01 0.  0.
     999903    2    3    3    0    0  0.41742139254E-02 -0.12928552287E+00  0.13539656872E-01  0.13140255777E+00  0.18738713753E-01 0.  0.
         14    1    1    2    0    0  0.14476927989E-01  0.12822408611E-01  0.14570413035E-01  0.24213478532E-01  0.00000000000E+00 0.  1.
     999901    1    3    3    0    0 -0.18651141915E-01  0.11646311426E+00 -0.28110069907E-01  0.88831396370E+00  0.88000000000E+00 0.  1.
        -11    1    4    4    0    0 -0.72740670959E-02 -0.57738163110E-01  0.77832928585E-02  0.58714975093E-01  0.51100000000E-03 0.  1.
         11    1    4    4    0    0  0.11448281021E-01 -0.71547359761E-01  0.57563640134E-02  0.72687582673E-01  0.51100000000E-03 0. -1.
</event>
<event>
 8    1  0.1065239E+005  0.1043930E+01  0.7957747E-01            NaN
         13   -1    0    0    0    0  0.00000000000E+00  0.00000000000E+00  0.74505805969E-08  0.10566000000E+00  0.10566000000E+00 0.  1.
     999900   -1    0    0    0    0 -0.00000000000E+00 -0.00000000000E+00 -0.74505805969E-08  0.93827000000E+00  0.93827000000E+00 0.  1.
     999902    2    1    2    0    0  0.43163428439E-02  0.19071264771E-01 -0.12605584098E-01  0.10206653335E+01  0.10204001560E+01 0.  0.
     999903    2    3    3    0    0  0.12465477963E-01  0.21992360273E-01 -0.12880517417E+00  0.13298448664E+00  0.21331871492E-01 0.  0.
         14    1    1    2    0    0 -0.43163428439E-02 -0.19071264771E-01  0.12605584098E-01  0.23264666470E-01  0.00000000000E+00 0.  1.
     999901    1    3    3    0    0 -0.81491351191E-02 -0.29210955023E-02  0.11619959008E+00  0.88768084689E+00  0.88000000000E+00 0. -1.
        -11    1    4    4    0    0 -0.48000869407E-02  0.10710673472E-01 -0.34383845942E-01  0.36335510780E-01  0.51100000000E-03 0. -1.
         11    1    4    4    0    0  0.17265564904E-01  0.11281686802E-01 -0.94421328233E-01  0.96648975860E-01  0.51100000000E-03 0.  1.
</event>
<event>
 8    1  0.1065239E+005  0.1043930E+01  0.7957747E-01            NaN
         13   -1    0    0    0    0  0.00000000000E+00  0.00000000000E+00  0.74505805969E-08  0.10566000000E+00  0.10566000000E+00 0. -1.
     999900   -1    0    0    0    0 -0.00000000000E+00 -0.00000000000E+00 -0.74505805969E-08  0.93827000000E+00  0.93827000000E+00 0. -1.
     999902    2    1    2    0    0 -0.23512646384E-01 -0.28228461682E-03  0.36819763628E-02  0.10201291350E+01  0.10198514455E+01 0.  0.
     999903    2    3    3    0    0  0.83219867023E-01  0.51702133217E-01  0.81124379944E-01  0.12878658862E+00  0.20153499490E-01 0.  0.
         14    1    1    2    0    0  0.23512646384E-01  0.28228461682E-03 -0.36819763628E-02  0.23800864995E-01  0.00000000000E+00 0.  1.
     999901    1    3    3    0    0 -0.10673251341E+00 -0.51984417834E-01 -0.77442403581E-01  0.89134254638E+00  0.88000000000E+00 0. -1.
        -11    1    4    4    0    0  0.51557867702E-01  0.37392941789E-01  0.41191731206E-01  0.75851602873E-01  0.51100000000E-03 0.  1.
         11    1    4    4    0    0  0.31661999321E-01  0.14309191429E-01  0.39932648738E-01  0.52934985752E-01  0.51100000000E-03 0. -1.
</event>
<event>
 8    1  0.1065239E+005  0.1043930E+01  0.7957747E-01            NaN
         13   -1    0    0    0    0  0.00000000000E+00  0.00000000000E+00  0.74505805969E-08  0.10566000000E+00  0.10566000000E+00 0. -1.
     999900   -1    0    0    0    0 -0.00000000000E+00 -0.00000000000E+00 -0.74505805969E-08  0.93827000000E+00  0.93827000000E+00 0.  1.
     999902    2    1    2    0    0  0.11884955715E-01 -0.11632853282E-01  0.18347300448E-01  0.10191671471E+01  0.10188662694E+01 0.  0.
     999903    2    3    3    0    0 -0.29812097066E-01  0.74770505895E-01 -0.95707854721E-01  0.12663548770E+00  0.19928964014E-01 0.  0.
         14    1    1    2    0    0 -0.11884955715E-01  0.11632853282E-01 -0.18347300448E-01  0.24762852856E-01  0.00000000000E+00 0.  1.
     999901    1    3    3    0    0  0.41697052781E-01 -0.86403359178E-01  0.11405515517E+00  0.89253165944E+00  0.88000000000E+00 0. -1.
        -11    1    4    4    0    0 -0.13511898088E-01  0.41998466141E-01 -0.37654300718E-01  0.58004741459E-01  0.51100000000E-03 0.  1.
         11    1    4    4    0    0 -0.16300198978E-01  0.32772039754E-01 -0.58053554003E-01  0.68630746242E-01  0.51100000000E-03 0. -1.
</event>
<event>
 8    1  0.1065239E+005  0.1043930E+01  0.7957747E-01            NaN
         13   -1    0    0    0    0  0.00000000000E+00  0.00000000000E+00  0.74505805969E-08  0.10566000000E+00  0.10566000000E+00 0.  1.
     999900   -1    0    0    0    0 -0.00000000000E+00 -0.00000000000E+00 -0.74505805969E-08  0.93827000000E+00  0.93827000000E+00 0. -1.
     999902    2    1    2    0    0 -0.11539534462E-01  0.17520488928E-01  0.11596394996E-01  0.10199590850E+01  0.10196773658E+01 0.  0.
     999903    2    3    3    0    0 -0.16678136475E-01  0.31415106787E-01 -0.12296905086E+00  0.12960672508E+00  0.20284145185E-01 0.  0.
         14    1    1    2    0    0  0.11539534462E-01 -0.17520488928E-01 -0.11596394996E-01  0.23970914976E-01  0.00000000000E+00 0. -1.
     999901    1    3    3    0    0  0.51386020127E-02 -0.13894617859E-01  0.13456544586E+00  0.89035235994E+00  0.88000000000E+00 0.  1.
        -11    1    4    4    0    0 -0.34219967234E-02  0.24789015856E-01 -0.62028619963E-01  0.66888087013E-01  0.51100000000E-03 0. -1.
         11    1    4    4    0    0 -0.13256139752E-01  0.66260909310E-02 -0.60940430898E-01  0.62718638069E-01  0.51100000000E-03 0.  1.
</event>
<event>
 8    1  0.1065239E+005  0.1043930E+01  0.7957747E-01            NaN
         13   -1    0    0    0    0  0.00000000000E+00  0.00000000000E+00  0.74505805969E-08  0.10566000000E+00  0.10566000000E+00 0. -1.
     999900   -1    0    0    0    0 -0.00000000000E+00 -0.00000000000E+00 -0.74505805969E-08  0.93827000000E+00  0.93827000000E+00 0. -1.
     999902    2    1    2    0    0 -0.28289060246E-02  0.23564966920E-01 -0.10595306246E-01  0.10179382534E+01  0.10176063664E+01 0.  0.
     999903    2    3    3    0    0  0.10155081713E+00  0.71410560494E-01  0.31202620076E-01  0.12949501153E+00  0.19578506134E-01 0.  0.
         14    1    1    2    0    0  0.28289060246E-02 -0.23564966920E-01  0.10595306246E-01  0.25991746569E-01  0.00000000000E+00 0. -1.
     999901    1    3    3    0    0 -0.10437972315E+00 -0.47845593574E-01 -0.41797926322E-01  0.88844324190E+00  0.88000000000E+00 0. -1.
        -11    1    4    4    0    0  0.73280538339E-01  0.60882324526E-01  0.27053705185E-01  0.99039683078E-01  0.51100000000E-03 0.  1.
         11    1    4    4    0    0  0.28270278790E-01  0.10528235968E-01  0.41489148907E-02  0.30455328454E-01  0.51100000000E-03 0. -1.
</event>
<event>
 8    1  0.1065239E+005  0.1043930E+01  0.7957747E-01            NaN
         13   -1    0    0    0    0  0.00000000000E+00  0.00000000000E+00  0.74505805969E-08  0.10566000000E+00  0.10566000000E+00 0.  1.
     999900   -1    0    0    0    0 -0.00000000000E+00 -0.00000000000E+00 -0.74505805969E-08  0.93827000000E+00  0.93827000000E+00 0.  1.
     999902    2    1    2    0    0  0.14783048912E-01  0.15859327180E-01  0.95704299059E-02  0.10202308455E+01  0.10199555521E+01 0.  0.
     999903    2    3    3    0    0 -0.96350941001E-01 -0.29666027473E-02  0.84687834452E-01  0.12986698519E+00  0.20027480458E-01 0.  0.
         14    1    1    2    0    0 -0.14783048912E-01 -0.15859327180E-01 -0.95704299059E-02  0.23699154465E-01  0.00000000000E+00 0. -1.
     999901    1    3    3    0    0  0.11113398991E+00  0.18825929927E-01 -0.75117404546E-01  0.89036386035E+00  0.88000000000E+00 0.  1.
        -11    1    4    4    0    0 -0.67414674588E-01 -0.10150252993E-01  0.64535689132E-01  0.93876952861E-01  0.51100000000E-03 0. -1.
         11    1    4    4    0    0 -0.28936266413E-01  0.71836502462E-02  0.20152145320E-01  0.35990032325E-01  0.51100000000E-03 0.  1.
</event>
<event>
 8    1  0.1065239E+005  0.1043930E+01  0.7957747E-01            NaN
         13   -1    0    0    0    0  0.00000000000E+00  0.00000000000E+00  0.74505805969E-08  0.10566000000E+00  0.10566000000E+00 0.  1.
     999900   -1    0    0    0    0 -0.00000000000E+00 -0.00000000000E+00 -0.74505805969E-08  0.93827000000E+00  0.93827000000E+00 0. -1.
     999902    2    1    2    0    0 -0.56691311530E-02 -0.85499011586E-02  0.13839302484E-01  0.10267030980E+01  0.10265585640E+01 0.  0.
     999903    2    3    3    0    0 -0.35967357068E-01  0.10649372210E+00  0.75078757625E-01  0.13658889828E+00  0.19625077460E-01 0.  0.
         14    1    1    2    0    0  0.56691311530E-02  0.85499011586E-02 -0.13839302484E-01  0.17226901959E-01  0.00000000000E+00 0. -1.
     999901    1    3    3    0    0  0.30298225915E-01 -0.11504362326E+00 -0.61239455141E-01  0.89011419976E+00  0.88000000000E+00 0.  1.
        -11    1    4    4    0    0 -0.26210890266E-01  0.93631994052E-01  0.58658480703E-01  0.11355632769E+00  0.51100000000E-03 0. -1.
         11    1    4    4    0    0 -0.97564668014E-02  0.12861728052E-01  0.16420276922E-01  0.23032570593E-01  0.51100000000E-03 0.  1.
</event>
<event>
 8    1  0.1065239E+005  0.1043930E+01  0.7957747E-01            NaN
         13   -1    0    0    0    0  0.00000000000E+00  0.00000000000E+00  0.74505805969E-08  0.10566000000E+00  0.10566000000E+00 0.  1.
     999900   -1    0    0    0    0 -0.00000000000E+00 -0.00000000000E+00 -0.74505805969E-08  0.93827000000E+00  0.93827000000E+00 0. -1.
     999902    2    1    2    0    0  0.25641294009E-01 -0.11993851454E-02  0.48087555994E-02  0.10178141310E+01  0.10174790252E+01 0.  0.
     999903    2    3    3    0    0  0.34347328669E-01 -0.87513084437E-02 -0.12211047833E+00  0.12863399260E+00  0.19478468857E-01 0.  0.
         14    1    1    2    0    0 -0.25641294009E-01  0.11993851454E-02 -0.48087555994E-02  0.26115869000E-01  0.00000000000E+00 0.  1.
     999901    1    3    3    0    0 -0.87060346597E-02  0.75519232983E-02  0.12691923393E+00  0.88918013840E+00  0.88000000000E+00 0.  1.
        -11    1    4    4    0    0  0.24315980717E-01  0.35250016913E-02 -0.73043074918E-01  0.77066493820E-01  0.51100000000E-03 0. -1.
         11    1    4    4    0    0  0.10031347952E-01 -0.12276310135E-01 -0.49067403408E-01  0.51567498781E-01  0.51100000000E-03 0.  1.
</event>
<event>
 8    1  0.1065239E+005  0.1043930E+01  0.7957747E-01            NaN
         13   -1    0    0    0    0  0.00000000000E+00  0.00000000000E+00  0.74505805969E-08  0.10566000000E+00  0.10566000000E+00 0. -1.
     999900   -1    0    0    0    0 -0.00000000000E+00 -0.00000000000E+00 -0.74505805969E-08  0.93827000000E+00  0.93827000000E+00 0.  1.
     999902    2    1    2    0    0  0.10790033201E-01  0.14287100186E-01 -0.15584745556E-01  0.10201933123E+01  0.10199171359E+01 0.  0.
     999903    2    3    3    0    0 -0.33948203397E-01  0.97804219523E-01  0.74984411078E-01  0.13048583726E+00  0.26186751426E-01 0.  0.
         14    1    1    2    0    0 -0.10790033201E-01 -0.14287100186E-01  0.15584745556E-01  0.23736687685E-01  0.00000000000E+00 0. -1.
     999901    1    3    3    0    0  0.44738236598E-01 -0.83517119337E-01 -0.90569156634E-01  0.88970747506E+00  0.88000000000E+00 0.  1.
        -11    1    4    4    0    0 -0.18890309591E-01  0.21077806947E-01  0.24264953379E-01  0.37284941004E-01  0.51100000000E-03 0. -1.
         11    1    4    4    0    0 -0.15057893805E-01  0.76726412576E-01  0.50719457698E-01  0.93200896256E-01  0.51100000000E-03 0.  1.
</event>
<event>
 8    1  0.1065239E+005  0.1043930E+01  0.7957747E-01            NaN
         13   -1    0    0    0    0  0.00000000000E+00  0.00000000000E+00  0.74505805969E-08  0.10566000000E+00  0.10566000000E+00 0.  1.
     999900   -1    0    0    0    0 -0.00000000000E+00 -0.00000000000E+00 -0.74505805969E-08  0.93827000000E+00  0.93827000000E+00 0.  1.
     999902    2    1    2    0    0 -0.10165730099E-01  0.19815928826E-02  0.19994383492E-01  0.10214123591E+01  0.10211641216E+01 0.  0.
     999903    2    3    3    0    0 -0.11415687262E+00 -0.14152721532E-01 -0.60090708802E-01  0.13153141439E+00  0.21389918039E-01 0.  0.
         14    1    1    2    0    0  0.10165730099E-01 -0.19815928826E-02 -0.19994383492E-01  0.22517640862E-01  0.00000000000E+00 0.  1.
     999901    1    3    3    0    0  0.10399114252E+00  0.16134314415E-01  0.80085092293E-01  0.88988094475E+00  0.88000000000E+00 0. -1.
        -11    1    4    4    0    0 -0.48472401835E-01  0.18503970105E-02 -0.17215414387E-01  0.51474550238E-01  0.51100000000E-03 0. -1.
         11    1    4    4    0    0 -0.65684470782E-01 -0.16003118543E-01 -0.42875294415E-01  0.80056864148E-01  0.51100000000E-03 0.  1.
</event>
<event>
 8    1  0.1065239E+005  0.1043930E+01  0.7957747E-01            NaN
         13   -1    0    0    0    0  0.00000000000E+00  0.00000000000E+00  0.74505805969E-08  0.10566000000E+00  0.10566000000E+00 0.  1.
     999900   -1    0    0    0    0 -0.00000000000E+00 -0.00000000000E+00 -0.74505805969E-08  0.93827000000E+00  0.93827000000E+00 0. -1.
     999902    2    1    2    0    0  0.22373232889E-01 -0.16131361124E-02  0.77688699870E-02  0.10201914428E+01  0.10199152224E+01 0.  0.
     999903    2    3    3    0    0  0.11838104573E+00  0.56693842953E-01 -0.52898306906E-02  0.13295543495E+00  0.20515885431E-01 0.  0.
         14    1    1    2    0    0 -0.22373232889E-01  0.16131361124E-02 -0.77688699870E-02  0.23738557220E-01  0.00000000000E+00 0. -1.
     999901    1    3    3    0    0 -0.96007812845E-01 -0.58306979065E-01  0.13058700678E-01  0.88723600783E+00  0.88000000000E+00 0. -1.
        -11    1    4    4    0    0  0.32193988244E-01  0.12741853281E-01 -0.10151695655E-01  0.36084979559E-01  0.51100000000E-03 0. -1.
         11    1    4    4    0    0  0.86187057490E-01  0.43951989672E-01  0.48618649648E-02  0.96870455386E-01  0.51100000000E-03 0.  1.
</event>
<event>
 8    1  0.1065239E+005  0.1043930E+01  0.7957747E-01            NaN
         13   -1    0    0    0    0  0.00000000000E+00  0.00000000000E+00  0.74505805969E-08  0.10566000000E+00  0.10566000000E+00 0.  1.
     999900   -1    0    0    0    0 -0.00000000000E+00 -0.00000000000E+00 -0.74505805969E-08  0.93827000000E+00  0.93827000000E+00 0. -1.
     999902    2    1    2    0    0 -0.14645864161E-01 -0.14537782877E-01  0.11627384752E-01  0.10202436211E+01  0.10199686279E+01 0.  0.
     999903    2    3    3    0    0 -0.12548952631E+00  0.30302921782E-01 -0.17440863018E-01  0.13168187917E+00  0.19236561995E-01 0.  0.
         14    1    1    2    0    0  0.14645864161E-01  0.14537782877E-01 -0.11627384752E-01  0.23686378874E-01  0.00000000000E+00 0. -1.
     999901    1    3    3    0    0  0.11084366215E+00 -0.44840704659E-01  0.29068247770E-01  0.88856174195E+00  0.88000000000E+00 0.  1.
        -11    1    4    4    0    0 -0.10901147614E+00  0.22823333747E-01 -0.90938518513E-02  0.11174688253E+00  0.51100000000E-03 0.  1.
         11    1    4    4    0    0 -0.16478050175E-01  0.74795880342E-02 -0.83470111662E-02  0.19934996642E-01  0.51100000000E-03 0. -1.
</event>
<event>
 8    1  0.1065239E+005  0.1043930E+01  0.7957747E-01            NaN
         13   -1    0    0    0    0  0.00000000000E+00  0.00000000000E+00  0.74505805969E-08  0.10566000000E+00  0.10566000000E+00 0.  1.
     999900   -1    0    0    0    0 -0.00000000000E+00 -0.00000000000E+00 -0.74505805969E-08  0.93827000000E+00  0.93827000000E+00 0. -1.
     999902    2    1    2    0    0 -0.43871773564E-03 -0.62129764221E-03  0.23383827152E-01  0.10205338068E+01  0.10202655875E+01 0.  0.
     999903    2    3    3    0    0  0.59147403886E-01  0.45800111410E-01 -0.10253223353E+00  0.12836773064E+00  0.19218474586E-01 0.  0.
         14    1    1    2    0    0  0.43871773564E-03  0.62129764221E-03 -0.23383827152E-01  0.23396193201E-01  0.00000000000E+00 0. -1.
     999901    1    3    3    0    0 -0.59586121622E-01 -0.46421409052E-01  0.12591606068E+00  0.89216607616E+00  0.88000000000E+00 0.  1.
        -11    1    4    4    0    0  0.82927891293E-02  0.14607441161E-02 -0.51118847111E-02  0.98639044610E-02  0.51100000000E-03 0.  1.
         11    1    4    4    0    0  0.50854614757E-01  0.44339367294E-01 -0.97420348820E-01  0.11850382618E+00  0.51100000000E-03 0. -1.
</event>
<event>
 8    1  0.1065239E+005  0.1043930E+01  0.7957747E-01            NaN
         13   -1    0    0    0    0  0.00000000000E+00  0.00000000000E+00  0.74505805969E-08  0.10566000000E+00  0.10566000000E+00 0.  1.
     999900   -1    0    0    0    0 -0.00000000000E+00 -0.00000000000E+00 -0.74505805969E-08  0.93827000000E+00  0.93827000000E+00 0.  1.
     999902    2    1    2    0    0 -0.22032058490E-01 -0.11703163311E-02  0.89505011563E-02  0.10201204911E+01  0.10198425975E+01 0.  0.
     999903    2    3    3    0    0  0.92342983192E-01 -0.84742088148E-01 -0.19037215227E-01  0.12835303071E+00  0.20090716245E-01 0.  0.
         14    1    1    2    0    0  0.22032058490E-01  0.11703163311E-02 -0.89505011563E-02  0.23809508869E-01  0.00000000000E+00 0. -1.
     999901    1    3    3    0    0 -0.11437504168E+00  0.83571771817E-01  0.27987716384E-01  0.89176746043E+00  0.88000000000E+00 0. -1.
        -11    1    4    4    0    0  0.46616739122E-01 -0.29452414379E-01 -0.66875412535E-02  0.55547721899E-01  0.51100000000E-03 0. -1.
         11    1    4    4    0    0  0.45726244070E-01 -0.55289673769E-01 -0.12349673974E-01  0.72805308807E-01  0.51100000000E-03 0.  1.
</event>
<event>
 8    1  0.1065239E+005  0.1043930E+01  0.7957747E-01            NaN
         13   -1    0    0    0    0  0.00000000000E+00  0.00000000000E+00  0.74505805969E-08  0.10566000000E+00  0.10566000000E+00 0.  1.
     999900   -1    0    0    0    0 -0.00000000000E+00 -0.00000000000E+00 -0.74505805969E-08  0.93827000000E+00  0.93827000000E+00 0. -1.
     999902    2    1    2    0    0  0.17708088068E-01 -0.14888335345E-01  0.26224551526E-02  0.10206466114E+01  0.10203810020E+01 0.  0.
     999903    2    3    3    0    0 -0.66366333952E-01 -0.48639193797E-02  0.10999205492E+00  0.13008654703E+00  0.19902501793E-01 0.  0.
         14    1    1    2    0    0 -0.17708088068E-01  0.14888335345E-01 -0.26224551526E-02  0.23283388572E-01  0.00000000000E+00 0. -1.
     999901    1    3    3    0    0  0.84074422020E-01 -0.10024415965E-01 -0.10736959977E+00  0.89056006440E+00  0.88000000000E+00 0.  1.
        -11    1    4    4    0    0 -0.20274509985E-01 -0.65628739047E-02  0.21395876658E-01  0.30202180848E-01  0.51100000000E-03 0.  1.
         11    1    4    4    0    0 -0.46091823967E-01  0.16989545251E-02  0.88596178262E-01  0.99884366178E-01  0.51100000000E-03 0. -1.
</event>
<event>
 8    1  0.1065239E+005  0.1043930E+01  0.7957747E-01            NaN
         13   -1    0    0    0    0  0.00000000000E+00  0.00000000000E+00  0.74505805969E-08  0.10566000000E+00  0.10566000000E+00 0. -1.
     999900   -1    0    0    0    0 -0.00000000000E+00 -0.00000000000E+00 -0.74505805969E-08  0.93827000000E+00  0.93827000000E+00 0.  1.
     999902    2    1    2    0    0 -0.16563543234E-01 -0.11877747399E-01 -0.12203696895E-01  0.10201736942E+01  0.10198970557E+01 0.  0.
     999903    2    3    3    0    0  0.32494371533E-01 -0.11022885148E+00  0.58028064662E-01  0.13056022813E+00  0.21735523915E-01 0.  0.
         14    1    1    2    0    0  0.16563543234E-01  0.11877747399E-01  0.12203696895E-01  0.23756305808E-01  0.00000000000E+00 0. -1.
     999901    1    3    3    0    0 -0.49057914766E-01  0.98351104081E-01 -0.70231761556E-01  0.88961346607E+00  0.88000000000E+00 0. -1.
        -11    1    4    4    0    0 -0.38963843249E-04 -0.34858959492E-01  0.17368323839E-01  0.38949561859E-01  0.51100000000E-03 0. -1.
         11    1    4    4    0    0  0.32533335376E-01 -0.75369891989E-01  0.40659740823E-01  0.91610666267E-01  0.51100000000E-03 0.  1.
</event>
<event>
 8    1  0.1065239E+005  0.1043930E+01  0.7957747E-01            NaN
         13   -1    0    0    0    0  0.00000000000E+00  0.00000000000E+00  0.74505805969E-08  0.10566000000E+00  0.10566000000E+00 0. -1.
     999900   -1    0    0    0    0 -0.00000000000E+00 -0.00000000000E+00 -0.74505805969E-08  0.93827000000E+00  0.93827000000E+00 0.  1.
     999902    2    1    2    0    0 -0.16857635273E-02 -0.11659357571E-01 -0.30090703349E-01  0.10116154082E+01  0.10110991550E+01 0.  0.
     999903    2    3    3    0    0 -0.26139062614E-01 -0.98161844295E-01 -0.73128005027E-01  0.12598972347E+00  0.14377309616E-01 0.  0.
         14    1    1    2    0    0  0.16857635273E-02  0.11659357571E-01  0.30090703349E-01  0.32314591838E-01  0.00000000000E+00 0. -1.
     999901    1    3    3    0    0  0.24453299086E-01  0.86502486724E-01  0.43037301678E-01  0.88562568469E+00  0.88000000000E+00 0. -1.
        -11    1    4    4    0    0 -0.16088019678E-01 -0.33653644883E-01 -0.26267828603E-01  0.45625126100E-01  0.51100000000E-03 0. -1.
         11    1    4    4    0    0 -0.10051042935E-01 -0.64508199412E-01 -0.46860176424E-01  0.80364597373E-01  0.51100000000E-03 0.  1.
</event>
<event>
 7    1  0.1065239E+005  0.1043930E+01  0.7957747E-01            NaN
         13   -1    0    0    0    0  0.00000000000E+00  0.00000000000E+00  0.74505805969E-08  0.10566000000E+00  0.10566000000E+00 0. -1.
     999900   -1    0    0    0    0 -0.00000000000E+00 -0.00000000000E+00 -0.74505805969E-08  0.93827000000E+00  0.93827000000E+00 0.  1.
     999902    2    1    2    0    0 -0.21989726128E-01 -0.68567196688E-03 -0.34591704571E-02  0.10216593004E+01  0.10214165370E+01 0.  0.
         14    1    1    2    0    0  0.21989726128E-01  0.68567196688E-03  0.34591704571E-02  0.22270699618E-01  0.00000000000E+00 0. -1.
     999901    1    3    3    0    0  0.96166369206E-01 -0.31349549175E-01  0.28891680175E-01  0.88626491185E+00  0.88000000000E+00 0. -1.
        -11    1    3    3    0    0 -0.11589675786E+00  0.39362427306E-01 -0.28992800531E-01  0.12578673527E+00  0.51100000000E-03 0. -1.
         11    1    3    3    0    0 -0.22593374695E-02 -0.86985500979E-02 -0.33580501012E-02  0.96076532561E-02  0.51100000000E-03 0.  1.
</event>
<event>
 8    1  0.1065239E+005  0.1043930E+01  0.7957747E-01            NaN
         13   -1    0    0    0    0  0.00000000000E+00  0.00000000000E+00  0.74505805969E-08  0.10566000000E+00  0.10566000000E+00 0.  1.
     999900   -1    0    0    0    0 -0.00000000000E+00 -0.00000000000E+00 -0.74505805969E-08  0.93827000000E+00  0.93827000000E+00 0. -1.
     999902    2    1    2    0    0 -0.90031632420E-02 -0.61992927025E-02  0.20616008918E-01  0.10205953048E+01  0.10203285099E+01 0.  0.
     999903    2    3    3    0    0 -0.10773630370E+00  0.65977447237E-02  0.76752681526E-01  0.13320400257E+00  0.14201788870E-01 0.  0.
         14    1    1    2    0    0  0.90031632420E-02  0.61992927025E-02 -0.20616008918E-01  0.23334695243E-01  0.00000000000E+00 0. -1.
     999901    1    3    3    0    0  0.98733140461E-01 -0.12797037426E-01 -0.56136672608E-01  0.88739130219E+00  0.88000000000E+00 0. -1.
        -11    1    4    4    0    0 -0.11901560342E-01  0.37972570244E-02  0.50668119611E-02  0.13490737709E-01  0.51100000000E-03 0. -1.
         11    1    4    4    0    0 -0.95834743361E-01  0.28004876993E-02  0.71685869565E-01  0.11971326486E+00  0.51100000000E-03 0.  1.
</event>
<event>
 8    1  0.1065239E+005  0.1043930E+01  0.7957747E-01            NaN
         13   -1    0    0    0    0  0.00000000000E+00  0.00000000000E+00  0.74505805969E-08  0.10566000000E+00  0.10566000000E+00 0. -1.
     999900   -1    0    0    0    0 -0.00000000000E+00 -0.00000000000E+00 -0.74505805969E-08  0.93827000000E+00  0.93827000000E+00 0.  1.
     999902    2    1    2    0    0 -0.15470892034E-01  0.17974859595E-01  0.68453674013E-03  0.10202042193E+01  0.10199282997E+01 0.  0.
     999903    2    3    3    0    0  0.10928873504E+00  0.60496018987E-01  0.29322716141E-01  0.12992720690E+00  0.20431874413E-01 0.  0.
         14    1    1    2    0    0  0.15470892034E-01 -0.17974859595E-01 -0.68453674013E-03  0.23725780669E-01  0.00000000000E+00 0. -1.
     999901    1    3    3    0    0 -0.12475962707E+00 -0.42521159392E-01 -0.28638179401E-01  0.89027701243E+00  0.88000000000E+00 0. -1.
        -11    1    4    4    0    0  0.74836076513E-01  0.30302238543E-01  0.17558851669E-01  0.82627104522E-01  0.51100000000E-03 0.  1.
         11    1    4    4    0    0  0.34452658523E-01  0.30193780444E-01  0.11763864472E-01  0.47300102379E-01  0.51100000000E-03 0. -1.
</event>
<event>
 8    1  0.1065239E+005  0.1043930E+01  0.7957747E-01            NaN
         13   -1    0    0    0    0  0.00000000000E+00  0.00000000000E+00  0.74505805969E-08  0.10566000000E+00  0.10566000000E+00 0. -1.
     999900   -1    0    0    0    0 -0.00000000000E+00 -0.00000000000E+00 -0.74505805969E-08  0.93827000000E+00  0.93827000000E+00 0. -1.
     999902    2    1    2    0    0 -0.46168737264E-02  0.18590478605E-01 -0.12963012152E-01  0.10208007739E+01  0.10205387101E+01 0.  0.
     999903    2    3    3    0    0 -0.19013117507E-01  0.11513534248E+00  0.59231098497E-01  0.13246516600E+00  0.20519538239E-01 0.  0.
         14    1    1    2    0    0  0.46168737264E-02 -0.18590478605E-01  0.12963012152E-01  0.23129226139E-01  0.00000000000E+00 0. -1.
     999901    1    3    3    0    0  0.14396243781E-01 -0.96544863876E-01 -0.72194110649E-01  0.88833560786E+00  0.88000000000E+00 0. -1.
        -11    1    4    4    0    0 -0.15350181903E-01  0.49467927281E-01  0.34312944758E-01  0.62131660310E-01  0.51100000000E-03 0. -1.
         11    1    4    4    0    0 -0.36629356034E-02  0.65667415200E-01  0.24918153739E-01  0.70333505693E-01  0.51100000000E-03 0.  1.
</event>
<event>
 8    1  0.1065239E+005  0.1043930E+01  0.7957747E-01            NaN
         13   -1    0    0    0    0  0.00000000000E+00  0.00000000000E+00  0.74505805969E-08  0.10566000000E+00  0.10566000000E+00 0.  1.
     999900   -1    0    0    0    0 -0.00000000000E+00 -0.00000000000E+00 -0.74505805969E-08  0.93827000000E+00  0.93827000000E+00 0.  1.
     999902    2    1    2    0    0  0.20545259891E-01 -0.91147867741E-02  0.77187331473E-02  0.10201651965E+01  0.10198883578E+01 0.  0.
     999903    2    3    3    0    0  0.10206283440E+00  0.23986657717E-01 -0.77141616761E-01  0.13171592981E+00  0.20151308018E-01 0.  0.
         14    1    1    2    0    0 -0.20545259891E-01  0.91147867741E-02 -0.77187331473E-02  0.23764803456E-01  0.00000000000E+00 0.  1.
     999901    1    3    3    0    0 -0.81517574505E-01 -0.33101444491E-01  0.84860349908E-01  0.88844926674E+00  0.88000000000E+00 0. -1.
        -11    1    4    4    0    0  0.51497672832E-01  0.80369303542E-02 -0.26837217088E-01  0.58626784822E-01  0.51100000000E-03 0.  1.
         11    1    4    4    0    0  0.50565161564E-01  0.15949727363E-01 -0.50304399673E-01  0.73089144983E-01  0.51100000000E-03 0. -1.
</event>
<event>
 8    1  0.1065239E+005  0.1043930E+01  0.7957747E-01            NaN
         13   -1    0    0    0    0  0.00000000000E+00  0.00000000000E+00  0.74505805969E-08  0.10566000000E+00  0.10566000000E+00 0. -1.
     999900   -1    0    0    0    0 -0.00000000000E+00 -0.00000000000E+00 -0.74505805969E-08  0.93827000000E+00  0.93827000000E+00 0.  1.
     999902    2    1    2    0    0  0.17938432182E-01  0.11791777793E-01  0.98764196064E-02  0.10202999971E+01  0.10200263266E+01 0.  0.
     999903    2    3    3    0    0 -0.10473550137E+00  0.44979082133E-01  0.58983772476E-01  0.12981595837E+00  0.19505244292E-01 0.  0.
         14    1    1    2    0    0 -0.17938432182E-01 -0.11791777793E-01 -0.98764196064E-02  0.23630002897E-01  0.00000000000E+00 0. -1.
     999901    1    3    3    0    0  0.12267393355E+00 -0.33187304340E-01 -0.49107352870E-01  0.89048403874E+00  0.88000000000E+00 0. -1.
        -11    1    4    4    0    0 -0.89812440688E-01  0.45147250517E-01  0.48805331297E-01  0.11174421782E+00  0.51100000000E-03 0. -1.
         11    1    4    4    0    0 -0.14923060678E-01 -0.16816838389E-03  0.10178441179E-01  0.18071740548E-01  0.51100000000E-03 0.  1.
</event>
<event>
 8    1  0.1065239E+005  0.1043930E+01  0.7957747E-01            NaN
         13   -1    0    0    0    0  0.00000000000E+00  0.00000000000E+00  0.74505805969E-08  0.10566000000E+00  0.10566000000E+00 0.  1.
     999900   -1    0    0    0    0 -0.00000000000E+00 -0.00000000000E+00 -0.74505805969E-08  0.93827000000E+00  0.93827000000E+00 0. -1.
     999902    2    1    2    0    0  0.14848750560E-01  0.94317146814E-02 -0.15859413223E-01  0.10202453294E+01  0.10199703763E+01 0.  0.
     999903    2    3    3    0    0 -0.36792959108E-01 -0.76512711219E-01 -0.96810540683E-01  0.13085992610E+00  0.23326436772E-01 0.  0.
         14    1    1    2    0    0 -0.14848750560E-01 -0.94317146814E-02  0.15859413223E-01  0.23684670629E-01  0.00000000000E+00 0.  1.
     999901    1    3    3    0    0  0.51641709668E-01  0.85944425901E-01  0.80951127460E-01  0.88938540327E+00  0.88000000000E+00 0.  1.
        -11    1    4    4    0    0 -0.27400377775E-01 -0.46693189634E-01 -0.45258438108E-01  0.70566436791E-01  0.51100000000E-03 0.  1.
         11    1    4    4    0    0 -0.93925813329E-02 -0.29819521585E-01 -0.51552102575E-01  0.60293489305E-01  0.51100000000E-03 0. -1.
</event>
<event>
 8    1  0.1065239E+005  0.1043930E+01  0.7957747E-01            NaN
         13   -1    0    0    0    0  0.00000000000E+00  0.00000000000E+00  0.74505805969E-08  0.10566000000E+00  0.10566000000E+00 0. -1.
     999900   -1    0    0    0    0 -0.00000000000E+00 -0.00000000000E+00 -0.74505805969E-08  0.93827000000E+00  0.93827000000E+00 0.  1.
     999902    2    1    2    0    0  0.34212150655E-03  0.20976642677E-01 -0.30630866835E-02  0.10227281349E+01  0.10225083465E+01 0.  0.
     999903    2    3    3    0    0 -0.85592732411E-01 -0.83486300709E-01  0.49150565866E-01  0.13086291457E+00  0.20328453892E-01 0.  0.
         14    1    1    2    0    0 -0.34212150655E-03 -0.20976642677E-01  0.30630866835E-02  0.21201865134E-01  0.00000000000E+00 0. -1.
     999901    1    3    3    0    0  0.85934853917E-01  0.10446294339E+00 -0.52213652549E-01  0.89186522029E+00  0.88000000000E+00 0.  1.
        -11    1    4    4    0    0 -0.40195862248E-01 -0.50396816935E-01  0.32930996883E-01  0.72389627543E-01  0.51100000000E-03 0. -1.
         11    1    4    4    0    0 -0.45396870162E-01 -0.33089483774E-01  0.16219568983E-01  0.58473287029E-01  0.51100000000E-03 0.  1.
</event>
<event>
 8    1  0.1065239E+005  0.1043930E+01  0.7957747E-01            NaN
         13   -1    0    0    0    0  0.00000000000E+00  0.00000000000E+00  0.74505805969E-08  0.10566000000E+00  0.10566000000E+00 0.  1.
     999900   -1    0    0    0    0 -0.00000000000E+00 -0.00000000000E+00 -0.74505805969E-08  0.93827000000E+00  0.93827000000E+00 0. -1.
     999902    2    1    2    0    0 -0.62669317838E-03  0.22891893374E-01  0.58588910193E-02  0.10202919347E+01  0.10200180753E+01 0.  0.
     999903    2    3    3    0    0  0.12176192251E+00  0.16620295586E-03  0.43287123381E-01  0.13074356456E+00  0.19852234837E-01 0.  0.
         14    1    1    2    0    0  0.62669317838E-03 -0.22891893374E-01 -0.58588910193E-02  0.23638065288E-01  0.00000000000E+00 0. -1.
     999901    1    3    3    0    0 -0.12238861569E+00  0.22725690418E-01 -0.37428232361E-01  0.88954837015E+00  0.88000000000E+00 0. -1.
        -11    1    4    4    0    0  0.66230159674E-01  0.75825376325E-02  0.30317646719E-01  0.73234894353E-01  0.51100000000E-03 0.  1.
         11    1    4    4    0    0  0.55531762835E-01 -0.74163346767E-02  0.12969476662E-01  0.57508670211E-01  0.51100000000E-03 0. -1.
</event>
<event>
 8    1  0.1065239E+005  0.1043930E+01  0.7957747E-01            NaN
         13   -1    0    0    0    0  0.00000000000E+00  0.00000000000E+00  0.74505805969E-08  0.10566000000E+00  0.10566000000E+00 0.  1.
     999900   -1    0    0    0    0 -0.00000000000E+00 -0.00000000000E+00 -0.74505805969E-08  0.93827000000E+00  0.93827000000E+00 0. -1.
     999902    2    1    2    0    0 -0.15614572217E-01  0.71868556553E-02  0.16051009410E-01  0.10204119078E+01  0.10201408534E+01 0.  0.
     999903    2    3    3    0    0 -0.28163588737E-02 -0.68178919419E-01  0.11117604269E+00  0.13199051772E+00  0.20126782413E-01 0.  0.
         14    1    1    2    0    0  0.15614572217E-01 -0.71868556553E-02 -0.16051009410E-01  0.23518092244E-01  0.00000000000E+00 0. -1.
     999901    1    3    3    0    0 -0.12798213343E-01  0.75365775074E-01 -0.95125033277E-01  0.88842139004E+00  0.88000000000E+00 0. -1.
        -11    1    4    4    0    0 -0.10694218978E-03 -0.15133997794E-01  0.11391630246E-01  0.18949398052E-01  0.51100000000E-03 0. -1.
         11    1    4    4    0    0 -0.27094166840E-02 -0.53044921625E-01  0.99784412440E-01  0.11304111967E+00  0.51100000000E-03 0.  1.
</event>
<event>
 8    1  0.1065239E+005  0.1043930E+01  0.7957747E-01            NaN
         13   -1    0    0    0    0  0.00000000000E+00  0.00000000000E+00  0.74505805969E-08  0.10566000000E+00  0.10566000000E+00 0. -1.
     999900   -1    0    0    0    0 -0.00000000000E+00 -0.00000000000E+00 -0.74505805969E-08  0.93827000000E+00  0.93827000000E+00 0.  1.
     999902    2    1    2    0    0 -0.19002754386E-01  0.88858267287E-02 -0.12030707227E-01  0.10197473511E+01  0.10194605728E+01 0.  0.
     999903    2    3    3    0    0 -0.10473735002E+00  0.31315714616E-01 -0.73498217074E-01  0.13316302036E+00  0.19488858589E-01 0.  0.
         14    1    1    2    0    0  0.19002754386E-01 -0.88858267287E-02  0.12030707227E-01  0.24182648889E-01  0.00000000000E+00 0.  1.
     999901    1    3    3    0    0  0.85734595631E-01 -0.22429887887E-01  0.61467509847E-01  0.88658433075E+00  0.88000000000E+00 0. -1.
        -11    1    4    4    0    0 -0.49958301532E-01  0.48874916966E-02 -0.31982945552E-01  0.59522175651E-01  0.51100000000E-03 0.  1.
         11    1    4    4    0    0 -0.54779048485E-01  0.26428222919E-01 -0.41515271522E-01  0.73640844713E-01  0.51100000000E-03 0. -1.
</event>
<event>
 8    1  0.1065239E+005  0.1043930E+01  0.7957747E-01            NaN
         13   -1    0    0    0    0  0.00000000000E+00  0.00000000000E+00  0.74505805969E-08  0.10566000000E+00  0.10566000000E+00 0. -1.
     999900   -1    0    0    0    0 -0.00000000000E+00 -0.00000000000E+00 -0.74505805969E-08  0.93827000000E+00  0.93827000000E+00 0.  1.
     999902    2    1    2    0    0  0.16061371225E-01  0.56516640549E-02  0.16526751242E-01  0.10202014843E+01  0.10199255002E+01 0.  0.
     999903    2    3    3    0    0 -0.35025151166E-02  0.27043474182E-02 -0.12677163146E+00  0.12839104544E+00  0.19840183893E-01 0.  0.
         14    1    1    2    0    0 -0.16061371225E-01 -0.56516640549E-02 -0.16526751242E-01  0.23728515732E-01  0.00000000000E+00 0.  1.
     999901    1    3    3    0    0  0.19563886342E-01  0.29473166367E-02  0.14329838271E+00  0.89181043883E+00  0.88000000000E+00 0. -1.
        -11    1    4    4    0    0 -0.73688850474E-02  0.94143549658E-02 -0.91262294426E-01  0.92043457406E-01  0.51100000000E-03 0. -1.
         11    1    4    4    0    0  0.38663699309E-02 -0.67100075477E-02 -0.35509337038E-01  0.36347588030E-01  0.51100000000E-03 0.  1.
</event>
<event>
 8    1  0.1065239E+005  0.1043930E+01  0.7957747E-01            NaN
         13   -1    0    0    0    0  0.00000000000E+00  0.00000000000E+00  0.74505805969E-08  0.10566000000E+00  0.10566000000E+00 0.  1.
     999900   -1    0    0    0    0 -0.00000000000E+00 -0.00000000000E+00 -0.74505805969E-08  0.93827000000E+00  0.93827000000E+00 0. -1.
     999902    2    1    2    0    0 -0.21281514967E-01 -0.12074591782E-01 -0.17886607883E-01  0.10136211005E+01  0.10131678568E+01 0.  0.
     999903    2    3    3    0    0 -0.86983579028E-01  0.44543681273E-01 -0.79101358135E-01  0.12724102645E+00  0.19569654854E-01 0.  0.
         14    1    1    2    0    0  0.21281514967E-01  0.12074591782E-01  0.17886607883E-01  0.30308899478E-01  0.00000000000E+00 0.  1.
     999901    1    3    3    0    0  0.65702064061E-01 -0.56618273055E-01  0.61214750252E-01  0.88638007407E+00  0.88000000000E+00 0.  1.
        -11    1    4    4    0    0 -0.21263344894E-01  0.20356490052E-02 -0.18215204911E-01  0.28077188497E-01  0.51100000000E-03 0. -1.
         11    1    4    4    0    0 -0.65720234134E-01  0.42508032268E-01 -0.60886153224E-01  0.99163837952E-01  0.51100000000E-03 0.  1.
</event>
<event>
 8    1  0.1065239E+005  0.1043930E+01  0.7957747E-01            NaN
         13   -1    0    0    0    0  0.00000000000E+00  0.00000000000E+00  0.74505805969E-08  0.10566000000E+00  0.10566000000E+00 0. -1.
     999900   -1    0    0    0    0 -0.00000000000E+00 -0.00000000000E+00 -0.74505805969E-08  0.93827000000E+00  0.93827000000E+00 0. -1.
     999902    2    1    2    0    0 -0.20325332881E-01 -0.57217319724E-02  0.11560072644E-01  0.10198573464E+01  0.10195732020E+01 0.  0.
     999903    2    3    3    0    0 -0.96287280800E-02 -0.12706604766E+00 -0.21418996605E-01  0.13085426464E+00  0.20629403438E-01 0.  0.
         14    1    1    2    0    0  0.20325332881E-01  0.57217319724E-02 -0.11560072644E-01  0.24072653635E-01  0.00000000000E+00 0.  1.
     999901    1    3    3    0    0 -0.10696604801E-01  0.12134431569E+00  0.32979069248E-01  0.88900308172E+00  0.88000000000E+00 0.  1.
        -11    1    4    4    0    0 -0.50571882406E-02 -0.37219932797E-01  0.28533847637E-02  0.37673617771E-01  0.51100000000E-03 0.  1.
         11    1    4    4    0    0 -0.45715398395E-02 -0.89846114866E-01 -0.24272381368E-01  0.93180646871E-01  0.51100000000E-03 0. -1.
</event>
<event>
 8    1  0.1065239E+005  0.1043930E+01  0.7957747E-01            NaN
         13   -1    0    0    0    0  0.00000000000E+00  0.00000000000E+00  0.74505805969E-08  0.10566000000E+00  0.10566000000E+00 0.  1.
     999900   -1    0    0    0    0 -0.00000000000E+00 -0.00000000000E+00 -0.74505805969E-08  0.93827000000E+00  0.93827000000E+00 0. -1.
     999902    2    1    2    0    0 -0.72637407177E-02 -0.19444343728E-01  0.96648753514E-02  0.10210334010E+01  0.10207766414E+01 0.  0.
     999903    2    3    3    0    0 -0.43324500124E-01  0.10815014878E+00  0.53955752682E-01  0.12999893770E+00  0.20372372572E-01 0.  0.
         14    1    1    2    0    0  0.72637407177E-02  0.19444343728E-01 -0.96648753514E-02  0.22896599044E-01  0.00000000000E+00 0.  1.
     999901    1    3    3    0    0  0.36060759407E-01 -0.12759449251E+00 -0.44290877331E-01  0.89103446325E+00  0.88000000000E+00 0. -1.
        -11    1    4    4    0    0 -0.34165538217E-02  0.55553085880E-02  0.89124733939E-02  0.11055659027E-01  0.51100000000E-03 0. -1.
         11    1    4    4    0    0 -0.39907946303E-01  0.10259484019E+00  0.45043279289E-01  0.11894327868E+00  0.51100000000E-03 0.  1.
</event>
<event>
 8    1  0.1065239E+005  0.1043930E+01  0.7957747E-01            NaN
         13   -1    0    0    0    0  0.00000000000E+00  0.00000000000E+00  0.74505805969E-08  0.10566000000E+00  0.10566000000E+00 0. -1.
     999900   -1    0    0    0    0 -0.00000000000E+00 -0.00000000000E+00 -0.74505805969E-08  0.93827000000E+00  0.93827000000E+00 0.  1.
     999902    2    1    2    0    0  0.22188281939E-01  0.54893565884E-02 -0.62916750686E-02  0.10202226580E+01  0.10199471720E+01 0.  0.
     999903    2    3    3    0    0 -0.59548259647E-01  0.10057424532E+00  0.50127037169E-01  0.12954590999E+00  0.24662702441E-01 0.  0.
         14    1    1    2    0    0 -0.22188281939E-01 -0.54893565884E-02  0.62916750686E-02  0.23707342035E-01  0.00000000000E+00 0.  1.
     999901    1    3    3    0    0  0.81736541587E-01 -0.95084888728E-01 -0.56418712238E-01  0.89067674798E+00  0.88000000000E+00 0.  1.
        -11    1    4    4    0    0 -0.76855863747E-02  0.16304648664E-01 -0.12044274148E-02  0.18072674743E-01  0.51100000000E-03 0.  1.
         11    1    4    4    0    0 -0.51862673273E-01  0.84269596652E-01  0.51331464584E-01  0.11147323525E+00  0.51100000000E-03 0. -1.
</event>
<event>
 8    1  0.1065239E+005  0.1043930E+01  0.7957747E-01            NaN
         13   -1    0    0    0    0  0.00000000000E+00  0.00000000000E+00  0.74505805969E-08  0.10566000000E+00  0.10566000000E+00 0.  1.
     999900   -1    0    0    0    0 -0.00000000000E+00 -0.00000000000E+00 -0.74505805969E-08  0.93827000000E+00  0.93827000000E+00 0. -1.
     999902    2    1    2    0    0  0.10591135691E-01 -0.13282627767E-01 -0.17297904526E-01  0.10196850447E+01  0.10193967690E+01 0.  0.
     999903    2    3    3    0    0 -0.11987594257E-01 -0.18079932664E-02 -0.13009324668E+00  0.13212419864E+00  0.19636185422E-01 0.  0.
         14    1    1    2    0    0 -0.10591135691E-01  0.13282627767E-01  0.17297904526E-01  0.24244955282E-01  0.00000000000E+00 0.  1.
     999901    1    3    3    0    0  0.22578729948E-01 -0.11474634501E-01  0.11279534216E+00  0.88756084608E+00  0.88000000000E+00 0.  1.
        -11    1    4    4    0    0  0.53226732743E-02  0.10889247459E-02 -0.35139381303E-01  0.35560565902E-01  0.51100000000E-03 0.  1.
         11    1    4    4    0    0 -0.17310267531E-01 -0.28969180123E-02 -0.94953865378E-01  0.96563632736E-01  0.51100000000E-03 0. -1.
</event>
<event>
 8    1  0.1065239E+005  0.1043930E+01  0.7957747E-01            NaN
         13   -1    0    0    0    0  0.00000000000E+00  0.00000000000E+00  0.74505805969E-08  0.10566000000E+00  0.10566000000E+00 0. -1.
     999900   -1    0    0    0    0 -0.00000000000E+00 -0.00000000000E+00 -0.74505805969E-08  0.93827000000E+00  0.93827000000E+00 0.  1.
     999902    2    1    2    0    0  0.15835093648E-01 -0.14674246701E-01  0.98526780518E-02  0.10201990293E+01  0.10199229875E+01 0.  0.
     999903    2    3    3    0    0 -0.11298255784E+00 -0.31943442608E-01 -0.49789449026E-01  0.12865576291E+00  0.16966855774E-01 0.  0.
         14    1    1    2    0    0 -0.15835093648E-01  0.14674246701E-01 -0.98526780518E-02  0.23730970731E-01  0.00000000000E+00 0. -1.
     999901    1    3    3    0    0  0.12881765149E+00  0.17269195907E-01  0.59642127077E-01  0.89154326636E+00  0.88000000000E+00 0. -1.
        -11    1    4    4    0    0 -0.39100789422E-01 -0.19427732315E-01 -0.19743799308E-01  0.47920634892E-01  0.51100000000E-03 0. -1.
         11    1    4    4    0    0 -0.73881768417E-01 -0.12515710293E-01 -0.30045649718E-01  0.80735128021E-01  0.51100000000E-03 0.  1.
</event>
<event>
 8    1  0.1065239E+005  0.1043930E+01  0.7957747E-01            NaN
         13   -1    0    0    0    0  0.00000000000E+00  0.00000000000E+00  0.74505805969E-08  0.10566000000E+00  0.10566000000E+00 0. -1.
     999900   -1    0    0    0    0 -0.00000000000E+00 -0.00000000000E+00 -0.74505805969E-08  0.93827000000E+00  0.93827000000E+00 0.  1.
     999902    2    1    2    0    0  0.66891865116E-02 -0.82171406992E-02  0.20406222878E-01  0.10209369456E+01  0.10206779935E+01 0.  0.
     999903    2    3    3    0    0  0.73065233698E-01 -0.89188688647E-01 -0.59052588503E-01  0.13117525060E+00  0.20653997286E-01 0.  0.
         14    1    1    2    0    0 -0.66891865116E-02  0.82171406992E-02 -0.20406222878E-01  0.22993054378E-01  0.00000000000E+00 0.  1.
     999901    1    3    3    0    0 -0.66376047187E-01  0.80971547948E-01  0.79458811381E-01  0.88976169502E+00  0.88000000000E+00 0. -1.
        -11    1    4    4    0    0  0.18789081081E-01 -0.29101529012E-01 -0.83429342079E-02  0.35634172235E-01  0.51100000000E-03 0.  1.
         11    1    4    4    0    0  0.54276152617E-01 -0.60087159636E-01 -0.50709654295E-01  0.95541078368E-01  0.51100000000E-03 0. -1.
</event>
<event>
 8    1  0.1065239E+005  0.1043930E+01  0.7957747E-01            NaN
         13   -1    0    0    0    0  0.00000000000E+00  0.00000000000E+00  0.74505805969E-08  0.10566000000E+00  0.10566000000E+00 0.  1.
     999900   -1    0    0    0    0 -0.00000000000E+00 -0.00000000000E+00 -0.74505805969E-08  0.93827000000E+00  0.93827000000E+00 0.  1.
     999902    2    1    2    0    0  0.70717511537E-02  0.21860045906E-01 -0.46672762353E-02  0.10204852833E+01  0.10202159373E+01 0.  0.
     999903    2    3    3    0    0  0.72244859848E-01 -0.54933478027E-01  0.90922403119E-01  0.12959686934E+00  0.17072151926E-01 0.  0.
         14    1    1    2    0    0 -0.70717511537E-02 -0.21860045906E-01  0.46672762353E-02  0.23444716651E-01  0.00000000000E+00 0. -1.
     999901    1    3    3    0    0 -0.65173108694E-01  0.76793523933E-01 -0.95589679354E-01  0.89088841401E+00  0.88000000000E+00 0. -1.
        -11    1    4    4    0    0  0.86463755465E-02 -0.29411892266E-02  0.39539799563E-02  0.99652136280E-02  0.51100000000E-03 0.  1.
         11    1    4    4    0    0  0.63598484302E-01 -0.51992288801E-01  0.86968423163E-01  0.11963165571E+00  0.51100000000E-03 0. -1.
</event>
<event>
 8    1  0.1065239E+005  0.1043930E+01  0.7957747E-01            NaN
         13   -1    0    0    0    0  0.00000000000E+00  0.00000000000E+00  0.74505805969E-08  0.10566000000E+00  0.10566000000E+00 0. -1.
     999900   -1    0    0    0    0 -0.00000000000E+00 -0.00000000000E+00 -0.74505805969E-08  0.93827000000E+00  0.93827000000E+00 0. -1.
     999902    2    1    2    0    0 -0.13552240514E-02  0.40293992119E-02 -0.22730106117E-01  0.10208057613E+01  0.10205438119E+01 0.  0.
     999903    2    3    3    0    0  0.16757965514E-01  0.12519188855E+00  0.27701022024E-01  0.13088906009E+00  0.20267241104E-01 0.  0.
         14    1    1    2    0    0  0.13552240514E-02 -0.40293992119E-02  0.22730106117E-01  0.23124238676E-01  0.00000000000E+00 0. -1.
     999901    1    3    3    0    0 -0.18113189565E-01 -0.12116248934E+00 -0.50431128141E-01  0.88991670124E+00  0.88000000000E+00 0.  1.
        -11    1    4    4    0    0  0.39241019982E-02  0.34192402000E-01  0.16929010599E-01  0.38358459977E-01  0.51100000000E-03 0. -1.
         11    1    4    4    0    0  0.12833863515E-01  0.90999486550E-01  0.10772011425E-01  0.92530600108E-01  0.51100000000E-03 0.  1.
</event>
<event>
 8    1  0.1065239E+005  0.1043930E+01  0.7957747E-01            NaN
         13   -1    0    0    0    0  0.00000000000E+00  0.00000000000E+00  0.74505805969E-08  0.10566000000E+00  0.10566000000E+00 0. -1.
     999900   -1    0    0    0    0 -0.00000000000E+00 -0.00000000000E+00 -0.74505805969E-08  0.93827000000E+00  0.93827000000E+00 0. -1.
     999902    2    1    2    0    0  0.93313623692E-02  0.21471516120E-01  0.35134377994E-02  0.10202562894E+01  0.10199815937E+01 0.  0.
     999903    2    3    3    0    0  0.44609628614E-01 -0.11198582132E+00  0.40740050771E-01  0.12871759832E+00  0.19432581894E-01 0.  0.
         14    1    1    2    0    0 -0.93313623692E-02 -0.21471516120E-01 -0.35134377994E-02  0.23673710595E-01  0.00000000000E+00 0. -1.
     999901    1    3    3    0    0 -0.35278266245E-01  0.13345733744E+00 -0.37226612972E-01  0.89153869108E+00  0.88000000000E+00 0. -1.
        -11    1    4    4    0    0  0.44047569780E-01 -0.10441858597E+00  0.33403093511E-01  0.11815014717E+00  0.51100000000E-03 0. -1.
         11    1    4    4    0    0  0.56205883442E-03 -0.75672353477E-02  0.73369572599E-02  0.10567451148E-01  0.51100000000E-03 0.  1.
</event>
<event>
 8    1  0.1065239E+005  0.1043930E+01  0.7957747E-01            NaN
         13   -1    0    0    0    0  0.00000000000E+00  0.00000000000E+00  0.74505805969E-08  0.10566000000E+00  0.10566000000E+00 0.  1.
     999900   -1    0    0    0    0 -0.00000000000E+00 -0.00000000000E+00 -0.74505805969E-08  0.93827000000E+00  0.93827000000E+00 0.  1.
     999902    2    1    2    0    0  0.28017798876E-02  0.38272391776E-02  0.23311894620E-01  0.10201404611E+01  0.10198630389E+01 0.  0.
     999903    2    3    3    0    0  0.10767847564E+00 -0.64623963118E-01 -0.26318494177E-01  0.12988888772E+00  0.20187850139E-01 0.  0.
         14    1    1    2    0    0 -0.28017798876E-02 -0.38272391776E-02 -0.23311894620E-01  0.23789538899E-01  0.00000000000E+00 0. -1.
     999901    1    3    3    0    0 -0.10487669575E+00  0.68451202296E-01  0.49630388796E-01  0.89025157338E+00  0.88000000000E+00 0.  1.
        -11    1    4    4    0    0  0.47594237169E-01 -0.21575847615E-01 -0.19025430744E-01  0.55614357391E-01  0.51100000000E-03 0. -1.
         11    1    4    4    0    0  0.60084238471E-01 -0.43048115503E-01 -0.72930634329E-02  0.74274530333E-01  0.51100000000E-03 0.  1.
</event>
<event>
 8    1  0.1065239E+005  0.1043930E+01  0.7957747E-01            NaN
         13   -1    0    0    0    0  0.00000000000E+00  0.00000000000E+00  0.74505805969E-08  0.10566000000E+00  0.10566000000E+00 0.  1.
     999900   -1    0    0    0    0 -0.00000000000E+00 -0.00000000000E+00 -0.74505805969E-08  0.93827000000E+00  0.93827000000E+00 0.  1.
     999902    2    1    2    0    0 -0.95418435132E-02  0.40127435546E-02  0.21144715891E-01  0.10203875299E+01  0.10201159068E+01 0.  0.
     999903    2    3    3    0    0  0.20768700495E-01  0.18206893894E-01 -0.12337684936E+00  0.12797132330E+00  0.19798553553E-01 0.  0.
         14    1    1    2    0    0  0.95418435132E-02 -0.40127435546E-02 -0.21144715891E-01  0.23542470103E-01  0.00000000000E+00 0. -1.
     999901    1    3    3    0    0 -0.30310544008E-01 -0.14194150339E-01  0.14452156525E+00  0.89241620660E+00  0.88000000000E+00 0. -1.
        -11    1    4    4    0    0  0.13150397779E-01  0.12057602409E-01 -0.37438138282E-01  0.41475222201E-01  0.51100000000E-03 0.  1.
         11    1    4    4    0    0  0.76183027166E-02  0.61492914853E-02 -0.85938711077E-01  0.86496101095E-01  0.51100000000E-03 0. -1.
</event>
<event>
 8    1  0.1065239E+005  0.1043930E+01  0.7957747E-01            NaN
         13   -1    0    0    0    0  0.00000000000E+00  0.00000000000E+00  0.74505805969E-08  0.10566000000E+00  0.10566000000E+00 0. -1.
     999900   -1    0    0    0    0 -0.00000000000E+00 -0.00000000000E+00 -0.74505805969E-08  0.93827000000E+00  0.93827000000E+00 0. -1.
     999902    2    1    2    0    0  0.87299253050E-02  0.19167424621E-02 -0.25764858571E-01  0.10166588901E+01  0.10162930608E+01 0.  0.
     999903    2    3    3    0    0 -0.20119482139E-01  0.17156919080E-01  0.11965452513E+00  0.12412802316E+00  0.19784016723E-01 0.  0.
         14    1    1    2    0    0 -0.87299253050E-02 -0.19167424621E-02  0.25764858571E-01  0.27271109891E-01  0.00000000000E+00 0. -1.
     999901    1    3    3    0    0  0.28849407444E-01 -0.15240176618E-01 -0.14541938370E+00  0.89253086694E+00  0.88000000000E+00 0. -1.
        -11    1    4    4    0    0 -0.21224573464E-01  0.83832206193E-02  0.68248378880E-01  0.71964319266E-01  0.51100000000E-03 0.  1.
         11    1    4    4    0    0  0.11050913249E-02  0.87736984604E-02  0.51406146247E-01  0.52163703899E-01  0.51100000000E-03 0. -1.
</event>
<event>
 8    1  0.1065239E+005  0.1043930E+01  0.7957747E-01            NaN
         13   -1    0    0    0    0  0.00000000000E+00  0.00000000000E+00  0.74505805969E-08  0.10566000000E+00  0.10566000000E+00 0. -1.
     999900   -1    0    0    0    0 -0.00000000000E+00 -0.00000000000E+00 -0.74505805969E-08  0.93827000000E+00  0.93827000000E+00 0. -1.
     999902    2    1    2    0    0  0.85950272402E-03 -0.84606740886E-02  0.21833915469E-01  0.10204983629E+01  0.10202293209E+01 0.  0.
     999903    2    3    3    0    0 -0.12672555624E+00 -0.26432992814E-01  0.11890484002E-01  0.13106043742E+00  0.16654877199E-01 0.  0.
         14    1    1    2    0    0 -0.85950272402E-03  0.84606740886E-02 -0.21833915469E-01  0.23431637067E-01  0.00000000000E+00 0.  1.
     999901    1    3    3    0    0  0.12758505896E+00  0.17972318726E-01  0.99434314664E-02  0.88943792551E+00  0.88000000000E+00 0.  1.
        -11    1    4    4    0    0 -0.43279532271E-01 -0.17026019586E-01  0.56484362726E-02  0.46852632903E-01  0.51100000000E-03 0.  1.
         11    1    4    4    0    0 -0.83446023965E-01 -0.94069732282E-02  0.62420477297E-02  0.84207804518E-01  0.51100000000E-03 0. -1.
</event>
<event>
 8    1  0.1265087E+005  0.1043930E+01  0.7957747E-01            NaN
         13   -1    0    0    0    0  0.00000000000E+00  0.00000000000E+00  0.74505805969E-08  0.10566000000E+00  0.10566000000E+00 0. -1.
     999900   -1    0    0    0    0 -0.00000000000E+00 -0.00000000000E+00 -0.74505805969E-08  0.93827000000E+00  0.93827000000E+00 0. -1.
     999902    2    1    2    0    0  0.87864188858E-02  0.17184955461E-01  0.13533755287E-01  0.10203569989E+01  0.10200846625E+01 0.  0.
     999903    2    3    3    0    0  0.24818929496E-01 -0.12215608616E+00  0.26110502763E-01  0.12916053238E+00  0.21508047848E-01 0.  0.
         14    1    1    2    0    0 -0.87864188858E-02 -0.17184955461E-01 -0.13533755287E-01  0.23573001150E-01  0.00000000000E+00 0.  1.
     999901    1    3    3    0    0 -0.16032510610E-01  0.13934104162E+00 -0.12576747475E-01  0.89119646647E+00  0.88000000000E+00 0.  1.
        -11    1    4    4    0    0  0.15928451591E-01 -0.86658897409E-01  0.28169576537E-01  0.92505492991E-01  0.51100000000E-03 0.  1.
         11    1    4    4    0    0  0.88904779050E-02 -0.35497188752E-01 -0.20590737745E-02  0.36655039387E-01  0.51100000000E-03 0. -1.
</event>
<event>
 8    1  0.1065239E+005  0.1043930E+01  0.7957747E-01            NaN
         13   -1    0    0    0    0  0.00000000000E+00  0.00000000000E+00  0.74505805969E-08  0.10566000000E+00  0.10566000000E+00 0.  1.
     999900   -1    0    0    0    0 -0.00000000000E+00 -0.00000000000E+00 -0.74505805969E-08  0.93827000000E+00  0.93827000000E+00 0.  1.
     999902    2    1    2    0    0  0.16388378472E-01 -0.47244366527E-02  0.16061353557E-01  0.10205021036E+01  0.10202331484E+01 0.  0.
     999903    2    3    3    0    0  0.10826309353E+00  0.14489403727E-01 -0.70148344083E-01  0.13132144318E+00  0.19841648628E-01 0.  0.
         14    1    1    2    0    0 -0.16388378472E-01  0.47244366527E-02 -0.16061353557E-01  0.23427896379E-01  0.00000000000E+00 0. -1.
     999901    1    3    3    0    0 -0.91874715061E-01 -0.19213840379E-01  0.86209697640E-01  0.88918066044E+00  0.88000000000E+00 0. -1.
        -11    1    4    4    0    0  0.35253349848E-01  0.13425948287E-01 -0.28288403178E-01  0.47154529351E-01  0.51100000000E-03 0. -1.
         11    1    4    4    0    0  0.73009743686E-01  0.10634554394E-02 -0.41859940905E-01  0.84166913832E-01  0.51100000000E-03 0.  1.
</event>
<event>
 8    1  0.1065239E+005  0.1043930E+01  0.7957747E-01            NaN
         13   -1    0    0    0    0  0.00000000000E+00  0.00000000000E+00  0.74505805969E-08  0.10566000000E+00  0.10566000000E+00 0. -1.
     999900   -1    0    0    0    0 -0.00000000000E+00 -0.00000000000E+00 -0.74505805969E-08  0.93827000000E+00  0.93827000000E+00 0. -1.
     999902    2    1    2    0    0  0.57866904006E-02 -0.22166974966E-01 -0.16496382142E-02  0.10209608496E+01  0.10207024417E+01 0.  0.
     999903    2    3    3    0    0  0.47673584939E-01  0.75295219835E-01 -0.92451203587E-01  0.12995113267E+00  0.19948208100E-01 0.  0.
         14    1    1    2    0    0 -0.57866904006E-02  0.22166974966E-01  0.16496382142E-02  0.22969150423E-01  0.00000000000E+00 0. -1.
     999901    1    3    3    0    0 -0.41886894539E-01 -0.97462194800E-01  0.90801565373E-01  0.89100971691E+00  0.88000000000E+00 0. -1.
        -11    1    4    4    0    0  0.85843922708E-02  0.23948568051E-01 -0.16694691037E-01  0.30433526450E-01  0.51100000000E-03 0. -1.
         11    1    4    4    0    0  0.39089192668E-01  0.51346651783E-01 -0.75756512551E-01  0.99517606219E-01  0.51100000000E-03 0.  1.
</event>
<event>
 8    1  0.1065239E+005  0.1043930E+01  0.7957747E-01            NaN
         13   -1    0    0    0    0  0.00000000000E+00  0.00000000000E+00  0.74505805969E-08  0.10566000000E+00  0.10566000000E+00 0. -1.
     999900   -1    0    0    0    0 -0.00000000000E+00 -0.00000000000E+00 -0.74505805969E-08  0.93827000000E+00  0.93827000000E+00 0. -1.
     999902    2    1    2    0    0  0.57620048175E-02 -0.22018946830E-01  0.88472680363E-02  0.10195105637E+01  0.10192180731E+01 0.  0.
     999903    2    3    3    0    0  0.10131888925E+00 -0.80328658676E-01  0.20338214235E-01  0.13234474912E+00  0.19577511042E-01 0.  0.
         14    1    1    2    0    0 -0.57620048175E-02  0.22018946830E-01 -0.88472680363E-02  0.24419436331E-01  0.00000000000E+00 0.  1.
     999901    1    3    3    0    0 -0.95556884431E-01  0.58309711845E-01 -0.11490946199E-01  0.88716581455E+00  0.88000000000E+00 0.  1.
        -11    1    4    4    0    0  0.44895524276E-01 -0.47075501536E-01  0.14004416022E-01  0.66543938371E-01  0.51100000000E-03 0. -1.
         11    1    4    4    0    0  0.56423364972E-01 -0.33253157140E-01  0.63337982138E-02  0.65800810750E-01  0.51100000000E-03 0.  1.
</event>
<event>
 8    1  0.1065239E+005  0.1043930E+01  0.7957747E-01            NaN
         13   -1    0    0    0    0  0.00000000000E+00  0.00000000000E+00  0.74505805969E-08  0.10566000000E+00  0.10566000000E+00 0. -1.
     999900   -1    0    0    0    0 -0.00000000000E+00 -0.00000000000E+00 -0.74505805969E-08  0.93827000000E+00  0.93827000000E+00 0.  1.
     999902    2    1    2    0    0 -0.13709338324E-01  0.89405653819E-02 -0.17120498409E-01  0.10202447486E+01  0.10199697819E+01 0.  0.
     999903    2    3    3    0    0  0.76283957984E-01  0.10128716460E+00 -0.25625353899E-01  0.13080727453E+00  0.19379173077E-01 0.  0.
         14    1    1    2    0    0  0.13709338324E-01 -0.89405653819E-02  0.17120498409E-01  0.23685251369E-01  0.00000000000E+00 0. -1.
     999901    1    3    3    0    0 -0.89993296308E-01 -0.92346599218E-01  0.85048554896E-02  0.88943747410E+00  0.88000000000E+00 0.  1.
        -11    1    4    4    0    0  0.32976026650E-01  0.45920720379E-01 -0.21176179116E-01  0.60372366002E-01  0.51100000000E-03 0. -1.
         11    1    4    4    0    0  0.43307931334E-01  0.55366444221E-01 -0.44491747829E-02  0.70434908528E-01  0.51100000000E-03 0.  1.
</event>
<event>
 8    1  0.1065239E+005  0.1043930E+01  0.7957747E-01            NaN
         13   -1    0    0    0    0  0.00000000000E+00  0.00000000000E+00  0.74505805969E-08  0.10566000000E+00  0.10566000000E+00 0.  1.
     999900   -1    0    0    0    0 -0.00000000000E+00 -0.00000000000E+00 -0.74505805969E-08  0.93827000000E+00  0.93827000000E+00 0.  1.
     999902    2    1    2    0    0 -0.17842738312E-01  0.16451798850E-01  0.53356418503E-02  0.10190805720E+01  0.10187775607E+01 0.  0.
     999903    2    3    3    0    0  0.11095440131E+00 -0.57563407414E-01  0.57017632161E-03  0.12661787613E+00  0.20182576919E-01 0.  0.
         14    1    1    2    0    0  0.17842738312E-01 -0.16451798850E-01 -0.53356418503E-02  0.24849427957E-01  0.00000000000E+00 0.  1.
     999901    1    3    3    0    0 -0.12879713962E+00  0.74015206264E-01  0.47654655287E-02  0.89246269591E+00  0.88000000000E+00 0. -1.
        -11    1    4    4    0    0  0.95438878167E-01 -0.47208877377E-01  0.74296982754E-02  0.10673668117E+00  0.51100000000E-03 0.  1.
         11    1    4    4    0    0  0.15515523145E-01 -0.10354530038E-01 -0.68595219538E-02  0.19881194964E-01  0.51100000000E-03 0. -1.
</event>
<event>
 8    1  0.1065239E+005  0.1043930E+01  0.7957747E-01            NaN
         13   -1    0    0    0    0  0.00000000000E+00  0.00000000000E+00  0.74505805969E-08  0.10566000000E+00  0.10566000000E+00 0. -1.
     999900   -1    0    0    0    0 -0.00000000000E+00 -0.00000000000E+00 -0.74505805969E-08  0.93827000000E+00  0.93827000000E+00 0.  1.
     999902    2    1    2    0    0  0.23137250810E-01 -0.34927727894E-02 -0.42883596972E-02  0.10201408877E+01  0.10198634756E+01 0.  0.
     999903    2    3    3    0    0  0.11172709639E+00 -0.40648011453E-02 -0.70093145001E-01  0.13324813331E+00  0.18508089530E-01 0.  0.
         14    1    1    2    0    0 -0.23137250810E-01  0.34927727894E-02  0.42883596972E-02  0.23789112335E-01  0.00000000000E+00 0. -1.
     999901    1    3    3    0    0 -0.88589845583E-01  0.57202835595E-03  0.65804785304E-01  0.88689275435E+00  0.88000000000E+00 0. -1.
        -11    1    4    4    0    0  0.10756458396E+00 -0.23843374035E-02 -0.62543445027E-01  0.12444986309E+00  0.51100000000E-03 0. -1.
         11    1    4    4    0    0  0.41625124373E-02 -0.16804637418E-02 -0.75496999742E-02  0.87982702208E-02  0.51100000000E-03 0.  1.
</event>
<event>
 8    1  0.1065239E+005  0.1043930E+01  0.7957747E-01            NaN
         13   -1    0    0    0    0  0.00000000000E+00  0.00000000000E+00  0.74505805969E-08  0.10566000000E+00  0.10566000000E+00 0.  1.
     999900   -1    0    0    0    0 -0.00000000000E+00 -0.00000000000E+00 -0.74505805969E-08  0.93827000000E+00  0.93827000000E+00 0.  1.
     999902    2    1    2    0    0 -0.81356626103E-02 -0.20707751239E-01  0.73679959288E-02  0.10204931203E+01  0.10202239564E+01 0.  0.
     999903    2    3    3    0    0 -0.10050750527E+00  0.61543214939E-01  0.52810570114E-01  0.13068257510E+00  0.19991328030E-01 0.  0.
         14    1    1    2    0    0  0.81356626103E-02  0.20707751239E-01 -0.73679959288E-02  0.23436879730E-01  0.00000000000E+00 0. -1.
     999901    1    3    3    0    0  0.92371842664E-01 -0.82250966178E-01 -0.45442574185E-01  0.88981054517E+00  0.88000000000E+00 0.  1.
        -11    1    4    4    0    0 -0.64307645874E-01  0.38890743617E-01  0.43965261105E-01  0.87069906179E-01  0.51100000000E-03 0. -1.
         11    1    4    4    0    0 -0.36199859400E-01  0.22652471322E-01  0.88453090086E-02  0.43612668917E-01  0.51100000000E-03 0.  1.
</event>
<event>
 8    1  0.1065239E+005  0.1043930E+01  0.7957747E-01            NaN
         13   -1    0    0    0    0  0.00000000000E+00  0.00000000000E+00  0.74505805969E-08  0.10566000000E+00  0.10566000000E+00 0.  1.
     999900   -1    0    0    0    0 -0.00000000000E+00 -0.00000000000E+00 -0.74505805969E-08  0.93827000000E+00  0.93827000000E+00 0. -1.
     999902    2    1    2    0    0 -0.20570797157E-01  0.86446774884E-02 -0.79895909202E-02  0.10202293311E+01  0.10199540020E+01 0.  0.
     999903    2    3    3    0    0  0.58973439046E-01  0.13361831836E-01 -0.11344402990E+00  0.13035845518E+00  0.21618831041E-01 0.  0.
         14    1    1    2    0    0  0.20570797157E-01 -0.86446774884E-02  0.79895909202E-02  0.23700668928E-01  0.00000000000E+00 0. -1.
     999901    1    3    3    0    0 -0.79544236203E-01 -0.47171543472E-02  0.10545443898E+00  0.88987087589E+00  0.88000000000E+00 0.  1.
        -11    1    4    4    0    0  0.34596574947E-01  0.16139491350E-01 -0.82162476900E-01  0.90599889131E-01  0.51100000000E-03 0. -1.
         11    1    4    4    0    0  0.24376864099E-01 -0.27776595139E-02 -0.31281552995E-01  0.39758566051E-01  0.51100000000E-03 0.  1.
</event>
<event>
 8    1  0.1065239E+005  0.1043930E+01  0.7957747E-01            NaN
         13   -1    0    0    0    0  0.00000000000E+00  0.00000000000E+00  0.74505805969E-08  0.10566000000E+00  0.10566000000E+00 0.  1.
     999900   -1    0    0    0    0 -0.00000000000E+00 -0.00000000000E+00 -0.74505805969E-08  0.93827000000E+00  0.93827000000E+00 0.  1.
     999902    2    1    2    0    0 -0.13628683004E-02 -0.18966984814E-01 -0.13790080063E-01  0.10204402101E+01  0.10201698153E+01 0.  0.
     999903    2    3    3    0    0  0.41230534360E-01  0.80644893773E-01 -0.91733583023E-01  0.13037733928E+00  0.19484467849E-01 0.  0.
         14    1    1    2    0    0  0.13628683004E-02  0.18966984814E-01  0.13790080063E-01  0.23489789933E-01  0.00000000000E+00 0.  1.
     999901    1    3    3    0    0 -0.42593402660E-01 -0.99611878588E-01  0.77943502960E-01  0.89006287079E+00  0.88000000000E+00 0. -1.
        -11    1    4    4    0    0  0.19439775953E-01  0.46078795040E-01 -0.62918501681E-01  0.80375115653E-01  0.51100000000E-03 0. -1.
         11    1    4    4    0    0  0.21790758407E-01  0.34566098734E-01 -0.28815081342E-01  0.50002223624E-01  0.51100000000E-03 0.  1.
</event>
<event>
 8    1  0.1065239E+005  0.1043930E+01  0.7957747E-01            NaN
         13   -1    0    0    0    0  0.00000000000E+00  0.00000000000E+00  0.74505805969E-08  0.10566000000E+00  0.10566000000E+00 0. -1.
     999900   -1    0    0    0    0 -0.00000000000E+00 -0.00000000000E+00 -0.74505805969E-08  0.93827000000E+00  0.93827000000E+00 0. -1.
     999902    2    1    2    0    0 -0.13065268471E-01  0.10166002128E-01  0.17388171502E-01  0.10199217234E+01  0.10196391148E+01 0.  0.
     999903    2    3    3    0    0 -0.72197204974E-01  0.89491137955E-01 -0.60275335599E-01  0.13097814616E+00  0.17351037785E-01 0.  0.
         14    1    1    2    0    0  0.13065268471E-01 -0.10166002128E-01 -0.17388171502E-01  0.24008276649E-01  0.00000000000E+00 0.  1.
     999901    1    3    3    0    0  0.59131936503E-01 -0.79325135827E-01  0.77663507101E-01  0.88894357719E+00  0.88000000000E+00 0.  1.
        -11    1    4    4    0    0  0.75131405346E-03  0.24446135927E-02 -0.22312456692E-02  0.34322276528E-02  0.51100000000E-03 0.  1.
         11    1    4    4    0    0 -0.72948519028E-01  0.87046524362E-01 -0.58044089930E-01  0.12754591851E+00  0.51100000000E-03 0. -1.
</event>
<event>
 8    1  0.1065239E+005  0.1043930E+01  0.7957747E-01            NaN
         13   -1    0    0    0    0  0.00000000000E+00  0.00000000000E+00  0.74505805969E-08  0.10566000000E+00  0.10566000000E+00 0.  1.
     999900   -1    0    0    0    0 -0.00000000000E+00 -0.00000000000E+00 -0.74505805969E-08  0.93827000000E+00  0.93827000000E+00 0. -1.
     999902    2    1    2    0    0 -0.79688133830E-03  0.23051561954E-01  0.67333436048E-02  0.10199019446E+01  0.10196188647E+01 0.  0.
     999903    2    3    3    0    0 -0.58880325585E-01 -0.34230410183E-01 -0.10742389300E+00  0.12878647204E+00  0.20185362834E-01 0.  0.
         14    1    1    2    0    0  0.79688133830E-03 -0.23051561954E-01 -0.67333436048E-02  0.24028055362E-01  0.00000000000E+00 0.  1.
     999901    1    3    3    0    0  0.58083444247E-01  0.57281972137E-01  0.11415723660E+00  0.89111547259E+00  0.88000000000E+00 0. -1.
        -11    1    4    4    0    0 -0.12579144511E-01 -0.76336754790E-02 -0.40977986123E-01  0.43542672697E-01  0.51100000000E-03 0.  1.
         11    1    4    4    0    0 -0.46301181074E-01 -0.26596734704E-01 -0.66445906874E-01  0.85243799347E-01  0.51100000000E-03 0. -1.
</event>
<event>
 8    1  0.1065239E+005  0.1043930E+01  0.7957747E-01            NaN
         13   -1    0    0    0    0  0.00000000000E+00  0.00000000000E+00  0.74505805969E-08  0.10566000000E+00  0.10566000000E+00 0.  1.
     999900   -1    0    0    0    0 -0.00000000000E+00 -0.00000000000E+00 -0.74505805969E-08  0.93827000000E+00  0.93827000000E+00 0. -1.
     999902    2    1    2    0    0  0.10958435362E-01  0.17122756464E-01 -0.11269188997E-01  0.10206862758E+01  0.10204215810E+01 0.  0.
     999903    2    3    3    0    0 -0.30855464308E-01 -0.81320530886E-01  0.92065966621E-01  0.12820790775E+00  0.19900677845E-01 0.  0.
         14    1    1    2    0    0 -0.10958435362E-01 -0.17122756464E-01  0.11269188997E-01  0.23243724210E-01  0.00000000000E+00 0. -1.
     999901    1    3    3    0    0  0.41813899670E-01  0.98443287350E-01 -0.10333515562E+00  0.89247836804E+00  0.88000000000E+00 0. -1.
        -11    1    4    4    0    0 -0.34529386491E-02 -0.35208202477E-01  0.32413610685E-01  0.47983784611E-01  0.51100000000E-03 0.  1.
         11    1    4    4    0    0 -0.27402525659E-01 -0.46112328410E-01  0.59652355937E-01  0.80224123141E-01  0.51100000000E-03 0. -1.
</event>
<event>
 8    1  0.1065239E+005  0.1043930E+01  0.7957747E-01            NaN
         13   -1    0    0    0    0  0.00000000000E+00  0.00000000000E+00  0.74505805969E-08  0.10566000000E+00  0.10566000000E+00 0. -1.
     999900   -1    0    0    0    0 -0.00000000000E+00 -0.00000000000E+00 -0.74505805969E-08  0.93827000000E+00  0.93827000000E+00 0.  1.
     999902    2    1    2    0    0  0.22164589767E-01  0.57087203809E-02 -0.22383075734E-02  0.10209328578E+01  0.10206738125E+01 0.  0.
     999903    2    3    3    0    0 -0.76934898496E-01  0.47386625289E-01  0.90861515201E-01  0.12951526020E+00  0.18812677052E-01 0.  0.
         14    1    1    2    0    0 -0.22164589767E-01 -0.57087203809E-02  0.22383075734E-02  0.22997142186E-01  0.00000000000E+00 0. -1.
     999901    1    3    3    0    0  0.99099488263E-01 -0.41677904908E-01 -0.93099822774E-01  0.89141759761E+00  0.88000000000E+00 0.  1.
        -11    1    4    4    0    0 -0.15543210583E-01  0.11962541162E-01  0.31255838719E-01  0.36903690348E-01  0.51100000000E-03 0.  1.
         11    1    4    4    0    0 -0.61391687913E-01  0.35424084127E-01  0.59605676482E-01  0.92611569854E-01  0.51100000000E-03 0. -1.
</event>
<event>
 8    1  0.1065239E+005  0.1043930E+01  0.7957747E-01            NaN
         13   -1    0    0    0    0  0.00000000000E+00  0.00000000000E+00  0.74505805969E-08  0.10566000000E+00  0.10566000000E+00 0. -1.
     999900   -1    0    0    0    0 -0.00000000000E+00 -0.00000000000E+00 -0.74505805969E-08  0.93827000000E+00  0.93827000000E+00 0. -1.
     999902    2    1    2    0    0 -0.14211360924E-02 -0.26622774600E-02 -0.23341371716E-01  0.10203943466E+01  0.10201228826E+01 0.  0.
     999903    2    3    3    0    0 -0.22351348763E-01  0.10076244223E+00  0.74088904934E-01  0.12875125359E+00  0.20858257609E-01 0.  0.
         14    1    1    2    0    0  0.14211360924E-02  0.26622774600E-02  0.23341371716E-01  0.23535653436E-01  0.00000000000E+00 0. -1.
     999901    1    3    3    0    0  0.20930212671E-01 -0.10342471969E+00 -0.97430276650E-01  0.89164309298E+00  0.88000000000E+00 0. -1.
        -11    1    4    4    0    0  0.30118321395E-02  0.26664046986E-01  0.16070977871E-01  0.31282263109E-01  0.51100000000E-03 0.  1.
         11    1    4    4    0    0 -0.25363180903E-01  0.74098395243E-01  0.58017927063E-01  0.97468990478E-01  0.51100000000E-03 0. -1.
</event>
<event>
 8    1  0.1065239E+005  0.1043930E+01  0.7957747E-01            NaN
         13   -1    0    0    0    0  0.00000000000E+00  0.00000000000E+00  0.74505805969E-08  0.10566000000E+00  0.10566000000E+00 0. -1.
     999900   -1    0    0    0    0 -0.00000000000E+00 -0.00000000000E+00 -0.74505805969E-08  0.93827000000E+00  0.93827000000E+00 0.  1.
     999902    2    1    2    0    0 -0.92409306579E-03 -0.20520074909E-01  0.12075127700E-01  0.10201027859E+01  0.10198244740E+01 0.  0.
     999903    2    3    3    0    0 -0.18684436989E-01 -0.26002556411E-02 -0.12571600111E+00  0.12902313464E+00  0.22058713040E-01 0.  0.
         14    1    1    2    0    0  0.92409306579E-03  0.20520074909E-01 -0.12075127700E-01  0.23827214088E-01  0.00000000000E+00 0.  1.
     999901    1    3    3    0    0  0.17760343923E-01 -0.17919819267E-01  0.13779112881E+00  0.89107965128E+00  0.88000000000E+00 0. -1.
        -11    1    4    4    0    0 -0.21086728985E-01  0.43459821797E-02 -0.88267820517E-01  0.90857068852E-01  0.51100000000E-03 0.  1.
         11    1    4    4    0    0  0.24022919961E-02 -0.69462378208E-02 -0.37448180593E-01  0.38166065784E-01  0.51100000000E-03 0. -1.
</event>
<event>
 8    1  0.1065239E+005  0.1043930E+01  0.7957747E-01            NaN
         13   -1    0    0    0    0  0.00000000000E+00  0.00000000000E+00  0.74505805969E-08  0.10566000000E+00  0.10566000000E+00 0. -1.
     999900   -1    0    0    0    0 -0.00000000000E+00 -0.00000000000E+00 -0.74505805969E-08  0.93827000000E+00  0.93827000000E+00 0.  1.
     999902    2    1    2    0    0  0.16440296717E-01  0.41031259744E-02 -0.17562010751E-01  0.10195262458E+01  0.10192341353E+01 0.  0.
     999903    2    3    3    0    0 -0.35404608358E-01  0.40192297067E-01  0.11523221810E+00  0.12732412200E+00  0.80038064553E-02 0.  0.
         14    1    1    2    0    0 -0.16440296717E-01 -0.41031259744E-02  0.17562010751E-01  0.24403754230E-01  0.00000000000E+00 0. -1.
     999901    1    3    3    0    0  0.51844905075E-01 -0.36089171093E-01 -0.13279422885E+00  0.89220212377E+00  0.88000000000E+00 0.  1.
        -11    1    4    4    0    0 -0.52813040467E-02  0.10450337303E-01  0.21891396784E-01  0.24831353091E-01  0.51100000000E-03 0. -1.
         11    1    4    4    0    0 -0.30123304311E-01  0.29741959764E-01  0.93340821313E-01  0.10249276890E+00  0.51100000000E-03 0.  1.
</event>
<event>
 8    1  0.1065239E+005  0.1043930E+01  0.7957747E-01            NaN
         13   -1    0    0    0    0  0.00000000000E+00  0.00000000000E+00  0.74505805969E-08  0.10566000000E+00  0.10566000000E+00 0. -1.
     999900   -1    0    0    0    0 -0.00000000000E+00 -0.00000000000E+00 -0.74505805969E-08  0.93827000000E+00  0.93827000000E+00 0.  1.
     999902    2    1    2    0    0  0.21024205670E-01  0.12213858852E-02 -0.11232217311E-01  0.10200622034E+01  0.10197829314E+01 0.  0.
     999903    2    3    3    0    0 -0.71879342572E-01 -0.79641721852E-01 -0.66836738851E-01  0.12974665583E+00  0.29284830404E-01 0.  0.
         14    1    1    2    0    0 -0.21024205670E-01 -0.12213858852E-02  0.11232217311E-01  0.23867796574E-01  0.00000000000E+00 0. -1.
     999901    1    3    3    0    0  0.92903548243E-01  0.80863107737E-01  0.55604521539E-01  0.89031554759E+00  0.88000000000E+00 0.  1.
        -11    1    4    4    0    0 -0.11944556454E-01 -0.96039224750E-02  0.88616059084E-03  0.15360799373E-01  0.51100000000E-03 0. -1.
         11    1    4    4    0    0 -0.59934786119E-01 -0.70037799377E-01 -0.67722899441E-01  0.11438585646E+00  0.51100000000E-03 0.  1.
</event>
<event>
 8    1  0.1065239E+005  0.1043930E+01  0.7957747E-01            NaN
         13   -1    0    0    0    0  0.00000000000E+00  0.00000000000E+00  0.74505805969E-08  0.10566000000E+00  0.10566000000E+00 0. -1.
     999900   -1    0    0    0    0 -0.00000000000E+00 -0.00000000000E+00 -0.74505805969E-08  0.93827000000E+00  0.93827000000E+00 0. -1.
     999902    2    1    2    0    0  0.22600782631E-01 -0.48396447229E-02 -0.47660599082E-02  0.10203305749E+01  0.10200576206E+01 0.  0.
     999903    2    3    3    0    0  0.11497709348E+00  0.21521456252E-01  0.59586079553E-01  0.13276678100E+00  0.19839661194E-01 0.  0.
         14    1    1    2    0    0 -0.22600782631E-01  0.48396447229E-02  0.47660599082E-02  0.23599425070E-01  0.00000000000E+00 0. -1.
     999901    1    3    3    0    0 -0.92376310844E-01 -0.26361100975E-01 -0.64352139461E-01  0.88756379393E+00  0.88000000000E+00 0. -1.
        -11    1    4    4    0    0  0.65163679675E-01  0.91321291255E-02  0.22906800394E-01  0.69675559247E-01  0.51100000000E-03 0. -1.
         11    1    4    4    0    0  0.49813413800E-01  0.12389327127E-01  0.36679279159E-01  0.63091221749E-01  0.51100000000E-03 0.  1.
</event>
<event>
 8    1  0.1065239E+005  0.1043930E+01  0.7957747E-01            NaN
         13   -1    0    0    0    0  0.00000000000E+00  0.00000000000E+00  0.74505805969E-08  0.10566000000E+00  0.10566000000E+00 0. -1.
     999900   -1    0    0    0    0 -0.00000000000E+00 -0.00000000000E+00 -0.74505805969E-08  0.93827000000E+00  0.93827000000E+00 0.  1.
     999902    2    1    2    0    0 -0.22867307970E-01  0.55074221095E-02 -0.63081648203E-02  0.10195776199E+01  0.10192867529E+01 0.  0.
     999903    2    3    3    0    0 -0.46566002788E-01 -0.54924192507E-01  0.10634128234E+00  0.13002520093E+00  0.20323016776E-01 0.  0.
         14    1    1    2    0    0  0.22867307970E-01 -0.55074221095E-02  0.63081648203E-02  0.24352380078E-01  0.00000000000E+00 0. -1.
     999901    1    3    3    0    0  0.23698694818E-01  0.60431614617E-01 -0.11264944716E+00  0.88955241899E+00  0.88000000000E+00 0.  1.
        -11    1    4    4    0    0 -0.17530388356E-01 -0.32779565523E-01  0.42403605004E-01  0.56392741289E-01  0.51100000000E-03 0.  1.
         11    1    4    4    0    0 -0.29035614432E-01 -0.22144626984E-01  0.63937677333E-01  0.73632459645E-01  0.51100000000E-03 0. -1.
</event>
<event>
 8    1  0.1065239E+005  0.1043930E+01  0.7957747E-01            NaN
         13   -1    0    0    0    0  0.00000000000E+00  0.00000000000E+00  0.74505805969E-08  0.10566000000E+00  0.10566000000E+00 0. -1.
     999900   -1    0    0    0    0 -0.00000000000E+00 -0.00000000000E+00 -0.74505805969E-08  0.93827000000E+00  0.93827000000E+00 0.  1.
     999902    2    1    2    0    0 -0.36084288032E-02 -0.21973825469E-01  0.71282946293E-02  0.10205487608E+01  0.10202808882E+01 0.  0.
     999903    2    3    3    0    0 -0.75904883956E-01  0.26956649191E-01 -0.10006314355E+00  0.12975643187E+00  0.18327208483E-01 0.  0.
         14    1    1    2    0    0  0.36084288032E-02  0.21973825469E-01 -0.71282946293E-02  0.23381239242E-01  0.00000000000E+00 0.  1.
     999901    1    3    3    0    0  0.72296455153E-01 -0.48930474660E-01  0.10719143818E+00  0.89079232888E+00  0.88000000000E+00 0. -1.
        -11    1    4    4    0    0 -0.19267631714E-01  0.15382281033E-01 -0.33421114204E-01  0.41534181071E-01  0.51100000000E-03 0. -1.
         11    1    4    4    0    0 -0.56637252242E-01  0.11574368158E-01 -0.66642029350E-01  0.88222250803E-01  0.51100000000E-03 0.  1.
</event>
<event>
 8    1  0.1065239E+005  0.1043930E+01  0.7957747E-01            NaN
         13   -1    0    0    0    0  0.00000000000E+00  0.00000000000E+00  0.74505805969E-08  0.10566000000E+00  0.10566000000E+00 0.  1.
     999900   -1    0    0    0    0 -0.00000000000E+00 -0.00000000000E+00 -0.74505805969E-08  0.93827000000E+00  0.93827000000E+00 0. -1.
     999902    2    1    2    0    0  0.52806315054E-02 -0.85763669335E-02  0.19568070138E-01  0.10219220808E+01  0.10216850741E+01 0.  0.
     999903    2    3    3    0    0 -0.10755218268E+00 -0.49075154726E-01  0.57700992647E-01  0.13297578571E+00  0.19424526309E-01 0.  0.
         14    1    1    2    0    0 -0.52806315054E-02  0.85763669335E-02 -0.19568070138E-01  0.22007919207E-01  0.00000000000E+00 0. -1.
     999901    1    3    3    0    0  0.11283281418E+00  0.40498787793E-01 -0.38132922508E-01  0.88894629509E+00  0.88000000000E+00 0. -1.
        -11    1    4    4    0    0 -0.62547801847E-01 -0.20849637707E-01  0.24551118221E-01  0.70355905476E-01  0.51100000000E-03 0.  1.
         11    1    4    4    0    0 -0.45004380829E-01 -0.28225517019E-01  0.33149874426E-01  0.62619880231E-01  0.51100000000E-03 0. -1.
</event>
<event>
 8    1  0.1065239E+005  0.1043930E+01  0.7957747E-01            NaN
         13   -1    0    0    0    0  0.00000000000E+00  0.00000000000E+00  0.74505805969E-08  0.10566000000E+00  0.10566000000E+00 0.  1.
     999900   -1    0    0    0    0 -0.00000000000E+00 -0.00000000000E+00 -0.74505805969E-08  0.93827000000E+00  0.93827000000E+00 0.  1.
     999902    2    1    2    0    0 -0.10286199155E-01  0.17460100212E-01  0.11799654127E-01  0.10204802062E+01  0.10202107421E+01 0.  0.
     999903    2    3    3    0    0  0.82282464246E-01 -0.93961033780E-01 -0.20095049233E-01  0.12806724200E+00  0.19958148161E-01 0.  0.
         14    1    1    2    0    0  0.10286199155E-01 -0.17460100212E-01 -0.11799654127E-01  0.23449793816E-01  0.00000000000E+00 0. -1.
     999901    1    3    3    0    0 -0.92568663401E-01  0.11142113399E+00  0.31894703360E-01  0.89241296419E+00  0.88000000000E+00 0.  1.
        -11    1    4    4    0    0  0.46524444081E-01 -0.60554367045E-01 -0.36940904795E-02  0.76454317672E-01  0.51100000000E-03 0. -1.
         11    1    4    4    0    0  0.35758020165E-01 -0.33406666735E-01 -0.16400958754E-01  0.51612924326E-01  0.51100000000E-03 0.  1.
</event>
<event>
 8    1  0.1065239E+005  0.1043930E+01  0.7957747E-01            NaN
         13   -1    0    0    0    0  0.00000000000E+00  0.00000000000E+00  0.74505805969E-08  0.10566000000E+00  0.10566000000E+00 0. -1.
     999900   -1    0    0    0    0 -0.00000000000E+00 -0.00000000000E+00 -0.74505805969E-08  0.93827000000E+00  0.93827000000E+00 0. -1.
     999902    2    1    2    0    0 -0.22514779282E-01  0.65976916545E-02  0.27722266891E-02  0.10203052236E+01  0.10200316756E+01 0.  0.
     999903    2    3    3    0    0 -0.93035357975E-01  0.66941931999E-01 -0.64176786866E-01  0.13289508738E+00  0.20140610348E-01 0.  0.
         14    1    1    2    0    0  0.22514779282E-01 -0.65976916545E-02 -0.27722266891E-02  0.23624776445E-01  0.00000000000E+00 0.  1.
     999901    1    3    3    0    0  0.70520578693E-01 -0.60344240344E-01  0.66949013555E-01  0.88741013617E+00  0.88000000000E+00 0. -1.
        -11    1    4    4    0    0 -0.19182854391E-01  0.71595269663E-02 -0.54531765851E-02  0.21195258546E-01  0.51100000000E-03 0. -1.
         11    1    4    4    0    0 -0.73852503584E-01  0.59782405033E-01 -0.58723610280E-01  0.11169982884E+00  0.51100000000E-03 0.  1.
</event>
<event>
 8    1  0.1065239E+005  0.1043930E+01  0.7957747E-01            NaN
         13   -1    0    0    0    0  0.00000000000E+00  0.00000000000E+00  0.74505805969E-08  0.10566000000E+00  0.10566000000E+00 0.  1.
     999900   -1    0    0    0    0 -0.00000000000E+00 -0.00000000000E+00 -0.74505805969E-08  0.93827000000E+00  0.93827000000E+00 0.  1.
     999902    2    1    2    0    0  0.11783430565E-01  0.20145169403E-01 -0.49008812283E-02  0.10200826579E+01  0.10198038700E+01 0.  0.
     999903    2    3    3    0    0 -0.32540291997E-02 -0.11070768203E+00 -0.60652750373E-01  0.12853520277E+00  0.23995054855E-01 0.  0.
         14    1    1    2    0    0 -0.11783430565E-01 -0.20145169403E-01  0.49008812283E-02  0.23847342052E-01  0.00000000000E+00 0. -1.
     999901    1    3    3    0    0  0.15037459764E-01  0.13085285143E+00  0.55751869145E-01  0.89154745518E+00  0.88000000000E+00 0. -1.
        -11    1    4    4    0    0 -0.10493270031E-01 -0.67404498201E-01 -0.45872287370E-01  0.82207073682E-01  0.51100000000E-03 0.  1.
         11    1    4    4    0    0  0.72392408318E-02 -0.43303183824E-01 -0.14780463002E-01  0.46328129087E-01  0.51100000000E-03 0. -1.
</event>
<event>
 8    1  0.1065239E+005  0.1043930E+01  0.7957747E-01            NaN
         13   -1    0    0    0    0  0.00000000000E+00  0.00000000000E+00  0.74505805969E-08  0.10566000000E+00  0.10566000000E+00 0.  1.
     999900   -1    0    0    0    0 -0.00000000000E+00 -0.00000000000E+00 -0.74505805969E-08  0.93827000000E+00  0.93827000000E+00 0.  1.
     999902    2    1    2    0    0  0.67361901799E-02  0.69633268107E-02 -0.39859595431E-02  0.10334537386E+01  0.10334006376E+01 0.  0.
     999903    2    3    3    0    0  0.17600697383E-01 -0.17279374299E-01 -0.13913740651E+00  0.14273960960E+00  0.20174660659E-01 0.  0.
         14    1    1    2    0    0 -0.67361901799E-02 -0.69633268107E-02  0.39859595431E-02  0.10476261351E-01  0.00000000000E+00 0.  1.
     999901    1    3    3    0    0 -0.10864507203E-01  0.24242701110E-01  0.13515144697E+00  0.89071412905E+00  0.88000000000E+00 0. -1.
        -11    1    4    4    0    0  0.80054020879E-02 -0.19758349764E-01 -0.10702799302E+00  0.10913171519E+00  0.51100000000E-03 0. -1.
         11    1    4    4    0    0  0.95952952953E-02  0.24789754652E-02 -0.32109413488E-01  0.33607894410E-01  0.51100000000E-03 0.  1.
</event>
<event>
 8    1  0.1065239E+005  0.1043930E+01  0.7957747E-01            NaN
         13   -1    0    0    0    0  0.00000000000E+00  0.00000000000E+00  0.74505805969E-08  0.10566000000E+00  0.10566000000E+00 0. -1.
     999900   -1    0    0    0    0 -0.00000000000E+00 -0.00000000000E+00 -0.74505805969E-08  0.93827000000E+00  0.93827000000E+00 0. -1.
     999902    2    1    2    0    0  0.19087317278E-01 -0.11312759298E-01  0.29199583118E-02  0.10215507605E+01  0.10213055987E+01 0.  0.
     999903    2    3    3    0    0 -0.35053601116E-01  0.67204803653E-01  0.10443992013E+00  0.13059478551E+00  0.20051446318E-01 0.  0.
         14    1    1    2    0    0 -0.19087317278E-01  0.11312759298E-01 -0.29199583118E-02  0.22379239494E-01  0.00000000000E+00 0. -1.
     999901    1    3    3    0    0  0.54140918394E-01 -0.78517562951E-01 -0.10151996182E+00  0.89095597500E+00  0.88000000000E+00 0.  1.
        -11    1    4    4    0    0 -0.67711106559E-02  0.33662221307E-01  0.41413739646E-01  0.53799182478E-01  0.51100000000E-03 0. -1.
         11    1    4    4    0    0 -0.28282490460E-01  0.33542582346E-01  0.63026180486E-01  0.76795603030E-01  0.51100000000E-03 0.  1.
</event>
<event>
 8    1  0.1065239E+005  0.1043930E+01  0.7957747E-01            NaN
         13   -1    0    0    0    0  0.00000000000E+00  0.00000000000E+00  0.74505805969E-08  0.10566000000E+00  0.10566000000E+00 0. -1.
     999900   -1    0    0    0    0 -0.00000000000E+00 -0.00000000000E+00 -0.74505805969E-08  0.93827000000E+00  0.93827000000E+00 0. -1.
     999902    2    1    2    0    0 -0.62778397885E-02 -0.22085817909E-01  0.54152517848E-02  0.10203393328E+01  0.10200665834E+01 0.  0.
     999903    2    3    3    0    0 -0.40151590064E-02  0.33869782424E-01 -0.12293667150E+00  0.12926674032E+00  0.20813007676E-01 0.  0.
         14    1    1    2    0    0  0.62778397885E-02  0.22085817909E-01 -0.54152517848E-02  0.23590667159E-01  0.00000000000E+00 0.  1.
     999901    1    3    3    0    0 -0.22626807821E-02 -0.55955600334E-01  0.12835192329E+00  0.89107259252E+00  0.88000000000E+00 0.  1.
        -11    1    4    4    0    0 -0.11892608321E-01  0.16501564128E-01 -0.52898862881E-01  0.56677037383E-01  0.51100000000E-03 0.  1.
         11    1    4    4    0    0  0.78774493148E-02  0.17368218297E-01 -0.70037808623E-01  0.72589702935E-01  0.51100000000E-03 0. -1.
</event>
<event>
 8    1  0.1065239E+005  0.1043930E+01  0.7957747E-01            NaN
         13   -1    0    0    0    0  0.00000000000E+00  0.00000000000E+00  0.74505805969E-08  0.10566000000E+00  0.10566000000E+00 0.  1.
     999900   -1    0    0    0    0 -0.00000000000E+00 -0.00000000000E+00 -0.74505805969E-08  0.93827000000E+00  0.93827000000E+00 0.  1.
     999902    2    1    2    0    0  0.15701837256E-01 -0.59059976638E-02 -0.16230016151E-01  0.10205881508E+01  0.10203211904E+01 0.  0.
     999903    2    3    3    0    0 -0.49328600020E-01 -0.29390646208E-01  0.11364228723E+00  0.12837332143E+00  0.16371296381E-01 0.  0.
         14    1    1    2    0    0 -0.15701837256E-01  0.59059976638E-02  0.16230016151E-01  0.23341849238E-01  0.00000000000E+00 0.  1.
     999901    1    3    3    0    0  0.65030437276E-01  0.23484648544E-01 -0.12987230338E+00  0.89221482933E+00  0.88000000000E+00 0.  1.
        -11    1    4    4    0    0 -0.32118639120E-01 -0.12875039567E-01  0.54016802534E-01  0.64151770823E-01  0.51100000000E-03 0. -1.
         11    1    4    4    0    0 -0.17209960900E-01 -0.16515606641E-01  0.59625484692E-01  0.64221550609E-01  0.51100000000E-03 0.  1.
</event>
<event>
 8    1  0.1065239E+005  0.1043930E+01  0.7957747E-01            NaN
         13   -1    0    0    0    0  0.00000000000E+00  0.00000000000E+00  0.74505805969E-08  0.10566000000E+00  0.10566000000E+00 0.  1.
     999900   -1    0    0    0    0 -0.00000000000E+00 -0.00000000000E+00 -0.74505805969E-08  0.93827000000E+00  0.93827000000E+00 0. -1.
     999902    2    1    2    0    0  0.13519723769E-01 -0.15687373094E-01 -0.11313690474E-01  0.10203317755E+01  0.10200588493E+01 0.  0.
     999903    2    3    3    0    0  0.27692542987E-02  0.98005616159E-01 -0.83382482761E-01  0.13003093918E+00  0.18510460436E-01 0.  0.
         14    1    1    2    0    0 -0.13519723769E-01  0.15687373094E-01  0.11313690474E-01  0.23598224457E-01  0.00000000000E+00 0.  1.
     999901    1    3    3    0    0  0.10750469470E-01 -0.11369298925E+00  0.72068792287E-01  0.89030083636E+00  0.88000000000E+00 0.  1.
        -11    1    4    4    0    0 -0.14566171056E-03  0.46846799742E-01 -0.28007763462E-01  0.54583328943E-01  0.51100000000E-03 0. -1.
         11    1    4    4    0    0  0.29149160092E-02  0.51158816417E-01 -0.55374719300E-01  0.75447610241E-01  0.51100000000E-03 0.  1.
</event>
<event>
 8    1  0.1065239E+005  0.1043930E+01  0.7957747E-01            NaN
         13   -1    0    0    0    0  0.00000000000E+00  0.00000000000E+00  0.74505805969E-08  0.10566000000E+00  0.10566000000E+00 0. -1.
     999900   -1    0    0    0    0 -0.00000000000E+00 -0.00000000000E+00 -0.74505805969E-08  0.93827000000E+00  0.93827000000E+00 0.  1.
     999902    2    1    2    0    0 -0.12073079818E-01  0.20819622339E-01  0.42226754936E-02  0.10194954564E+01  0.10192025995E+01 0.  0.
     999903    2    3    3    0    0 -0.39570672414E-01 -0.10416368403E+00  0.60275921295E-01  0.12847418238E+00  0.21366273952E-01 0.  0.
         14    1    1    2    0    0  0.12073079818E-01 -0.20819622339E-01 -0.42226754936E-02  0.24434543559E-01  0.00000000000E+00 0. -1.
     999901    1    3    3    0    0  0.27497592596E-01  0.12498330637E+00 -0.56053245801E-01  0.89102127406E+00  0.88000000000E+00 0.  1.
        -11    1    4    4    0    0 -0.20088119964E-01 -0.28205998987E-01  0.13535627508E-01  0.37183131600E-01  0.51100000000E-03 0. -1.
         11    1    4    4    0    0 -0.19482552451E-01 -0.75957685046E-01  0.46740293787E-01  0.91291050777E-01  0.51100000000E-03 0.  1.
</event>
<event>
 8    1  0.1065239E+005  0.1043930E+01  0.7957747E-01            NaN
         13   -1    0    0    0    0  0.00000000000E+00  0.00000000000E+00  0.74505805969E-08  0.10566000000E+00  0.10566000000E+00 0. -1.
     999900   -1    0    0    0    0 -0.00000000000E+00 -0.00000000000E+00 -0.74505805969E-08  0.93827000000E+00  0.93827000000E+00 0.  1.
     999902    2    1    2    0    0  0.12889794820E-01 -0.13718125025E-01 -0.15179903343E-01  0.10197481219E+01  0.10194613621E+01 0.  0.
     999903    2    3    3    0    0  0.52490310189E-02  0.11437926116E+00 -0.57371432128E-01  0.12944062065E+00  0.18794290093E-01 0.  0.
         14    1    1    2    0    0 -0.12889794820E-01  0.13718125025E-01  0.15179903343E-01  0.24181878137E-01  0.00000000000E+00 0. -1.
     999901    1    3    3    0    0  0.76407638012E-02 -0.12809738618E+00  0.42191528785E-01  0.89030750121E+00  0.88000000000E+00 0. -1.
        -11    1    4    4    0    0  0.32613839686E-02  0.58301091948E-01 -0.18796522797E-01  0.61345124811E-01  0.51100000000E-03 0.  1.
         11    1    4    4    0    0  0.19876470503E-02  0.56078169208E-01 -0.38574909331E-01  0.68095495838E-01  0.51100000000E-03 0. -1.
</event>
<event>
 8    1  0.1065239E+005  0.1043930E+01  0.7957747E-01            NaN
         13   -1    0    0    0    0  0.00000000000E+00  0.00000000000E+00  0.74505805969E-08  0.10566000000E+00  0.10566000000E+00 0. -1.
     999900   -1    0    0    0    0 -0.00000000000E+00 -0.00000000000E+00 -0.74505805969E-08  0.93827000000E+00  0.93827000000E+00 0.  1.
     999902    2    1    2    0    0 -0.13292243509E-01  0.12649273844E-01 -0.14216459316E-01  0.10207180293E+01  0.10204540655E+01 0.  0.
     999903    2    3    3    0    0 -0.57577114561E-01  0.35600966279E-01  0.10981430760E+00  0.13062165190E+00  0.20500752910E-01 0.  0.
         14    1    1    2    0    0  0.13292243509E-01 -0.12649273844E-01  0.14216459316E-01  0.23211970657E-01  0.00000000000E+00 0.  1.
     999901    1    3    3    0    0  0.44284871052E-01 -0.22951692434E-01 -0.12403076692E+00  0.89009637744E+00  0.88000000000E+00 0.  1.
        -11    1    4    4    0    0 -0.26988799629E-01  0.14666712422E-01  0.68743717307E-01  0.75295866745E-01  0.51100000000E-03 0.  1.
         11    1    4    4    0    0 -0.30588314931E-01  0.20934253856E-01  0.41070590298E-01  0.55325785158E-01  0.51100000000E-03 0. -1.
</event>
<event>
 8    1  0.1065239E+005  0.1043930E+01  0.7957747E-01            NaN
         13   -1    0    0    0    0  0.00000000000E+00  0.00000000000E+00  0.74505805969E-08  0.10566000000E+00  0.10566000000E+00 0.  1.
     999900   -1    0    0    0    0 -0.00000000000E+00 -0.00000000000E+00 -0.74505805969E-08  0.93827000000E+00  0.93827000000E+00 0.  1.
     999902    2    1    2    0    0  0.10346006370E-01 -0.22523425400E-01  0.42806075214E-02  0.10187771047E+01  0.10184665537E+01 0.  0.
     999903    2    3    3    0    0  0.10171977038E+00 -0.80346381629E-01 -0.11669017035E-01  0.13201498920E+00  0.22121001052E-01 0.  0.
         14    1    1    2    0    0 -0.10346006370E-01  0.22523425400E-01 -0.42806075214E-02  0.25152895267E-01  0.00000000000E+00 0. -1.
     999901    1    3    3    0    0 -0.91373764014E-01  0.57822956229E-01  0.15949624556E-01  0.88676211553E+00  0.88000000000E+00 0.  1.
        -11    1    4    4    0    0  0.78828822277E-01 -0.55342333192E-01 -0.49873134504E-03  0.96318569957E-01  0.51100000000E-03 0.  1.
         11    1    4    4    0    0  0.22890948108E-01 -0.25004048437E-01 -0.11170285690E-01  0.35696419245E-01  0.51100000000E-03 0. -1.
</event>
<event>
 8    1  0.1065239E+005  0.1043930E+01  0.7957747E-01            NaN
         13   -1    0    0    0    0  0.00000000000E+00  0.00000000000E+00  0.74505805969E-08  0.10566000000E+00  0.10566000000E+00 0. -1.
     999900   -1    0    0    0    0 -0.00000000000E+00 -0.00000000000E+00 -0.74505805969E-08  0.93827000000E+00  0.93827000000E+00 0.  1.
     999902    2    1    2    0    0  0.38523017899E-02  0.23915714011E-01  0.74344610776E-03  0.10196946061E+01  0.10194065604E+01 0.  0.
     999903    2    3    3    0    0  0.91331186536E-01  0.89851239166E-02 -0.90583574960E-01  0.13052864713E+00  0.20254026353E-01 0.  0.
         14    1    1    2    0    0 -0.38523017899E-02 -0.23915714011E-01 -0.74344610776E-03  0.24235393908E-01  0.00000000000E+00 0.  1.
     999901    1    3    3    0    0 -0.87478884746E-01  0.14930590095E-01  0.91327021068E-01  0.88916595896E+00  0.88000000000E+00 0. -1.
        -11    1    4    4    0    0  0.19603405293E-01 -0.63490502193E-02 -0.20936549510E-01  0.29380336352E-01  0.51100000000E-03 0.  1.
         11    1    4    4    0    0  0.71727781243E-01  0.15334174136E-01 -0.69647025451E-01  0.10114831078E+00  0.51100000000E-03 0. -1.
</event>
<event>
 8    1  0.1065239E+005  0.1043930E+01  0.7957747E-01            NaN
         13   -1    0    0    0    0  0.00000000000E+00  0.00000000000E+00  0.74505805969E-08  0.10566000000E+00  0.10566000000E+00 0. -1.
     999900   -1    0    0    0    0 -0.00000000000E+00 -0.00000000000E+00 -0.74505805969E-08  0.93827000000E+00  0.93827000000E+00 0. -1.
     999902    2    1    2    0    0  0.97273302516E-02  0.32374672546E-02 -0.20646897343E-01  0.10208779607E+01  0.10206176630E+01 0.  0.
     999903    2    3    3    0    0  0.20361401128E-01  0.61079435261E-01 -0.11566850005E+00  0.13381094982E+00  0.19516257860E-01 0.  0.
         14    1    1    2    0    0 -0.97273302516E-02 -0.32374672546E-02  0.20646897343E-01  0.23052039344E-01  0.00000000000E+00 0. -1.
     999901    1    3    3    0    0 -0.10634070876E-01 -0.57841968006E-01  0.95021602708E-01  0.88706701083E+00  0.88000000000E+00 0.  1.
        -11    1    4    4    0    0  0.71752680850E-02  0.29051996893E-01 -0.35203040252E-01  0.46206256715E-01  0.51100000000E-03 0. -1.
         11    1    4    4    0    0  0.13186133043E-01  0.32027438368E-01 -0.80465459799E-01  0.87604693109E-01  0.51100000000E-03 0.  1.
</event>
<event>
 8    1  0.1065239E+005  0.1043930E+01  0.7957747E-01            NaN
         13   -1    0    0    0    0  0.00000000000E+00  0.00000000000E+00  0.74505805969E-08  0.10566000000E+00  0.10566000000E+00 0. -1.
     999900   -1    0    0    0    0 -0.00000000000E+00 -0.00000000000E+00 -0.74505805969E-08  0.93827000000E+00  0.93827000000E+00 0.  1.
     999902    2    1    2    0    0 -0.15004628597E-02  0.10069156334E-02  0.23736452682E-01  0.10201248650E+01  0.10198470747E+01 0.  0.
     999903    2    3    3    0    0  0.11747732395E+00 -0.31109227531E-01  0.45416634465E-01  0.13127325154E+00  0.20032229174E-01 0.  0.
         14    1    1    2    0    0  0.15004628597E-02 -0.10069156334E-02 -0.23736452682E-01  0.23805135031E-01  0.00000000000E+00 0.  1.
     999901    1    3    3    0    0 -0.11897778681E+00  0.32116143164E-01 -0.21680181783E-01  0.88885161342E+00  0.88000000000E+00 0. -1.
        -11    1    4    4    0    0  0.44749198312E-01 -0.23924488633E-02  0.19746823357E-01  0.48973592015E-01  0.51100000000E-03 0. -1.
         11    1    4    4    0    0  0.72728125635E-01 -0.28716778668E-01  0.25669811108E-01  0.82299659530E-01  0.51100000000E-03 0.  1.
</event>
<event>
 8    1  0.1065239E+005  0.1043930E+01  0.7957747E-01            NaN
         13   -1    0    0    0    0  0.00000000000E+00  0.00000000000E+00  0.74505805969E-08  0.10566000000E+00  0.10566000000E+00 0.  1.
     999900   -1    0    0    0    0 -0.00000000000E+00 -0.00000000000E+00 -0.74505805969E-08  0.93827000000E+00  0.93827000000E+00 0. -1.
     999902    2    1    2    0    0 -0.97969514764E-02 -0.17669680871E-01  0.11717271491E-01  0.10205742227E+01  0.10203069400E+01 0.  0.
     999903    2    3    3    0    0  0.38856246154E-01  0.40226540234E-01 -0.11451044444E+00  0.12835645654E+00  0.15321737678E-01 0.  0.
         14    1    1    2    0    0  0.97969514764E-02  0.17669680871E-01 -0.11717271491E-01  0.23355777262E-01  0.00000000000E+00 0. -1.
     999901    1    3    3    0    0 -0.48653197630E-01 -0.57896221105E-01  0.12622771593E+00  0.89221776620E+00  0.88000000000E+00 0. -1.
        -11    1    4    4    0    0  0.62650217757E-02  0.61646471550E-02 -0.33389115403E-01  0.34530385471E-01  0.51100000000E-03 0. -1.
         11    1    4    4    0    0  0.32591224378E-01  0.34061893079E-01 -0.81121329033E-01  0.93826071065E-01  0.51100000000E-03 0.  1.
</event>
<event>
 8    1  0.1065239E+005  0.1043930E+01  0.7957747E-01            NaN
         13   -1    0    0    0    0  0.00000000000E+00  0.00000000000E+00  0.74505805969E-08  0.10566000000E+00  0.10566000000E+00 0. -1.
     999900   -1    0    0    0    0 -0.00000000000E+00 -0.00000000000E+00 -0.74505805969E-08  0.93827000000E+00  0.93827000000E+00 0. -1.
     999902    2    1    2    0    0  0.59474776983E-02  0.11640792480E-01  0.20568369396E-01  0.10195591494E+01  0.10192678356E+01 0.  0.
     999903    2    3    3    0    0 -0.76858648921E-01 -0.97180867859E-01  0.29415651710E-01  0.12895413998E+00  0.20310506134E-01 0.  0.
         14    1    1    2    0    0 -0.59474776983E-02 -0.11640792480E-01 -0.20568369396E-01  0.24370850624E-01  0.00000000000E+00 0.  1.
     999901    1    3    3    0    0  0.82806126620E-01  0.10882166034E+00 -0.88472823135E-02  0.89060500940E+00  0.88000000000E+00 0.  1.
        -11    1    4    4    0    0 -0.69924870082E-01 -0.86987834322E-01  0.32483004326E-01  0.11624017149E+00  0.51100000000E-03 0. -1.
         11    1    4    4    0    0 -0.69337788394E-02 -0.10193033537E-01 -0.30673526162E-02  0.12713968490E-01  0.51100000000E-03 0.  1.
</event>
<event>
 8    1  0.1065239E+005  0.1043930E+01  0.7957747E-01            NaN
         13   -1    0    0    0    0  0.00000000000E+00  0.00000000000E+00  0.74505805969E-08  0.10566000000E+00  0.10566000000E+00 0.  1.
     999900   -1    0    0    0    0 -0.00000000000E+00 -0.00000000000E+00 -0.74505805969E-08  0.93827000000E+00  0.93827000000E+00 0.  1.
     999902    2    1    2    0    0 -0.22753776575E-01  0.16197492581E-01 -0.44662204146E-02  0.10156450174E+01  0.10152510828E+01 0.  0.
     999903    2    3    3    0    0  0.11223535005E+00 -0.13665503511E-01  0.45230176922E-01  0.12346589037E+00  0.20360191411E-01 0.  0.
         14    1    1    2    0    0  0.22753776575E-01 -0.16197492581E-01  0.44662204146E-02  0.28284982573E-01  0.00000000000E+00 0. -1.
     999901    1    3    3    0    0 -0.13498912662E+00  0.29862996092E-01 -0.49696397337E-01  0.89217912705E+00  0.88000000000E+00 0.  1.
        -11    1    4    4    0    0  0.62626551862E-01  0.25565262089E-02  0.25294299574E-01  0.67592037521E-01  0.51100000000E-03 0.  1.
         11    1    4    4    0    0  0.49608798188E-01 -0.16222029720E-01  0.19935877348E-01  0.55873852852E-01  0.51100000000E-03 0. -1.
</event>
<event>
 8    1  0.1065239E+005  0.1043930E+01  0.7957747E-01            NaN
         13   -1    0    0    0    0  0.00000000000E+00  0.00000000000E+00  0.74505805969E-08  0.10566000000E+00  0.10566000000E+00 0.  1.
     999900   -1    0    0    0    0 -0.00000000000E+00 -0.00000000000E+00 -0.74505805969E-08  0.93827000000E+00  0.93827000000E+00 0. -1.
     999902    2    1    2    0    0  0.30742650912E-02  0.20802481515E-01 -0.94138897550E-02  0.10208905629E+01  0.10206305530E+01 0.  0.
     999903    2    3    3    0    0  0.50893103784E-01 -0.74697383308E-01  0.89663548188E-01  0.12891343075E+00  0.20231501876E-01 0.  0.
         14    1    1    2    0    0 -0.30742650912E-02 -0.20802481515E-01  0.94138897550E-02  0.23039437131E-01  0.00000000000E+00 0.  1.
     999901    1    3    3    0    0 -0.47818838692E-01  0.95499864822E-01 -0.99077437943E-01  0.89197713212E+00  0.88000000000E+00 0. -1.
        -11    1    4    4    0    0  0.17217252025E-01 -0.35095072015E-01  0.27096257591E-01  0.47566439256E-01  0.51100000000E-03 0. -1.
         11    1    4    4    0    0  0.33675851759E-01 -0.39602311292E-01  0.62567290597E-01  0.81346991493E-01  0.51100000000E-03 0.  1.
</event>
<event>
 8    1  0.1086017E+005  0.1043930E+01  0.7957747E-01            NaN
         13   -1    0    0    0    0  0.00000000000E+00  0.00000000000E+00  0.74505805969E-08  0.10566000000E+00  0.10566000000E+00 0.  1.
     999900   -1    0    0    0    0 -0.00000000000E+00 -0.00000000000E+00 -0.74505805969E-08  0.93827000000E+00  0.93827000000E+00 0. -1.
     999902    2    1    2    0    0 -0.49902759359E-02 -0.73836470837E-02  0.22036524247E-01  0.10201596508E+01  0.10198826813E+01 0.  0.
     999903    2    3    3    0    0  0.30688599565E-01 -0.11193583806E+00  0.60579257596E-01  0.13241549564E+00  0.19814011483E-01 0.  0.
         14    1    1    2    0    0  0.49902759359E-02  0.73836470837E-02 -0.22036524247E-01  0.23770349158E-01  0.00000000000E+00 0. -1.
     999901    1    3    3    0    0 -0.35678875501E-01  0.10455219097E+00 -0.38542733348E-01  0.88774415520E+00  0.88000000000E+00 0. -1.
        -11    1    4    4    0    0  0.92464489454E-03 -0.37760984360E-01  0.21149238306E-01  0.43293167012E-01  0.51100000000E-03 0.  1.
         11    1    4    4    0    0  0.29763954671E-01 -0.74174853697E-01  0.39430019290E-01  0.89122328633E-01  0.51100000000E-03 0. -1.
</event>
<event>
 8    1  0.1065239E+005  0.1043930E+01  0.7957747E-01            NaN
         13   -1    0    0    0    0  0.00000000000E+00  0.00000000000E+00  0.74505805969E-08  0.10566000000E+00  0.10566000000E+00 0.  1.
     999900   -1    0    0    0    0 -0.00000000000E+00 -0.00000000000E+00 -0.74505805969E-08  0.93827000000E+00  0.93827000000E+00 0. -1.
     999902    2    1    2    0    0 -0.13193772629E-01  0.20030649396E-01 -0.37509813385E-02  0.10196530065E+01  0.10193639592E+01 0.  0.
     999903    2    3    3    0    0 -0.93300729870E-01 -0.74632258280E-01  0.46692365818E-01  0.12952789062E+00  0.17952639141E-01 0.  0.
         14    1    1    2    0    0  0.13193772629E-01 -0.20030649396E-01  0.37509813385E-02  0.24276993480E-01  0.00000000000E+00 0.  1.
     999901    1    3    3    0    0  0.80106957240E-01  0.94662907676E-01 -0.50443347156E-01  0.89012511590E+00  0.88000000000E+00 0. -1.
        -11    1    4    4    0    0 -0.31046995443E-01 -0.26583825499E-01  0.71212892489E-02  0.41492042439E-01  0.51100000000E-03 0. -1.
         11    1    4    4    0    0 -0.62253734426E-01 -0.48048432781E-01  0.39571076569E-01  0.88035848179E-01  0.51100000000E-03 0.  1.
</event>
<event>
 8    1  0.1065239E+005  0.1043930E+01  0.7957747E-01            NaN
         13   -1    0    0    0    0  0.00000000000E+00  0.00000000000E+00  0.74505805969E-08  0.10566000000E+00  0.10566000000E+00 0.  1.
     999900   -1    0    0    0    0 -0.00000000000E+00 -0.00000000000E+00 -0.74505805969E-08  0.93827000000E+00  0.93827000000E+00 0. -1.
     999902    2    1    2    0    0 -0.10753207205E-01  0.18201192014E-01  0.10942618871E-01  0.10201254676E+01  0.10198476915E+01 0.  0.
     999903    2    3    3    0    0  0.51716517476E-01  0.11962652656E+00 -0.78218725124E-02  0.13190158188E+00  0.18754774742E-01 0.  0.
         14    1    1    2    0    0  0.10753207205E-01 -0.18201192014E-01 -0.10942618871E-01  0.23804532419E-01  0.00000000000E+00 0.  1.
     999901    1    3    3    0    0 -0.62469724681E-01 -0.10142533455E+00  0.18764491383E-01  0.88822388570E+00  0.88000000000E+00 0. -1.
        -11    1    4    4    0    0  0.14785083088E-01  0.19839503920E-01  0.30905246442E-02  0.24940269872E-01  0.51100000000E-03 0. -1.
         11    1    4    4    0    0  0.36931434388E-01  0.99787022644E-01 -0.10912397157E-01  0.10696131201E+00  0.51100000000E-03 0.  1.
</event>
<event>
 8    1  0.1065239E+005  0.1043930E+01  0.7957747E-01            NaN
         13   -1    0    0    0    0  0.00000000000E+00  0.00000000000E+00  0.74505805969E-08  0.10566000000E+00  0.10566000000E+00 0. -1.
     999900   -1    0    0    0    0 -0.00000000000E+00 -0.00000000000E+00 -0.74505805969E-08  0.93827000000E+00  0.93827000000E+00 0.  1.
     999902    2    1    2    0    0 -0.19372367909E-01 -0.30246620280E-03 -0.13774193747E-01  0.10201579884E+01  0.10198809797E+01 0.  0.
     999903    2    3    3    0    0 -0.55820498389E-01 -0.41874251497E-01  0.10741410499E+00  0.13013367223E+00  0.22969582439E-01 0.  0.
         14    1    1    2    0    0  0.19372367909E-01  0.30246620280E-03  0.13774193747E-01  0.23772011644E-01  0.00000000000E+00 0. -1.
     999901    1    3    3    0    0  0.36448130480E-01  0.41571785294E-01 -0.12118829874E+00  0.89002431613E+00  0.88000000000E+00 0.  1.
        -11    1    4    4    0    0 -0.14603904010E-01 -0.24842420442E-01  0.44345411333E-01  0.52888528936E-01  0.51100000000E-03 0. -1.
         11    1    4    4    0    0 -0.41216594379E-01 -0.17031831055E-01  0.63068693659E-01  0.77245143292E-01  0.51100000000E-03 0.  1.
</event>
<event>
 8    1  0.1065239E+005  0.1043930E+01  0.7957747E-01            NaN
         13   -1    0    0    0    0  0.00000000000E+00  0.00000000000E+00  0.74505805969E-08  0.10566000000E+00  0.10566000000E+00 0.  1.
     999900   -1    0    0    0    0 -0.00000000000E+00 -0.00000000000E+00 -0.74505805969E-08  0.93827000000E+00  0.93827000000E+00 0.  1.
     999902    2    1    2    0    0  0.20482958278E-01 -0.71975122473E-02 -0.73751101864E-02  0.10210008044E+01  0.10207433049E+01 0.  0.
     999903    2    3    3    0    0  0.13090424619E+00  0.17485407173E-01  0.48319298231E-03  0.13372189654E+00  0.20967856450E-01 0.  0.
         14    1    1    2    0    0 -0.20482958278E-01  0.71975122473E-02  0.73751101864E-02  0.22929195639E-01  0.00000000000E+00 0. -1.
     999901    1    3    3    0    0 -0.11042128791E+00 -0.24682919420E-01 -0.78583031688E-02  0.88727890782E+00  0.88000000000E+00 0.  1.
        -11    1    4    4    0    0  0.60424371447E-01 -0.14212292090E-02  0.47069510654E-02  0.60626240743E-01  0.51100000000E-03 0. -1.
         11    1    4    4    0    0  0.70479874743E-01  0.18906636382E-01 -0.42237580831E-02  0.73095655798E-01  0.51100000000E-03 0.  1.
</event>
<event>
 8    1  0.1065239E+005  0.1043930E+01  0.7957747E-01            NaN
         13   -1    0    0    0    0  0.00000000000E+00  0.00000000000E+00  0.74505805969E-08  0.10566000000E+00  0.10566000000E+00 0. -1.
     999900   -1    0    0    0    0 -0.00000000000E+00 -0.00000000000E+00 -0.74505805969E-08  0.93827000000E+00  0.93827000000E+00 0.  1.
     999902    2    1    2    0    0 -0.23044417026E-01 -0.58580412264E-02  0.75741023335E-02  0.10189754648E+01  0.10186698528E+01 0.  0.
     999903    2    3    3    0    0 -0.89700662338E-01  0.19657002893E-01  0.92812688183E-01  0.13198071334E+00  0.19290075697E-01 0.  0.
         14    1    1    2    0    0  0.23044417026E-01  0.58580412264E-02 -0.75741023335E-02  0.24954535244E-01  0.00000000000E+00 0.  1.
     999901    1    3    3    0    0  0.66656245312E-01 -0.25515044119E-01 -0.85238585850E-01  0.88699475141E+00  0.88000000000E+00 0.  1.
        -11    1    4    4    0    0 -0.33304485444E-01  0.13343291128E-01  0.46478040264E-01  0.58717131372E-01  0.51100000000E-03 0. -1.
         11    1    4    4    0    0 -0.56396176894E-01  0.63137117653E-02  0.46334647919E-01  0.73263581972E-01  0.51100000000E-03 0.  1.
</event>
<event>
 8    1  0.1065239E+005  0.1043930E+01  0.7957747E-01            NaN
         13   -1    0    0    0    0  0.00000000000E+00  0.00000000000E+00  0.74505805969E-08  0.10566000000E+00  0.10566000000E+00 0.  1.
     999900   -1    0    0    0    0 -0.00000000000E+00 -0.00000000000E+00 -0.74505805969E-08  0.93827000000E+00  0.93827000000E+00 0.  1.
     999902    2    1    2    0    0 -0.20694512698E-01 -0.85523575419E-02  0.41757257127E-02  0.10211518886E+01  0.10208978094E+01 0.  0.
     999903    2    3    3    0    0  0.51289450521E-02 -0.12992360102E+00 -0.15363045644E-01  0.13223142345E+00  0.18511563836E-01 0.  0.
         14    1    1    2    0    0  0.20694512698E-01  0.85523575419E-02 -0.41757257127E-02  0.22778111436E-01  0.00000000000E+00 0. -1.
     999901    1    3    3    0    0 -0.25823457750E-01  0.12137124348E+00  0.19538771357E-01  0.88892046512E+00  0.88000000000E+00 0. -1.
        -11    1    4    4    0    0  0.89568540818E-03 -0.10137635259E+00 -0.47993011006E-02  0.10149513057E+00  0.51100000000E-03 0. -1.
         11    1    4    4    0    0  0.42332596439E-02 -0.28547248432E-01 -0.10563744543E-01  0.30736292880E-01  0.51100000000E-03 0.  1.
</event>
<event>
 7    1  0.1065239E+005  0.1043930E+01  0.7957747E-01            NaN
         13   -1    0    0    0    0  0.00000000000E+00  0.00000000000E+00  0.74505805969E-08  0.10566000000E+00  0.10566000000E+00 0.  1.
     999900   -1    0    0    0    0 -0.00000000000E+00 -0.00000000000E+00 -0.74505805969E-08  0.93827000000E+00  0.93827000000E+00 0. -1.
     999902    2    1    2    0    0 -0.14991942968E-01  0.18076558343E-01 -0.70562299155E-02  0.10194083627E+01  0.10191133888E+01 0.  0.
         14    1    1    2    0    0  0.14991942968E-01 -0.18076558343E-01  0.70562299155E-02  0.24521637305E-01  0.00000000000E+00 0.  1.
     999901    1    3    3    0    0  0.25969101101E-01 -0.33878184120E-01 -0.11931214559E+00  0.88907677602E+00  0.88000000000E+00 0. -1.
        -11    1    3    3    0    0 -0.15711087391E-02  0.23297735767E-02  0.45986058809E-02  0.54133653707E-02  0.51100000000E-03 0.  1.
         11    1    3    3    0    0 -0.39389935330E-01  0.49624968887E-01  0.10765730979E+00  0.12491822131E+00  0.51100000000E-03 0. -1.
</event>
<event>
 8    1  0.1065239E+005  0.1043930E+01  0.7957747E-01            NaN
         13   -1    0    0    0    0  0.00000000000E+00  0.00000000000E+00  0.74505805969E-08  0.10566000000E+00  0.10566000000E+00 0.  1.
     999900   -1    0    0    0    0 -0.00000000000E+00 -0.00000000000E+00 -0.74505805969E-08  0.93827000000E+00  0.93827000000E+00 0.  1.
     999902    2    1    2    0    0  0.25343003461E-02 -0.15108794686E-01  0.17327204989E-01  0.10208014378E+01  0.10205393893E+01 0.  0.
     999903    2    3    3    0    0 -0.18247214095E-02  0.12763397499E+00 -0.48711044434E-02  0.12901263755E+00  0.18076830718E-01 0.  0.
         14    1    1    2    0    0 -0.25343003461E-02  0.15108794686E-01 -0.17327204989E-01  0.23128562165E-01  0.00000000000E+00 0. -1.
     999901    1    3    3    0    0  0.43590217556E-02 -0.14274276968E+00  0.22198309432E-01  0.89178880028E+00  0.88000000000E+00 0.  1.
        -11    1    4    4    0    0 -0.87221471700E-02  0.75367259335E-01 -0.73838452470E-02  0.76230452724E-01  0.51100000000E-03 0.  1.
         11    1    4    4    0    0  0.68974257605E-02  0.52266715660E-01  0.25127408037E-02  0.52782184829E-01  0.51100000000E-03 0. -1.
</event>
<event>
 8    1  0.1065239E+005  0.1043930E+01  0.7957747E-01            NaN
         13   -1    0    0    0    0  0.00000000000E+00  0.00000000000E+00  0.74505805969E-08  0.10566000000E+00  0.10566000000E+00 0. -1.
     999900   -1    0    0    0    0 -0.00000000000E+00 -0.00000000000E+00 -0.74505805969E-08  0.93827000000E+00  0.93827000000E+00 0. -1.
     999902    2    1    2    0    0  0.62091379003E-02  0.54403768462E-02  0.21138859973E-01  0.10212363336E+01  0.10209841559E+01 0.  0.
     999903    2    3    3    0    0  0.49646729097E-01  0.12097363729E+00  0.32528271632E-02  0.13244239305E+00  0.20760249561E-01 0.  0.
         14    1    1    2    0    0 -0.62091379003E-02 -0.54403768462E-02 -0.21138859973E-01  0.22693666400E-01  0.00000000000E+00 0.  1.
     999901    1    3    3    0    0 -0.43437591197E-01 -0.11553326044E+00  0.17886032810E-01  0.88879394056E+00  0.88000000000E+00 0. -1.
        -11    1    4    4    0    0  0.98133604116E-02  0.50510467837E-01  0.10958060098E-02  0.51469129733E-01  0.51100000000E-03 0. -1.
         11    1    4    4    0    0  0.39833368685E-01  0.70463169453E-01  0.21570211534E-02  0.80973263312E-01  0.51100000000E-03 0.  1.
</event>
<event>
 8    1  0.1065239E+005  0.1043930E+01  0.7957747E-01            NaN
         13   -1    0    0    0    0  0.00000000000E+00  0.00000000000E+00  0.74505805969E-08  0.10566000000E+00  0.10566000000E+00 0.  1.
     999900   -1    0    0    0    0 -0.00000000000E+00 -0.00000000000E+00 -0.74505805969E-08  0.93827000000E+00  0.93827000000E+00 0. -1.
     999902    2    1    2    0    0  0.13113734649E-01  0.15653760474E-01  0.12260634169E-01  0.10201112384E+01  0.10198331262E+01 0.  0.
     999903    2    3    3    0    0 -0.11376946566E+00  0.40826555477E-01  0.43666160677E-01  0.13010038273E+00  0.20225653271E-01 0.  0.
         14    1    1    2    0    0 -0.13113734649E-01 -0.15653760474E-01 -0.12260634169E-01  0.23818761589E-01  0.00000000000E+00 0. -1.
     999901    1    3    3    0    0  0.12688320031E+00 -0.25172795003E-01 -0.31405526509E-01  0.89001085568E+00  0.88000000000E+00 0. -1.
        -11    1    4    4    0    0 -0.94911095270E-01  0.28935376459E-01  0.41968223431E-01  0.10773562510E+00  0.51100000000E-03 0. -1.
         11    1    4    4    0    0 -0.18858370391E-01  0.11891179017E-01  0.16979372465E-02  0.22364757636E-01  0.51100000000E-03 0.  1.
</event>
<event>
 8    1  0.1065239E+005  0.1043930E+01  0.7957747E-01            NaN
         13   -1    0    0    0    0  0.00000000000E+00  0.00000000000E+00  0.74505805969E-08  0.10566000000E+00  0.10566000000E+00 0. -1.
     999900   -1    0    0    0    0 -0.00000000000E+00 -0.00000000000E+00 -0.74505805969E-08  0.93827000000E+00  0.93827000000E+00 0. -1.
     999902    2    1    2    0    0 -0.96447572072E-02 -0.18170984182E-01 -0.12040403650E-01  0.10200935295E+01  0.10198149987E+01 0.  0.
     999903    2    3    3    0    0 -0.57957383987E-01 -0.92315470172E-01  0.71235123490E-01  0.13174318859E+00  0.20015507208E-01 0.  0.
         14    1    1    2    0    0  0.96447572072E-02  0.18170984182E-01  0.12040403650E-01  0.23836470540E-01  0.00000000000E+00 0. -1.
     999901    1    3    3    0    0  0.48312626780E-01  0.74144485990E-01 -0.83275527140E-01  0.88835034087E+00  0.88000000000E+00 0. -1.
        -11    1    4    4    0    0 -0.30960596317E-01 -0.46701698312E-01  0.48336575815E-01  0.74001978568E-01  0.51100000000E-03 0. -1.
         11    1    4    4    0    0 -0.26996787670E-01 -0.45613771860E-01  0.22898547675E-01  0.57741210019E-01  0.51100000000E-03 0.  1.
</event>
<event>
 8    1  0.1065239E+005  0.1043930E+01  0.7957747E-01            NaN
         13   -1    0    0    0    0  0.00000000000E+00  0.00000000000E+00  0.74505805969E-08  0.10566000000E+00  0.10566000000E+00 0. -1.
     999900   -1    0    0    0    0 -0.00000000000E+00 -0.00000000000E+00 -0.74505805969E-08  0.93827000000E+00  0.93827000000E+00 0.  1.
     999902    2    1    2    0    0  0.22577634986E-01 -0.20495298196E-02  0.67355855588E-02  0.10202800891E+01  0.10200059519E+01 0.  0.
     999903    2    3    3    0    0  0.88586147415E-01  0.43378734177E-01 -0.84251563846E-01  0.13196735572E+00  0.24245347434E-01 0.  0.
         14    1    1    2    0    0 -0.22577634986E-01  0.20495298196E-02 -0.67355855588E-02  0.23649910927E-01  0.00000000000E+00 0. -1.
     999901    1    3    3    0    0 -0.66008512430E-01 -0.45428263997E-01  0.90987149405E-01  0.88831273335E+00  0.88000000000E+00 0. -1.
        -11    1    4    4    0    0  0.56261108105E-01  0.17149545155E-01 -0.39532377982E-01  0.70869522463E-01  0.51100000000E-03 0. -1.
         11    1    4    4    0    0  0.32325039310E-01  0.26229189023E-01 -0.44719185864E-01  0.61097833255E-01  0.51100000000E-03 0.  1.
</event>
<event>
 8    1  0.1065239E+005  0.1043930E+01  0.7957747E-01            NaN
         13   -1    0    0    0    0  0.00000000000E+00  0.00000000000E+00  0.74505805969E-08  0.10566000000E+00  0.10566000000E+00 0.  1.
     999900   -1    0    0    0    0 -0.00000000000E+00 -0.00000000000E+00 -0.74505805969E-08  0.93827000000E+00  0.93827000000E+00 0. -1.
     999902    2    1    2    0    0  0.60977768737E-02 -0.49840586890E-02  0.21739576385E-01  0.10208078698E+01  0.10205459687E+01 0.  0.
     999903    2    3    3    0    0 -0.12063359284E+00  0.40740500399E-01 -0.15069154587E-01  0.12979358369E+00  0.20175303011E-01 0.  0.
         14    1    1    2    0    0 -0.60977768737E-02  0.49840586890E-02 -0.21739576385E-01  0.23122130205E-01  0.00000000000E+00 0. -1.
     999901    1    3    3    0    0  0.12673136971E+00 -0.45724559088E-01  0.36808730973E-01  0.89101428611E+00  0.88000000000E+00 0.  1.
        -11    1    4    4    0    0 -0.61278620234E-01  0.31206436088E-01 -0.94106265952E-02  0.69409883771E-01  0.51100000000E-03 0.  1.
         11    1    4    4    0    0 -0.59354972607E-01  0.95340643108E-02 -0.56585279922E-02  0.60383699916E-01  0.51100000000E-03 0. -1.
</event>
<event>
 8    1  0.1065239E+005  0.1043930E+01  0.7957747E-01            NaN
         13   -1    0    0    0    0  0.00000000000E+00  0.00000000000E+00  0.74505805969E-08  0.10566000000E+00  0.10566000000E+00 0. -1.
     999900   -1    0    0    0    0 -0.00000000000E+00 -0.00000000000E+00 -0.74505805969E-08  0.93827000000E+00  0.93827000000E+00 0.  1.
     999902    2    1    2    0    0 -0.17966365130E-01 -0.18457517633E-01 -0.51805094699E-02  0.10176562886E+01  0.10173170665E+01 0.  0.
     999903    2    3    3    0    0  0.39925427070E-01 -0.78151419105E-01  0.91746185161E-01  0.12843775211E+00  0.19421885619E-01 0.  0.
         14    1    1    2    0    0  0.17966365130E-01  0.18457517633E-01  0.51805094699E-02  0.26273711415E-01  0.00000000000E+00 0. -1.
     999901    1    3    3    0    0 -0.57891792200E-01  0.59693901472E-01 -0.96926694630E-01  0.88921853647E+00  0.88000000000E+00 0.  1.
        -11    1    4    4    0    0  0.26373960534E-01 -0.59673146706E-01  0.78085933249E-01  0.10175531595E+00  0.51100000000E-03 0.  1.
         11    1    4    4    0    0  0.13551466536E-01 -0.18478272399E-01  0.13660251912E-01  0.26682436160E-01  0.51100000000E-03 0. -1.
</event>
<event>
 8    1  0.1065239E+005  0.1043930E+01  0.7957747E-01            NaN
         13   -1    0    0    0    0  0.00000000000E+00  0.00000000000E+00  0.74505805969E-08  0.10566000000E+00  0.10566000000E+00 0. -1.
     999900   -1    0    0    0    0 -0.00000000000E+00 -0.00000000000E+00 -0.74505805969E-08  0.93827000000E+00  0.93827000000E+00 0. -1.
     999902    2    1    2    0    0  0.16700301958E-01 -0.92375583509E-02  0.10162888833E-01  0.10223078614E+01  0.10220791782E+01 0.  0.
     999903    2    3    3    0    0 -0.17320564247E-01  0.76540310380E-01 -0.10220371550E+00  0.13037652103E+00  0.19849854278E-01 0.  0.
         14    1    1    2    0    0 -0.16700301958E-01  0.92375583509E-02 -0.10162888833E-01  0.21622138636E-01  0.00000000000E+00 0.  1.
     999901    1    3    3    0    0  0.34020866204E-01 -0.85777868731E-01  0.11236660433E+00  0.89193134033E+00  0.88000000000E+00 0.  1.
        -11    1    4    4    0    0 -0.63018434460E-02  0.39034575705E-01 -0.66838096356E-01  0.77659536290E-01  0.51100000000E-03 0. -1.
         11    1    4    4    0    0 -0.11018720801E-01  0.37505734674E-01 -0.35365619144E-01  0.52716984739E-01  0.51100000000E-03 0.  1.
</event>
<event>
 8    1  0.1065239E+005  0.1043930E+01  0.7957747E-01            NaN
         13   -1    0    0    0    0  0.00000000000E+00  0.00000000000E+00  0.74505805969E-08  0.10566000000E+00  0.10566000000E+00 0. -1.
     999900   -1    0    0    0    0 -0.00000000000E+00 -0.00000000000E+00 -0.74505805969E-08  0.93827000000E+00  0.93827000000E+00 0.  1.
     999902    2    1    2    0    0  0.11426400367E-02  0.52392873161E-02 -0.22924592493E-01  0.10203865784E+01  0.10201149331E+01 0.  0.
     999903    2    3    3    0    0  0.24409634195E-01 -0.86809935594E-01 -0.94761510731E-01  0.13236914884E+00  0.20249752792E-01 0.  0.
         14    1    1    2    0    0 -0.11426400367E-02 -0.52392873161E-02  0.22924592493E-01  0.23543421561E-01  0.00000000000E+00 0. -1.
     999901    1    3    3    0    0 -0.23266994158E-01  0.92049222910E-01  0.71836918238E-01  0.88801742960E+00  0.88000000000E+00 0. -1.
        -11    1    4    4    0    0  0.47884754477E-02 -0.32597272715E-01 -0.47539886951E-01  0.57843008721E-01  0.51100000000E-03 0. -1.
         11    1    4    4    0    0  0.19621158747E-01 -0.54212662879E-01 -0.47221623780E-01  0.74526140115E-01  0.51100000000E-03 0.  1.
</event>
<event>
 8    1  0.1065239E+005  0.1043930E+01  0.7957747E-01            NaN
         13   -1    0    0    0    0  0.00000000000E+00  0.00000000000E+00  0.74505805969E-08  0.10566000000E+00  0.10566000000E+00 0. -1.
     999900   -1    0    0    0    0 -0.00000000000E+00 -0.00000000000E+00 -0.74505805969E-08  0.93827000000E+00  0.93827000000E+00 0.  1.
     999902    2    1    2    0    0  0.13684246021E-01  0.97367262504E-02  0.25769832522E-01  0.10131705024E+01  0.10127034710E+01 0.  0.
     999903    2    3    3    0    0 -0.42793139381E-02  0.66561160815E-01 -0.10028154712E+00  0.12219314228E+00  0.20641576262E-01 0.  0.
         14    1    1    2    0    0 -0.13684246021E-01 -0.97367262504E-02 -0.25769832522E-01  0.30759497647E-01  0.00000000000E+00 0.  1.
     999901    1    3    3    0    0  0.17963559959E-01 -0.56824434565E-01  0.12605137964E+00  0.89097736007E+00  0.88000000000E+00 0. -1.
        -11    1    4    4    0    0  0.49300121917E-02  0.35136225379E-01 -0.39125137342E-01  0.52819474128E-01  0.51100000000E-03 0.  1.
         11    1    4    4    0    0 -0.92093261297E-02  0.31424935436E-01 -0.61156409780E-01  0.69373668154E-01  0.51100000000E-03 0. -1.
</event>
<event>
 8    1  0.1065239E+005  0.1043930E+01  0.7957747E-01            NaN
         13   -1    0    0    0    0  0.00000000000E+00  0.00000000000E+00  0.74505805969E-08  0.10566000000E+00  0.10566000000E+00 0.  1.
     999900   -1    0    0    0    0 -0.00000000000E+00 -0.00000000000E+00 -0.74505805969E-08  0.93827000000E+00  0.93827000000E+00 0. -1.
     999902    2    1    2    0    0  0.10440224868E-01 -0.17585696093E-01 -0.12590599764E-01  0.10199137929E+01  0.10196309954E+01 0.  0.
     999903    2    3    3    0    0  0.30859317132E-01  0.11090676646E+00 -0.55194764456E-01  0.12932838590E+00  0.20658196348E-01 0.  0.
         14    1    1    2    0    0 -0.10440224868E-01  0.17585696093E-01  0.12590599764E-01  0.24016207128E-01  0.00000000000E+00 0.  1.
     999901    1    3    3    0    0 -0.20419092264E-01 -0.12849246255E+00  0.42604164692E-01  0.89058540697E+00  0.88000000000E+00 0. -1.
        -11    1    4    4    0    0  0.80823314468E-02  0.23397042746E-01 -0.21619466890E-01  0.32869562828E-01  0.51100000000E-03 0. -1.
         11    1    4    4    0    0  0.22776985685E-01  0.87509723712E-01 -0.33575297566E-01  0.96458823073E-01  0.51100000000E-03 0.  1.
</event>
<event>
 8    1  0.1065239E+005  0.1043930E+01  0.7957747E-01            NaN
         13   -1    0    0    0    0  0.00000000000E+00  0.00000000000E+00  0.74505805969E-08  0.10566000000E+00  0.10566000000E+00 0. -1.
     999900   -1    0    0    0    0 -0.00000000000E+00 -0.00000000000E+00 -0.74505805969E-08  0.93827000000E+00  0.93827000000E+00 0.  1.
     999902    2    1    2    0    0  0.43234192225E-02  0.80005337165E-02 -0.21930732947E-01  0.10201885270E+01  0.10199122379E+01 0.  0.
     999903    2    3    3    0    0 -0.21410271697E-01  0.12796647177E+00 -0.66050750275E-02  0.13154409588E+00  0.20649564444E-01 0.  0.
         14    1    1    2    0    0 -0.43234192225E-02 -0.80005337165E-02  0.21930732947E-01  0.23741473019E-01  0.00000000000E+00 0. -1.
     999901    1    3    3    0    0  0.25733690919E-01 -0.11996593806E+00 -0.15325657919E-01  0.88864443110E+00  0.88000000000E+00 0.  1.
        -11    1    4    4    0    0 -0.83551118475E-02  0.88683253211E-01  0.26759196516E-02  0.89117613079E-01  0.51100000000E-03 0. -1.
         11    1    4    4    0    0 -0.13055159849E-01  0.39283218563E-01 -0.92809946791E-02  0.42426482798E-01  0.51100000000E-03 0.  1.
</event>
<event>
 8    1  0.1065239E+005  0.1043930E+01  0.7957747E-01            NaN
         13   -1    0    0    0    0  0.00000000000E+00  0.00000000000E+00  0.74505805969E-08  0.10566000000E+00  0.10566000000E+00 0. -1.
     999900   -1    0    0    0    0 -0.00000000000E+00 -0.00000000000E+00 -0.74505805969E-08  0.93827000000E+00  0.93827000000E+00 0.  1.
     999902    2    1    2    0    0 -0.13778144106E-01  0.15296554111E-01 -0.12985626947E-01  0.10195897385E+01  0.10192991644E+01 0.  0.
     999903    2    3    3    0    0 -0.11926905479E+00 -0.20393412782E-01  0.45239049861E-01  0.13066217173E+00  0.19622251976E-01 0.  0.
         14    1    1    2    0    0  0.13778144106E-01 -0.15296554111E-01  0.12985626947E-01  0.24340261499E-01  0.00000000000E+00 0. -1.
     999901    1    3    3    0    0  0.10549091069E+00  0.35689966892E-01 -0.58224676808E-01  0.88892756677E+00  0.88000000000E+00 0. -1.
        -11    1    4    4    0    0 -0.88172820673E-01 -0.12106701521E-01  0.24279980139E-01  0.92253981398E-01  0.51100000000E-03 0.  1.
         11    1    4    4    0    0 -0.31096234121E-01 -0.82867112602E-02  0.20959069722E-01  0.38408190333E-01  0.51100000000E-03 0. -1.
</event>
<event>
 8    1  0.1065239E+005  0.1043930E+01  0.7957747E-01            NaN
         13   -1    0    0    0    0  0.00000000000E+00  0.00000000000E+00  0.74505805969E-08  0.10566000000E+00  0.10566000000E+00 0. -1.
     999900   -1    0    0    0    0 -0.00000000000E+00 -0.00000000000E+00 -0.74505805969E-08  0.93827000000E+00  0.93827000000E+00 0.  1.
     999902    2    1    2    0    0 -0.44886596659E-02  0.19611739363E-01  0.11074822778E-01  0.10209643716E+01  0.10207060439E+01 0.  0.
     999903    2    3    3    0    0 -0.47132718189E-01 -0.96521235904E-01  0.70588357118E-01  0.13032008549E+00  0.21512006380E-01 0.  0.
         14    1    1    2    0    0  0.44886596659E-02 -0.19611739363E-01 -0.11074822778E-01  0.22965628361E-01  0.00000000000E+00 0.  1.
     999901    1    3    3    0    0  0.42644058523E-01  0.11613297527E+00 -0.59513534340E-01  0.89064428614E+00  0.88000000000E+00 0.  1.
        -11    1    4    4    0    0 -0.17781982799E-01 -0.60569460412E-01  0.40032815183E-01  0.74751226474E-01  0.51100000000E-03 0.  1.
         11    1    4    4    0    0 -0.29350735390E-01 -0.35951775492E-01  0.30555541935E-01  0.55568859021E-01  0.51100000000E-03 0. -1.
</event>
<event>
 8    1  0.1065239E+005  0.1043930E+01  0.7957747E-01            NaN
         13   -1    0    0    0    0  0.00000000000E+00  0.00000000000E+00  0.74505805969E-08  0.10566000000E+00  0.10566000000E+00 0.  1.
     999900   -1    0    0    0    0 -0.00000000000E+00 -0.00000000000E+00 -0.74505805969E-08  0.93827000000E+00  0.93827000000E+00 0.  1.
     999902    2    1    2    0    0  0.23002068731E-01 -0.55654732127E-02 -0.27671299268E-02  0.10201029845E+01  0.10198246773E+01 0.  0.
     999903    2    3    3    0    0  0.16891114356E-01  0.12686654718E+00 -0.10339535152E-01  0.13014066786E+00  0.21195681315E-01 0.  0.
         14    1    1    2    0    0 -0.23002068731E-01  0.55654732127E-02  0.27671299268E-02  0.23827015466E-01  0.00000000000E+00 0.  1.
     999901    1    3    3    0    0  0.61109543752E-02 -0.13243202039E+00  0.75724052248E-02  0.88996231668E+00  0.88000000000E+00 0. -1.
        -11    1    4    4    0    0 -0.29387481585E-02  0.43145756268E-01  0.15953197006E-02  0.43278154889E-01  0.51100000000E-03 0. -1.
         11    1    4    4    0    0  0.19829862514E-01  0.83720790907E-01 -0.11934854852E-01  0.86862512966E-01  0.51100000000E-03 0.  1.
</event>
<event>
 8    1  0.1065239E+005  0.1043930E+01  0.7957747E-01            NaN
         13   -1    0    0    0    0  0.00000000000E+00  0.00000000000E+00  0.74505805969E-08  0.10566000000E+00  0.10566000000E+00 0. -1.
     999900   -1    0    0    0    0 -0.00000000000E+00 -0.00000000000E+00 -0.74505805969E-08  0.93827000000E+00  0.93827000000E+00 0. -1.
     999902    2    1    2    0    0 -0.20339954223E-01  0.79577790727E-02  0.86952954947E-02  0.10204215303E+01  0.10201507003E+01 0.  0.
     999903    2    3    3    0    0  0.54632741383E-01  0.68280696725E-01 -0.93296787552E-01  0.12931988371E+00  0.19296418839E-01 0.  0.
         14    1    1    2    0    0  0.20339954223E-01 -0.79577790727E-02 -0.86952954947E-02  0.23508469735E-01  0.00000000000E+00 0.  1.
     999901    1    3    3    0    0 -0.74972695606E-01 -0.60322917652E-01  0.10199208305E+00  0.89110164655E+00  0.88000000000E+00 0.  1.
        -11    1    4    4    0    0  0.17905200833E-01  0.34075238423E-01 -0.49492357655E-01  0.62701456743E-01  0.51100000000E-03 0.  1.
         11    1    4    4    0    0  0.36727540550E-01  0.34205458302E-01 -0.43804429898E-01  0.66618426971E-01  0.51100000000E-03 0. -1.
</event>
<event>
 7    1  0.1065239E+005  0.1043930E+01  0.7957747E-01            NaN
         13   -1    0    0    0    0  0.00000000000E+00  0.00000000000E+00  0.74505805969E-08  0.10566000000E+00  0.10566000000E+00 0.  1.
     999900   -1    0    0    0    0 -0.00000000000E+00 -0.00000000000E+00 -0.74505805969E-08  0.93827000000E+00  0.93827000000E+00 0.  1.
     999902    2    1    2    0    0 -0.20507411289E-01 -0.78201889547E-02  0.60025641393E-02  0.10211760982E+01  0.10209225648E+01 0.  0.
         14    1    1    2    0    0  0.20507411289E-01  0.78201889547E-02 -0.60025641393E-02  0.22753901848E-01  0.00000000000E+00 0. -1.
     999901    1    3    3    0    0 -0.14111332255E+00  0.13280806480E-01  0.93121030673E-02  0.89138996230E+00  0.88000000000E+00 0. -1.
        -11    1    3    3    0    0  0.19621281897E-01 -0.12756537488E-01  0.13572814586E-01  0.27059312052E-01  0.51100000000E-03 0. -1.
         11    1    3    3    0    0  0.10098462937E+00 -0.83444579471E-02 -0.16882353514E-01  0.10272682380E+00  0.51100000000E-03 0.  1.
</event>
<event>
 8    1  0.1065239E+005  0.1043930E+01  0.7957747E-01            NaN
         13   -1    0    0    0    0  0.00000000000E+00  0.00000000000E+00  0.74505805969E-08  0.10566000000E+00  0.10566000000E+00 0. -1.
     999900   -1    0    0    0    0 -0.00000000000E+00 -0.00000000000E+00 -0.74505805969E-08  0.93827000000E+00  0.93827000000E+00 0.  1.
     999902    2    1    2    0    0  0.11840716750E-01  0.14143164082E-01 -0.14464471618E-01  0.10204895947E+01  0.10202203488E+01 0.  0.
     999903    2    3    3    0    0 -0.98485484626E-01 -0.76690744499E-01  0.21519319994E-01  0.12823542520E+00  0.20009551951E-01 0.  0.
         14    1    1    2    0    0 -0.11840716750E-01 -0.14143164082E-01  0.14464471618E-01  0.23440405342E-01  0.00000000000E+00 0.  1.
     999901    1    3    3    0    0  0.11032620138E+00  0.90833908581E-01 -0.35983791612E-01  0.89225416946E+00  0.88000000000E+00 0.  1.
        -11    1    4    4    0    0 -0.22764899037E-01 -0.29208510528E-01  0.67250364343E-02  0.37641266603E-01  0.51100000000E-03 0. -1.
         11    1    4    4    0    0 -0.75720585589E-01 -0.47482233971E-01  0.14794283559E-01  0.90594158596E-01  0.51100000000E-03 0.  1.
</event>
<event>
 8    1  0.1065239E+005  0.1043930E+01  0.7957747E-01            NaN
         13   -1    0    0    0    0  0.00000000000E+00  0.00000000000E+00  0.74505805969E-08  0.10566000000E+00  0.10566000000E+00 0.  1.
     999900   -1    0    0    0    0 -0.00000000000E+00 -0.00000000000E+00 -0.74505805969E-08  0.93827000000E+00  0.93827000000E+00 0. -1.
     999902    2    1    2    0    0  0.15714067731E-01 -0.14788789879E-01  0.10145679327E-01  0.10200851884E+01  0.10198064604E+01 0.  0.
     999903    2    3    3    0    0 -0.10855453491E+00  0.58155123933E-01 -0.26722367874E-01  0.12760395440E+00  0.20064365019E-01 0.  0.
         14    1    1    2    0    0 -0.15714067731E-01  0.14788789879E-01 -0.10145679327E-01  0.23844811590E-01  0.00000000000E+00 0. -1.
     999901    1    3    3    0    0  0.12426860264E+00 -0.72943913812E-01  0.36868047201E-01  0.89248123401E+00  0.88000000000E+00 0. -1.
        -11    1    4    4    0    0 -0.73164778340E-02  0.96611847885E-02 -0.56821778526E-02  0.13394685721E-01  0.51100000000E-03 0. -1.
         11    1    4    4    0    0 -0.10123805707E+00  0.48493939144E-01 -0.21040190022E-01  0.11420926867E+00  0.51100000000E-03 0.  1.
</event>
<event>
 8    1  0.1065239E+005  0.1043930E+01  0.7957747E-01            NaN
         13   -1    0    0    0    0  0.00000000000E+00  0.00000000000E+00  0.74505805969E-08  0.10566000000E+00  0.10566000000E+00 0.  1.
     999900   -1    0    0    0    0 -0.00000000000E+00 -0.00000000000E+00 -0.74505805969E-08  0.93827000000E+00  0.93827000000E+00 0. -1.
     999902    2    1    2    0    0  0.18650188631E-01  0.12720880082E-01 -0.85947539882E-02  0.10197738388E+01  0.10194876960E+01 0.  0.
     999903    2    3    3    0    0 -0.76640918741E-01 -0.25352549005E-01 -0.98824525542E-01  0.12922827974E+00  0.20422518707E-01 0.  0.
         14    1    1    2    0    0 -0.18650188631E-01 -0.12720880082E-01  0.85947539882E-02  0.24156161163E-01  0.00000000000E+00 0. -1.
     999901    1    3    3    0    0  0.95291107372E-01  0.38073429087E-01  0.90229771553E-01  0.89054555909E+00  0.88000000000E+00 0.  1.
        -11    1    4    4    0    0 -0.22645415670E-01 -0.17101234363E-01 -0.38749788008E-01  0.48032012859E-01  0.51100000000E-03 0.  1.
         11    1    4    4    0    0 -0.53995503071E-01 -0.82513146418E-02 -0.60074737533E-01  0.81196266884E-01  0.51100000000E-03 0. -1.
</event>
<event>
 8    1  0.1065239E+005  0.1043930E+01  0.7957747E-01            NaN
         13   -1    0    0    0    0  0.00000000000E+00  0.00000000000E+00  0.74505805969E-08  0.10566000000E+00  0.10566000000E+00 0. -1.
     999900   -1    0    0    0    0 -0.00000000000E+00 -0.00000000000E+00 -0.74505805969E-08  0.93827000000E+00  0.93827000000E+00 0.  1.
     999902    2    1    2    0    0  0.82180673192E-02 -0.97784762134E-02 -0.19847205428E-01  0.10203277376E+01  0.10200547168E+01 0.  0.
     999903    2    3    3    0    0 -0.66037999785E-01  0.33586454676E-01 -0.10734374767E+00  0.13181767820E+00  0.19082787231E-01 0.  0.
         14    1    1    2    0    0 -0.82180673192E-02  0.97784762134E-02  0.19847205428E-01  0.23602262409E-01  0.00000000000E+00 0. -1.
     999901    1    3    3    0    0  0.74256067104E-01 -0.43364930889E-01  0.87496542246E-01  0.88851005939E+00  0.88000000000E+00 0.  1.
        -11    1    4    4    0    0 -0.38333422157E-01  0.88300003650E-02 -0.56165712225E-01  0.68573088828E-01  0.51100000000E-03 0.  1.
         11    1    4    4    0    0 -0.27704577627E-01  0.24756454311E-01 -0.51178035449E-01  0.63244589373E-01  0.51100000000E-03 0. -1.
</event>
<event>
 8    1  0.1065239E+005  0.1043930E+01  0.7957747E-01            NaN
         13   -1    0    0    0    0  0.00000000000E+00  0.00000000000E+00  0.74505805969E-08  0.10566000000E+00  0.10566000000E+00 0.  1.
     999900   -1    0    0    0    0 -0.00000000000E+00 -0.00000000000E+00 -0.74505805969E-08  0.93827000000E+00  0.93827000000E+00 0.  1.
     999902    2    1    2    0    0 -0.18657840169E-01 -0.13372222583E-01 -0.49306010437E-02  0.10204514531E+01  0.10201813202E+01 0.  0.
     999903    2    3    3    0    0  0.29341279435E-01 -0.11550424866E+00  0.51663628076E-01  0.13144201954E+00  0.20142787719E-01 0.  0.
         14    1    1    2    0    0  0.18657840169E-01  0.13372222583E-01  0.49306010437E-02  0.23478546872E-01  0.00000000000E+00 0. -1.
     999901    1    3    3    0    0 -0.47999119604E-01  0.10213202608E+00 -0.56594229120E-01  0.88900943359E+00  0.88000000000E+00 0.  1.
        -11    1    4    4    0    0  0.17135901873E-01 -0.35805500658E-01  0.22936729130E-01  0.45847875354E-01  0.51100000000E-03 0.  1.
         11    1    4    4    0    0  0.12205377562E-01 -0.79698748006E-01  0.28726898946E-01  0.85594144188E-01  0.51100000000E-03 0. -1.
</event>
<event>
 8    1  0.1065239E+005  0.1043930E+01  0.7957747E-01            NaN
         13   -1    0    0    0    0  0.00000000000E+00  0.00000000000E+00  0.74505805969E-08  0.10566000000E+00  0.10566000000E+00 0. -1.
     999900   -1    0    0    0    0 -0.00000000000E+00 -0.00000000000E+00 -0.74505805969E-08  0.93827000000E+00  0.93827000000E+00 0.  1.
     999902    2    1    2    0    0 -0.39331741806E-02  0.21951168715E-01 -0.78893815550E-02  0.10202748524E+01  0.10200005924E+01 0.  0.
     999903    2    3    3    0    0  0.85394726870E-01 -0.86696920174E-01  0.34719467331E-01  0.12808687044E+00  0.19803778016E-01 0.  0.
         14    1    1    2    0    0  0.39331741806E-02 -0.21951168715E-01  0.78893815550E-02  0.23655147610E-01  0.00000000000E+00 0.  1.
     999901    1    3    3    0    0 -0.89327901051E-01  0.10864808889E+00 -0.42608848886E-01  0.89218798195E+00  0.88000000000E+00 0.  1.
        -11    1    4    4    0    0  0.66245859996E-01 -0.73501929443E-01  0.34600701236E-01  0.10482612864E+00  0.51100000000E-03 0. -1.
         11    1    4    4    0    0  0.19148866874E-01 -0.13194990730E-01  0.11876609464E-03  0.23260741805E-01  0.51100000000E-03 0.  1.
</event>
<event>
 8    1  0.1065239E+005  0.1043930E+01  0.7957747E-01            NaN
         13   -1    0    0    0    0  0.00000000000E+00  0.00000000000E+00  0.74505805969E-08  0.10566000000E+00  0.10566000000E+00 0.  1.
     999900   -1    0    0    0    0 -0.00000000000E+00 -0.00000000000E+00 -0.74505805969E-08  0.93827000000E+00  0.93827000000E+00 0.  1.
     999902    2    1    2    0    0  0.13883923490E-01 -0.17897378583E-01  0.41165087339E-02  0.10209077252E+01  0.10206481070E+01 0.  0.
     999903    2    3    3    0    0 -0.42061842955E-01  0.11024307489E+00 -0.46469665704E-01  0.12843427148E+00  0.20327273952E-01 0.  0.
         14    1    1    2    0    0 -0.13883923490E-01  0.17897378583E-01 -0.41165087339E-02  0.23022274774E-01  0.00000000000E+00 0.  1.
     999901    1    3    3    0    0  0.55945766446E-01 -0.12814045347E+00  0.50586174438E-01  0.89247345375E+00  0.88000000000E+00 0. -1.
        -11    1    4    4    0    0 -0.25752907900E-01  0.39919068979E-01 -0.19913166965E-01  0.51512519575E-01  0.51100000000E-03 0.  1.
         11    1    4    4    0    0 -0.16308935055E-01  0.70324005909E-01 -0.26556498739E-01  0.76921751904E-01  0.51100000000E-03 0. -1.
</event>
<event>
 8    1  0.1065239E+005  0.1043930E+01  0.7957747E-01            NaN
         13   -1    0    0    0    0  0.00000000000E+00  0.00000000000E+00  0.74505805969E-08  0.10566000000E+00  0.10566000000E+00 0. -1.
     999900   -1    0    0    0    0 -0.00000000000E+00 -0.00000000000E+00 -0.74505805969E-08  0.93827000000E+00  0.93827000000E+00 0. -1.
     999902    2    1    2    0    0  0.17030626488E-01 -0.11781549722E-01  0.85349550438E-02  0.10215315043E+01  0.10212859157E+01 0.  0.
     999903    2    3    3    0    0 -0.65426618460E-01 -0.11206892602E+00  0.10114299207E-01  0.13200396148E+00  0.21969529277E-01 0.  0.
         14    1    1    2    0    0 -0.17030626488E-01  0.11781549722E-01 -0.85349550438E-02  0.22398495709E-01  0.00000000000E+00 0.  1.
     999901    1    3    3    0    0  0.82457244948E-01  0.10028737630E+00 -0.15793441636E-02  0.88952754281E+00  0.88000000000E+00 0.  1.
        -11    1    4    4    0    0 -0.16241766919E-01 -0.46821937341E-01  0.84494021415E-02  0.50276657869E-01  0.51100000000E-03 0.  1.
         11    1    4    4    0    0 -0.49184851542E-01 -0.65246988677E-01  0.16648970660E-02  0.81727303613E-01  0.51100000000E-03 0. -1.
</event>
<event>
 8    1  0.1065239E+005  0.1043930E+01  0.7957747E-01            NaN
         13   -1    0    0    0    0  0.00000000000E+00  0.00000000000E+00  0.74505805969E-08  0.10566000000E+00  0.10566000000E+00 0.  1.
     999900   -1    0    0    0    0 -0.00000000000E+00 -0.00000000000E+00 -0.74505805969E-08  0.93827000000E+00  0.93827000000E+00 0.  1.
     999902    2    1    2    0    0  0.11977123844E-01 -0.18149459079E-01  0.80206458914E-02  0.10207527456E+01  0.10204895798E+01 0.  0.
     999903    2    3    3    0    0 -0.77515655680E-01  0.95288906733E-01  0.32339318236E-01  0.12863805666E+00  0.20328932451E-01 0.  0.
         14    1    1    2    0    0 -0.11977123844E-01  0.18149459079E-01 -0.80206458914E-02  0.23177254388E-01  0.00000000000E+00 0. -1.
     999901    1    3    3    0    0  0.89492779524E-01 -0.11343836581E+00 -0.24318672344E-01  0.89211468896E+00  0.88000000000E+00 0. -1.
        -11    1    4    4    0    0 -0.19221378126E-01  0.32701778303E-01  0.23764509713E-02  0.38010213384E-01  0.51100000000E-03 0.  1.
         11    1    4    4    0    0 -0.58294277554E-01  0.62587128430E-01  0.29962867264E-01  0.90627843273E-01  0.51100000000E-03 0. -1.
</event>
<event>
 8    1  0.1065239E+005  0.1043930E+01  0.7957747E-01            NaN
         13   -1    0    0    0    0  0.00000000000E+00  0.00000000000E+00  0.74505805969E-08  0.10566000000E+00  0.10566000000E+00 0.  1.
     999900   -1    0    0    0    0 -0.00000000000E+00 -0.00000000000E+00 -0.74505805969E-08  0.93827000000E+00  0.93827000000E+00 0.  1.
     999902    2    1    2    0    0  0.16685524142E-01 -0.17370274043E-01 -0.59484463087E-03  0.10198367027E+01  0.10195520649E+01 0.  0.
     999903    2    3    3    0    0 -0.35844396857E-01 -0.55638501013E-01  0.11043932960E+00  0.13048163429E+00  0.21169501287E-01 0.  0.
         14    1    1    2    0    0 -0.16685524142E-01  0.17370274043E-01  0.59484463087E-03  0.24093297332E-01  0.00000000000E+00 0.  1.
     999901    1    3    3    0    0  0.52529920998E-01  0.38268226970E-01 -0.11103417423E+00  0.88935506837E+00  0.88000000000E+00 0.  1.
        -11    1    4    4    0    0 -0.33708868736E-01 -0.35022516794E-01  0.73488319514E-01  0.88111626588E-01  0.51100000000E-03 0. -1.
         11    1    4    4    0    0 -0.21355281208E-02 -0.20615984219E-01  0.36951010085E-01  0.42370007706E-01  0.51100000000E-03 0.  1.
</event>
<event>
 8    1  0.1065239E+005  0.1043930E+01  0.7957747E-01            NaN
         13   -1    0    0    0    0  0.00000000000E+00  0.00000000000E+00  0.74505805969E-08  0.10566000000E+00  0.10566000000E+00 0.  1.
     999900   -1    0    0    0    0 -0.00000000000E+00 -0.00000000000E+00 -0.74505805969E-08  0.93827000000E+00  0.93827000000E+00 0.  1.
     999902    2    1    2    0    0  0.80051979146E-02  0.14474511164E-03 -0.21578619893E-01  0.10209138973E+01  0.10206544199E+01 0.  0.
     999903    2    3    3    0    0  0.10883667411E+00  0.71858250533E-01  0.35034207085E-02  0.13190381742E+00  0.19424553831E-01 0.  0.
         14    1    1    2    0    0 -0.80051979146E-02 -0.14474511164E-03  0.21578619893E-01  0.23016102652E-01  0.00000000000E+00 0.  1.
     999901    1    3    3    0    0 -0.10083147620E+00 -0.71713505422E-01 -0.25082040602E-01  0.88901007993E+00  0.88000000000E+00 0.  1.
        -11    1    4    4    0    0  0.89400531488E-02  0.39332471796E-02  0.52246106711E-02  0.11088402110E-01  0.51100000000E-03 0.  1.
         11    1    4    4    0    0  0.99896620965E-01  0.67925003354E-01 -0.17211899626E-02  0.12081541531E+00  0.51100000000E-03 0. -1.
</event>
<event>
 8    1  0.1065239E+005  0.1043930E+01  0.7957747E-01            NaN
         13   -1    0    0    0    0  0.00000000000E+00  0.00000000000E+00  0.74505805969E-08  0.10566000000E+00  0.10566000000E+00 0.  1.
     999900   -1    0    0    0    0 -0.00000000000E+00 -0.00000000000E+00 -0.74505805969E-08  0.93827000000E+00  0.93827000000E+00 0. -1.
     999902    2    1    2    0    0 -0.12004841992E-01  0.20528582566E-01 -0.38348659776E-02  0.10198417221E+01  0.10195572044E+01 0.  0.
     999903    2    3    3    0    0 -0.85820355415E-01  0.88072680421E-01 -0.46842325936E-01  0.13312836553E+00  0.20174929211E-01 0.  0.
         14    1    1    2    0    0  0.12004841992E-01 -0.20528582566E-01  0.38348659776E-02  0.24088277864E-01  0.00000000000E+00 0. -1.
     999901    1    3    3    0    0  0.73815513423E-01 -0.67544097855E-01  0.43007459958E-01  0.88671335661E+00  0.88000000000E+00 0. -1.
        -11    1    4    4    0    0 -0.32328025294E-01  0.46141770494E-01 -0.16619112623E-01  0.58741980126E-01  0.51100000000E-03 0. -1.
         11    1    4    4    0    0 -0.53492330121E-01  0.41930909927E-01 -0.30223213313E-01  0.74386385401E-01  0.51100000000E-03 0.  1.
</event>
<event>
 8    1  0.1065239E+005  0.1043930E+01  0.7957747E-01            NaN
         13   -1    0    0    0    0  0.00000000000E+00  0.00000000000E+00  0.74505805969E-08  0.10566000000E+00  0.10566000000E+00 0. -1.
     999900   -1    0    0    0    0 -0.00000000000E+00 -0.00000000000E+00 -0.74505805969E-08  0.93827000000E+00  0.93827000000E+00 0.  1.
     999902    2    1    2    0    0 -0.86228094656E-02 -0.21314178124E-01 -0.63423930789E-02  0.10200789417E+01  0.10198000659E+01 0.  0.
     999903    2    3    3    0    0  0.24339625363E-01 -0.53636399836E-01 -0.11642045454E+00  0.13202014424E+00  0.20157269182E-01 0.  0.
         14    1    1    2    0    0  0.86228094656E-02  0.21314178124E-01  0.63423930789E-02  0.23851058302E-01  0.00000000000E+00 0.  1.
     999901    1    3    3    0    0 -0.32962434829E-01  0.32322221712E-01  0.11007806146E+00  0.88805879746E+00  0.88000000000E+00 0. -1.
        -11    1    4    4    0    0  0.81969874896E-02 -0.39000186175E-01 -0.83702443424E-01  0.92706878287E-01  0.51100000000E-03 0. -1.
         11    1    4    4    0    0  0.16142637873E-01 -0.14636213661E-01 -0.32718011112E-01  0.39313265954E-01  0.51100000000E-03 0.  1.
</event>
<event>
 8    1  0.1065239E+005  0.1043930E+01  0.7957747E-01            NaN
         13   -1    0    0    0    0  0.00000000000E+00  0.00000000000E+00  0.74505805969E-08  0.10566000000E+00  0.10566000000E+00 0.  1.
     999900   -1    0    0    0    0 -0.00000000000E+00 -0.00000000000E+00 -0.74505805969E-08  0.93827000000E+00  0.93827000000E+00 0.  1.
     999902    2    1    2    0    0 -0.13517397937E-01 -0.14388380309E-01  0.12950997806E-01  0.10203191152E+01  0.10200458926E+01 0.  0.
     999903    2    3    3    0    0 -0.62568478647E-01  0.11149794112E+00  0.12825727135E-01  0.13000827619E+00  0.19774913598E-01 0.  0.
         14    1    1    2    0    0  0.13517397937E-01  0.14388380309E-01 -0.12950997806E-01  0.23610884759E-01  0.00000000000E+00 0. -1.
     999901    1    3    3    0    0  0.49051080710E-01 -0.12588632143E+00  0.12527067162E-03  0.89031083905E+00  0.88000000000E+00 0.  1.
        -11    1    4    4    0    0 -0.27909279499E-01  0.31552354771E-01  0.66921890831E-02  0.42655896303E-01  0.51100000000E-03 0. -1.
         11    1    4    4    0    0 -0.34659199149E-01  0.79945586345E-01  0.61335380514E-02  0.87352379886E-01  0.51100000000E-03 0.  1.
</event>
<event>
 8    1  0.1065239E+005  0.1043930E+01  0.7957747E-01            NaN
         13   -1    0    0    0    0  0.00000000000E+00  0.00000000000E+00  0.74505805969E-08  0.10566000000E+00  0.10566000000E+00 0.  1.
     999900   -1    0    0    0    0 -0.00000000000E+00 -0.00000000000E+00 -0.74505805969E-08  0.93827000000E+00  0.93827000000E+00 0. -1.
     999902    2    1    2    0    0 -0.14017857817E-01  0.18272092159E-01  0.55058502711E-02  0.10202512315E+01  0.10199764170E+01 0.  0.
     999903    2    3    3    0    0 -0.91760963260E-01 -0.53559426977E-01 -0.72678866577E-01  0.13046664661E+00  0.21228321528E-01 0.  0.
         14    1    1    2    0    0  0.14017857817E-01 -0.18272092159E-01 -0.55058502711E-02  0.23678768483E-01  0.00000000000E+00 0.  1.
     999901    1    3    3    0    0  0.77743105443E-01  0.71831519136E-01  0.78184716849E-01  0.88978458490E+00  0.88000000000E+00 0.  1.
        -11    1    4    4    0    0 -0.29667381948E-01 -0.11478399939E-01 -0.32048388142E-01  0.45158249748E-01  0.51100000000E-03 0. -1.
         11    1    4    4    0    0 -0.62093581312E-01 -0.42081027038E-01 -0.40630478435E-01  0.85308396864E-01  0.51100000000E-03 0.  1.
</event>
<event>
 8    1  0.1065239E+005  0.1043930E+01  0.7957747E-01            NaN
         13   -1    0    0    0    0  0.00000000000E+00  0.00000000000E+00  0.74505805969E-08  0.10566000000E+00  0.10566000000E+00 0. -1.
     999900   -1    0    0    0    0 -0.00000000000E+00 -0.00000000000E+00 -0.74505805969E-08  0.93827000000E+00  0.93827000000E+00 0.  1.
     999902    2    1    2    0    0  0.82026003781E-02 -0.90044374137E-03  0.21912921753E-01  0.10205148427E+01  0.10202461833E+01 0.  0.
     999903    2    3    3    0    0  0.12701963166E-01  0.12481425953E+00 -0.28161927075E-01  0.13015990147E+00  0.20213029505E-01 0.  0.
         14    1    1    2    0    0 -0.82026003781E-02  0.90044374137E-03 -0.21912921753E-01  0.23415157306E-01  0.00000000000E+00 0.  1.
     999901    1    3    3    0    0 -0.44993627875E-02 -0.12571470327E+00  0.50074848829E-01  0.89035494123E+00  0.88000000000E+00 0.  1.
        -11    1    4    4    0    0  0.12446127793E-01  0.99965384463E-01 -0.14439670352E-01  0.10176811578E+00  0.51100000000E-03 0. -1.
         11    1    4    4    0    0  0.25583537272E-03  0.24848875071E-01 -0.13722256724E-01  0.28391785689E-01  0.51100000000E-03 0.  1.
</event>
<event>
 8    1  0.1065239E+005  0.1043930E+01  0.7957747E-01            NaN
         13   -1    0    0    0    0  0.00000000000E+00  0.00000000000E+00  0.74505805969E-08  0.10566000000E+00  0.10566000000E+00 0.  1.
     999900   -1    0    0    0    0 -0.00000000000E+00 -0.00000000000E+00 -0.74505805969E-08  0.93827000000E+00  0.93827000000E+00 0. -1.
     999902    2    1    2    0    0  0.23615617285E-01  0.82656534281E-02  0.27314157249E-02  0.10187609905E+01  0.10184500365E+01 0.  0.
     999903    2    3    3    0    0  0.82797516309E-02 -0.46116930377E-01 -0.11838388678E+00  0.12867022509E+00  0.18599909200E-01 0.  0.
         14    1    1    2    0    0 -0.23615617285E-01 -0.82656534281E-02 -0.27314157249E-02  0.25169009480E-01  0.00000000000E+00 0. -1.
     999901    1    3    3    0    0  0.15335865654E-01  0.54382583805E-01  0.12111530250E+00  0.89009076543E+00  0.88000000000E+00 0.  1.
        -11    1    4    4    0    0  0.23003069989E-02 -0.28018391589E-01 -0.91415849070E-01  0.95642251446E-01  0.51100000000E-03 0.  1.
         11    1    4    4    0    0  0.59794446320E-02 -0.18098538788E-01 -0.26968037709E-01  0.33027973648E-01  0.51100000000E-03 0. -1.
</event>
<event>
 8    1  0.1065239E+005  0.1043930E+01  0.7957747E-01            NaN
         13   -1    0    0    0    0  0.00000000000E+00  0.00000000000E+00  0.74505805969E-08  0.10566000000E+00  0.10566000000E+00 0. -1.
     999900   -1    0    0    0    0 -0.00000000000E+00 -0.00000000000E+00 -0.74505805969E-08  0.93827000000E+00  0.93827000000E+00 0.  1.
     999902    2    1    2    0    0 -0.24946581809E-01  0.33180192062E-02  0.44091458879E-02  0.10183804058E+01  0.10180598554E+01 0.  0.
     999903    2    3    3    0    0 -0.64610334803E-01  0.11187801924E+00  0.53591729427E-02  0.13082230098E+00  0.19863714335E-01 0.  0.
         14    1    1    2    0    0  0.24946581809E-01 -0.33180192062E-02 -0.44091458879E-02  0.25549594182E-01  0.00000000000E+00 0. -1.
     999901    1    3    3    0    0  0.39663752994E-01 -0.10856000003E+00 -0.95002705487E-03  0.88755810484E+00  0.88000000000E+00 0. -1.
        -11    1    4    4    0    0 -0.24247099177E-01  0.46290262062E-01 -0.73278832876E-02  0.52769964703E-01  0.51100000000E-03 0.  1.
         11    1    4    4    0    0 -0.40363235626E-01  0.65587757177E-01  0.12687056230E-01  0.78052336279E-01  0.51100000000E-03 0. -1.
</event>
<event>
 8    1  0.1065239E+005  0.1043930E+01  0.7957747E-01            NaN
         13   -1    0    0    0    0  0.00000000000E+00  0.00000000000E+00  0.74505805969E-08  0.10566000000E+00  0.10566000000E+00 0. -1.
     999900   -1    0    0    0    0 -0.00000000000E+00 -0.00000000000E+00 -0.74505805969E-08  0.93827000000E+00  0.93827000000E+00 0.  1.
     999902    2    1    2    0    0 -0.12087931313E-01  0.83855602321E-02 -0.16027884679E-01  0.10221738792E+01  0.10219423225E+01 0.  0.
     999903    2    3    3    0    0 -0.53630644191E-01  0.67491501556E-01  0.97778165598E-01  0.13190924083E+00  0.20202212030E-01 0.  0.
         14    1    1    2    0    0  0.12087931313E-01 -0.83855602321E-02  0.16027884679E-01  0.21756120774E-01  0.00000000000E+00 0. -1.
     999901    1    3    3    0    0  0.41542712878E-01 -0.59105941324E-01 -0.11380605028E+00  0.89026463839E+00  0.88000000000E+00 0.  1.
        -11    1    4    4    0    0 -0.24105807695E-03  0.10049708791E-01  0.12597096148E-01  0.16124599472E-01  0.51100000000E-03 0.  1.
         11    1    4    4    0    0 -0.53389586114E-01  0.57441792765E-01  0.85181069450E-01  0.11578464136E+00  0.51100000000E-03 0. -1.
</event>
<event>
 8    1  0.1065239E+005  0.1043930E+01  0.7957747E-01            NaN
         13   -1    0    0    0    0  0.00000000000E+00  0.00000000000E+00  0.74505805969E-08  0.10566000000E+00  0.10566000000E+00 0. -1.
     999900   -1    0    0    0    0 -0.00000000000E+00 -0.00000000000E+00 -0.74505805969E-08  0.93827000000E+00  0.93827000000E+00 0. -1.
     999902    2    1    2    0    0  0.17632038707E-01  0.21671732874E-02  0.15528823295E-01  0.10203348780E+01  0.10200620243E+01 0.  0.
     999903    2    3    3    0    0 -0.69293886534E-01 -0.98228822991E-01 -0.40963887822E-01  0.12857992346E+00  0.20105030076E-01 0.  0.
         14    1    1    2    0    0 -0.17632038707E-01 -0.21671732874E-02 -0.15528823295E-01  0.23595121994E-01  0.00000000000E+00 0.  1.
     999901    1    3    3    0    0  0.86925925240E-01  0.10039599628E+00  0.56492711117E-01  0.89175495455E+00  0.88000000000E+00 0.  1.
        -11    1    4    4    0    0 -0.16413770059E-01 -0.38554090217E-01 -0.17966962594E-01  0.45594984218E-01  0.51100000000E-03 0. -1.
         11    1    4    4    0    0 -0.52880116475E-01 -0.59674732774E-01 -0.22996925228E-01  0.82984939242E-01  0.51100000000E-03 0.  1.
</event>
<event>
 8    1  0.1065239E+005  0.1043930E+01  0.7957747E-01            NaN
         13   -1    0    0    0    0  0.00000000000E+00  0.00000000000E+00  0.74505805969E-08  0.10566000000E+00  0.10566000000E+00 0. -1.
     999900   -1    0    0    0    0 -0.00000000000E+00 -0.00000000000E+00 -0.74505805969E-08  0.93827000000E+00  0.93827000000E+00 0. -1.
     999902    2    1    2    0    0  0.49561534354E-02 -0.23041986814E-01  0.14488396978E-02  0.10203165346E+01  0.10200432515E+01 0.  0.
     999903    2    3    3    0    0  0.10905350780E+00  0.21788371042E-01  0.65759538889E-01  0.13072006077E+00  0.19900167251E-01 0.  0.
         14    1    1    2    0    0 -0.49561534354E-02  0.23041986814E-01 -0.14488396978E-02  0.23613465431E-01  0.00000000000E+00 0.  1.
     999901    1    3    3    0    0 -0.10409735436E+00 -0.44830357856E-01 -0.64310699192E-01  0.88959647380E+00  0.88000000000E+00 0. -1.
        -11    1    4    4    0    0  0.42603821041E-01  0.11324186488E-02  0.32460398007E-01  0.53575241474E-01  0.51100000000E-03 0. -1.
         11    1    4    4    0    0  0.66449686755E-01  0.20655952393E-01  0.33299140883E-01  0.77144819292E-01  0.51100000000E-03 0.  1.
</event>
<event>
 8    1  0.1065239E+005  0.1043930E+01  0.7957747E-01            NaN
         13   -1    0    0    0    0  0.00000000000E+00  0.00000000000E+00  0.74505805969E-08  0.10566000000E+00  0.10566000000E+00 0.  1.
     999900   -1    0    0    0    0 -0.00000000000E+00 -0.00000000000E+00 -0.74505805969E-08  0.93827000000E+00  0.93827000000E+00 0.  1.
     999902    2    1    2    0    0 -0.15614763103E-01 -0.15388313049E-01  0.46586564783E-02  0.10215174123E+01  0.10212715112E+01 0.  0.
     999903    2    3    3    0    0  0.22806042290E-01  0.59552962085E-02  0.12811387087E+00  0.13181358640E+00  0.20151340663E-01 0.  0.
         14    1    1    2    0    0  0.15614763103E-01  0.15388313049E-01 -0.46586564783E-02  0.22412587656E-01  0.00000000000E+00 0. -1.
     999901    1    3    3    0    0 -0.38420805393E-01 -0.21343609257E-01 -0.12345521440E+00  0.88970382595E+00  0.88000000000E+00 0.  1.
        -11    1    4    4    0    0  0.24400782191E-01  0.15791365465E-02  0.11979312849E+00  0.12226424906E+00  0.51100000000E-03 0. -1.
         11    1    4    4    0    0 -0.15947399010E-02  0.43761596620E-02  0.83207423812E-02  0.95493373337E-02  0.51100000000E-03 0.  1.
</event>
<event>
 8    1  0.1065239E+005  0.1043930E+01  0.7957747E-01            NaN
         13   -1    0    0    0    0  0.00000000000E+00  0.00000000000E+00  0.74505805969E-08  0.10566000000E+00  0.10566000000E+00 0.  1.
     999900   -1    0    0    0    0 -0.00000000000E+00 -0.00000000000E+00 -0.74505805969E-08  0.93827000000E+00  0.93827000000E+00 0. -1.
     999902    2    1    2    0    0 -0.20771209199E-03  0.10210811004E-01 -0.20884587941E-01  0.10206819932E+01  0.10204171997E+01 0.  0.
     999903    2    3    3    0    0  0.37158716697E-01  0.77279297699E-01  0.95395007905E-01  0.12971881984E+00  0.19336613163E-01 0.  0.
         14    1    1    2    0    0  0.20771209199E-03 -0.10210811004E-01  0.20884587941E-01  0.23248006778E-01  0.00000000000E+00 0. -1.
     999901    1    3    3    0    0 -0.37366428789E-01 -0.67068486695E-01 -0.11627959585E+00  0.89096317338E+00  0.88000000000E+00 0. -1.
        -11    1    4    4    0    0  0.19318708319E-01  0.32239103737E-01  0.28735223486E-01  0.47313280278E-01  0.51100000000E-03 0. -1.
         11    1    4    4    0    0  0.17840008379E-01  0.45040193962E-01  0.66659784420E-01  0.82405539565E-01  0.51100000000E-03 0.  1.
</event>
<event>
 8    1  0.1065239E+005  0.1043930E+01  0.7957747E-01            NaN
         13   -1    0    0    0    0  0.00000000000E+00  0.00000000000E+00  0.74505805969E-08  0.10566000000E+00  0.10566000000E+00 0. -1.
     999900   -1    0    0    0    0 -0.00000000000E+00 -0.00000000000E+00 -0.74505805969E-08  0.93827000000E+00  0.93827000000E+00 0.  1.
     999902    2    1    2    0    0 -0.93705769834E-03 -0.14936819387E-01 -0.18565491248E-01  0.10200833207E+01  0.10198045484E+01 0.  0.
     999903    2    3    3    0    0  0.75059552542E-01 -0.10616211348E+00  0.71926238206E-02  0.13173596768E+00  0.19957469190E-01 0.  0.
         14    1    1    2    0    0  0.93705769834E-03  0.14936819387E-01  0.18565491248E-01  0.23846679345E-01  0.00000000000E+00 0. -1.
     999901    1    3    3    0    0 -0.75996610240E-01  0.91225294092E-01 -0.25758115068E-01  0.88834735298E+00  0.88000000000E+00 0.  1.
        -11    1    4    4    0    0  0.20210389603E-01 -0.45103928910E-01  0.41527475534E-02  0.49601720578E-01  0.51100000000E-03 0.  1.
         11    1    4    4    0    0  0.54849162939E-01 -0.61058184568E-01  0.30398762673E-02  0.82134247099E-01  0.51100000000E-03 0. -1.
</event>
<event>
 8    1  0.1065239E+005  0.1043930E+01  0.7957747E-01            NaN
         13   -1    0    0    0    0  0.00000000000E+00  0.00000000000E+00  0.74505805969E-08  0.10566000000E+00  0.10566000000E+00 0. -1.
     999900   -1    0    0    0    0 -0.00000000000E+00 -0.00000000000E+00 -0.74505805969E-08  0.93827000000E+00  0.93827000000E+00 0. -1.
     999902    2    1    2    0    0  0.26701564783E-01  0.12614327251E-01 -0.28330007779E-02  0.10142631716E+01  0.10138292068E+01 0.  0.
     999903    2    3    3    0    0  0.21007674906E-01 -0.91996408852E-01 -0.79102193294E-01  0.12477297142E+00  0.20161244171E-01 0.  0.
         14    1    1    2    0    0 -0.26701564783E-01 -0.12614327251E-01  0.28330007779E-02  0.29666828399E-01  0.00000000000E+00 0.  1.
     999901    1    3    3    0    0  0.56938898770E-02  0.10461073610E+00  0.76269192516E-01  0.88949020018E+00  0.88000000000E+00 0.  1.
        -11    1    4    4    0    0  0.12834004857E-01 -0.73648315475E-01 -0.52134923765E-01  0.91143279785E-01  0.51100000000E-03 0. -1.
         11    1    4    4    0    0  0.81736700490E-02 -0.18348093377E-01 -0.26967269529E-01  0.33629691636E-01  0.51100000000E-03 0.  1.
</event>
<event>
 8    1  0.1065239E+005  0.1043930E+01  0.7957747E-01            NaN
         13   -1    0    0    0    0  0.00000000000E+00  0.00000000000E+00  0.74505805969E-08  0.10566000000E+00  0.10566000000E+00 0. -1.
     999900   -1    0    0    0    0 -0.00000000000E+00 -0.00000000000E+00 -0.74505805969E-08  0.93827000000E+00  0.93827000000E+00 0. -1.
     999902    2    1    2    0    0  0.13727447466E-01 -0.23201692342E-02  0.19200372864E-01  0.10202133325E+01  0.10199376273E+01 0.  0.
     999903    2    3    3    0    0  0.52193149570E-01  0.10714005964E+00 -0.48352749488E-01  0.13003100495E+00  0.19156111876E-01 0.  0.
         14    1    1    2    0    0 -0.13727447466E-01  0.23201692342E-02 -0.19200372864E-01  0.23716667500E-01  0.00000000000E+00 0.  1.
     999901    1    3    3    0    0 -0.38465702104E-01 -0.10946022888E+00  0.67553122352E-01  0.89018232755E+00  0.88000000000E+00 0.  1.
        -11    1    4    4    0    0  0.15864361631E-01  0.49533244507E-01 -0.14631840306E-01  0.54033065368E-01  0.51100000000E-03 0.  1.
         11    1    4    4    0    0  0.36328787939E-01  0.57606815138E-01 -0.33720909182E-01  0.75997939580E-01  0.51100000000E-03 0. -1.
</event>
<event>
 8    1  0.1065239E+005  0.1043930E+01  0.7957747E-01            NaN
         13   -1    0    0    0    0  0.00000000000E+00  0.00000000000E+00  0.74505805969E-08  0.10566000000E+00  0.10566000000E+00 0. -1.
     999900   -1    0    0    0    0 -0.00000000000E+00 -0.00000000000E+00 -0.74505805969E-08  0.93827000000E+00  0.93827000000E+00 0. -1.
     999902    2    1    2    0    0 -0.17705432602E-01  0.35618587437E-02 -0.15469728630E-01  0.10201501412E+01  0.10198729474E+01 0.  0.
     999903    2    3    3    0    0 -0.32328488860E-01 -0.11867649633E+00 -0.41123925899E-01  0.13121021798E+00  0.19892261060E-01 0.  0.
         14    1    1    2    0    0  0.17705432602E-01 -0.35618587437E-02  0.15469728630E-01  0.23779858814E-01  0.00000000000E+00 0. -1.
     999901    1    3    3    0    0  0.14623056258E-01  0.12223835507E+00  0.25654197269E-01  0.88893992320E+00  0.88000000000E+00 0.  1.
        -11    1    4    4    0    0 -0.15535103558E-01 -0.43773224992E-01 -0.61579688827E-02  0.46857404650E-01  0.51100000000E-03 0. -1.
         11    1    4    4    0    0 -0.16793385302E-01 -0.74903271334E-01 -0.34965957016E-01  0.84352813334E-01  0.51100000000E-03 0.  1.
</event>
<event>
 8    1  0.1065239E+005  0.1043930E+01  0.7957747E-01            NaN
         13   -1    0    0    0    0  0.00000000000E+00  0.00000000000E+00  0.74505805969E-08  0.10566000000E+00  0.10566000000E+00 0. -1.
     999900   -1    0    0    0    0 -0.00000000000E+00 -0.00000000000E+00 -0.74505805969E-08  0.93827000000E+00  0.93827000000E+00 0. -1.
     999902    2    1    2    0    0  0.15196226845E-01 -0.38038549822E-02  0.16959509005E-01  0.10208427834E+01  0.10205816817E+01 0.  0.
     999903    2    3    3    0    0 -0.87917260231E-01  0.80879163031E-01 -0.44508259409E-01  0.12866461103E+00  0.17398658496E-01 0.  0.
         14    1    1    2    0    0 -0.15196226845E-01  0.38038549822E-02 -0.16959509005E-01  0.23087216565E-01  0.00000000000E+00 0.  1.
     999901    1    3    3    0    0  0.10311348708E+00 -0.84683018013E-01  0.61467768414E-01  0.89217817240E+00  0.88000000000E+00 0. -1.
        -11    1    4    4    0    0 -0.48959840068E-01  0.46275682097E-01 -0.15908600392E-01  0.69223185282E-01  0.51100000000E-03 0. -1.
         11    1    4    4    0    0 -0.38957420163E-01  0.34603480933E-01 -0.28599659016E-01  0.59441425751E-01  0.51100000000E-03 0.  1.
</event>
<event>
 8    1  0.1065239E+005  0.1043930E+01  0.7957747E-01            NaN
         13   -1    0    0    0    0  0.00000000000E+00  0.00000000000E+00  0.74505805969E-08  0.10566000000E+00  0.10566000000E+00 0. -1.
     999900   -1    0    0    0    0 -0.00000000000E+00 -0.00000000000E+00 -0.74505805969E-08  0.93827000000E+00  0.93827000000E+00 0.  1.
     999902    2    1    2    0    0 -0.11910616823E-01  0.16407686836E-01 -0.11526680461E-01  0.10206074928E+01  0.10203409798E+01 0.  0.
     999903    2    3    3    0    0 -0.62762991589E-01  0.84271048268E-01  0.77213009427E-01  0.13208842579E+00  0.21087928166E-01 0.  0.
         14    1    1    2    0    0  0.11910616823E-01 -0.16407686836E-01  0.11526680461E-01  0.23322507216E-01  0.00000000000E+00 0.  1.
     999901    1    3    3    0    0  0.50852374766E-01 -0.67863361432E-01 -0.88739689888E-01  0.88851906699E+00  0.88000000000E+00 0. -1.
        -11    1    4    4    0    0 -0.56424828691E-01  0.70689520815E-01  0.73730906029E-01  0.11669309007E+00  0.51100000000E-03 0. -1.
         11    1    4    4    0    0 -0.63381628978E-02  0.13581527453E-01  0.34821033987E-02  0.15395335720E-01  0.51100000000E-03 0.  1.
</event>
<event>
 8    1  0.1065239E+005  0.1043930E+01  0.7957747E-01            NaN
         13   -1    0    0    0    0  0.00000000000E+00  0.00000000000E+00  0.74505805969E-08  0.10566000000E+00  0.10566000000E+00 0.  1.
     999900   -1    0    0    0    0 -0.00000000000E+00 -0.00000000000E+00 -0.74505805969E-08  0.93827000000E+00  0.93827000000E+00 0.  1.
     999902    2    1    2    0    0 -0.10743338738E-01  0.20991637901E-01 -0.46167934149E-03  0.10203443828E+01  0.10200717515E+01 0.  0.
     999903    2    3    3    0    0  0.62889797955E-01 -0.41136574328E-01 -0.10300926914E+00  0.12916664426E+00  0.20634147051E-01 0.  0.
         14    1    1    2    0    0  0.10743338738E-01 -0.20991637901E-01  0.46167934149E-03  0.23585617160E-01  0.00000000000E+00 0.  1.
     999901    1    3    3    0    0 -0.73633136693E-01  0.62128212229E-01  0.10254758980E+00  0.89117773858E+00  0.88000000000E+00 0.  1.
        -11    1    4    4    0    0  0.93097767015E-02 -0.71337898703E-02 -0.31192830305E-01  0.33328916628E-01  0.51100000000E-03 0.  1.
         11    1    4    4    0    0  0.53580021254E-01 -0.34002784457E-01 -0.71816438838E-01  0.95837727627E-01  0.51100000000E-03 0. -1.
</event>
<event>
 8    1  0.1065239E+005  0.1043930E+01  0.7957747E-01            NaN
         13   -1    0    0    0    0  0.00000000000E+00  0.00000000000E+00  0.74505805969E-08  0.10566000000E+00  0.10566000000E+00 0.  1.
     999900   -1    0    0    0    0 -0.00000000000E+00 -0.00000000000E+00 -0.74505805969E-08  0.93827000000E+00  0.93827000000E+00 0.  1.
     999902    2    1    2    0    0 -0.24168081667E-01 -0.62989186761E-02  0.44142949198E-02  0.10185674578E+01  0.10182516425E+01 0.  0.
     999903    2    3    3    0    0 -0.10205856907E+00  0.37672123551E-01 -0.69876189029E-01  0.13091918477E+00  0.20542899824E-01 0.  0.
         14    1    1    2    0    0  0.24168081667E-01  0.62989186761E-02 -0.44142949198E-02  0.25362542215E-01  0.00000000000E+00 0. -1.
     999901    1    3    3    0    0  0.77890487406E-01 -0.43971042227E-01  0.74290483949E-01  0.88764827302E+00  0.88000000000E+00 0. -1.
        -11    1    4    4    0    0 -0.55281671044E-01  0.26874826165E-01 -0.29471520281E-01  0.68170015868E-01  0.51100000000E-03 0.  1.
         11    1    4    4    0    0 -0.46776898030E-01  0.10797297387E-01 -0.40404668748E-01  0.62749168901E-01  0.51100000000E-03 0. -1.
</event>
<event>
 8    1  0.1065239E+005  0.1043930E+01  0.7957747E-01            NaN
         13   -1    0    0    0    0  0.00000000000E+00  0.00000000000E+00  0.74505805969E-08  0.10566000000E+00  0.10566000000E+00 0.  1.
     999900   -1    0    0    0    0 -0.00000000000E+00 -0.00000000000E+00 -0.74505805969E-08  0.93827000000E+00  0.93827000000E+00 0.  1.
     999902    2    1    2    0    0  0.14311545878E-02  0.14563128812E-01 -0.18637900698E-01  0.10202339187E+01  0.10199586975E+01 0.  0.
     999903    2    3    3    0    0  0.40328986419E-02  0.12544393300E+00  0.34942500505E-01  0.13165517648E+00  0.18964771406E-01 0.  0.
         14    1    1    2    0    0 -0.14311545878E-02 -0.14563128812E-01  0.18637900698E-01  0.23696081252E-01  0.00000000000E+00 0.  1.
     999901    1    3    3    0    0 -0.26017440542E-02 -0.11088080419E+00 -0.53580401203E-01  0.88857874226E+00  0.88000000000E+00 0.  1.
        -11    1    4    4    0    0  0.94444663551E-02  0.47866224408E-01  0.85796470906E-02  0.49540335576E-01  0.51100000000E-03 0.  1.
         11    1    4    4    0    0 -0.54115677132E-02  0.77577708597E-01  0.26362853414E-01  0.82114840908E-01  0.51100000000E-03 0. -1.
</event>
<event>
 8    1  0.1065239E+005  0.1043930E+01  0.7957747E-01            NaN
         13   -1    0    0    0    0  0.00000000000E+00  0.00000000000E+00  0.74505805969E-08  0.10566000000E+00  0.10566000000E+00 0. -1.
     999900   -1    0    0    0    0 -0.00000000000E+00 -0.00000000000E+00 -0.74505805969E-08  0.93827000000E+00  0.93827000000E+00 0. -1.
     999902    2    1    2    0    0 -0.66042090276E-02 -0.13358842746E-01 -0.18033017199E-01  0.10205363264E+01  0.10202681655E+01 0.  0.
     999903    2    3    3    0    0 -0.18898935777E-02 -0.12629693970E+00 -0.37293740588E-01  0.13309719383E+00  0.19223715592E-01 0.  0.
         14    1    1    2    0    0  0.66042090276E-02  0.13358842746E-01  0.18033017199E-01  0.23393673626E-01  0.00000000000E+00 0. -1.
     999901    1    3    3    0    0 -0.47143154498E-02  0.11293809696E+00  0.19260723388E-01  0.88743913255E+00  0.88000000000E+00 0.  1.
        -11    1    4    4    0    0  0.56075995047E-02 -0.24286788664E-01 -0.25053062034E-02  0.25056555150E-01  0.51100000000E-03 0.  1.
         11    1    4    4    0    0 -0.74974930825E-02 -0.10201015104E+00 -0.34788434384E-01  0.10804063868E+00  0.51100000000E-03 0. -1.
</event>
<event>
 8    1  0.1065239E+005  0.1043930E+01  0.7957747E-01            NaN
         13   -1    0    0    0    0  0.00000000000E+00  0.00000000000E+00  0.74505805969E-08  0.10566000000E+00  0.10566000000E+00 0.  1.
     999900   -1    0    0    0    0 -0.00000000000E+00 -0.00000000000E+00 -0.74505805969E-08  0.93827000000E+00  0.93827000000E+00 0.  1.
     999902    2    1    2    0    0 -0.60434765031E-02  0.31224062635E-02  0.25617132954E-01  0.10174250848E+01  0.10170797868E+01 0.  0.
     999903    2    3    3    0    0  0.10754415173E+00  0.65485756044E-01 -0.46426714566E-02  0.12742115646E+00  0.18985992204E-01 0.  0.
         14    1    1    2    0    0  0.60434765031E-02 -0.31224062635E-02 -0.25617132954E-01  0.26504915203E-01  0.00000000000E+00 0. -1.
     999901    1    3    3    0    0 -0.11358762824E+00 -0.62363349780E-01  0.30259804411E-01  0.89000392833E+00  0.88000000000E+00 0.  1.
        -11    1    4    4    0    0  0.78763538713E-01  0.37934071380E-01 -0.51032956687E-02  0.87572790008E-01  0.51100000000E-03 0. -1.
         11    1    4    4    0    0  0.28780613019E-01  0.27551684664E-01  0.46062421206E-03  0.39848366456E-01  0.51100000000E-03 0.  1.
</event>
<event>
 8    1  0.1183460E+005  0.1043930E+01  0.7957747E-01            NaN
         13   -1    0    0    0    0  0.00000000000E+00  0.00000000000E+00  0.74505805969E-08  0.10566000000E+00  0.10566000000E+00 0.  1.
     999900   -1    0    0    0    0 -0.00000000000E+00 -0.00000000000E+00 -0.74505805969E-08  0.93827000000E+00  0.93827000000E+00 0. -1.
     999902    2    1    2    0    0 -0.22990958164E-01 -0.79874003932E-02  0.90283103564E-03  0.10195743471E+01  0.10192834010E+01 0.  0.
     999903    2    3    3    0    0  0.24265165518E-01 -0.20468658931E-01 -0.12385613397E+00  0.12943181788E+00  0.20111919411E-01 0.  0.
         14    1    1    2    0    0  0.22990958164E-01  0.79874003932E-02 -0.90283103564E-03  0.24355652860E-01  0.00000000000E+00 0.  1.
     999901    1    3    3    0    0 -0.47256123682E-01  0.12481258538E-01  0.12475896501E+00  0.89014252926E+00  0.88000000000E+00 0.  1.
        -11    1    4    4    0    0  0.64723610067E-02 -0.17692758420E-01 -0.50682045283E-01  0.54072691745E-01  0.51100000000E-03 0. -1.
         11    1    4    4    0    0  0.17792804512E-01 -0.27759005112E-02 -0.73174088689E-01  0.75359126140E-01  0.51100000000E-03 0.  1.
</event>
<event>
 8    1  0.1065239E+005  0.1043930E+01  0.7957747E-01            NaN
         13   -1    0    0    0    0  0.00000000000E+00  0.00000000000E+00  0.74505805969E-08  0.10566000000E+00  0.10566000000E+00 0.  1.
     999900   -1    0    0    0    0 -0.00000000000E+00 -0.00000000000E+00 -0.74505805969E-08  0.93827000000E+00  0.93827000000E+00 0. -1.
     999902    2    1    2    0    0  0.94317439376E-02 -0.18865600500E-01  0.11186969290E-01  0.10200549721E+01  0.10197755288E+01 0.  0.
     999903    2    3    3    0    0  0.86608242567E-01 -0.31649602746E-02  0.97871616195E-01  0.13229546070E+00  0.20303472908E-01 0.  0.
         14    1    1    2    0    0 -0.94317439376E-02  0.18865600500E-01 -0.11186969290E-01  0.23875027912E-01  0.00000000000E+00 0.  1.
     999901    1    3    3    0    0 -0.77176498629E-01 -0.15700640225E-01 -0.86684646905E-01  0.88775951138E+00  0.88000000000E+00 0.  1.
        -11    1    4    4    0    0  0.22758353086E-01 -0.88868047027E-02  0.33302056732E-01  0.41306246944E-01  0.51100000000E-03 0.  1.
         11    1    4    4    0    0  0.63849889481E-01  0.57218444281E-02  0.64569559463E-01  0.90989213760E-01  0.51100000000E-03 0. -1.
</event>
<event>
 8    1  0.1065239E+005  0.1043930E+01  0.7957747E-01            NaN
         13   -1    0    0    0    0  0.00000000000E+00  0.00000000000E+00  0.74505805969E-08  0.10566000000E+00  0.10566000000E+00 0.  1.
     999900   -1    0    0    0    0 -0.00000000000E+00 -0.00000000000E+00 -0.74505805969E-08  0.93827000000E+00  0.93827000000E+00 0.  1.
     999902    2    1    2    0    0 -0.84408871350E-02  0.20797563450E-01 -0.65418172459E-02  0.10205508941E+01  0.10202830709E+01 0.  0.
     999903    2    3    3    0    0 -0.17952196681E-01  0.12589042315E+00  0.34494294670E-01  0.13329730200E+00  0.20189956650E-01 0.  0.
         14    1    1    2    0    0  0.84408871350E-02 -0.20797563450E-01  0.65418172459E-02  0.23379105927E-01  0.00000000000E+00 0. -1.
     999901    1    3    3    0    0  0.95113095462E-02 -0.10509285970E+00 -0.41036111916E-01  0.88725359207E+00  0.88000000000E+00 0.  1.
        -11    1    4    4    0    0 -0.15225401293E-01  0.88231324622E-01  0.14944066066E-01  0.90775358554E-01  0.51100000000E-03 0. -1.
         11    1    4    4    0    0 -0.27267953884E-02  0.37659098525E-01  0.19550228604E-01  0.42521943444E-01  0.51100000000E-03 0.  1.
</event>
<event>
 8    1  0.1065239E+005  0.1043930E+01  0.7957747E-01            NaN
         13   -1    0    0    0    0  0.00000000000E+00  0.00000000000E+00  0.74505805969E-08  0.10566000000E+00  0.10566000000E+00 0.  1.
     999900   -1    0    0    0    0 -0.00000000000E+00 -0.00000000000E+00 -0.74505805969E-08  0.93827000000E+00  0.93827000000E+00 0. -1.
     999902    2    1    2    0    0  0.13569644573E-01  0.17093554406E-02 -0.19749003511E-01  0.10199075045E+01  0.10196245571E+01 0.  0.
     999903    2    3    3    0    0 -0.10920389673E+00  0.46388257128E-01 -0.48574861067E-01  0.12979488424E+00  0.20244342071E-01 0.  0.
         14    1    1    2    0    0 -0.13569644573E-01 -0.17093554406E-02  0.19749003511E-01  0.24022495489E-01  0.00000000000E+00 0.  1.
     999901    1    3    3    0    0  0.12277354131E+00 -0.44678901688E-01  0.28825857557E-01  0.89011262027E+00  0.88000000000E+00 0.  1.
        -11    1    4    4    0    0 -0.32456024583E-01  0.40867556285E-02 -0.12413775139E-01  0.34992256822E-01  0.51100000000E-03 0. -1.
         11    1    4    4    0    0 -0.76747872151E-01  0.42301501500E-01 -0.36161085928E-01  0.94802627418E-01  0.51100000000E-03 0.  1.
</event>
<event>
 8    1  0.1065239E+005  0.1043930E+01  0.7957747E-01            NaN
         13   -1    0    0    0    0  0.00000000000E+00  0.00000000000E+00  0.74505805969E-08  0.10566000000E+00  0.10566000000E+00 0.  1.
     999900   -1    0    0    0    0 -0.00000000000E+00 -0.00000000000E+00 -0.74505805969E-08  0.93827000000E+00  0.93827000000E+00 0. -1.
     999902    2    1    2    0    0 -0.13450953824E-02  0.19778505243E-01 -0.13655111182E-01  0.10198580119E+01  0.10195738834E+01 0.  0.
     999903    2    3    3    0    0 -0.27508218286E-02  0.79342807585E-01  0.10130177225E+00  0.13038346629E+00  0.20855480960E-01 0.  0.
         14    1    1    2    0    0  0.13450953824E-02 -0.19778505243E-01  0.13655111182E-01  0.24071988132E-01  0.00000000000E+00 0.  1.
     999901    1    3    3    0    0  0.14057264462E-02 -0.59564302342E-01 -0.11495688343E+00  0.88947454558E+00  0.88000000000E+00 0. -1.
        -11    1    4    4    0    0  0.38924598669E-02  0.71602351749E-01  0.85820307410E-01  0.11183664115E+00  0.51100000000E-03 0. -1.
         11    1    4    4    0    0 -0.66432816954E-02  0.77404558362E-02  0.15481464835E-01  0.18546825137E-01  0.51100000000E-03 0.  1.
</event>
<event>
 8    1  0.1065239E+005  0.1043930E+01  0.7957747E-01            NaN
         13   -1    0    0    0    0  0.00000000000E+00  0.00000000000E+00  0.74505805969E-08  0.10566000000E+00  0.10566000000E+00 0.  1.
     999900   -1    0    0    0    0 -0.00000000000E+00 -0.00000000000E+00 -0.74505805969E-08  0.93827000000E+00  0.93827000000E+00 0. -1.
     999902    2    1    2    0    0  0.19834771738E-01  0.11771753598E-01  0.70700503118E-02  0.10198057805E+01  0.10195204030E+01 0.  0.
     999903    2    3    3    0    0 -0.47574303503E-01 -0.24878148308E-01 -0.11461222185E+00  0.12812547119E+00  0.19948392276E-01 0.  0.
         14    1    1    2    0    0 -0.19834771738E-01 -0.11771753598E-01 -0.70700503118E-02  0.24124219450E-01  0.00000000000E+00 0.  1.
     999901    1    3    3    0    0  0.67409075241E-01  0.36649901906E-01  0.12168227216E+00  0.89168030936E+00  0.88000000000E+00 0.  1.
        -11    1    4    4    0    0 -0.38829307259E-01 -0.10962719058E-01 -0.88542684983E-01  0.97303466004E-01  0.51100000000E-03 0. -1.
         11    1    4    4    0    0 -0.87449962438E-02 -0.13915429250E-01 -0.26069536867E-01  0.30822005190E-01  0.51100000000E-03 0.  1.
</event>
<event>
 8    1  0.1065239E+005  0.1043930E+01  0.7957747E-01            NaN
         13   -1    0    0    0    0  0.00000000000E+00  0.00000000000E+00  0.74505805969E-08  0.10566000000E+00  0.10566000000E+00 0.  1.
     999900   -1    0    0    0    0 -0.00000000000E+00 -0.00000000000E+00 -0.74505805969E-08  0.93827000000E+00  0.93827000000E+00 0.  1.
     999902    2    1    2    0    0  0.15498691248E-01 -0.78793009062E-02  0.16044659727E-01  0.10202715149E+01  0.10199971765E+01 0.  0.
     999903    2    3    3    0    0 -0.20737646371E-01  0.11749207713E+00  0.47831355252E-01  0.13007971047E+00  0.19961321737E-01 0.  0.
         14    1    1    2    0    0 -0.15498691248E-01  0.78793009062E-02 -0.16044659727E-01  0.23658485135E-01  0.00000000000E+00 0. -1.
     999901    1    3    3    0    0  0.36236337619E-01 -0.12537137804E+00 -0.31786695526E-01  0.89019180439E+00  0.88000000000E+00 0. -1.
        -11    1    4    4    0    0 -0.57368127170E-03  0.31223683809E-01  0.20518808575E-01  0.37370177510E-01  0.51100000000E-03 0.  1.
         11    1    4    4    0    0 -0.20163965099E-01  0.86268393323E-01  0.27312546678E-01  0.92709532962E-01  0.51100000000E-03 0. -1.
</event>
<event>
 8    1  0.1065239E+005  0.1043930E+01  0.7957747E-01            NaN
         13   -1    0    0    0    0  0.00000000000E+00  0.00000000000E+00  0.74505805969E-08  0.10566000000E+00  0.10566000000E+00 0. -1.
     999900   -1    0    0    0    0 -0.00000000000E+00 -0.00000000000E+00 -0.74505805969E-08  0.93827000000E+00  0.93827000000E+00 0. -1.
     999902    2    1    2    0    0 -0.57535611780E-02 -0.22267812775E-01  0.59242131145E-02  0.10201801526E+01  0.10199036663E+01 0.  0.
     999903    2    3    3    0    0 -0.96864548704E-01 -0.72599472211E-01  0.51310611648E-01  0.13288402773E+00  0.19286311095E-01 0.  0.
         14    1    1    2    0    0  0.57535611780E-02  0.22267812775E-01 -0.59242131145E-02  0.23749847432E-01  0.00000000000E+00 0.  1.
     999901    1    3    3    0    0  0.91110987526E-01  0.50331659436E-01 -0.45386398534E-01  0.88729612484E+00  0.88000000000E+00 0. -1.
        -11    1    4    4    0    0 -0.58770960146E-01 -0.33215414795E-01  0.23898515314E-01  0.71614870605E-01  0.51100000000E-03 0. -1.
         11    1    4    4    0    0 -0.38093588558E-01 -0.39384057416E-01  0.27412096334E-01  0.61269157120E-01  0.51100000000E-03 0.  1.
</event>
<event>
 8    1  0.1065239E+005  0.1043930E+01  0.7957747E-01            NaN
         13   -1    0    0    0    0  0.00000000000E+00  0.00000000000E+00  0.74505805969E-08  0.10566000000E+00  0.10566000000E+00 0. -1.
     999900   -1    0    0    0    0 -0.00000000000E+00 -0.00000000000E+00 -0.74505805969E-08  0.93827000000E+00  0.93827000000E+00 0. -1.
     999902    2    1    2    0    0 -0.13287819541E-01 -0.19492216207E-01 -0.41475109573E-02  0.10199776622E+01  0.10196963846E+01 0.  0.
     999903    2    3    3    0    0  0.68538741841E-01 -0.78067692824E-01 -0.76040927684E-01  0.13132962386E+00  0.25944626113E-01 0.  0.
         14    1    1    2    0    0  0.13287819541E-01  0.19492216207E-01  0.41475109573E-02  0.23952337839E-01  0.00000000000E+00 0.  1.
     999901    1    3    3    0    0 -0.81826561382E-01  0.58575476617E-01  0.71893416727E-01  0.88864803830E+00  0.88000000000E+00 0.  1.
        -11    1    4    4    0    0  0.31183049553E-01 -0.53378592814E-01 -0.37951033474E-01  0.72541014695E-01  0.51100000000E-03 0.  1.
         11    1    4    4    0    0  0.37355692288E-01 -0.24689100010E-01 -0.38089894210E-01  0.58788609165E-01  0.51100000000E-03 0. -1.
</event>
<event>
 8    1  0.1065239E+005  0.1043930E+01  0.7957747E-01            NaN
         13   -1    0    0    0    0  0.00000000000E+00  0.00000000000E+00  0.74505805969E-08  0.10566000000E+00  0.10566000000E+00 0. -1.
     999900   -1    0    0    0    0 -0.00000000000E+00 -0.00000000000E+00 -0.74505805969E-08  0.93827000000E+00  0.93827000000E+00 0.  1.
     999902    2    1    2    0    0 -0.57574458322E-02  0.24335147355E-01 -0.87519255244E-02  0.10174357784E+01  0.10170907626E+01 0.  0.
     999903    2    3    3    0    0  0.62864931868E-01 -0.10386517425E+00  0.23145037352E-01  0.12493268626E+00  0.18234836519E-01 0.  0.
         14    1    1    2    0    0  0.57574458322E-02 -0.24335147355E-01  0.87519255244E-02  0.26494221629E-01  0.00000000000E+00 0.  1.
     999901    1    3    3    0    0 -0.68622377700E-01  0.12820032160E+00 -0.31896962877E-01  0.89250309211E+00  0.88000000000E+00 0. -1.
        -11    1    4    4    0    0  0.62029518321E-01 -0.10088094786E+00  0.25331687932E-01  0.12110566593E+00  0.51100000000E-03 0.  1.
         11    1    4    4    0    0  0.83541354672E-03 -0.29842263837E-02 -0.21866505800E-02  0.38270203373E-02  0.51100000000E-03 0. -1.
</event>
<event>
 8    1  0.1065239E+005  0.1043930E+01  0.7957747E-01            NaN
         13   -1    0    0    0    0  0.00000000000E+00  0.00000000000E+00  0.74505805969E-08  0.10566000000E+00  0.10566000000E+00 0. -1.
     999900   -1    0    0    0    0 -0.00000000000E+00 -0.00000000000E+00 -0.74505805969E-08  0.93827000000E+00  0.93827000000E+00 0.  1.
     999902    2    1    2    0    0 -0.84198579920E-02  0.22484425813E-01  0.22555924827E-01  0.10109874264E+01  0.10104505743E+01 0.  0.
     999903    2    3    3    0    0 -0.90072392031E-01 -0.77990808690E-01 -0.74253479638E-02  0.12100917619E+00  0.19811180789E-01 0.  0.
         14    1    1    2    0    0  0.84198579920E-02 -0.22484425813E-01 -0.22555924827E-01  0.32942573633E-01  0.00000000000E+00 0.  1.
     999901    1    3    3    0    0  0.81652534039E-01  0.10047523450E+00  0.29981272791E-01  0.88997825017E+00  0.88000000000E+00 0.  1.
        -11    1    4    4    0    0 -0.31554052335E-01 -0.19297170809E-01 -0.91605990888E-02  0.38107961329E-01  0.51100000000E-03 0.  1.
         11    1    4    4    0    0 -0.58518339696E-01 -0.58693637881E-01  0.17352511250E-02  0.82901214864E-01  0.51100000000E-03 0. -1.
</event>
<event>
 8    1  0.1065239E+005  0.1043930E+01  0.7957747E-01            NaN
         13   -1    0    0    0    0  0.00000000000E+00  0.00000000000E+00  0.74505805969E-08  0.10566000000E+00  0.10566000000E+00 0. -1.
     999900   -1    0    0    0    0 -0.00000000000E+00 -0.00000000000E+00 -0.74505805969E-08  0.93827000000E+00  0.93827000000E+00 0. -1.
     999902    2    1    2    0    0  0.10142946871E-01 -0.52869327995E-02  0.21650236698E-01  0.10194440085E+01  0.10191499020E+01 0.  0.
     999903    2    3    3    0    0  0.69196672312E-01 -0.98091395341E-01 -0.44941428333E-01  0.13009904699E+00  0.22269457715E-01 0.  0.
         14    1    1    2    0    0 -0.10142946871E-01  0.52869327995E-02 -0.21650236698E-01  0.24485991480E-01  0.00000000000E+00 0.  1.
     999901    1    3    3    0    0 -0.59053725441E-01  0.92804462541E-01  0.66591665031E-01  0.88934496154E+00  0.88000000000E+00 0.  1.
        -11    1    4    4    0    0  0.38270969699E-01 -0.50628296376E-01 -0.12082086151E-01  0.64607502988E-01  0.51100000000E-03 0.  1.
         11    1    4    4    0    0  0.30925702613E-01 -0.47463098965E-01 -0.32859342182E-01  0.65491543997E-01  0.51100000000E-03 0. -1.
</event>
<event>
 8    1  0.1065239E+005  0.1043930E+01  0.7957747E-01            NaN
         13   -1    0    0    0    0  0.00000000000E+00  0.00000000000E+00  0.74505805969E-08  0.10566000000E+00  0.10566000000E+00 0.  1.
     999900   -1    0    0    0    0 -0.00000000000E+00 -0.00000000000E+00 -0.74505805969E-08  0.93827000000E+00  0.93827000000E+00 0.  1.
     999902    2    1    2    0    0  0.16465955977E-01  0.35127280024E-02  0.15137670363E-01  0.10212889747E+01  0.10210379786E+01 0.  0.
     999903    2    3    3    0    0  0.59220316648E-01 -0.11636210938E+00  0.19090360334E-02  0.13203484408E+00  0.19554263704E-01 0.  0.
         14    1    1    2    0    0 -0.16465955977E-01 -0.35127280024E-02 -0.15137670363E-01  0.22641025336E-01  0.00000000000E+00 0. -1.
     999901    1    3    3    0    0 -0.42754360671E-01  0.11987483738E+00  0.13228634329E-01  0.88925413058E+00  0.88000000000E+00 0. -1.
        -11    1    4    4    0    0  0.23768251579E-01 -0.42851976882E-01 -0.85772711768E-02  0.49749898569E-01  0.51100000000E-03 0.  1.
         11    1    4    4    0    0  0.35452065068E-01 -0.73510132500E-01  0.10486307210E-01  0.82284945510E-01  0.51100000000E-03 0. -1.
</event>
<event>
 8    1  0.1065239E+005  0.1043930E+01  0.7957747E-01            NaN
         13   -1    0    0    0    0  0.00000000000E+00  0.00000000000E+00  0.74505805969E-08  0.10566000000E+00  0.10566000000E+00 0.  1.
     999900   -1    0    0    0    0 -0.00000000000E+00 -0.00000000000E+00 -0.74505805969E-08  0.93827000000E+00  0.93827000000E+00 0. -1.
     999902    2    1    2    0    0  0.46664739822E-02 -0.14924024160E-01  0.16440896498E-01  0.10212406731E+01  0.10209885929E+01 0.  0.
     999903    2    3    3    0    0 -0.58018774284E-01 -0.46962014343E-01  0.10897454335E+00  0.13359302401E+00  0.20000900149E-01 0.  0.
         14    1    1    2    0    0 -0.46664739822E-02  0.14924024160E-01 -0.16440896498E-01  0.22689326879E-01  0.00000000000E+00 0.  1.
     999901    1    3    3    0    0  0.62685248266E-01  0.32037990183E-01 -0.92533646851E-01  0.88764764911E+00  0.88000000000E+00 0. -1.
        -11    1    4    4    0    0 -0.32101023926E-01 -0.32746465246E-01  0.51489933130E-01  0.68951294824E-01  0.51100000000E-03 0. -1.
         11    1    4    4    0    0 -0.25917750357E-01 -0.14215549097E-01  0.57484610219E-01  0.64641729191E-01  0.51100000000E-03 0.  1.
</event>
<event>
 8    1  0.1065239E+005  0.1043930E+01  0.7957747E-01            NaN
         13   -1    0    0    0    0  0.00000000000E+00  0.00000000000E+00  0.74505805969E-08  0.10566000000E+00  0.10566000000E+00 0.  1.
     999900   -1    0    0    0    0 -0.00000000000E+00 -0.00000000000E+00 -0.74505805969E-08  0.93827000000E+00  0.93827000000E+00 0. -1.
     999902    2    1    2    0    0 -0.21318913475E-01 -0.12547040018E-01  0.36521096060E-04  0.10191928696E+01  0.10188926243E+01 0.  0.
     999903    2    3    3    0    0  0.10904214800E+00 -0.55611900790E-01  0.31889209812E-01  0.12797842722E+00  0.19459768326E-01 0.  0.
         14    1    1    2    0    0  0.21318913475E-01  0.12547040018E-01 -0.36521096060E-04  0.24737130366E-01  0.00000000000E+00 0.  1.
     999901    1    3    3    0    0 -0.13036106147E+00  0.43064860772E-01 -0.31852688716E-01  0.89121444241E+00  0.88000000000E+00 0.  1.
        -11    1    4    4    0    0  0.65945825229E-02 -0.86919772302E-02  0.55822667312E-02  0.12266287526E-01  0.51100000000E-03 0. -1.
         11    1    4    4    0    0  0.10244756547E+00 -0.46919923560E-01  0.26306943081E-01  0.11571213970E+00  0.51100000000E-03 0.  1.
</event>
<event>
 8    1  0.1065239E+005  0.1043930E+01  0.7957747E-01            NaN
         13   -1    0    0    0    0  0.00000000000E+00  0.00000000000E+00  0.74505805969E-08  0.10566000000E+00  0.10566000000E+00 0.  1.
     999900   -1    0    0    0    0 -0.00000000000E+00 -0.00000000000E+00 -0.74505805969E-08  0.93827000000E+00  0.93827000000E+00 0. -1.
     999902    2    1    2    0    0 -0.14568001597E-01 -0.13358269409E-01  0.12917102410E-01  0.10203181054E+01  0.10200448591E+01 0.  0.
     999903    2    3    3    0    0  0.11042818621E+00  0.58932778928E-01 -0.18422069497E-01  0.12799967214E+00  0.19418719872E-01 0.  0.
         14    1    1    2    0    0  0.14568001597E-01  0.13358269409E-01 -0.12917102410E-01  0.23611894604E-01  0.00000000000E+00 0.  1.
     999901    1    3    3    0    0 -0.12499618781E+00 -0.72291048336E-01  0.31339171908E-01  0.89231843326E+00  0.88000000000E+00 0. -1.
        -11    1    4    4    0    0  0.29975522379E-01  0.74510185753E-02 -0.80419414459E-02  0.31921521940E-01  0.51100000000E-03 0. -1.
         11    1    4    4    0    0  0.80452663829E-01  0.51481760352E-01 -0.10380128052E-01  0.96078150199E-01  0.51100000000E-03 0.  1.
</event>
<event>
 8    1  0.1065239E+005  0.1043930E+01  0.7957747E-01            NaN
         13   -1    0    0    0    0  0.00000000000E+00  0.00000000000E+00  0.74505805969E-08  0.10566000000E+00  0.10566000000E+00 0.  1.
     999900   -1    0    0    0    0 -0.00000000000E+00 -0.00000000000E+00 -0.74505805969E-08  0.93827000000E+00  0.93827000000E+00 0. -1.
     999902    2    1    2    0    0 -0.10474302129E-01 -0.90324378040E-02  0.20877341935E-01  0.10188868504E+01  0.10185790369E+01 0.  0.
     999903    2    3    3    0    0  0.37912611588E-01 -0.81074138484E-01 -0.89099595589E-01  0.12780535754E+00  0.19623695709E-01 0.  0.
         14    1    1    2    0    0  0.10474302129E-01  0.90324378040E-02 -0.20877341935E-01  0.25043149643E-01  0.00000000000E+00 0.  1.
     999901    1    3    3    0    0 -0.48386913716E-01  0.72041700680E-01  0.10997693752E+00  0.89108149282E+00  0.88000000000E+00 0.  1.
        -11    1    4    4    0    0  0.39078236513E-02 -0.27036387790E-01 -0.32717619406E-01  0.42625591973E-01  0.51100000000E-03 0. -1.
         11    1    4    4    0    0  0.34004787936E-01 -0.54037750694E-01 -0.56381976183E-01  0.85179765567E-01  0.51100000000E-03 0.  1.
</event>
<event>
 8    1  0.1065239E+005  0.1043930E+01  0.7957747E-01            NaN
         13   -1    0    0    0    0  0.00000000000E+00  0.00000000000E+00  0.74505805969E-08  0.10566000000E+00  0.10566000000E+00 0.  1.
     999900   -1    0    0    0    0 -0.00000000000E+00 -0.00000000000E+00 -0.74505805969E-08  0.93827000000E+00  0.93827000000E+00 0. -1.
     999902    2    1    2    0    0 -0.96029270299E-02  0.19961343038E-01  0.10695373999E-02  0.10217530901E+01  0.10215123894E+01 0.  0.
     999903    2    3    3    0    0 -0.87408510555E-01 -0.41005469839E-01 -0.87549018076E-01  0.13179583859E+00  0.19586123400E-01 0.  0.
         14    1    1    2    0    0  0.96029270299E-02 -0.19961343038E-01 -0.10695373999E-02  0.22176909921E-01  0.00000000000E+00 0.  1.
     999901    1    3    3    0    0  0.77805583525E-01  0.60966812877E-01  0.88618555476E-01  0.88995725149E+00  0.88000000000E+00 0.  1.
        -11    1    4    4    0    0 -0.51694059868E-01 -0.25615707820E-01 -0.64700966505E-01  0.86688618056E-01  0.51100000000E-03 0. -1.
         11    1    4    4    0    0 -0.35714450687E-01 -0.15389762019E-01 -0.22848051572E-01  0.45107220536E-01  0.51100000000E-03 0.  1.
</event>
<event>
 8    1  0.1065239E+005  0.1043930E+01  0.7957747E-01            NaN
         13   -1    0    0    0    0  0.00000000000E+00  0.00000000000E+00  0.74505805969E-08  0.10566000000E+00  0.10566000000E+00 0. -1.
     999900   -1    0    0    0    0 -0.00000000000E+00 -0.00000000000E+00 -0.74505805969E-08  0.93827000000E+00  0.93827000000E+00 0.  1.
     999902    2    1    2    0    0  0.19656157880E-01 -0.21735354635E-02 -0.12641101648E-01  0.10204590339E+01  0.10201890774E+01 0.  0.
     999903    2    3    3    0    0 -0.17678102396E-01 -0.75280380321E-02  0.12584595099E+00  0.12883064637E+00  0.19772339337E-01 0.  0.
         14    1    1    2    0    0 -0.19656157880E-01  0.21735354635E-02  0.12641101648E-01  0.23470966105E-01  0.00000000000E+00 0. -1.
     999901    1    3    3    0    0  0.37334260276E-01  0.53545025686E-02 -0.13848705264E+00  0.89162838752E+00  0.88000000000E+00 0.  1.
        -11    1    4    4    0    0 -0.55634866338E-02  0.54498382736E-02  0.64339929670E-01  0.64811579148E-01  0.51100000000E-03 0. -1.
         11    1    4    4    0    0 -0.12114615762E-01 -0.12977876306E-01  0.61506021321E-01  0.64019067224E-01  0.51100000000E-03 0.  1.
</event>
<event>
 8    1  0.1065239E+005  0.1043930E+01  0.7957747E-01            NaN
         13   -1    0    0    0    0  0.00000000000E+00  0.00000000000E+00  0.74505805969E-08  0.10566000000E+00  0.10566000000E+00 0. -1.
     999900   -1    0    0    0    0 -0.00000000000E+00 -0.00000000000E+00 -0.74505805969E-08  0.93827000000E+00  0.93827000000E+00 0. -1.
     999902    2    1    2    0    0  0.12671619346E-01  0.11964306476E-01  0.16181978934E-01  0.10201482631E+01  0.10198710251E+01 0.  0.
     999903    2    3    3    0    0 -0.11608596391E+00  0.37398705485E-02  0.54571141848E-01  0.12991240426E+00  0.20230808424E-01 0.  0.
         14    1    1    2    0    0 -0.12671619346E-01 -0.11964306476E-01 -0.16181978934E-01  0.23781736869E-01  0.00000000000E+00 0.  1.
     999901    1    3    3    0    0  0.12875758325E+00  0.82244359270E-02 -0.38389162913E-01  0.89023585887E+00  0.88000000000E+00 0. -1.
        -11    1    4    4    0    0 -0.25305303424E-01 -0.72420006229E-02  0.14722521901E-01  0.30163201530E-01  0.51100000000E-03 0.  1.
         11    1    4    4    0    0 -0.90780660485E-01  0.10981871171E-01  0.39848619946E-01  0.99749202729E-01  0.51100000000E-03 0. -1.
</event>
<event>
 8    1  0.1065239E+005  0.1043930E+01  0.7957747E-01            NaN
         13   -1    0    0    0    0  0.00000000000E+00  0.00000000000E+00  0.74505805969E-08  0.10566000000E+00  0.10566000000E+00 0.  1.
     999900   -1    0    0    0    0 -0.00000000000E+00 -0.00000000000E+00 -0.74505805969E-08  0.93827000000E+00  0.93827000000E+00 0.  1.
     999902    2    1    2    0    0 -0.21625384319E-01  0.85875768744E-02  0.86321136971E-02  0.10191123226E+01  0.10188100947E+01 0.  0.
     999903    2    3    3    0    0  0.26466574657E-01 -0.76131964298E-01 -0.96721908788E-01  0.12749036953E+00  0.20052708610E-01 0.  0.
         14    1    1    2    0    0  0.21625384319E-01 -0.85875768744E-02 -0.86321136971E-02  0.24817677378E-01  0.00000000000E+00 0.  1.
     999901    1    3    3    0    0 -0.48091958976E-01  0.84719541172E-01  0.10535402248E+00  0.89162195309E+00  0.88000000000E+00 0. -1.
        -11    1    4    4    0    0  0.23307773799E-01 -0.45885554563E-01 -0.70779587795E-01  0.87514270873E-01  0.51100000000E-03 0.  1.
         11    1    4    4    0    0  0.31588008578E-02 -0.30246409734E-01 -0.25942320993E-01  0.39976098662E-01  0.51100000000E-03 0. -1.
</event>
<event>
 8    1  0.1065239E+005  0.1043930E+01  0.7957747E-01            NaN
         13   -1    0    0    0    0  0.00000000000E+00  0.00000000000E+00  0.74505805969E-08  0.10566000000E+00  0.10566000000E+00 0. -1.
     999900   -1    0    0    0    0 -0.00000000000E+00 -0.00000000000E+00 -0.74505805969E-08  0.93827000000E+00  0.93827000000E+00 0. -1.
     999902    2    1    2    0    0  0.73060452502E-02 -0.16499217317E-02 -0.23158871360E-01  0.10195900357E+01  0.10192994688E+01 0.  0.
     999903    2    3    3    0    0 -0.88253531141E-01  0.87563047253E-01 -0.32112197545E-01  0.12988741768E+00  0.19585071821E-01 0.  0.
         14    1    1    2    0    0 -0.73060452502E-02  0.16499217317E-02  0.23158871360E-01  0.24339964289E-01  0.00000000000E+00 0. -1.
     999901    1    3    3    0    0  0.95559576391E-01 -0.89212968985E-01  0.89533261847E-02  0.88970261803E+00  0.88000000000E+00 0.  1.
        -11    1    4    4    0    0 -0.17318559643E-01  0.25328291190E-01 -0.14291802523E-01  0.33852202042E-01  0.51100000000E-03 0. -1.
         11    1    4    4    0    0 -0.70934971498E-01  0.62234756064E-01 -0.17820395022E-01  0.96035215642E-01  0.51100000000E-03 0.  1.
</event>
<event>
 8    1  0.1065239E+005  0.1043930E+01  0.7957747E-01            NaN
         13   -1    0    0    0    0  0.00000000000E+00  0.00000000000E+00  0.74505805969E-08  0.10566000000E+00  0.10566000000E+00 0. -1.
     999900   -1    0    0    0    0 -0.00000000000E+00 -0.00000000000E+00 -0.74505805969E-08  0.93827000000E+00  0.93827000000E+00 0. -1.
     999902    2    1    2    0    0  0.75094971029E-02 -0.19323025079E-01  0.12241364478E-01  0.10198546423E+01  0.10195704333E+01 0.  0.
     999903    2    3    3    0    0  0.89691604957E-01  0.72427862104E-01  0.56827792514E-01  0.13015802336E+00  0.20526417987E-01 0.  0.
         14    1    1    2    0    0 -0.75094971029E-02  0.19323025079E-01 -0.12241364478E-01  0.24075357717E-01  0.00000000000E+00 0.  1.
     999901    1    3    3    0    0 -0.82182107854E-01 -0.91750887182E-01 -0.44586428036E-01  0.88969661892E+00  0.88000000000E+00 0. -1.
        -11    1    4    4    0    0  0.42308275969E-01  0.41245392285E-01  0.38586808980E-01  0.70571775863E-01  0.51100000000E-03 0. -1.
         11    1    4    4    0    0  0.47383328988E-01  0.31182469819E-01  0.18240983534E-01  0.59586247501E-01  0.51100000000E-03 0.  1.
</event>
<event>
 8    1  0.1065239E+005  0.1043930E+01  0.7957747E-01            NaN
         13   -1    0    0    0    0  0.00000000000E+00  0.00000000000E+00  0.74505805969E-08  0.10566000000E+00  0.10566000000E+00 0. -1.
     999900   -1    0    0    0    0 -0.00000000000E+00 -0.00000000000E+00 -0.74505805969E-08  0.93827000000E+00  0.93827000000E+00 0.  1.
     999902    2    1    2    0    0 -0.13051929528E-02  0.21868641367E-01  0.98499148305E-02  0.10199099703E+01  0.10196270817E+01 0.  0.
     999903    2    3    3    0    0 -0.38732817548E-01  0.12070314169E+00  0.35129282700E-01  0.13322618678E+00  0.21110915996E-01 0.  0.
         14    1    1    2    0    0  0.13051929528E-02 -0.21868641367E-01 -0.98499148305E-02  0.24020029685E-01  0.00000000000E+00 0.  1.
     999901    1    3    3    0    0  0.37427624595E-01 -0.98834500318E-01 -0.25279367870E-01  0.88668378353E+00  0.88000000000E+00 0.  1.
        -11    1    4    4    0    0 -0.10195128733E-01  0.11481386770E-01  0.15109094588E-02  0.15437190821E-01  0.51100000000E-03 0.  1.
         11    1    4    4    0    0 -0.28537688815E-01  0.10922175492E+00  0.33618373241E-01  0.11778899596E+00  0.51100000000E-03 0. -1.
</event>
<event>
 8    1  0.1065239E+005  0.1043930E+01  0.7957747E-01            NaN
         13   -1    0    0    0    0  0.00000000000E+00  0.00000000000E+00  0.74505805969E-08  0.10566000000E+00  0.10566000000E+00 0.  1.
     999900   -1    0    0    0    0 -0.00000000000E+00 -0.00000000000E+00 -0.74505805969E-08  0.93827000000E+00  0.93827000000E+00 0.  1.
     999902    2    1    2    0    0  0.23724029154E-01 -0.86792207713E-03  0.58650210163E-02  0.10194763434E+01  0.10191830226E+01 0.  0.
     999903    2    3    3    0    0 -0.12488064094E+00 -0.40943493851E-02 -0.93409005767E-02  0.12688182303E+00  0.19995159714E-01 0.  0.
         14    1    1    2    0    0 -0.23724029154E-01  0.86792207713E-03 -0.58650210163E-02  0.24453656568E-01  0.00000000000E+00 0.  1.
     999901    1    3    3    0    0  0.14860467010E+00  0.32264273079E-02  0.15205921593E-01  0.89259452041E+00  0.88000000000E+00 0. -1.
        -11    1    4    4    0    0 -0.92131671165E-01 -0.64121783376E-02  0.13021038146E-02  0.92365131180E-01  0.51100000000E-03 0. -1.
         11    1    4    4    0    0 -0.32748969777E-01  0.23178289525E-02 -0.10643004391E-01  0.34516691846E-01  0.51100000000E-03 0.  1.
</event>
<event>
 8    1  0.1065239E+005  0.1043930E+01  0.7957747E-01            NaN
         13   -1    0    0    0    0  0.00000000000E+00  0.00000000000E+00  0.74505805969E-08  0.10566000000E+00  0.10566000000E+00 0. -1.
     999900   -1    0    0    0    0 -0.00000000000E+00 -0.00000000000E+00 -0.74505805969E-08  0.93827000000E+00  0.93827000000E+00 0.  1.
     999902    2    1    2    0    0 -0.19997097896E-01 -0.11520440410E-01  0.15857953344E-01  0.10159285865E+01  0.10155426204E+01 0.  0.
     999903    2    3    3    0    0  0.11748487850E+00 -0.26460385218E-01  0.24984284721E-01  0.12508191864E+00  0.22768909190E-01 0.  0.
         14    1    1    2    0    0  0.19997097896E-01  0.11520440410E-01 -0.15857953344E-01  0.28001413460E-01  0.00000000000E+00 0.  1.
     999901    1    3    3    0    0 -0.13748197640E+00  0.14939944807E-01 -0.91263313767E-02  0.89084666790E+00  0.88000000000E+00 0. -1.
        -11    1    4    4    0    0  0.10501511343E+00 -0.20467328235E-01  0.15058361167E-01  0.10804675347E+00  0.51100000000E-03 0. -1.
         11    1    4    4    0    0  0.12469765067E-01 -0.59930569830E-02  0.99259235533E-02  0.17035165166E-01  0.51100000000E-03 0.  1.
</event>
<event>
 8    1  0.1065239E+005  0.1043930E+01  0.7957747E-01            NaN
         13   -1    0    0    0    0  0.00000000000E+00  0.00000000000E+00  0.74505805969E-08  0.10566000000E+00  0.10566000000E+00 0.  1.
     999900   -1    0    0    0    0 -0.00000000000E+00 -0.00000000000E+00 -0.74505805969E-08  0.93827000000E+00  0.93827000000E+00 0. -1.
     999902    2    1    2    0    0 -0.21710929024E-01  0.30730363573E-02 -0.19615571858E-01  0.10145092819E+01  0.10140825925E+01 0.  0.
     999903    2    3    3    0    0  0.48187634847E-01 -0.43948340016E-01  0.10159620229E+00  0.12221498450E+00  0.19005509018E-01 0.  0.
         14    1    1    2    0    0  0.21710929024E-01 -0.30730363573E-02  0.19615571858E-01  0.29420718054E-01  0.00000000000E+00 0.  1.
     999901    1    3    3    0    0 -0.69898563871E-01  0.47021376374E-01 -0.12121177415E+00  0.89229429745E+00  0.88000000000E+00 0. -1.
        -11    1    4    4    0    0  0.15093336979E-01 -0.36755888033E-02  0.28047580204E-01  0.32066285263E-01  0.51100000000E-03 0.  1.
         11    1    4    4    0    0  0.33094297868E-01 -0.40272751213E-01  0.73548622088E-01  0.90148699234E-01  0.51100000000E-03 0. -1.
</event>
<event>
 8    1  0.1065239E+005  0.1043930E+01  0.7957747E-01            NaN
         13   -1    0    0    0    0  0.00000000000E+00  0.00000000000E+00  0.74505805969E-08  0.10566000000E+00  0.10566000000E+00 0. -1.
     999900   -1    0    0    0    0 -0.00000000000E+00 -0.00000000000E+00 -0.74505805969E-08  0.93827000000E+00  0.93827000000E+00 0.  1.
     999902    2    1    2    0    0  0.56797887071E-02 -0.22738583381E-01 -0.78812302434E-03  0.10204795349E+01  0.10202100553E+01 0.  0.
     999903    2    3    3    0    0  0.77129984581E-01  0.62782666415E-02  0.10342148549E+00  0.13098150201E+00  0.21718633776E-01 0.  0.
         14    1    1    2    0    0 -0.56797887071E-02  0.22738583381E-01  0.78812302434E-03  0.23450465066E-01  0.00000000000E+00 0.  1.
     999901    1    3    3    0    0 -0.71450195874E-01 -0.29016850022E-01 -0.10420960852E+00  0.88949803293E+00  0.88000000000E+00 0.  1.
        -11    1    4    4    0    0  0.12881755071E-01 -0.13561159364E-02  0.32449516789E-01  0.34942966745E-01  0.51100000000E-03 0.  1.
         11    1    4    4    0    0  0.64248229510E-01  0.76343825779E-02  0.70971968702E-01  0.96038535260E-01  0.51100000000E-03 0. -1.
</event>
<event>
 8    1  0.1065239E+005  0.1043930E+01  0.7957747E-01            NaN
         13   -1    0    0    0    0  0.00000000000E+00  0.00000000000E+00  0.74505805969E-08  0.10566000000E+00  0.10566000000E+00 0. -1.
     999900   -1    0    0    0    0 -0.00000000000E+00 -0.00000000000E+00 -0.74505805969E-08  0.93827000000E+00  0.93827000000E+00 0. -1.
     999902    2    1    2    0    0  0.15369525399E-01 -0.11443425213E-01 -0.13992207321E-01  0.10202033029E+01  0.10199273616E+01 0.  0.
     999903    2    3    3    0    0 -0.11581498026E+00 -0.86462931516E-02 -0.53680964078E-01  0.12958980875E+00  0.20591371724E-01 0.  0.
         14    1    1    2    0    0 -0.15369525399E-01  0.11443425213E-01  0.13992207321E-01  0.23726697143E-01  0.00000000000E+00 0. -1.
     999901    1    3    3    0    0  0.13118450566E+00 -0.27971320616E-02  0.39688756757E-01  0.89061349411E+00  0.88000000000E+00 0.  1.
        -11    1    4    4    0    0 -0.80742537844E-01 -0.14522885167E-01 -0.32842192751E-01  0.88369351909E-01  0.51100000000E-03 0.  1.
         11    1    4    4    0    0 -0.35072442417E-01  0.58765920159E-02 -0.20838771327E-01  0.41220456841E-01  0.51100000000E-03 0. -1.
</event>
<event>
 8    1  0.1065239E+005  0.1043930E+01  0.7957747E-01            NaN
         13   -1    0    0    0    0  0.00000000000E+00  0.00000000000E+00  0.74505805969E-08  0.10566000000E+00  0.10566000000E+00 0. -1.
     999900   -1    0    0    0    0 -0.00000000000E+00 -0.00000000000E+00 -0.74505805969E-08  0.93827000000E+00  0.93827000000E+00 0. -1.
     999902    2    1    2    0    0 -0.11042077686E-01  0.19777574535E-01 -0.68190009418E-02  0.10202745840E+01  0.10200003176E+01 0.  0.
     999903    2    3    3    0    0 -0.55372117541E-01 -0.33505391467E-01  0.11050561145E+00  0.12978635183E+00  0.21079001390E-01 0.  0.
         14    1    1    2    0    0  0.11042077686E-01 -0.19777574535E-01  0.68190009418E-02  0.23655416039E-01  0.00000000000E+00 0. -1.
     999901    1    3    3    0    0  0.44330039854E-01  0.53282966001E-01 -0.11732461239E+00  0.89048823214E+00  0.88000000000E+00 0. -1.
        -11    1    4    4    0    0 -0.40329552211E-01 -0.30280977166E-01  0.68612298288E-01  0.85154676660E-01  0.51100000000E-03 0.  1.
         11    1    4    4    0    0 -0.15042565330E-01 -0.32244143010E-02  0.41893313163E-01  0.44631675166E-01  0.51100000000E-03 0. -1.
</event>
<event>
 8    1  0.1065239E+005  0.1043930E+01  0.7957747E-01            NaN
         13   -1    0    0    0    0  0.00000000000E+00  0.00000000000E+00  0.74505805969E-08  0.10566000000E+00  0.10566000000E+00 0.  1.
     999900   -1    0    0    0    0 -0.00000000000E+00 -0.00000000000E+00 -0.74505805969E-08  0.93827000000E+00  0.93827000000E+00 0.  1.
     999902    2    1    2    0    0  0.90422622356E-02  0.16487923706E-01 -0.94574834158E-02  0.10228810540E+01  0.10226644575E+01 0.  0.
     999903    2    3    3    0    0 -0.10012971557E+00 -0.54042802339E-01 -0.63205243557E-01  0.13171220033E+00  0.20164733534E-01 0.  0.
         14    1    1    2    0    0 -0.90422622356E-02 -0.16487923706E-01  0.94574834158E-02  0.21048945984E-01  0.00000000000E+00 0.  1.
     999901    1    3    3    0    0  0.10917197781E+00  0.70530726045E-01  0.53747760141E-01  0.89116885368E+00  0.88000000000E+00 0. -1.
        -11    1    4    4    0    0 -0.58343314479E-01 -0.41966301572E-01 -0.35728235326E-01  0.80261327752E-01  0.51100000000E-03 0. -1.
         11    1    4    4    0    0 -0.41786401092E-01 -0.12076500766E-01 -0.27477008231E-01  0.51450872581E-01  0.51100000000E-03 0.  1.
</event>
<event>
 8    1  0.1065239E+005  0.1043930E+01  0.7957747E-01            NaN
         13   -1    0    0    0    0  0.00000000000E+00  0.00000000000E+00  0.74505805969E-08  0.10566000000E+00  0.10566000000E+00 0.  1.
     999900   -1    0    0    0    0 -0.00000000000E+00 -0.00000000000E+00 -0.74505805969E-08  0.93827000000E+00  0.93827000000E+00 0. -1.
     999902    2    1    2    0    0 -0.77718978241E-02  0.13779601710E-01  0.18414674076E-01  0.10196528494E+01  0.10193637983E+01 0.  0.
     999903    2    3    3    0    0 -0.12122545651E+00  0.16520939840E-01  0.45483564215E-01  0.13195247782E+00  0.19342932310E-01 0.  0.
         14    1    1    2    0    0  0.77718978241E-02 -0.13779601710E-01 -0.18414674076E-01  0.24277150582E-01  0.00000000000E+00 0. -1.
     999901    1    3    3    0    0  0.11345355869E+00 -0.27413381301E-02 -0.27068890139E-01  0.88770037159E+00  0.88000000000E+00 0. -1.
        -11    1    4    4    0    0 -0.46614529202E-01  0.84170651178E-02  0.27506495831E-01  0.54778004271E-01  0.51100000000E-03 0. -1.
         11    1    4    4    0    0 -0.74610927310E-01  0.81038747224E-02  0.17977068384E-01  0.77174473554E-01  0.51100000000E-03 0.  1.
</event>
<event>
 7    1  0.1065239E+005  0.1043930E+01  0.7957747E-01            NaN
         13   -1    0    0    0    0  0.00000000000E+00  0.00000000000E+00  0.74505805969E-08  0.10566000000E+00  0.10566000000E+00 0.  1.
     999900   -1    0    0    0    0 -0.00000000000E+00 -0.00000000000E+00 -0.74505805969E-08  0.93827000000E+00  0.93827000000E+00 0. -1.
     999902    2    1    2    0    0 -0.14042922899E-01 -0.55600856535E-02 -0.42536308112E-02  0.10282388684E+01  0.10281191365E+01 0.  0.
         14    1    1    2    0    0  0.14042922899E-01  0.55600856535E-02  0.42536308112E-02  0.15691131607E-01  0.00000000000E+00 0. -1.
     999901    1    3    3    0    0  0.45430919113E-01  0.11062774455E+00  0.19600845988E-01  0.88830549894E+00  0.88000000000E+00 0.  1.
        -11    1    3    3    0    0 -0.38719481054E-01 -0.30246713993E-01 -0.13219022439E-01  0.50882861513E-01  0.51100000000E-03 0. -1.
         11    1    3    3    0    0 -0.20754360958E-01 -0.85941116213E-01 -0.10635454360E-01  0.89050507945E-01  0.51100000000E-03 0.  1.
</event>
<event>
 8    1  0.1065239E+005  0.1043930E+01  0.7957747E-01            NaN
         13   -1    0    0    0    0  0.00000000000E+00  0.00000000000E+00  0.74505805969E-08  0.10566000000E+00  0.10566000000E+00 0.  1.
     999900   -1    0    0    0    0 -0.00000000000E+00 -0.00000000000E+00 -0.74505805969E-08  0.93827000000E+00  0.93827000000E+00 0.  1.
     999902    2    1    2    0    0 -0.19804020614E-01  0.12430584529E-01 -0.11720117025E-02  0.10205186294E+01  0.10202500579E+01 0.  0.
     999903    2    3    3    0    0  0.76247578316E-01  0.24143123004E-01  0.99814045941E-01  0.12947358164E+00  0.20099278293E-01 0.  0.
         14    1    1    2    0    0  0.19804020614E-01 -0.12430584529E-01  0.11720117025E-02  0.23411370649E-01  0.00000000000E+00 0. -1.
     999901    1    3    3    0    0 -0.96051598930E-01 -0.11712538475E-01 -0.10098605764E+00  0.89104504771E+00  0.88000000000E+00 0.  1.
        -11    1    4    4    0    0  0.12801641170E-01 -0.46581329197E-03  0.26526031937E-01  0.29461678329E-01  0.51100000000E-03 0. -1.
         11    1    4    4    0    0  0.63445937147E-01  0.24608936296E-01  0.73288014004E-01  0.10001190331E+00  0.51100000000E-03 0.  1.
</event>
<event>
 8    1  0.1065239E+005  0.1043930E+01  0.7957747E-01            NaN
         13   -1    0    0    0    0  0.00000000000E+00  0.00000000000E+00  0.74505805969E-08  0.10566000000E+00  0.10566000000E+00 0. -1.
     999900   -1    0    0    0    0 -0.00000000000E+00 -0.00000000000E+00 -0.74505805969E-08  0.93827000000E+00  0.93827000000E+00 0.  1.
     999902    2    1    2    0    0  0.40852093048E-02 -0.13560574168E-01  0.11747918739E-01  0.10255291386E+01  0.10253640438E+01 0.  0.
     999903    2    3    3    0    0  0.11364651796E+00  0.50992911173E-01  0.49188426935E-01  0.13560070072E+00  0.21265950661E-01 0.  0.
         14    1    1    2    0    0 -0.40852093048E-02  0.13560574168E-01 -0.11747918739E-01  0.18400861435E-01  0.00000000000E+00 0. -1.
     999901    1    3    3    0    0 -0.10956130866E+00 -0.64553485342E-01 -0.37440508195E-01  0.88992843784E+00  0.88000000000E+00 0.  1.
        -11    1    4    4    0    0  0.81774180265E-01  0.33988679993E-01  0.24641536976E-01  0.91922322595E-01  0.51100000000E-03 0.  1.
         11    1    4    4    0    0  0.31872337698E-01  0.17004231180E-01  0.24546889958E-01  0.43678378129E-01  0.51100000000E-03 0. -1.
</event>
<event>
 8    1  0.1065239E+005  0.1043930E+01  0.7957747E-01            NaN
         13   -1    0    0    0    0  0.00000000000E+00  0.00000000000E+00  0.74505805969E-08  0.10566000000E+00  0.10566000000E+00 0.  1.
     999900   -1    0    0    0    0 -0.00000000000E+00 -0.00000000000E+00 -0.74505805969E-08  0.93827000000E+00  0.93827000000E+00 0. -1.
     999902    2    1    2    0    0 -0.13881528788E-01 -0.19679654878E-06 -0.18902665443E-01  0.10204777591E+01  0.10202082382E+01 0.  0.
     999903    2    3    3    0    0  0.10097123061E+00 -0.63267436877E-01  0.43942990480E-01  0.12854531970E+00  0.19873470388E-01 0.  0.
         14    1    1    2    0    0  0.13881528788E-01  0.19679654878E-06  0.18902665443E-01  0.23452240882E-01  0.00000000000E+00 0.  1.
     999901    1    3    3    0    0 -0.11485275940E+00  0.63267240080E-01 -0.62845655924E-01  0.89193243941E+00  0.88000000000E+00 0. -1.
        -11    1    4    4    0    0  0.44126768189E-01 -0.39056940613E-01  0.23825881753E-01  0.63565321074E-01  0.51100000000E-03 0. -1.
         11    1    4    4    0    0  0.56844462423E-01 -0.24210496264E-01  0.20117108727E-01  0.64979998631E-01  0.51100000000E-03 0.  1.
</event>
<event>
 8    1  0.1065239E+005  0.1043930E+01  0.7957747E-01            NaN
         13   -1    0    0    0    0  0.00000000000E+00  0.00000000000E+00  0.74505805969E-08  0.10566000000E+00  0.10566000000E+00 0.  1.
     999900   -1    0    0    0    0 -0.00000000000E+00 -0.00000000000E+00 -0.74505805969E-08  0.93827000000E+00  0.93827000000E+00 0. -1.
     999902    2    1    2    0    0 -0.20675187741E-01 -0.10340682054E-01 -0.62119065233E-02  0.10199929811E+01  0.10197120675E+01 0.  0.
     999903    2    3    3    0    0 -0.95217074992E-01 -0.72754247482E-01  0.53307497723E-01  0.13264045495E+00  0.19807298608E-01 0.  0.
         14    1    1    2    0    0  0.20675187741E-01  0.10340682054E-01  0.62119065233E-02  0.23937018948E-01  0.00000000000E+00 0. -1.
     999901    1    3    3    0    0  0.74541887251E-01  0.62413565428E-01 -0.59519404246E-01  0.88735252611E+00  0.88000000000E+00 0. -1.
        -11    1    4    4    0    0 -0.15632996950E-01 -0.41774488798E-02  0.98552650532E-02  0.18953338573E-01  0.51100000000E-03 0.  1.
         11    1    4    4    0    0 -0.79584078042E-01 -0.68576798602E-01  0.43452232669E-01  0.11368711637E+00  0.51100000000E-03 0. -1.
</event>
<event>
 8    1  0.1065239E+005  0.1043930E+01  0.7957747E-01            NaN
         13   -1    0    0    0    0  0.00000000000E+00  0.00000000000E+00  0.74505805969E-08  0.10566000000E+00  0.10566000000E+00 0.  1.
     999900   -1    0    0    0    0 -0.00000000000E+00 -0.00000000000E+00 -0.74505805969E-08  0.93827000000E+00  0.93827000000E+00 0.  1.
     999902    2    1    2    0    0  0.18193097905E-01  0.65510019925E-02 -0.13855612850E-01  0.10201417162E+01  0.10198643237E+01 0.  0.
     999903    2    3    3    0    0 -0.52853881276E-01 -0.10003466346E+00 -0.59965923136E-01  0.12967311033E+00  0.20463062949E-01 0.  0.
         14    1    1    2    0    0 -0.18193097905E-01 -0.65510019925E-02  0.13855612850E-01  0.23788283796E-01  0.00000000000E+00 0.  1.
     999901    1    3    3    0    0  0.71046979181E-01  0.10658566546E+00  0.46110310286E-01  0.89046860587E+00  0.88000000000E+00 0.  1.
        -11    1    4    4    0    0 -0.44965758229E-01 -0.65687732281E-01 -0.38757463029E-01  0.88539254835E-01  0.51100000000E-03 0. -1.
         11    1    4    4    0    0 -0.78881230468E-02 -0.34346931182E-01 -0.21208460107E-01  0.41133855496E-01  0.51100000000E-03 0.  1.
</event>
<event>
 8    1  0.1065239E+005  0.1043930E+01  0.7957747E-01            NaN
         13   -1    0    0    0    0  0.00000000000E+00  0.00000000000E+00  0.74505805969E-08  0.10566000000E+00  0.10566000000E+00 0.  1.
     999900   -1    0    0    0    0 -0.00000000000E+00 -0.00000000000E+00 -0.74505805969E-08  0.93827000000E+00  0.93827000000E+00 0.  1.
     999902    2    1    2    0    0 -0.10631094875E-01  0.54415551547E-03 -0.21443573998E-01  0.10199895917E+01  0.10197085976E+01 0.  0.
     999903    2    3    3    0    0 -0.86416336100E-01 -0.24112934347E-01 -0.96210629162E-01  0.13323061239E+00  0.21087772877E-01 0.  0.
         14    1    1    2    0    0  0.10631094875E-01 -0.54415551547E-03  0.21443573998E-01  0.23940408294E-01  0.00000000000E+00 0.  1.
     999901    1    3    3    0    0  0.75785241225E-01  0.24657089863E-01  0.74767055164E-01  0.88675897932E+00  0.88000000000E+00 0. -1.
        -11    1    4    4    0    0 -0.47740714891E-01 -0.23158303563E-01 -0.49389100477E-01  0.72491566745E-01  0.51100000000E-03 0.  1.
         11    1    4    4    0    0 -0.38675621209E-01 -0.95463078431E-03 -0.46821528685E-01  0.60739045640E-01  0.51100000000E-03 0. -1.
</event>
<event>
 8    1  0.1065239E+005  0.1043930E+01  0.7957747E-01            NaN
         13   -1    0    0    0    0  0.00000000000E+00  0.00000000000E+00  0.74505805969E-08  0.10566000000E+00  0.10566000000E+00 0. -1.
     999900   -1    0    0    0    0 -0.00000000000E+00 -0.00000000000E+00 -0.74505805969E-08  0.93827000000E+00  0.93827000000E+00 0.  1.
     999902    2    1    2    0    0 -0.18064693639E-02  0.44071952990E-02  0.24421131507E-01  0.10190487145E+01  0.10187449162E+01 0.  0.
     999903    2    3    3    0    0 -0.83224998462E-01  0.48055145894E-01  0.88165406662E-01  0.13191994537E+00  0.19850330969E-01 0.  0.
         14    1    1    2    0    0  0.18064693639E-02 -0.44071952990E-02 -0.24421131507E-01  0.24881285458E-01  0.00000000000E+00 0.  1.
     999901    1    3    3    0    0  0.81418529098E-01 -0.43647950595E-01 -0.63744275155E-01  0.88712876917E+00  0.88000000000E+00 0.  1.
        -11    1    4    4    0    0 -0.77342574833E-01  0.43002224484E-01  0.72379000194E-01  0.11432430180E+00  0.51100000000E-03 0. -1.
         11    1    4    4    0    0 -0.58824236285E-02  0.50529214101E-02  0.15786406468E-01  0.17595643572E-01  0.51100000000E-03 0.  1.
</event>
<event>
 8    1  0.1065239E+005  0.1043930E+01  0.7957747E-01            NaN
         13   -1    0    0    0    0  0.00000000000E+00  0.00000000000E+00  0.74505805969E-08  0.10566000000E+00  0.10566000000E+00 0.  1.
     999900   -1    0    0    0    0 -0.00000000000E+00 -0.00000000000E+00 -0.74505805969E-08  0.93827000000E+00  0.93827000000E+00 0. -1.
     999902    2    1    2    0    0  0.44009409372E-02  0.22114232221E-01 -0.43906852473E-02  0.10209585903E+01  0.10207001310E+01 0.  0.
     999903    2    3    3    0    0  0.34982450685E-02  0.11669096413E+00  0.63017790470E-01  0.13332720525E+00  0.13262085686E-01 0.  0.
         14    1    1    2    0    0 -0.44009409372E-02 -0.22114232221E-01  0.43906852473E-02  0.22971409726E-01  0.00000000000E+00 0. -1.
     999901    1    3    3    0    0  0.90269586866E-03 -0.94576731908E-01 -0.67408475717E-01  0.88763138502E+00  0.88000000000E+00 0. -1.
        -11    1    4    4    0    0 -0.17336173451E-02  0.97734591695E-01  0.54169248712E-01  0.11175698846E+00  0.51100000000E-03 0.  1.
         11    1    4    4    0    0  0.52318624136E-02  0.18956372434E-01  0.88485417582E-02  0.21570216791E-01  0.51100000000E-03 0. -1.
</event>
<event>
 8    1  0.1065239E+005  0.1043930E+01  0.7957747E-01            NaN
         13   -1    0    0    0    0  0.00000000000E+00  0.00000000000E+00  0.74505805969E-08  0.10566000000E+00  0.10566000000E+00 0. -1.
     999900   -1    0    0    0    0 -0.00000000000E+00 -0.00000000000E+00 -0.74505805969E-08  0.93827000000E+00  0.93827000000E+00 0. -1.
     999902    2    1    2    0    0  0.13003246163E-01  0.17527872783E-01 -0.99849888550E-02  0.10199297763E+01  0.10196473596E+01 0.  0.
     999903    2    3    3    0    0 -0.53419157903E-01 -0.84168449734E-01  0.76538018159E-01  0.12738268594E+00  0.20744784683E-01 0.  0.
         14    1    1    2    0    0 -0.13003246163E-01 -0.17527872783E-01  0.99849888550E-02  0.24000223697E-01  0.00000000000E+00 0. -1.
     999901    1    3    3    0    0  0.66422404066E-01  0.10169632252E+00 -0.86523007014E-01  0.89254709036E+00  0.88000000000E+00 0. -1.
        -11    1    4    4    0    0 -0.40529490248E-01 -0.54023216698E-01  0.40907945424E-01  0.78961184401E-01  0.51100000000E-03 0. -1.
         11    1    4    4    0    0 -0.12889667655E-01 -0.30145233035E-01  0.35630072736E-01  0.48421501538E-01  0.51100000000E-03 0.  1.
</event>
<event>
 8    1  0.1065239E+005  0.1043930E+01  0.7957747E-01            NaN
         13   -1    0    0    0    0  0.00000000000E+00  0.00000000000E+00  0.74505805969E-08  0.10566000000E+00  0.10566000000E+00 0.  1.
     999900   -1    0    0    0    0 -0.00000000000E+00 -0.00000000000E+00 -0.74505805969E-08  0.93827000000E+00  0.93827000000E+00 0.  1.
     999902    2    1    2    0    0  0.14811803749E-01 -0.15531785902E-01 -0.11634700982E-01  0.10195170491E+01  0.10192247158E+01 0.  0.
     999903    2    3    3    0    0 -0.27516730042E-01 -0.12090545919E+00  0.36900070831E-01  0.13089399075E+00  0.19907814845E-01 0.  0.
         14    1    1    2    0    0 -0.14811803749E-01  0.15531785902E-01  0.11634700982E-01  0.24412950877E-01  0.00000000000E+00 0.  1.
     999901    1    3    3    0    0  0.42328533791E-01  0.10537367329E+00 -0.48534771813E-01  0.88862305837E+00  0.88000000000E+00 0.  1.
        -11    1    4    4    0    0 -0.15766811653E-01 -0.10274404407E+00  0.30609672110E-01  0.10836117427E+00  0.51100000000E-03 0. -1.
         11    1    4    4    0    0 -0.11749918389E-01 -0.18161415130E-01  0.62903987210E-02  0.22532816484E-01  0.51100000000E-03 0.  1.
</event>
<event>
 8    1  0.1065239E+005  0.1043930E+01  0.7957747E-01            NaN
         13   -1    0    0    0    0  0.00000000000E+00  0.00000000000E+00  0.74505805969E-08  0.10566000000E+00  0.10566000000E+00 0.  1.
     999900   -1    0    0    0    0 -0.00000000000E+00 -0.00000000000E+00 -0.74505805969E-08  0.93827000000E+00  0.93827000000E+00 0. -1.
     999902    2    1    2    0    0 -0.67205016216E-02  0.21436175983E-01 -0.82775338623E-02  0.10199885642E+01  0.10197075457E+01 0.  0.
     999903    2    3    3    0    0  0.20320897607E-01  0.58682304180E-01 -0.11536886401E+00  0.13230220946E+00  0.18367039581E-01 0.  0.
         14    1    1    2    0    0  0.67205016216E-02 -0.21436175983E-01  0.82775338623E-02  0.23941435832E-01  0.00000000000E+00 0.  1.
     999901    1    3    3    0    0 -0.27041399228E-01 -0.37246128197E-01  0.10709133015E+00  0.88768635471E+00  0.88000000000E+00 0.  1.
        -11    1    4    4    0    0  0.77004685393E-03  0.23711702887E-01 -0.54343773004E-01  0.59298774112E-01  0.51100000000E-03 0. -1.
         11    1    4    4    0    0  0.19550850753E-01  0.34970601293E-01 -0.61025091004E-01  0.73003435351E-01  0.51100000000E-03 0.  1.
</event>
<event>
 7    1  0.1065239E+005  0.1043930E+01  0.7957747E-01            NaN
         13   -1    0    0    0    0  0.00000000000E+00  0.00000000000E+00  0.74505805969E-08  0.10566000000E+00  0.10566000000E+00 0. -1.
     999900   -1    0    0    0    0 -0.00000000000E+00 -0.00000000000E+00 -0.74505805969E-08  0.93827000000E+00  0.93827000000E+00 0.  1.
     999903    2    1    2    0    0  0.11352787614E+00  0.18928552538E-01 -0.18437829619E-01  0.11819051439E+00  0.19549306065E-01 0.  0.
         14    1    1    2    0    0 -0.10185908834E-02 -0.23075294767E-01  0.30777790759E-01  0.38480893441E-01  0.00000000000E+00 0. -1.
     999901    1    1    2    0    0 -0.11250928526E+00  0.41467422291E-02 -0.12339961140E-01  0.88725859217E+00  0.88000000000E+00 0.  1.
        -11    1    3    3    0    0  0.10842599542E+00  0.13676111125E-01 -0.18550182688E-01  0.11084946052E+00  0.51100000000E-03 0.  1.
         11    1    3    3    0    0  0.51018807197E-02  0.52524414128E-02  0.11235306872E-03  0.73410538674E-02  0.51100000000E-03 0. -1.
</event>
<event>
 8    1  0.1065239E+005  0.1043930E+01  0.7957747E-01            NaN
         13   -1    0    0    0    0  0.00000000000E+00  0.00000000000E+00  0.74505805969E-08  0.10566000000E+00  0.10566000000E+00 0.  1.
     999900   -1    0    0    0    0 -0.00000000000E+00 -0.00000000000E+00 -0.74505805969E-08  0.93827000000E+00  0.93827000000E+00 0.  1.
     999902    2    1    2    0    0 -0.17260705598E-01  0.60679327541E-03 -0.10715900704E-01  0.10236043836E+01  0.10234025617E+01 0.  0.
     999903    2    3    3    0    0 -0.12563425641E+00 -0.15123635623E-01 -0.45955220021E-01  0.13611687236E+00  0.20080586541E-01 0.  0.
         14    1    1    2    0    0  0.17260705598E-01 -0.60679327541E-03  0.10715900704E-01  0.20325616441E-01  0.00000000000E+00 0.  1.
     999901    1    3    3    0    0  0.10837355081E+00  0.15730428899E-01  0.35239319317E-01  0.88748751120E+00  0.88000000000E+00 0. -1.
        -11    1    4    4    0    0 -0.75833742837E-01 -0.18749826793E-01 -0.25824251045E-01  0.82276762336E-01  0.51100000000E-03 0.  1.
         11    1    4    4    0    0 -0.49800513572E-01  0.36261911698E-02 -0.20130968976E-01  0.53840110023E-01  0.51100000000E-03 0. -1.
</event>
<event>
 8    1  0.1065239E+005  0.1043930E+01  0.7957747E-01            NaN
         13   -1    0    0    0    0  0.00000000000E+00  0.00000000000E+00  0.74505805969E-08  0.10566000000E+00  0.10566000000E+00 0.  1.
     999900   -1    0    0    0    0 -0.00000000000E+00 -0.00000000000E+00 -0.74505805969E-08  0.93827000000E+00  0.93827000000E+00 0.  1.
     999902    2    1    2    0    0 -0.45011037998E-03 -0.13386177496E-02  0.23417614010E-01  0.10204698392E+01  0.10202001341E+01 0.  0.
     999903    2    3    3    0    0 -0.35258667138E-01 -0.34489268150E-01  0.12248991870E+00  0.13360687192E+00  0.20355166790E-01 0.  0.
         14    1    1    2    0    0  0.45011037998E-03  0.13386177496E-02 -0.23417614010E-01  0.23460160757E-01  0.00000000000E+00 0. -1.
     999901    1    3    3    0    0  0.34808556758E-01  0.33150650400E-01 -0.99072304695E-01  0.88686296732E+00  0.88000000000E+00 0.  1.
        -11    1    4    4    0    0 -0.24070805251E-01 -0.33829171366E-01  0.10395967265E+00  0.11194503633E+00  0.51100000000E-03 0.  1.
         11    1    4    4    0    0 -0.11187861887E-01 -0.66009678350E-03  0.18530246052E-01  0.21661835590E-01  0.51100000000E-03 0. -1.
</event>
<event>
 7    1  0.1065239E+005  0.1043930E+01  0.7957747E-01            NaN
         13   -1    0    0    0    0  0.00000000000E+00  0.00000000000E+00  0.74505805969E-08  0.10566000000E+00  0.10566000000E+00 0.  1.
     999900   -1    0    0    0    0 -0.00000000000E+00 -0.00000000000E+00 -0.74505805969E-08  0.93827000000E+00  0.93827000000E+00 0.  1.
     999903    2    1    2    0    0  0.17278921224E-01  0.10089889829E+00 -0.43609175318E-01  0.11255726431E+00  0.16977301985E-01 0.  0.
         14    1    1    2    0    0  0.14330240512E-01 -0.16681602144E-02 -0.38812284510E-01  0.41406907401E-01  0.00000000000E+00 0. -1.
     999901    1    1    2    0    0 -0.31609161736E-01 -0.99230738072E-01  0.82421459828E-01  0.88996582829E+00  0.88000000000E+00 0. -1.
        -11    1    3    3    0    0  0.43708734601E-02  0.58061463305E-01 -0.17721884489E-01  0.60865132603E-01  0.51100000000E-03 0.  1.
         11    1    3    3    0    0  0.12908047764E-01  0.42837434982E-01 -0.25887290829E-01  0.51692131706E-01  0.51100000000E-03 0. -1.
</event>
<event>
 8    1  0.1065239E+005  0.1043930E+01  0.7957747E-01            NaN
         13   -1    0    0    0    0  0.00000000000E+00  0.00000000000E+00  0.74505805969E-08  0.10566000000E+00  0.10566000000E+00 0. -1.
     999900   -1    0    0    0    0 -0.00000000000E+00 -0.00000000000E+00 -0.74505805969E-08  0.93827000000E+00  0.93827000000E+00 0.  1.
     999902    2    1    2    0    0 -0.10420865905E-01 -0.20929879820E-01  0.36065408079E-02  0.10202728351E+01  0.10199985277E+01 0.  0.
     999903    2    3    3    0    0 -0.70747926187E-01  0.68830138667E-01  0.82488151022E-01  0.13015007751E+00  0.19796226078E-01 0.  0.
         14    1    1    2    0    0  0.10420865905E-01  0.20929879820E-01 -0.36065408079E-02  0.23657164921E-01  0.00000000000E+00 0. -1.
     999901    1    3    3    0    0  0.60327060282E-01 -0.89760018487E-01 -0.78881610214E-01  0.89012275757E+00  0.88000000000E+00 0.  1.
        -11    1    4    4    0    0 -0.47027676309E-01  0.44777443406E-01  0.41643237444E-01  0.77142997886E-01  0.51100000000E-03 0.  1.
         11    1    4    4    0    0 -0.23720249878E-01  0.24052695261E-01  0.40844913578E-01  0.53007079620E-01  0.51100000000E-03 0. -1.
</event>
<event>
 8    1  0.1065239E+005  0.1043930E+01  0.7957747E-01            NaN
         13   -1    0    0    0    0  0.00000000000E+00  0.00000000000E+00  0.74505805969E-08  0.10566000000E+00  0.10566000000E+00 0.  1.
     999900   -1    0    0    0    0 -0.00000000000E+00 -0.00000000000E+00 -0.74505805969E-08  0.93827000000E+00  0.93827000000E+00 0.  1.
     999902    2    1    2    0    0  0.10739971656E-01 -0.16244813662E-01 -0.13626323805E-01  0.10201620034E+01  0.10198850894E+01 0.  0.
     999903    2    3    3    0    0  0.72723153823E-01 -0.40295754168E-01  0.98669897297E-01  0.13053803571E+00  0.19799626972E-01 0.  0.
         14    1    1    2    0    0 -0.10739971656E-01  0.16244813662E-01  0.13626323805E-01  0.23767996603E-01  0.00000000000E+00 0.  1.
     999901    1    3    3    0    0 -0.61983182167E-01  0.24050940505E-01 -0.11229622110E+00  0.88962396769E+00  0.88000000000E+00 0.  1.
        -11    1    4    4    0    0  0.27834487380E-01 -0.24161574165E-01  0.52519803018E-01  0.64164875001E-01  0.51100000000E-03 0. -1.
         11    1    4    4    0    0  0.44888666443E-01 -0.16134180002E-01  0.46150094279E-01  0.66373160708E-01  0.51100000000E-03 0.  1.
</event>
<event>
 8    1  0.1065239E+005  0.1043930E+01  0.7957747E-01            NaN
         13   -1    0    0    0    0  0.00000000000E+00  0.00000000000E+00  0.74505805969E-08  0.10566000000E+00  0.10566000000E+00 0.  1.
     999900   -1    0    0    0    0 -0.00000000000E+00 -0.00000000000E+00 -0.74505805969E-08  0.93827000000E+00  0.93827000000E+00 0. -1.
     999902    2    1    2    0    0 -0.15334767462E-01 -0.17688798171E-01  0.12128351825E-03  0.10205192464E+01  0.10202506893E+01 0.  0.
     999903    2    3    3    0    0 -0.40563730598E-01 -0.57384654250E-01  0.11042307459E+00  0.13238707906E+00  0.19866265792E-01 0.  0.
         14    1    1    2    0    0  0.15334767462E-01  0.17688798171E-01 -0.12128351825E-03  0.23410753587E-01  0.00000000000E+00 0. -1.
     999901    1    3    3    0    0  0.25228963136E-01  0.39695856079E-01 -0.11030179107E+00  0.88813216735E+00  0.88000000000E+00 0. -1.
        -11    1    4    4    0    0 -0.25768499978E-01 -0.19853333819E-01  0.45116733615E-01  0.55623297528E-01  0.51100000000E-03 0.  1.
         11    1    4    4    0    0 -0.14795230620E-01 -0.37531320431E-01  0.65306340977E-01  0.76763781533E-01  0.51100000000E-03 0. -1.
</event>
<event>
 8    1  0.1065239E+005  0.1043930E+01  0.7957747E-01            NaN
         13   -1    0    0    0    0  0.00000000000E+00  0.00000000000E+00  0.74505805969E-08  0.10566000000E+00  0.10566000000E+00 0. -1.
     999900   -1    0    0    0    0 -0.00000000000E+00 -0.00000000000E+00 -0.74505805969E-08  0.93827000000E+00  0.93827000000E+00 0.  1.
     999902    2    1    2    0    0 -0.21620077423E-01 -0.11477708065E-01 -0.22127161488E-02  0.10193523345E+01  0.10190559946E+01 0.  0.
     999903    2    3    3    0    0 -0.34746181841E-01 -0.10856370172E+00 -0.63134608910E-01  0.13182235650E+00  0.19944431497E-01 0.  0.
         14    1    1    2    0    0  0.21620077423E-01  0.11477708065E-01  0.22127161488E-02  0.24577665531E-01  0.00000000000E+00 0.  1.
     999901    1    3    3    0    0  0.13126104418E-01  0.97085993650E-01  0.60921892761E-01  0.88752997797E+00  0.88000000000E+00 0. -1.
        -11    1    4    4    0    0 -0.18902030106E-01 -0.30221979111E-01 -0.22505562235E-01  0.42159414323E-01  0.51100000000E-03 0. -1.
         11    1    4    4    0    0 -0.15844151736E-01 -0.78341722604E-01 -0.40629046675E-01  0.89662942175E-01  0.51100000000E-03 0.  1.
</event>
<event>
 8    1  0.1065239E+005  0.1043930E+01  0.7957747E-01            NaN
         13   -1    0    0    0    0  0.00000000000E+00  0.00000000000E+00  0.74505805969E-08  0.10566000000E+00  0.10566000000E+00 0. -1.
     999900   -1    0    0    0    0 -0.00000000000E+00 -0.00000000000E+00 -0.74505805969E-08  0.93827000000E+00  0.93827000000E+00 0.  1.
     999902    2    1    2    0    0 -0.67213093610E-02 -0.11278299357E-01 -0.15555198129E-01  0.10235746512E+01  0.10233722326E+01 0.  0.
     999903    2    3    3    0    0 -0.98543433085E-01  0.86741609532E-01  0.88752867165E-03  0.13323226301E+00  0.22696545364E-01 0.  0.
         14    1    1    2    0    0  0.67213093610E-02  0.11278299357E-01  0.15555198129E-01  0.20355348799E-01  0.00000000000E+00 0. -1.
     999901    1    3    3    0    0  0.91822123724E-01 -0.98019908889E-01 -0.16442726800E-01  0.89034238819E+00  0.88000000000E+00 0.  1.
        -11    1    4    4    0    0 -0.72162647674E-01  0.54158816544E-01  0.84770659905E-02  0.90624207017E-01  0.51100000000E-03 0.  1.
         11    1    4    4    0    0 -0.26380785411E-01  0.32582792988E-01 -0.75895373189E-02  0.42608055993E-01  0.51100000000E-03 0. -1.
</event>
<event>
 8    1  0.1065239E+005  0.1043930E+01  0.7957747E-01            NaN
         13   -1    0    0    0    0  0.00000000000E+00  0.00000000000E+00  0.74505805969E-08  0.10566000000E+00  0.10566000000E+00 0. -1.
     999900   -1    0    0    0    0 -0.00000000000E+00 -0.00000000000E+00 -0.74505805969E-08  0.93827000000E+00  0.93827000000E+00 0. -1.
     999902    2    1    2    0    0 -0.17037120653E-01  0.15858809476E-01  0.49415254629E-02  0.10201353789E+01  0.10198578368E+01 0.  0.
     999903    2    3    3    0    0 -0.10841886610E-01  0.68236150309E-01  0.11087338068E+00  0.13221459152E+00  0.20348782582E-01 0.  0.
         14    1    1    2    0    0  0.17037120653E-01 -0.15858809476E-01 -0.49415254629E-02  0.23794621074E-01  0.00000000000E+00 0. -1.
     999901    1    3    3    0    0 -0.61952340434E-02 -0.52377340833E-01 -0.10593185522E+00  0.88792078741E+00  0.88000000000E+00 0. -1.
        -11    1    4    4    0    0  0.58477990609E-02  0.24864274737E-01  0.39955720467E-01  0.47425200380E-01  0.51100000000E-03 0.  1.
         11    1    4    4    0    0 -0.16689685671E-01  0.43371875572E-01  0.70917660215E-01  0.84789391140E-01  0.51100000000E-03 0. -1.
</event>
<event>
 8    1  0.1065239E+005  0.1043930E+01  0.7957747E-01            NaN
         13   -1    0    0    0    0  0.00000000000E+00  0.00000000000E+00  0.74505805969E-08  0.10566000000E+00  0.10566000000E+00 0.  1.
     999900   -1    0    0    0    0 -0.00000000000E+00 -0.00000000000E+00 -0.74505805969E-08  0.93827000000E+00  0.93827000000E+00 0.  1.
     999902    2    1    2    0    0  0.13563786611E-01 -0.14618583679E-01  0.13324822946E-01  0.10199460428E+01  0.10196640133E+01 0.  0.
     999903    2    3    3    0    0  0.61812190039E-01 -0.36072801033E-01 -0.10664122706E+00  0.13023820030E+00  0.21625071005E-01 0.  0.
         14    1    1    2    0    0 -0.13563786611E-01  0.14618583679E-01 -0.13324822946E-01  0.23983957191E-01  0.00000000000E+00 0. -1.
     999901    1    3    3    0    0 -0.48248403428E-01  0.21454217354E-01  0.11996605000E+00  0.88970784251E+00  0.88000000000E+00 0. -1.
        -11    1    4    4    0    0  0.59543547123E-01 -0.38357617504E-01 -0.97346380511E-01  0.12038820434E+00  0.51100000000E-03 0. -1.
         11    1    4    4    0    0  0.22686429160E-02  0.22848164714E-02 -0.92948465482E-02  0.98499959564E-02  0.51100000000E-03 0.  1.
</event>
<event>
 8    1  0.1065239E+005  0.1043930E+01  0.7957747E-01            NaN
         13   -1    0    0    0    0  0.00000000000E+00  0.00000000000E+00  0.74505805969E-08  0.10566000000E+00  0.10566000000E+00 0. -1.
     999900   -1    0    0    0    0 -0.00000000000E+00 -0.00000000000E+00 -0.74505805969E-08  0.93827000000E+00  0.93827000000E+00 0.  1.
     999902    2    1    2    0    0 -0.14480355111E-01 -0.18811474634E-01  0.34848614912E-02  0.10199363233E+01  0.10196540624E+01 0.  0.
     999903    2    3    3    0    0  0.10871924858E+00 -0.19185456964E-02 -0.65573515838E-01  0.12851466500E+00  0.19813563820E-01 0.  0.
         14    1    1    2    0    0  0.14480355111E-01  0.18811474634E-01 -0.34848614912E-02  0.23993676702E-01  0.00000000000E+00 0.  1.
     999901    1    3    3    0    0 -0.12319960369E+00 -0.16892928938E-01  0.69058377329E-01  0.89142165830E+00  0.88000000000E+00 0. -1.
        -11    1    4    4    0    0  0.74492194141E-01  0.62787068873E-02 -0.50546171451E-01  0.90242372074E-01  0.51100000000E-03 0.  1.
         11    1    4    4    0    0  0.34227054443E-01 -0.81972525837E-02 -0.15027344387E-01  0.38272292930E-01  0.51100000000E-03 0. -1.
</event>
<event>
 8    1  0.1065239E+005  0.1043930E+01  0.7957747E-01            NaN
         13   -1    0    0    0    0  0.00000000000E+00  0.00000000000E+00  0.74505805969E-08  0.10566000000E+00  0.10566000000E+00 0.  1.
     999900   -1    0    0    0    0 -0.00000000000E+00 -0.00000000000E+00 -0.74505805969E-08  0.93827000000E+00  0.93827000000E+00 0. -1.
     999902    2    1    2    0    0 -0.11155474150E-02  0.15936058511E-01 -0.21255942351E-01  0.10173401995E+01  0.10169926568E+01 0.  0.
     999903    2    3    3    0    0 -0.10711502107E-01  0.12766030371E+00  0.56346555559E-02  0.12981696396E+00  0.20218935926E-01 0.  0.
         14    1    1    2    0    0  0.11155474150E-02 -0.15936058511E-01  0.21255942351E-01  0.26589800529E-01  0.00000000000E+00 0.  1.
     999901    1    3    3    0    0  0.95959546915E-02 -0.11172424519E+00 -0.26890597907E-01  0.88752323551E+00  0.88000000000E+00 0. -1.
        -11    1    4    4    0    0  0.53234690881E-02  0.28090374725E-01  0.45660989532E-02  0.28957190056E-01  0.51100000000E-03 0. -1.
         11    1    4    4    0    0 -0.16034971195E-01  0.99569928981E-01  0.10685566027E-02  0.10085977391E+00  0.51100000000E-03 0.  1.
</event>
<event>
 8    1  0.1065239E+005  0.1043930E+01  0.7957747E-01            NaN
         13   -1    0    0    0    0  0.00000000000E+00  0.00000000000E+00  0.74505805969E-08  0.10566000000E+00  0.10566000000E+00 0.  1.
     999900   -1    0    0    0    0 -0.00000000000E+00 -0.00000000000E+00 -0.74505805969E-08  0.93827000000E+00  0.93827000000E+00 0. -1.
     999902    2    1    2    0    0  0.79865665055E-02  0.17531611720E-01 -0.14322084523E-01  0.10199244848E+01  0.10196419420E+01 0.  0.
     999903    2    3    3    0    0 -0.24963150019E-01 -0.30765749064E-01 -0.12353605965E+00  0.13124793441E+00  0.19878935547E-01 0.  0.
         14    1    1    2    0    0 -0.79865665055E-02 -0.17531611720E-01  0.14322084523E-01  0.24005515182E-01  0.00000000000E+00 0.  1.
     999901    1    3    3    0    0  0.32949716524E-01  0.48297360784E-01  0.10921397513E+00  0.88867655041E+00  0.88000000000E+00 0.  1.
        -11    1    4    4    0    0 -0.86850198056E-02 -0.15200600356E-01 -0.83423446629E-01  0.85242128016E-01  0.51100000000E-03 0. -1.
         11    1    4    4    0    0 -0.16278130213E-01 -0.15565148708E-01 -0.40112613024E-01  0.46005806396E-01  0.51100000000E-03 0.  1.
</event>
<event>
 8    1  0.1065239E+005  0.1043930E+01  0.7957747E-01            NaN
         13   -1    0    0    0    0  0.00000000000E+00  0.00000000000E+00  0.74505805969E-08  0.10566000000E+00  0.10566000000E+00 0. -1.
     999900   -1    0    0    0    0 -0.00000000000E+00 -0.00000000000E+00 -0.74505805969E-08  0.93827000000E+00  0.93827000000E+00 0.  1.
     999902    2    1    2    0    0  0.43199232541E-02 -0.20901061625E-02  0.22412092689E-01  0.10210098739E+01  0.10207525804E+01 0.  0.
     999903    2    3    3    0    0  0.95285869005E-02 -0.84329506687E-01  0.10142393506E+00  0.13363547695E+00  0.19218908135E-01 0.  0.
         14    1    1    2    0    0 -0.43199232541E-02  0.20901061625E-02 -0.22412092689E-01  0.22920126078E-01  0.00000000000E+00 0.  1.
     999901    1    3    3    0    0 -0.52086636465E-02  0.82239400524E-01 -0.79011842367E-01  0.88737439698E+00  0.88000000000E+00 0.  1.
        -11    1    4    4    0    0 -0.37964899864E-02 -0.42945521283E-01  0.43946441561E-01  0.61565266030E-01  0.51100000000E-03 0. -1.
         11    1    4    4    0    0  0.13325076887E-01 -0.41383985404E-01  0.57477493495E-01  0.72070210915E-01  0.51100000000E-03 0.  1.
</event>
<event>
 8    1  0.1065239E+005  0.1043930E+01  0.7957747E-01            NaN
         13   -1    0    0    0    0  0.00000000000E+00  0.00000000000E+00  0.74505805969E-08  0.10566000000E+00  0.10566000000E+00 0. -1.
     999900   -1    0    0    0    0 -0.00000000000E+00 -0.00000000000E+00 -0.74505805969E-08  0.93827000000E+00  0.93827000000E+00 0. -1.
     999902    2    1    2    0    0  0.24984275330E-02  0.23029794999E-01 -0.53378823115E-03  0.10207589291E+01  0.10204959053E+01 0.  0.
     999903    2    3    3    0    0  0.42139814244E-01 -0.60408347540E-01 -0.10488618021E+00  0.12979159809E+00  0.20489405534E-01 0.  0.
         14    1    1    2    0    0 -0.24984275330E-02 -0.23029794999E-01  0.53378823115E-03  0.23171070923E-01  0.00000000000E+00 0.  1.
     999901    1    3    3    0    0 -0.39641386711E-01  0.83438142539E-01  0.10435239198E+00  0.89096733098E+00  0.88000000000E+00 0.  1.
        -11    1    4    4    0    0 -0.16544856261E-02 -0.76507277623E-02 -0.95546431628E-02  0.12362171530E-01  0.51100000000E-03 0.  1.
         11    1    4    4    0    0  0.43794299870E-01 -0.52757619777E-01 -0.95331537048E-01  0.11742942656E+00  0.51100000000E-03 0. -1.
</event>
<event>
 8    1  0.1065239E+005  0.1043930E+01  0.7957747E-01            NaN
         13   -1    0    0    0    0  0.00000000000E+00  0.00000000000E+00  0.74505805969E-08  0.10566000000E+00  0.10566000000E+00 0. -1.
     999900   -1    0    0    0    0 -0.00000000000E+00 -0.00000000000E+00 -0.74505805969E-08  0.93827000000E+00  0.93827000000E+00 0.  1.
     999902    2    1    2    0    0 -0.12587240728E-01  0.22737982549E-02  0.21013745005E-01  0.10193294661E+01  0.10190325678E+01 0.  0.
     999903    2    3    3    0    0 -0.29874204555E-01  0.45304995321E-01 -0.11425232885E+00  0.12778730012E+00  0.18193095494E-01 0.  0.
         14    1    1    2    0    0  0.12587240728E-01 -0.22737982549E-02 -0.21013745005E-01  0.24600533872E-01  0.00000000000E+00 0.  1.
     999901    1    3    3    0    0  0.17286963827E-01 -0.43031197066E-01  0.13526607386E+00  0.89154216601E+00  0.88000000000E+00 0. -1.
        -11    1    4    4    0    0 -0.14100371428E-01  0.28253264074E-01 -0.46912437403E-01  0.56551793158E-01  0.51100000000E-03 0.  1.
         11    1    4    4    0    0 -0.15773833126E-01  0.17051731247E-01 -0.67339891452E-01  0.71235506959E-01  0.51100000000E-03 0. -1.
</event>
<event>
 8    1  0.1065239E+005  0.1043930E+01  0.7957747E-01            NaN
         13   -1    0    0    0    0  0.00000000000E+00  0.00000000000E+00  0.74505805969E-08  0.10566000000E+00  0.10566000000E+00 0. -1.
     999900   -1    0    0    0    0 -0.00000000000E+00 -0.00000000000E+00 -0.74505805969E-08  0.93827000000E+00  0.93827000000E+00 0. -1.
     999902    2    1    2    0    0  0.10715136392E-01 -0.17782901658E-01  0.11942603962E-01  0.10199785589E+01  0.10196973027E+01 0.  0.
     999903    2    3    3    0    0 -0.11535235012E+00 -0.47566749363E-01  0.30168026357E-01  0.13030881417E+00  0.22394573293E-01 0.  0.
         14    1    1    2    0    0 -0.10715136392E-01  0.17782901658E-01 -0.11942603962E-01  0.23951441056E-01  0.00000000000E+00 0.  1.
     999901    1    3    3    0    0  0.12606748651E+00  0.29783847704E-01 -0.18225422395E-01  0.88966974477E+00  0.88000000000E+00 0.  1.
        -11    1    4    4    0    0 -0.56363865277E-01 -0.22952176761E-01  0.32342819811E-02  0.60945954976E-01  0.51100000000E-03 0.  1.
         11    1    4    4    0    0 -0.58988484846E-01 -0.24614572602E-01  0.26933744376E-01  0.69362859196E-01  0.51100000000E-03 0. -1.
</event>
<event>
 8    1  0.1065239E+005  0.1043930E+01  0.7957747E-01            NaN
         13   -1    0    0    0    0  0.00000000000E+00  0.00000000000E+00  0.74505805969E-08  0.10566000000E+00  0.10566000000E+00 0.  1.
     999900   -1    0    0    0    0 -0.00000000000E+00 -0.00000000000E+00 -0.74505805969E-08  0.93827000000E+00  0.93827000000E+00 0.  1.
     999902    2    1    2    0    0  0.31318892686E-02 -0.16572189783E-01  0.16660093980E-01  0.10202233567E+01  0.10199478872E+01 0.  0.
     999903    2    3    3    0    0  0.43819213175E-01  0.10743425480E+00  0.54631182082E-01  0.12978814843E+00  0.19953818398E-01 0.  0.
         14    1    1    2    0    0 -0.31318892686E-02  0.16572189783E-01 -0.16660093980E-01  0.23706643289E-01  0.00000000000E+00 0. -1.
     999901    1    3    3    0    0 -0.40687323907E-01 -0.12400644458E+00 -0.37971088102E-01  0.89043520829E+00  0.88000000000E+00 0.  1.
        -11    1    4    4    0    0  0.38709545149E-01  0.82157122713E-01  0.49689710447E-01  0.10352560139E+00  0.51100000000E-03 0. -1.
         11    1    4    4    0    0  0.51096680265E-02  0.25277132085E-01  0.49414716346E-02  0.26262547034E-01  0.51100000000E-03 0.  1.
</event>
<event>
 8    1  0.1065239E+005  0.1043930E+01  0.7957747E-01            NaN
         13   -1    0    0    0    0  0.00000000000E+00  0.00000000000E+00  0.74505805969E-08  0.10566000000E+00  0.10566000000E+00 0. -1.
     999900   -1    0    0    0    0 -0.00000000000E+00 -0.00000000000E+00 -0.74505805969E-08  0.93827000000E+00  0.93827000000E+00 0.  1.
     999902    2    1    2    0    0  0.12870159999E-01  0.10058285116E-01  0.16970421484E-01  0.10203756942E+01  0.10201037947E+01 0.  0.
     999903    2    3    3    0    0 -0.95664214942E-01 -0.48560171241E-01  0.71104187240E-01  0.13012499995E+00  0.19156667670E-01 0.  0.
         14    1    1    2    0    0 -0.12870159999E-01 -0.10058285116E-01 -0.16970421484E-01  0.23554305832E-01  0.00000000000E+00 0.  1.
     999901    1    3    3    0    0  0.10853437494E+00  0.58618456357E-01 -0.54133765756E-01  0.89025069422E+00  0.88000000000E+00 0.  1.
        -11    1    4    4    0    0 -0.36403566921E-01 -0.28915348963E-01  0.32371526279E-01  0.56652395579E-01  0.51100000000E-03 0.  1.
         11    1    4    4    0    0 -0.59260648021E-01 -0.19644822278E-01  0.38732660961E-01  0.73472604366E-01  0.51100000000E-03 0. -1.
</event>
<event>
 8    1  0.1065239E+005  0.1043930E+01  0.7957747E-01            NaN
         13   -1    0    0    0    0  0.00000000000E+00  0.00000000000E+00  0.74505805969E-08  0.10566000000E+00  0.10566000000E+00 0. -1.
     999900   -1    0    0    0    0 -0.00000000000E+00 -0.00000000000E+00 -0.74505805969E-08  0.93827000000E+00  0.93827000000E+00 0. -1.
     999902    2    1    2    0    0  0.11154367750E-01  0.14067395678E-01  0.15073895829E-01  0.10204878611E+01  0.10202185750E+01 0.  0.
     999903    2    3    3    0    0  0.42667231392E-01 -0.11324038626E+00 -0.40165163289E-01  0.12905548252E+00  0.19954937037E-01 0.  0.
         14    1    1    2    0    0 -0.11154367750E-01 -0.14067395678E-01 -0.15073895829E-01  0.23442138907E-01  0.00000000000E+00 0.  1.
     999901    1    3    3    0    0 -0.31512863642E-01  0.12730778194E+00  0.55239059118E-01  0.89143237857E+00  0.88000000000E+00 0.  1.
        -11    1    4    4    0    0  0.18911876265E-01 -0.26094637882E-01 -0.84243317024E-02  0.33313956170E-01  0.51100000000E-03 0. -1.
         11    1    4    4    0    0  0.23755355127E-01 -0.87145748375E-01 -0.31740831587E-01  0.95741526350E-01  0.51100000000E-03 0.  1.
</event>
<event>
 8    1  0.1065239E+005  0.1043930E+01  0.7957747E-01            NaN
         13   -1    0    0    0    0  0.00000000000E+00  0.00000000000E+00  0.74505805969E-08  0.10566000000E+00  0.10566000000E+00 0. -1.
     999900   -1    0    0    0    0 -0.00000000000E+00 -0.00000000000E+00 -0.74505805969E-08  0.93827000000E+00  0.93827000000E+00 0.  1.
     999902    2    1    2    0    0  0.71018906879E-02 -0.15257009642E-02 -0.22170871420E-01  0.10205995016E+01  0.10203328038E+01 0.  0.
     999903    2    3    3    0    0 -0.24886806956E-01 -0.57636416881E-01 -0.11587649172E+00  0.13327068293E+00  0.19809186829E-01 0.  0.
         14    1    1    2    0    0 -0.71018906879E-02  0.15257009642E-02  0.22170871420E-01  0.23330498372E-01  0.00000000000E+00 0. -1.
     999901    1    3    3    0    0  0.31988697644E-01  0.56110715917E-01  0.93705620303E-01  0.88732881870E+00  0.88000000000E+00 0. -1.
        -11    1    4    4    0    0 -0.23233909474E-01 -0.35900796453E-01 -0.63731993007E-01  0.76750959532E-01  0.51100000000E-03 0.  1.
         11    1    4    4    0    0 -0.16528974819E-02 -0.21735620428E-01 -0.52144498716E-01  0.56519723397E-01  0.51100000000E-03 0. -1.
</event>
<event>
 8    1  0.1065239E+005  0.1043930E+01  0.7957747E-01            NaN
         13   -1    0    0    0    0  0.00000000000E+00  0.00000000000E+00  0.74505805969E-08  0.10566000000E+00  0.10566000000E+00 0.  1.
     999900   -1    0    0    0    0 -0.00000000000E+00 -0.00000000000E+00 -0.74505805969E-08  0.93827000000E+00  0.93827000000E+00 0.  1.
     999902    2    1    2    0    0  0.11852612263E-01 -0.20121721125E-01  0.80692738949E-03  0.10205629460E+01  0.10202954021E+01 0.  0.
     999903    2    3    3    0    0  0.32590399339E-01 -0.10858004940E+00  0.67431507010E-01  0.13337989489E+00  0.19784513303E-01 0.  0.
         14    1    1    2    0    0 -0.11852612263E-01  0.20121721125E-01 -0.80692738949E-03  0.23367053950E-01  0.00000000000E+00 0.  1.
     999901    1    3    3    0    0 -0.20737787076E-01  0.88458328275E-01 -0.66624579620E-01  0.88718305116E+00  0.88000000000E+00 0.  1.
        -11    1    4    4    0    0  0.19679939158E-01 -0.41948570870E-01  0.35485622799E-01  0.58364999355E-01  0.51100000000E-03 0. -1.
         11    1    4    4    0    0  0.12910460181E-01 -0.66631478531E-01  0.31945884211E-01  0.75014895536E-01  0.51100000000E-03 0.  1.
</event>
<event>
 8    1  0.1065239E+005  0.1043930E+01  0.7957747E-01            NaN
         13   -1    0    0    0    0  0.00000000000E+00  0.00000000000E+00  0.74505805969E-08  0.10566000000E+00  0.10566000000E+00 0.  1.
     999900   -1    0    0    0    0 -0.00000000000E+00 -0.00000000000E+00 -0.74505805969E-08  0.93827000000E+00  0.93827000000E+00 0.  1.
     999902    2    1    2    0    0 -0.84001209408E-02 -0.13689198341E-01  0.14053368685E-01  0.10225886468E+01  0.10223659263E+01 0.  0.
     999903    2    3    3    0    0 -0.21359740534E-01 -0.99444845514E-01 -0.83317809890E-01  0.13298023345E+00  0.19909023816E-01 0.  0.
         14    1    1    2    0    0  0.84001209408E-02  0.13689198341E-01 -0.14053368685E-01  0.21341353154E-01  0.00000000000E+00 0. -1.
     999901    1    3    3    0    0  0.12959619594E-01  0.85755647173E-01  0.97371178575E-01  0.88960841339E+00  0.88000000000E+00 0. -1.
        -11    1    4    4    0    0 -0.95068810772E-02 -0.13770137214E-01 -0.18103087018E-01  0.24657257497E-01  0.51100000000E-03 0. -1.
         11    1    4    4    0    0 -0.11852859457E-01 -0.85674708300E-01 -0.65214722872E-01  0.10832297596E+00  0.51100000000E-03 0.  1.
</event>
<event>
 8    1  0.1065239E+005  0.1043930E+01  0.7957747E-01            NaN
         13   -1    0    0    0    0  0.00000000000E+00  0.00000000000E+00  0.74505805969E-08  0.10566000000E+00  0.10566000000E+00 0. -1.
     999900   -1    0    0    0    0 -0.00000000000E+00 -0.00000000000E+00 -0.74505805969E-08  0.93827000000E+00  0.93827000000E+00 0.  1.
     999902    2    1    2    0    0 -0.66084584055E-02  0.17232951702E-02  0.22135422437E-01  0.10207649747E+01  0.10205020898E+01 0.  0.
     999903    2    3    3    0    0 -0.12504290635E+00  0.24005808824E-01 -0.22234082232E-01  0.13144395182E+00  0.23898760846E-01 0.  0.
         14    1    1    2    0    0  0.66084584055E-02 -0.17232951702E-02 -0.22135422437E-01  0.23165025258E-01  0.00000000000E+00 0.  1.
     999901    1    3    3    0    0  0.11843444795E+00 -0.22282513654E-01  0.44369504669E-01  0.88932102293E+00  0.88000000000E+00 0. -1.
        -11    1    4    4    0    0 -0.24840314697E-01  0.59837190964E-02  0.50271127185E-02  0.26045711965E-01  0.51100000000E-03 0. -1.
         11    1    4    4    0    0 -0.10020259165E+00  0.18022089728E-01 -0.27261194951E-01  0.10539823985E+00  0.51100000000E-03 0.  1.
</event>
<event>
 8    1  0.1065239E+005  0.1043930E+01  0.7957747E-01            NaN
         13   -1    0    0    0    0  0.00000000000E+00  0.00000000000E+00  0.74505805969E-08  0.10566000000E+00  0.10566000000E+00 0. -1.
     999900   -1    0    0    0    0 -0.00000000000E+00 -0.00000000000E+00 -0.74505805969E-08  0.93827000000E+00  0.93827000000E+00 0.  1.
     999902    2    1    2    0    0 -0.26954202041E-01  0.11969753433E-01 -0.41175082488E-02  0.10141515199E+01  0.10137142336E+01 0.  0.
     999903    2    3    3    0    0 -0.11833351875E+00  0.14335243733E-01  0.42399828312E-01  0.12819461478E+00  0.20683156088E-01 0.  0.
         14    1    1    2    0    0  0.26954202041E-01 -0.11969753433E-01  0.41175082488E-02  0.29778480135E-01  0.00000000000E+00 0. -1.
     999901    1    3    3    0    0  0.91379316707E-01 -0.23654903000E-02 -0.46517336561E-01  0.88595690508E+00  0.88000000000E+00 0.  1.
        -11    1    4    4    0    0 -0.23453052442E-01 -0.34375547548E-02  0.28694104929E-02  0.23882150011E-01  0.51100000000E-03 0.  1.
         11    1    4    4    0    0 -0.94880466306E-01  0.17772798488E-01  0.39530417819E-01  0.10431246477E+00  0.51100000000E-03 0. -1.
</event>
<event>
 8    1  0.1065239E+005  0.1043930E+01  0.7957747E-01            NaN
         13   -1    0    0    0    0  0.00000000000E+00  0.00000000000E+00  0.74505805969E-08  0.10566000000E+00  0.10566000000E+00 0.  1.
     999900   -1    0    0    0    0 -0.00000000000E+00 -0.00000000000E+00 -0.74505805969E-08  0.93827000000E+00  0.93827000000E+00 0. -1.
     999902    2    1    2    0    0  0.75884808429E-02  0.21907110307E-01 -0.10649188940E-01  0.10184170278E+01  0.10180974073E+01 0.  0.
     999903    2    3    3    0    0  0.11532988911E+00 -0.42894658193E-01 -0.33503842298E-01  0.12918712762E+00  0.20636653585E-01 0.  0.
         14    1    1    2    0    0 -0.75884808429E-02 -0.21907110307E-01  0.10649188940E-01  0.25512972163E-01  0.00000000000E+00 0.  1.
     999901    1    3    3    0    0 -0.10774140827E+00  0.64801768499E-01  0.22854653358E-01  0.88922990021E+00  0.88000000000E+00 0. -1.
        -11    1    4    4    0    0  0.95660646492E-01 -0.27387570061E-01 -0.29734710529E-01  0.10385303275E+00  0.51100000000E-03 0.  1.
         11    1    4    4    0    0  0.19669242617E-01 -0.15507088132E-01 -0.37691317691E-02  0.25334094868E-01  0.51100000000E-03 0. -1.
</event>
<event>
 8    1  0.1065239E+005  0.1043930E+01  0.7957747E-01            NaN
         13   -1    0    0    0    0  0.00000000000E+00  0.00000000000E+00  0.74505805969E-08  0.10566000000E+00  0.10566000000E+00 0. -1.
     999900   -1    0    0    0    0 -0.00000000000E+00 -0.00000000000E+00 -0.74505805969E-08  0.93827000000E+00  0.93827000000E+00 0.  1.
     999902    2    1    2    0    0 -0.22598988345E-01 -0.62771414150E-02  0.17954864849E-02  0.10204068082E+01  0.10201356350E+01 0.  0.
     999903    2    3    3    0    0 -0.13053768880E+00 -0.10394399465E-01 -0.18569230966E-01  0.13356835814E+00  0.18642913370E-01 0.  0.
         14    1    1    2    0    0  0.22598988345E-01  0.62771414150E-02 -0.17954864849E-02  0.23523191753E-01  0.00000000000E+00 0. -1.
     999901    1    3    3    0    0  0.10793870046E+00  0.41172580496E-02  0.20364717451E-01  0.88683845011E+00  0.88000000000E+00 0. -1.
        -11    1    4    4    0    0 -0.65320577565E-01 -0.11451385100E-01 -0.16342717311E-01  0.68302691047E-01  0.51100000000E-03 0.  1.
         11    1    4    4    0    0 -0.65217111240E-01  0.10569856352E-02 -0.22265136545E-02  0.65265667093E-01  0.51100000000E-03 0. -1.
</event>
<event>
 8    1  0.1065239E+005  0.1043930E+01  0.7957747E-01            NaN
         13   -1    0    0    0    0  0.00000000000E+00  0.00000000000E+00  0.74505805969E-08  0.10566000000E+00  0.10566000000E+00 0.  1.
     999900   -1    0    0    0    0 -0.00000000000E+00 -0.00000000000E+00 -0.74505805969E-08  0.93827000000E+00  0.93827000000E+00 0.  1.
     999902    2    1    2    0    0 -0.18903407361E-01 -0.38745959957E-02  0.15425669461E-01  0.10192256971E+01  0.10189262579E+01 0.  0.
     999903    2    3    3    0    0 -0.60371024063E-01  0.10237656708E+00  0.51554740243E-01  0.13112987870E+00  0.20286246879E-01 0.  0.
         14    1    1    2    0    0  0.18903407361E-01  0.38745959957E-02 -0.15425669461E-01  0.24704302911E-01  0.00000000000E+00 0. -1.
     999901    1    3    3    0    0  0.41467616702E-01 -0.10625116307E+00 -0.36129070782E-01  0.88809581839E+00  0.88000000000E+00 0. -1.
        -11    1    4    4    0    0 -0.31334577979E-01  0.51642972992E-01  0.15203403371E-01  0.62291709173E-01  0.51100000000E-03 0.  1.
         11    1    4    4    0    0 -0.29036446084E-01  0.50733594087E-01  0.36351336872E-01  0.68838169525E-01  0.51100000000E-03 0. -1.
</event>
<event>
 8    1  0.1065239E+005  0.1043930E+01  0.7957747E-01            NaN
         13   -1    0    0    0    0  0.00000000000E+00  0.00000000000E+00  0.74505805969E-08  0.10566000000E+00  0.10566000000E+00 0. -1.
     999900   -1    0    0    0    0 -0.00000000000E+00 -0.00000000000E+00 -0.74505805969E-08  0.93827000000E+00  0.93827000000E+00 0.  1.
     999902    2    1    2    0    0 -0.50393371328E-02 -0.81124261994E-02 -0.21511627571E-01  0.10203937195E+01  0.10201222409E+01 0.  0.
     999903    2    3    3    0    0  0.51255160428E-01 -0.80952730398E-01  0.84411159036E-01  0.12927396490E+00  0.20151382129E-01 0.  0.
         14    1    1    2    0    0  0.50393371328E-02  0.81124261994E-02  0.21511627571E-01  0.23536280469E-01  0.00000000000E+00 0. -1.
     999901    1    3    3    0    0 -0.56294497560E-01  0.72840304199E-01 -0.10592278661E+00  0.89111975463E+00  0.88000000000E+00 0.  1.
        -11    1    4    4    0    0  0.36024356467E-01 -0.53641930368E-01  0.44007225894E-01  0.78179971888E-01  0.51100000000E-03 0.  1.
         11    1    4    4    0    0  0.15230803961E-01 -0.27310800030E-01  0.40403933142E-01  0.51093993012E-01  0.51100000000E-03 0. -1.
</event>
<event>
 8    1  0.1065239E+005  0.1043930E+01  0.7957747E-01            NaN
         13   -1    0    0    0    0  0.00000000000E+00  0.00000000000E+00  0.74505805969E-08  0.10566000000E+00  0.10566000000E+00 0.  1.
     999900   -1    0    0    0    0 -0.00000000000E+00 -0.00000000000E+00 -0.74505805969E-08  0.93827000000E+00  0.93827000000E+00 0.  1.
     999902    2    1    2    0    0  0.57500253317E-02 -0.22700827876E-01 -0.37785040331E-02  0.10202093872E+01  0.10199335892E+01 0.  0.
     999903    2    3    3    0    0  0.55800876929E-01 -0.66213231832E-01  0.97469409190E-01  0.13192477238E+00  0.20147702197E-01 0.  0.
         14    1    1    2    0    0 -0.57500253317E-02  0.22700827876E-01  0.37785040331E-02  0.23720612773E-01  0.00000000000E+00 0.  1.
     999901    1    3    3    0    0 -0.50050851597E-01  0.43512403956E-01 -0.10124791322E+00  0.88828461485E+00  0.88000000000E+00 0.  1.
        -11    1    4    4    0    0  0.65026976988E-02 -0.15993557235E-01  0.11173946001E-01  0.20571755895E-01  0.51100000000E-03 0.  1.
         11    1    4    4    0    0  0.49298179230E-01 -0.50219674597E-01  0.86295463189E-01  0.11135301648E+00  0.51100000000E-03 0. -1.
</event>
<event>
 8    1  0.1065239E+005  0.1043930E+01  0.7957747E-01            NaN
         13   -1    0    0    0    0  0.00000000000E+00  0.00000000000E+00  0.74505805969E-08  0.10566000000E+00  0.10566000000E+00 0.  1.
     999900   -1    0    0    0    0 -0.00000000000E+00 -0.00000000000E+00 -0.74505805969E-08  0.93827000000E+00  0.93827000000E+00 0. -1.
     999902    2    1    2    0    0 -0.12651516721E-01  0.91141365357E-02 -0.17544841001E-01  0.10204576800E+01  0.10201876920E+01 0.  0.
     999903    2    3    3    0    0  0.47504452234E-01  0.49955297885E-02 -0.12160042898E+00  0.13227792967E+00  0.20716130135E-01 0.  0.
         14    1    1    2    0    0  0.12651516721E-01 -0.91141365357E-02  0.17544841001E-01  0.23472319993E-01  0.00000000000E+00 0.  1.
     999901    1    3    3    0    0 -0.60155968955E-01  0.41186067472E-02  0.10405558798E+00  0.88817975034E+00  0.88000000000E+00 0.  1.
        -11    1    4    4    0    0  0.38889328132E-01 -0.72307997718E-03 -0.74400687478E-01  0.83956096297E-01  0.51100000000E-03 0. -1.
         11    1    4    4    0    0  0.86151241024E-02  0.57186097657E-02 -0.47199741507E-01  0.48321833370E-01  0.51100000000E-03 0.  1.
</event>
<event>
 8    1  0.1846884E+005  0.1043930E+01  0.7957747E-01            NaN
         13   -1    0    0    0    0  0.00000000000E+00  0.00000000000E+00  0.74505805969E-08  0.10566000000E+00  0.10566000000E+00 0. -1.
     999900   -1    0    0    0    0 -0.00000000000E+00 -0.00000000000E+00 -0.74505805969E-08  0.93827000000E+00  0.93827000000E+00 0.  1.
     999902    2    1    2    0    0 -0.36277004634E-02  0.15365504191E-01  0.18535921826E-01  0.10195817079E+01  0.10192909397E+01 0.  0.
     999903    2    3    3    0    0  0.26211787725E-01 -0.87649686459E-01 -0.85880694953E-01  0.12694216452E+00  0.19217024123E-01 0.  0.
         14    1    1    2    0    0  0.36277004634E-02 -0.15365504191E-01 -0.18535921826E-01  0.24348292089E-01  0.00000000000E+00 0.  1.
     999901    1    3    3    0    0 -0.29839488188E-01  0.10301519065E+00  0.10441661678E+00  0.89263954339E+00  0.88000000000E+00 0. -1.
        -11    1    4    4    0    0  0.32449246842E-02 -0.43864768388E-01 -0.42476696965E-01  0.61148821313E-01  0.51100000000E-03 0. -1.
         11    1    4    4    0    0  0.22966863040E-01 -0.43784918071E-01 -0.43403997988E-01  0.65793343210E-01  0.51100000000E-03 0.  1.
</event>
<event>
 8    1  0.1065239E+005  0.1043930E+01  0.7957747E-01            NaN
         13   -1    0    0    0    0  0.00000000000E+00  0.00000000000E+00  0.74505805969E-08  0.10566000000E+00  0.10566000000E+00 0. -1.
     999900   -1    0    0    0    0 -0.00000000000E+00 -0.00000000000E+00 -0.74505805969E-08  0.93827000000E+00  0.93827000000E+00 0.  1.
     999902    2    1    2    0    0 -0.20095007845E-01  0.20731984744E-02  0.11788674951E-01  0.10205402512E+01  0.10202721813E+01 0.  0.
     999903    2    3    3    0    0 -0.20861404728E-01 -0.97468383776E-01  0.84217386461E-01  0.13197115865E+00  0.19711278275E-01 0.  0.
         14    1    1    2    0    0  0.20095007845E-01 -0.20731984744E-02 -0.11788674951E-01  0.23389748808E-01  0.00000000000E+00 0.  1.
     999901    1    3    3    0    0  0.76639688293E-03  0.99541582250E-01 -0.72428711509E-01  0.88856909254E+00  0.88000000000E+00 0.  1.
        -11    1    4    4    0    0 -0.11184124732E-01 -0.65310952275E-01  0.66985210465E-01  0.94222527429E-01  0.51100000000E-03 0.  1.
         11    1    4    4    0    0 -0.96772799958E-02 -0.32157431500E-01  0.17232175996E-01  0.37748631225E-01  0.51100000000E-03 0. -1.
</event>
<event>
 8    1  0.1065239E+005  0.1043930E+01  0.7957747E-01            NaN
         13   -1    0    0    0    0  0.00000000000E+00  0.00000000000E+00  0.74505805969E-08  0.10566000000E+00  0.10566000000E+00 0.  1.
     999900   -1    0    0    0    0 -0.00000000000E+00 -0.00000000000E+00 -0.74505805969E-08  0.93827000000E+00  0.93827000000E+00 0. -1.
     999902    2    1    2    0    0 -0.40757430359E-02 -0.86871800189E-02  0.21548096045E-01  0.10203418839E+01  0.10200691941E+01 0.  0.
     999903    2    3    3    0    0 -0.10151240696E-01 -0.10577827978E+00 -0.72408843930E-01  0.13000964260E+00  0.19167011492E-01 0.  0.
         14    1    1    2    0    0  0.40757430359E-02  0.86871800189E-02 -0.21548096045E-01  0.23588116100E-01  0.00000000000E+00 0. -1.
     999901    1    3    3    0    0  0.60754976598E-02  0.97091099761E-01  0.93956939975E-01  0.89033224130E+00  0.88000000000E+00 0.  1.
        -11    1    4    4    0    0 -0.12259688705E-02 -0.59276800537E-01 -0.50283034512E-01  0.77742438618E-01  0.51100000000E-03 0. -1.
         11    1    4    4    0    0 -0.89252718252E-02 -0.46501479243E-01 -0.22125809418E-01  0.52267203984E-01  0.51100000000E-03 0.  1.
</event>
<event>
 8    1  0.1065239E+005  0.1043930E+01  0.7957747E-01            NaN
         13   -1    0    0    0    0  0.00000000000E+00  0.00000000000E+00  0.74505805969E-08  0.10566000000E+00  0.10566000000E+00 0. -1.
     999900   -1    0    0    0    0 -0.00000000000E+00 -0.00000000000E+00 -0.74505805969E-08  0.93827000000E+00  0.93827000000E+00 0.  1.
     999902    2    1    2    0    0 -0.10471247254E-01  0.17227583980E-01  0.77379108607E-02  0.10223357430E+01  0.10221076556E+01 0.  0.
     999903    2    3    3    0    0  0.43883251069E-01 -0.65087777038E-01 -0.10177642545E+00  0.13007814571E+00  0.19993118079E-01 0.  0.
         14    1    1    2    0    0  0.10471247254E-01 -0.17227583980E-01 -0.77379108607E-02  0.21594256952E-01  0.00000000000E+00 0.  1.
     999901    1    3    3    0    0 -0.54354498323E-01  0.82315361018E-01  0.10951433631E+00  0.89225759734E+00  0.88000000000E+00 0. -1.
        -11    1    4    4    0    0  0.40367049719E-01 -0.50598038026E-01 -0.91003604718E-01  0.11167621657E+00  0.51100000000E-03 0.  1.
         11    1    4    4    0    0  0.35162013498E-02 -0.14489739012E-01 -0.10772820730E-01  0.18401929139E-01  0.51100000000E-03 0. -1.
</event>
<event>
 8    1  0.1065239E+005  0.1043930E+01  0.7957747E-01            NaN
         13   -1    0    0    0    0  0.00000000000E+00  0.00000000000E+00  0.74505805969E-08  0.10566000000E+00  0.10566000000E+00 0. -1.
     999900   -1    0    0    0    0 -0.00000000000E+00 -0.00000000000E+00 -0.74505805969E-08  0.93827000000E+00  0.93827000000E+00 0. -1.
     999902    2    1    2    0    0  0.19204011494E-01 -0.10878114419E-01 -0.79582730975E-02  0.10204680832E+01  0.10201983372E+01 0.  0.
     999903    2    3    3    0    0  0.91124897708E-01 -0.95171343136E-01 -0.77067111624E-02  0.13351936674E+00  0.20166714211E-01 0.  0.
         14    1    1    2    0    0 -0.19204011494E-01  0.10878114419E-01  0.79582730975E-02  0.23461916833E-01  0.00000000000E+00 0.  1.
     999901    1    3    3    0    0 -0.71920886214E-01  0.84293228717E-01 -0.25156193505E-03  0.88694871642E+00  0.88000000000E+00 0.  1.
        -11    1    4    4    0    0  0.17904767142E-01 -0.22480211889E-01  0.62139186132E-02  0.29407728891E-01  0.51100000000E-03 0. -1.
         11    1    4    4    0    0  0.73220130566E-01 -0.72691131248E-01 -0.13920629776E-01  0.10411163785E+00  0.51100000000E-03 0.  1.
</event>
<event>
 8    1  0.1065239E+005  0.1043930E+01  0.7957747E-01            NaN
         13   -1    0    0    0    0  0.00000000000E+00  0.00000000000E+00  0.74505805969E-08  0.10566000000E+00  0.10566000000E+00 0. -1.
     999900   -1    0    0    0    0 -0.00000000000E+00 -0.00000000000E+00 -0.74505805969E-08  0.93827000000E+00  0.93827000000E+00 0.  1.
     999902    2    1    2    0    0 -0.89572304817E-03  0.21312250531E-01 -0.98578923413E-02  0.10204312259E+01  0.10201606219E+01 0.  0.
     999903    2    3    3    0    0  0.28839273313E-01  0.12179089089E+00 -0.42552298409E-01  0.13361159861E+00  0.19407122217E-01 0.  0.
         14    1    1    2    0    0  0.89572304817E-03 -0.21312250531E-01  0.98578923413E-02  0.23498774094E-01  0.00000000000E+00 0. -1.
     999901    1    3    3    0    0 -0.29734996362E-01 -0.10047864036E+00  0.32694406068E-01  0.88681962730E+00  0.88000000000E+00 0.  1.
        -11    1    4    4    0    0  0.26569525017E-01  0.75273685669E-01 -0.22784168895E-01  0.83014738975E-01  0.51100000000E-03 0. -1.
         11    1    4    4    0    0  0.22697482963E-02  0.46517205222E-01 -0.19768129514E-01  0.50596859631E-01  0.51100000000E-03 0.  1.
</event>
<event>
 8    1  0.1065239E+005  0.1043930E+01  0.7957747E-01            NaN
         13   -1    0    0    0    0  0.00000000000E+00  0.00000000000E+00  0.74505805969E-08  0.10566000000E+00  0.10566000000E+00 0.  1.
     999900   -1    0    0    0    0 -0.00000000000E+00 -0.00000000000E+00 -0.74505805969E-08  0.93827000000E+00  0.93827000000E+00 0.  1.
     999902    2    1    2    0    0 -0.18936580954E-01  0.72267202913E-02  0.20055768906E-02  0.10235623314E+01  0.10233596652E+01 0.  0.
     999903    2    3    3    0    0  0.56641107469E-02 -0.25413153129E-01 -0.12879594088E+00  0.13295602535E+00  0.20273129670E-01 0.  0.
         14    1    1    2    0    0  0.18936580954E-01 -0.72267202913E-02 -0.20055768906E-02  0.20367668572E-01  0.00000000000E+00 0. -1.
     999901    1    3    3    0    0 -0.24600691701E-01  0.32639873420E-01  0.13080151778E+00  0.89060630608E+00  0.88000000000E+00 0. -1.
        -11    1    4    4    0    0  0.94249760737E-02 -0.14530177625E-01 -0.10605463893E+00  0.10746070815E+00  0.51100000000E-03 0.  1.
         11    1    4    4    0    0 -0.37608653268E-02 -0.10882975503E-01 -0.22741301954E-01  0.25495317205E-01  0.51100000000E-03 0. -1.
</event>
<event>
 8    1  0.1065239E+005  0.1043930E+01  0.7957747E-01            NaN
         13   -1    0    0    0    0  0.00000000000E+00  0.00000000000E+00  0.74505805969E-08  0.10566000000E+00  0.10566000000E+00 0.  1.
     999900   -1    0    0    0    0 -0.00000000000E+00 -0.00000000000E+00 -0.74505805969E-08  0.93827000000E+00  0.93827000000E+00 0.  1.
     999902    2    1    2    0    0 -0.83371568553E-02  0.39515315926E-02 -0.15474296062E-01  0.10259139898E+01  0.10257557886E+01 0.  0.
     999903    2    3    3    0    0  0.15175239889E-01 -0.13205179329E+00 -0.11615609979E-01  0.13514767549E+00  0.21494366199E-01 0.  0.
         14    1    1    2    0    0  0.83371568553E-02 -0.39515315926E-02  0.15474296062E-01  0.18016010240E-01  0.00000000000E+00 0.  1.
     999901    1    3    3    0    0 -0.23512396744E-01  0.13600332488E+00 -0.38586860826E-02  0.89076631427E+00  0.88000000000E+00 0. -1.
        -11    1    4    4    0    0  0.48428023588E-02 -0.53663473528E-01  0.57663364084E-02  0.54191631110E-01  0.51100000000E-03 0.  1.
         11    1    4    4    0    0  0.10332437530E-01 -0.78388319762E-01 -0.17381946387E-01  0.80956044380E-01  0.51100000000E-03 0. -1.
</event>
<event>
 8    1  0.1065239E+005  0.1043930E+01  0.7957747E-01            NaN
         13   -1    0    0    0    0  0.00000000000E+00  0.00000000000E+00  0.74505805969E-08  0.10566000000E+00  0.10566000000E+00 0.  1.
     999900   -1    0    0    0    0 -0.00000000000E+00 -0.00000000000E+00 -0.74505805969E-08  0.93827000000E+00  0.93827000000E+00 0. -1.
     999902    2    1    2    0    0 -0.25868037623E-01  0.10543261275E-01 -0.15409220179E-01  0.10120276522E+01  0.10115246952E+01 0.  0.
     999903    2    3    3    0    0 -0.10363709435E+00  0.64414194760E-01 -0.29479906071E-01  0.12684513550E+00  0.18187570657E-01 0.  0.
         14    1    1    2    0    0  0.25868037623E-01 -0.10543261275E-01  0.15409220179E-01  0.31902347802E-01  0.00000000000E+00 0. -1.
     999901    1    3    3    0    0  0.77769056731E-01 -0.53870933485E-01  0.14070685892E-01  0.88518251669E+00  0.88000000000E+00 0.  1.
        -11    1    4    4    0    0 -0.29281064569E-01  0.18311173214E-01 -0.54575699307E-04  0.34539020054E-01  0.51100000000E-03 0. -1.
         11    1    4    4    0    0 -0.74356029785E-01  0.46103021546E-01 -0.29425330372E-01  0.92306115450E-01  0.51100000000E-03 0.  1.
</event>
<event>
 8    1  0.1065239E+005  0.1043930E+01  0.7957747E-01            NaN
         13   -1    0    0    0    0  0.00000000000E+00  0.00000000000E+00  0.74505805969E-08  0.10566000000E+00  0.10566000000E+00 0. -1.
     999900   -1    0    0    0    0 -0.00000000000E+00 -0.00000000000E+00 -0.74505805969E-08  0.93827000000E+00  0.93827000000E+00 0. -1.
     999902    2    1    2    0    0  0.20588349429E-01 -0.79482038287E-02  0.83491627678E-02  0.10203341827E+01  0.10200613127E+01 0.  0.
     999903    2    3    3    0    0  0.10534756251E+00 -0.22916490874E-01  0.76294796534E-01  0.13352823831E+00  0.19637208743E-01 0.  0.
         14    1    1    2    0    0 -0.20588349429E-01  0.79482038287E-02 -0.83491627678E-02  0.23595817325E-01  0.00000000000E+00 0.  1.
     999901    1    3    3    0    0 -0.84759213078E-01  0.14968287045E-01 -0.67945633766E-01  0.88680594437E+00  0.88000000000E+00 0.  1.
        -11    1    4    4    0    0  0.45237496083E-01 -0.13804782877E-01  0.44387879933E-01  0.64865615607E-01  0.51100000000E-03 0.  1.
         11    1    4    4    0    0  0.60110066424E-01 -0.91117079963E-02  0.31906916601E-01  0.68662622700E-01  0.51100000000E-03 0. -1.
</event>
<event>
 7    1  0.1065239E+005  0.1043930E+01  0.7957747E-01            NaN
         13   -1    0    0    0    0  0.00000000000E+00  0.00000000000E+00  0.74505805969E-08  0.10566000000E+00  0.10566000000E+00 0. -1.
     999900   -1    0    0    0    0 -0.00000000000E+00 -0.00000000000E+00 -0.74505805969E-08  0.93827000000E+00  0.93827000000E+00 0. -1.
     999903    2    1    2    0    0  0.89222411227E-01 -0.34666576621E-01 -0.44564876358E-01  0.10765131931E+00  0.20984950425E-01 0.  0.
         14    1    1    2    0    0 -0.40396006485E-01  0.25954619988E-01  0.26183322235E-01  0.54690456224E-01  0.00000000000E+00 0. -1.
     999901    1    1    2    0    0 -0.48826404742E-01  0.87119566330E-02  0.18381554123E-01  0.88158822447E+00  0.88000000000E+00 0.  1.
        -11    1    3    3    0    0  0.46858985785E-01 -0.69940338386E-02 -0.22305892831E-01  0.52368836479E-01  0.51100000000E-03 0.  1.
         11    1    3    3    0    0  0.42363425442E-01 -0.27672542782E-01 -0.22258983527E-01  0.55282482830E-01  0.51100000000E-03 0. -1.
</event>
<event>
 8    1  0.1065239E+005  0.1043930E+01  0.7957747E-01            NaN
         13   -1    0    0    0    0  0.00000000000E+00  0.00000000000E+00  0.74505805969E-08  0.10566000000E+00  0.10566000000E+00 0.  1.
     999900   -1    0    0    0    0 -0.00000000000E+00 -0.00000000000E+00 -0.74505805969E-08  0.93827000000E+00  0.93827000000E+00 0. -1.
     999902    2    1    2    0    0  0.44290628179E-02 -0.22872782252E-01 -0.22888144311E-02  0.10205201850E+01  0.10202516497E+01 0.  0.
     999903    2    3    3    0    0  0.48721638696E-01  0.50349073788E-01  0.10713101396E+00  0.12962402311E+00  0.20408476352E-01 0.  0.
         14    1    1    2    0    0 -0.44290628179E-02  0.22872782252E-01  0.22888144311E-02  0.23409814969E-01  0.00000000000E+00 0.  1.
     999901    1    3    3    0    0 -0.44292575878E-01 -0.73221856040E-01 -0.10941982839E+00  0.89089616192E+00  0.88000000000E+00 0. -1.
        -11    1    4    4    0    0  0.10497795942E-01  0.19918018775E-01  0.47214537574E-01  0.52310657336E-01  0.51100000000E-03 0.  1.
         11    1    4    4    0    0  0.38223842754E-01  0.30431055013E-01  0.59916476385E-01  0.77313365775E-01  0.51100000000E-03 0. -1.
</event>
<event>
 8    1  0.1065239E+005  0.1043930E+01  0.7957747E-01            NaN
         13   -1    0    0    0    0  0.00000000000E+00  0.00000000000E+00  0.74505805969E-08  0.10566000000E+00  0.10566000000E+00 0. -1.
     999900   -1    0    0    0    0 -0.00000000000E+00 -0.00000000000E+00 -0.74505805969E-08  0.93827000000E+00  0.93827000000E+00 0. -1.
     999902    2    1    2    0    0 -0.20588011572E-01 -0.12785141142E-01 -0.63148630454E-02  0.10188859678E+01  0.10185781324E+01 0.  0.
     999903    2    3    3    0    0  0.11199044271E+00 -0.55458203249E-01  0.16966651037E-01  0.12762839240E+00  0.19587438190E-01 0.  0.
         14    1    1    2    0    0  0.20588011572E-01  0.12785141142E-01  0.63148630454E-02  0.25044032219E-01  0.00000000000E+00 0.  1.
     999901    1    3    3    0    0 -0.13257845428E+00  0.42673062106E-01 -0.23281514082E-01  0.89125757538E+00  0.88000000000E+00 0. -1.
        -11    1    4    4    0    0  0.87738454041E-01 -0.34570454727E-01  0.96973882104E-02  0.94802178860E-01  0.51100000000E-03 0. -1.
         11    1    4    4    0    0  0.24251988667E-01 -0.20887748522E-01  0.72692628266E-02  0.32826213545E-01  0.51100000000E-03 0.  1.
</event>
<event>
 8    1  0.1065239E+005  0.1043930E+01  0.7957747E-01            NaN
         13   -1    0    0    0    0  0.00000000000E+00  0.00000000000E+00  0.74505805969E-08  0.10566000000E+00  0.10566000000E+00 0.  1.
     999900   -1    0    0    0    0 -0.00000000000E+00 -0.00000000000E+00 -0.74505805969E-08  0.93827000000E+00  0.93827000000E+00 0. -1.
     999902    2    1    2    0    0 -0.51305964454E-02 -0.19253562177E-01 -0.12786569096E-01  0.10202547170E+01  0.10199799844E+01 0.  0.
     999903    2    3    3    0    0 -0.11150104653E+00 -0.34784060961E-01  0.57018248265E-01  0.13096928386E+00  0.16107712659E-01 0.  0.
         14    1    1    2    0    0  0.51305964454E-02  0.19253562177E-01  0.12786569096E-01  0.23675283011E-01  0.00000000000E+00 0.  1.
     999901    1    3    3    0    0  0.10637045008E+00  0.15530498784E-01 -0.69804817361E-01  0.88928543313E+00  0.88000000000E+00 0. -1.
        -11    1    4    4    0    0 -0.10229796066E+00 -0.26985170912E-01  0.50215067894E-01  0.11711057326E+00  0.51100000000E-03 0. -1.
         11    1    4    4    0    0 -0.92030858633E-02 -0.77988900485E-02  0.68031803710E-02  0.13858710602E-01  0.51100000000E-03 0.  1.
</event>
<event>
 8    1  0.1065239E+005  0.1043930E+01  0.7957747E-01            NaN
         13   -1    0    0    0    0  0.00000000000E+00  0.00000000000E+00  0.74505805969E-08  0.10566000000E+00  0.10566000000E+00 0. -1.
     999900   -1    0    0    0    0 -0.00000000000E+00 -0.00000000000E+00 -0.74505805969E-08  0.93827000000E+00  0.93827000000E+00 0.  1.
     999902    2    1    2    0    0 -0.12354290068E-02 -0.77706385637E-02 -0.21397090159E-01  0.10211320927E+01  0.10208775667E+01 0.  0.
     999903    2    3    3    0    0  0.31445923117E-02  0.83766991235E-01 -0.10103695272E+00  0.13279610339E+00  0.19988546199E-01 0.  0.
         14    1    1    2    0    0  0.12354290068E-02  0.77706385637E-02  0.21397090159E-01  0.22797907268E-01  0.00000000000E+00 0. -1.
     999901    1    3    3    0    0 -0.43800213185E-02 -0.91537629798E-01  0.79639862560E-01  0.88833598934E+00  0.88000000000E+00 0. -1.
        -11    1    4    4    0    0 -0.61803268371E-02  0.35696502723E-01 -0.52989965256E-01  0.64192166853E-01  0.51100000000E-03 0.  1.
         11    1    4    4    0    0  0.93249191489E-02  0.48070488512E-01 -0.48046987462E-01  0.68603936535E-01  0.51100000000E-03 0. -1.
</event>
<event>
 8    1  0.1065239E+005  0.1043930E+01  0.7957747E-01            NaN
         13   -1    0    0    0    0  0.00000000000E+00  0.00000000000E+00  0.74505805969E-08  0.10566000000E+00  0.10566000000E+00 0. -1.
     999900   -1    0    0    0    0 -0.00000000000E+00 -0.00000000000E+00 -0.74505805969E-08  0.93827000000E+00  0.93827000000E+00 0. -1.
     999902    2    1    2    0    0  0.20773334985E-02  0.21697160224E-01  0.90861714524E-02  0.10203155852E+01  0.10200422799E+01 0.  0.
     999903    2    3    3    0    0  0.10179734664E+00  0.70785354457E-01  0.42671481675E-01  0.13268857741E+00  0.20301158530E-01 0.  0.
         14    1    1    2    0    0 -0.20773334985E-02 -0.21697160224E-01 -0.90861714524E-02  0.23614414833E-01  0.00000000000E+00 0.  1.
     999901    1    3    3    0    0 -0.99720013145E-01 -0.49088194234E-01 -0.33585310223E-01  0.88762700776E+00  0.88000000000E+00 0.  1.
        -11    1    4    4    0    0  0.55882562010E-01  0.50932794235E-01  0.25331793203E-01  0.79743157281E-01  0.51100000000E-03 0.  1.
         11    1    4    4    0    0  0.45914784634E-01  0.19852560222E-01  0.17339688473E-01  0.52945420130E-01  0.51100000000E-03 0. -1.
</event>
<event>
 8    1  0.1065239E+005  0.1043930E+01  0.7957747E-01            NaN
         13   -1    0    0    0    0  0.00000000000E+00  0.00000000000E+00  0.74505805969E-08  0.10566000000E+00  0.10566000000E+00 0.  1.
     999900   -1    0    0    0    0 -0.00000000000E+00 -0.00000000000E+00 -0.74505805969E-08  0.93827000000E+00  0.93827000000E+00 0.  1.
     999902    2    1    2    0    0 -0.10915482414E-01  0.17260911120E-01  0.11371979650E-01  0.10205546127E+01  0.10202868758E+01 0.  0.
     999903    2    3    3    0    0 -0.10733681383E+00  0.32172640561E-01 -0.66422143847E-01  0.13175128326E+00  0.19754215833E-01 0.  0.
         14    1    1    2    0    0  0.10915482414E-01 -0.17260911120E-01 -0.11371979650E-01  0.23375387273E-01  0.00000000000E+00 0. -1.
     999901    1    3    3    0    0  0.96421331414E-01 -0.14911729441E-01  0.77794123497E-01  0.88880332947E+00  0.88000000000E+00 0. -1.
        -11    1    4    4    0    0 -0.84147850209E-01  0.19771037360E-01 -0.58147711060E-01  0.10417855843E+00  0.51100000000E-03 0.  1.
         11    1    4    4    0    0 -0.23188963619E-01  0.12401603201E-01 -0.82744327866E-02  0.27572724831E-01  0.51100000000E-03 0. -1.
</event>
<event>
 8    1  0.1065239E+005  0.1043930E+01  0.7957747E-01            NaN
         13   -1    0    0    0    0  0.00000000000E+00  0.00000000000E+00  0.74505805969E-08  0.10566000000E+00  0.10566000000E+00 0.  1.
     999900   -1    0    0    0    0 -0.00000000000E+00 -0.00000000000E+00 -0.74505805969E-08  0.93827000000E+00  0.93827000000E+00 0.  1.
     999902    2    1    2    0    0 -0.11623467928E-01  0.20444736535E-01  0.20965678002E-02  0.10203188193E+01  0.10200455897E+01 0.  0.
     999903    2    3    3    0    0 -0.20355939374E-02 -0.57667211629E-01  0.11442855203E+00  0.12969438751E+00  0.19927109515E-01 0.  0.
         14    1    1    2    0    0  0.11623467928E-01 -0.20444736535E-01 -0.20965678002E-02  0.23611180724E-01  0.00000000000E+00 0.  1.
     999901    1    3    3    0    0 -0.95878739903E-02  0.78111948164E-01 -0.11233198423E+00  0.89062443176E+00  0.88000000000E+00 0.  1.
        -11    1    4    4    0    0  0.65695153114E-02 -0.31712237487E-01  0.48528876212E-01  0.58344986805E-01  0.51100000000E-03 0.  1.
         11    1    4    4    0    0 -0.86051092488E-02 -0.25954974143E-01  0.65899675814E-01  0.71349400707E-01  0.51100000000E-03 0. -1.
</event>
<event>
 8    1  0.1065239E+005  0.1043930E+01  0.7957747E-01            NaN
         13   -1    0    0    0    0  0.00000000000E+00  0.00000000000E+00  0.74505805969E-08  0.10566000000E+00  0.10566000000E+00 0.  1.
     999900   -1    0    0    0    0 -0.00000000000E+00 -0.00000000000E+00 -0.74505805969E-08  0.93827000000E+00  0.93827000000E+00 0. -1.
     999902    2    1    2    0    0  0.78937019439E-02 -0.16526239813E-01  0.15199599655E-01  0.10201296857E+01  0.10198520092E+01 0.  0.
     999903    2    3    3    0    0  0.10656874172E+00 -0.41554699495E-01  0.64694349727E-01  0.13287948558E+00  0.19695406557E-01 0.  0.
         14    1    1    2    0    0 -0.78937019439E-02  0.16526239813E-01 -0.15199599655E-01  0.23800314334E-01  0.00000000000E+00 0. -1.
     999901    1    3    3    0    0 -0.98675039776E-01  0.25028459682E-01 -0.49494750072E-01  0.88725020009E+00  0.88000000000E+00 0. -1.
        -11    1    4    4    0    0  0.22456844827E-01 -0.14741762712E-01  0.82990335335E-02  0.28120535664E-01  0.51100000000E-03 0. -1.
         11    1    4    4    0    0  0.84111896893E-01 -0.26812936783E-01  0.56395316194E-01  0.10475894992E+00  0.51100000000E-03 0.  1.
</event>
<event>
 8    1  0.1065239E+005  0.1043930E+01  0.7957747E-01            NaN
         13   -1    0    0    0    0  0.00000000000E+00  0.00000000000E+00  0.74505805969E-08  0.10566000000E+00  0.10566000000E+00 0.  1.
     999900   -1    0    0    0    0 -0.00000000000E+00 -0.00000000000E+00 -0.74505805969E-08  0.93827000000E+00  0.93827000000E+00 0. -1.
     999902    2    1    2    0    0 -0.56604385161E-02 -0.59332663726E-02 -0.22078063699E-01  0.10203782461E+01  0.10201064062E+01 0.  0.
     999903    2    3    3    0    0 -0.48705929610E-04 -0.12901289193E+00 -0.17364074998E-01  0.13178255209E+00  0.20513441371E-01 0.  0.
         14    1    1    2    0    0  0.56604385161E-02  0.59332663726E-02  0.22078063699E-01  0.23551753878E-01  0.00000000000E+00 0. -1.
     999901    1    3    3    0    0 -0.56117325865E-02  0.12307962556E+00 -0.47139887008E-02  0.88859569404E+00  0.88000000000E+00 0. -1.
        -11    1    4    4    0    0 -0.82685258065E-02 -0.90929792970E-01 -0.16653183732E-01  0.92812636090E-01  0.51100000000E-03 0. -1.
         11    1    4    4    0    0  0.82198198769E-02 -0.38083098961E-01 -0.71089126645E-03  0.38969915995E-01  0.51100000000E-03 0.  1.
</event>
<event>
 8    1  0.1065239E+005  0.1043930E+01  0.7957747E-01            NaN
         13   -1    0    0    0    0  0.00000000000E+00  0.00000000000E+00  0.74505805969E-08  0.10566000000E+00  0.10566000000E+00 0.  1.
     999900   -1    0    0    0    0 -0.00000000000E+00 -0.00000000000E+00 -0.74505805969E-08  0.93827000000E+00  0.93827000000E+00 0. -1.
     999902    2    1    2    0    0  0.14784575665E-01 -0.11760126568E-01 -0.13724340070E-01  0.10205795875E+01  0.10203124289E+01 0.  0.
     999903    2    3    3    0    0 -0.30846534848E-01 -0.62743625653E-01 -0.11086537870E+00  0.13259428534E+00  0.20045973144E-01 0.  0.
         14    1    1    2    0    0 -0.14784575665E-01  0.11760126568E-01  0.13724340070E-01  0.23350412520E-01  0.00000000000E+00 0.  1.
     999901    1    3    3    0    0  0.45631110514E-01  0.50983499086E-01  0.97141038628E-01  0.88798530214E+00  0.88000000000E+00 0.  1.
        -11    1    4    4    0    0 -0.19218171472E-01 -0.20954164937E-01 -0.54451053010E-01  0.61429581131E-01  0.51100000000E-03 0.  1.
         11    1    4    4    0    0 -0.11628363376E-01 -0.41789460716E-01 -0.56414325689E-01  0.71164704212E-01  0.51100000000E-03 0. -1.
</event>
<event>
 8    1  0.1065239E+005  0.1043930E+01  0.7957747E-01            NaN
         13   -1    0    0    0    0  0.00000000000E+00  0.00000000000E+00  0.74505805969E-08  0.10566000000E+00  0.10566000000E+00 0. -1.
     999900   -1    0    0    0    0 -0.00000000000E+00 -0.00000000000E+00 -0.74505805969E-08  0.93827000000E+00  0.93827000000E+00 0. -1.
     999902    2    1    2    0    0 -0.18889864502E-01 -0.17173438777E-02  0.14032149381E-01  0.10203359866E+01  0.10200631589E+01 0.  0.
     999903    2    3    3    0    0 -0.20125548869E-01  0.66677963790E-01  0.11098185250E+00  0.13237276106E+00  0.18830499511E-01 0.  0.
         14    1    1    2    0    0  0.18889864502E-01  0.17173438777E-02 -0.14032149381E-01  0.23594013375E-01  0.00000000000E+00 0.  1.
     999901    1    3    3    0    0  0.12356843663E-02 -0.68395307667E-01 -0.96949703123E-01  0.88796322557E+00  0.88000000000E+00 0. -1.
        -11    1    4    4    0    0 -0.77941639256E-02  0.19129081509E-01  0.18880232028E-01  0.27989194935E-01  0.51100000000E-03 0. -1.
         11    1    4    4    0    0 -0.12331384943E-01  0.47548882281E-01  0.92101620476E-01  0.10438356612E+00  0.51100000000E-03 0.  1.
</event>
<event>
 8    1  0.1065239E+005  0.1043930E+01  0.7957747E-01            NaN
         13   -1    0    0    0    0  0.00000000000E+00  0.00000000000E+00  0.74505805969E-08  0.10566000000E+00  0.10566000000E+00 0.  1.
     999900   -1    0    0    0    0 -0.00000000000E+00 -0.00000000000E+00 -0.74505805969E-08  0.93827000000E+00  0.93827000000E+00 0.  1.
     999902    2    1    2    0    0  0.10293874219E-01  0.81208454678E-02 -0.19947625800E-01  0.10200591024E+01  0.10197797569E+01 0.  0.
     999903    2    3    3    0    0  0.21620067647E-01  0.13600030365E-02  0.12470588837E+00  0.12815180294E+00  0.20051161290E-01 0.  0.
         14    1    1    2    0    0 -0.10293874219E-01 -0.81208454678E-02  0.19947625800E-01  0.23870897608E-01  0.00000000000E+00 0.  1.
     999901    1    3    3    0    0 -0.11326193428E-01  0.67608424313E-02 -0.14465351417E+00  0.89190729945E+00  0.88000000000E+00 0.  1.
        -11    1    4    4    0    0  0.24932574558E-01 -0.12229822678E-02  0.98996421026E-01  0.10209643215E+00  0.51100000000E-03 0. -1.
         11    1    4    4    0    0 -0.33125069111E-02  0.25829853044E-02  0.25709467348E-01  0.26055370798E-01  0.51100000000E-03 0.  1.
</event>
<event>
 8    1  0.1065239E+005  0.1043930E+01  0.7957747E-01            NaN
         13   -1    0    0    0    0  0.00000000000E+00  0.00000000000E+00  0.74505805969E-08  0.10566000000E+00  0.10566000000E+00 0.  1.
     999900   -1    0    0    0    0 -0.00000000000E+00 -0.00000000000E+00 -0.74505805969E-08  0.93827000000E+00  0.93827000000E+00 0.  1.
     999902    2    1    2    0    0  0.22681789628E-01 -0.74709893032E-02  0.29089774408E-02  0.10198729551E+01  0.10195891835E+01 0.  0.
     999903    2    3    3    0    0 -0.54468317522E-01 -0.86855146122E-01 -0.76383138140E-01  0.12940048328E+00  0.19987177387E-01 0.  0.
         14    1    1    2    0    0 -0.22681789628E-01  0.74709893032E-02 -0.29089774408E-02  0.24057044948E-01  0.00000000000E+00 0. -1.
     999901    1    3    3    0    0  0.77150107150E-01  0.79384156819E-01  0.79292115581E-01  0.89047247177E+00  0.88000000000E+00 0. -1.
        -11    1    4    4    0    0 -0.51427887544E-01 -0.68083667572E-01 -0.60193602209E-01  0.10442099538E+00  0.51100000000E-03 0.  1.
         11    1    4    4    0    0 -0.30404299780E-02 -0.18771478550E-01 -0.16189535931E-01  0.24979487907E-01  0.51100000000E-03 0. -1.
</event>
<event>
 7    1  0.1065239E+005  0.1043930E+01  0.7957747E-01            NaN
         13   -1    0    0    0    0  0.00000000000E+00  0.00000000000E+00  0.74505805969E-08  0.10566000000E+00  0.10566000000E+00 0.  1.
     999900   -1    0    0    0    0 -0.00000000000E+00 -0.00000000000E+00 -0.74505805969E-08  0.93827000000E+00  0.93827000000E+00 0. -1.
     999903    2    1    2    0    0 -0.12970903424E+00 -0.63577841968E-01 -0.16239356933E-01  0.14707957095E+00  0.22407764854E-01 0.  0.
         14    1    1    2    0    0  0.54034669344E-02  0.22437846043E-02 -0.66858943643E-04  0.58511959786E-02  0.00000000000E+00 0.  1.
     999901    1    1    2    0    0  0.12430556730E+00  0.61334057364E-01  0.16306215877E-01  0.89099923307E+00  0.88000000000E+00 0. -1.
        -11    1    3    3    0    0 -0.25282973567E-01 -0.35049358327E-02 -0.56042765524E-02  0.26137757445E-01  0.51100000000E-03 0. -1.
         11    1    3    3    0    0 -0.10442606067E+00 -0.60072906136E-01 -0.10635080381E-01  0.12094181351E+00  0.51100000000E-03 0.  1.
</event>
<event>
 8    1  0.1065239E+005  0.1043930E+01  0.7957747E-01            NaN
         13   -1    0    0    0    0  0.00000000000E+00  0.00000000000E+00  0.74505805969E-08  0.10566000000E+00  0.10566000000E+00 0.  1.
     999900   -1    0    0    0    0 -0.00000000000E+00 -0.00000000000E+00 -0.74505805969E-08  0.93827000000E+00  0.93827000000E+00 0. -1.
     999902    2    1    2    0    0 -0.21627529672E-01  0.15125291323E-02  0.91606983993E-02  0.10203937263E+01  0.10201222478E+01 0.  0.
     999903    2    3    3    0    0 -0.49476291332E-01 -0.35124057010E-01  0.11597662026E+00  0.13274095966E+00  0.22090340438E-01 0.  0.
         14    1    1    2    0    0  0.21627529672E-01 -0.15125291323E-02 -0.91606983993E-02  0.23536273691E-01  0.00000000000E+00 0. -1.
     999901    1    3    3    0    0  0.27848761659E-01  0.36636586142E-01 -0.10681592186E+00  0.88765276665E+00  0.88000000000E+00 0. -1.
        -11    1    4    4    0    0 -0.49899634794E-01 -0.30714924649E-01  0.97671917334E-01  0.11390103031E+00  0.51100000000E-03 0. -1.
         11    1    4    4    0    0  0.42334346253E-03 -0.44091323605E-02  0.18304702926E-01  0.18839929354E-01  0.51100000000E-03 0.  1.
</event>
<event>
 8    1  0.1065239E+005  0.1043930E+01  0.7957747E-01            NaN
         13   -1    0    0    0    0  0.00000000000E+00  0.00000000000E+00  0.74505805969E-08  0.10566000000E+00  0.10566000000E+00 0.  1.
     999900   -1    0    0    0    0 -0.00000000000E+00 -0.00000000000E+00 -0.74505805969E-08  0.93827000000E+00  0.93827000000E+00 0.  1.
     999902    2    1    2    0    0  0.14387505129E-01  0.18239355369E-01 -0.50555302458E-02  0.10201553754E+01  0.10198783051E+01 0.  0.
     999903    2    3    3    0    0  0.63897527787E-02 -0.75697266528E-01 -0.10319433513E+00  0.12969522583E+00  0.20021880496E-01 0.  0.
         14    1    1    2    0    0 -0.14387505129E-01 -0.18239355369E-01  0.50555302458E-02  0.23774624586E-01  0.00000000000E+00 0.  1.
     999901    1    3    3    0    0  0.79977523505E-02  0.93936621897E-01  0.98138804888E-01  0.89046014959E+00  0.88000000000E+00 0. -1.
        -11    1    4    4    0    0  0.37666679945E-02 -0.11063727096E-01 -0.28940149370E-01  0.31215175982E-01  0.51100000000E-03 0. -1.
         11    1    4    4    0    0  0.26230847842E-02 -0.64633539432E-01 -0.74254185764E-01  0.98480049846E-01  0.51100000000E-03 0.  1.
</event>
<event>
 8    1  0.1065239E+005  0.1043930E+01  0.7957747E-01            NaN
         13   -1    0    0    0    0  0.00000000000E+00  0.00000000000E+00  0.74505805969E-08  0.10566000000E+00  0.10566000000E+00 0.  1.
     999900   -1    0    0    0    0 -0.00000000000E+00 -0.00000000000E+00 -0.74505805969E-08  0.93827000000E+00  0.93827000000E+00 0.  1.
     999902    2    1    2    0    0 -0.16440016744E-01 -0.16190104354E-01  0.58600464663E-03  0.10208489032E+01  0.10205879414E+01 0.  0.
     999903    2    3    3    0    0  0.42682682189E-01 -0.81148820146E-01  0.92349416529E-01  0.13172818468E+00  0.20419538081E-01 0.  0.
         14    1    1    2    0    0  0.16440016744E-01  0.16190104354E-01 -0.58600464663E-03  0.23081096832E-01  0.00000000000E+00 0. -1.
     999901    1    3    3    0    0 -0.59122698933E-01  0.64958715792E-01 -0.91763411882E-01  0.88912071849E+00  0.88000000000E+00 0.  1.
        -11    1    4    4    0    0  0.33865801555E-01 -0.76625908233E-01  0.79507098130E-01  0.11549918658E+00  0.51100000000E-03 0.  1.
         11    1    4    4    0    0  0.88168806342E-02 -0.45229119136E-02  0.12842318399E-01  0.16228998095E-01  0.51100000000E-03 0. -1.
</event>
<event>
 8    1  0.1065239E+005  0.1043930E+01  0.7957747E-01            NaN
         13   -1    0    0    0    0  0.00000000000E+00  0.00000000000E+00  0.74505805969E-08  0.10566000000E+00  0.10566000000E+00 0. -1.
     999900   -1    0    0    0    0 -0.00000000000E+00 -0.00000000000E+00 -0.74505805969E-08  0.93827000000E+00  0.93827000000E+00 0.  1.
     999902    2    1    2    0    0 -0.90111899281E-02 -0.16898839390E-02  0.16010413012E-01  0.10254803231E+01  0.10253143433E+01 0.  0.
     999903    2    3    3    0    0  0.63379783129E-01 -0.76991242862E-01 -0.86487784892E-01  0.13339477331E+00  0.19219266982E-01 0.  0.
         14    1    1    2    0    0  0.90111899281E-02  0.16898839390E-02 -0.16010413012E-01  0.18449676866E-01  0.00000000000E+00 0.  1.
     999901    1    3    3    0    0 -0.72390973057E-01  0.75301358923E-01  0.10249819790E+00  0.89208554983E+00  0.88000000000E+00 0. -1.
        -11    1    4    4    0    0  0.13786637155E-01 -0.24166391389E-01 -0.15023064686E-01  0.31623400044E-01  0.51100000000E-03 0.  1.
         11    1    4    4    0    0  0.49593145974E-01 -0.52824851473E-01 -0.71464720206E-01  0.10177137326E+00  0.51100000000E-03 0. -1.
</event>
<event>
 8    1  0.1065239E+005  0.1043930E+01  0.7957747E-01            NaN
         13   -1    0    0    0    0  0.00000000000E+00  0.00000000000E+00  0.74505805969E-08  0.10566000000E+00  0.10566000000E+00 0. -1.
     999900   -1    0    0    0    0 -0.00000000000E+00 -0.00000000000E+00 -0.74505805969E-08  0.93827000000E+00  0.93827000000E+00 0.  1.
     999902    2    1    2    0    0  0.14379979872E-02 -0.16104277091E-01  0.17672147603E-01  0.10199775392E+01  0.10196962587E+01 0.  0.
     999903    2    3    3    0    0  0.42716469114E-01 -0.12108905294E+00 -0.23200151140E-01  0.13183551216E+00  0.18844091303E-01 0.  0.
         14    1    1    2    0    0 -0.14379979872E-02  0.16104277091E-01 -0.17672147603E-01  0.23952460829E-01  0.00000000000E+00 0.  1.
     999901    1    3    3    0    0 -0.41278471127E-01  0.10498477585E+00  0.40872298744E-01  0.88814202701E+00  0.88000000000E+00 0. -1.
        -11    1    4    4    0    0  0.43780535108E-01 -0.12073033533E+00 -0.22395128862E-01  0.13036238738E+00  0.51100000000E-03 0. -1.
         11    1    4    4    0    0 -0.10640659944E-02 -0.35871760957E-03 -0.80502227773E-03  0.14731247847E-02  0.51100000000E-03 0.  1.
</event>
<event>
 8    1  0.1065239E+005  0.1043930E+01  0.7957747E-01            NaN
         13   -1    0    0    0    0  0.00000000000E+00  0.00000000000E+00  0.74505805969E-08  0.10566000000E+00  0.10566000000E+00 0. -1.
     999900   -1    0    0    0    0 -0.00000000000E+00 -0.00000000000E+00 -0.74505805969E-08  0.93827000000E+00  0.93827000000E+00 0. -1.
     999902    2    1    2    0    0  0.74683796973E-02 -0.87992070197E-02 -0.20527859956E-01  0.10203801428E+01  0.10201083472E+01 0.  0.
     999903    2    3    3    0    0 -0.39079013133E-01 -0.12224639268E+00 -0.22957062458E-01  0.13187419193E+00  0.19809744851E-01 0.  0.
         14    1    1    2    0    0 -0.74683796973E-02  0.87992070197E-02  0.20527859956E-01  0.23549857194E-01  0.00000000000E+00 0. -1.
     999901    1    3    3    0    0  0.46547392831E-01  0.11344718566E+00  0.24292025020E-02  0.88850595087E+00  0.88000000000E+00 0.  1.
        -11    1    4    4    0    0 -0.31881713745E-01 -0.87346212117E-01 -0.83492716047E-02  0.93358319928E-01  0.51100000000E-03 0. -1.
         11    1    4    4    0    0 -0.71972993886E-02 -0.34900180560E-01 -0.14607790854E-01  0.38515872004E-01  0.51100000000E-03 0.  1.
</event>
<event>
 8    1  0.1065239E+005  0.1043930E+01  0.7957747E-01            NaN
         13   -1    0    0    0    0  0.00000000000E+00  0.00000000000E+00  0.74505805969E-08  0.10566000000E+00  0.10566000000E+00 0.  1.
     999900   -1    0    0    0    0 -0.00000000000E+00 -0.00000000000E+00 -0.74505805969E-08  0.93827000000E+00  0.93827000000E+00 0.  1.
     999902    2    1    2    0    0  0.11832005842E-01 -0.72349618164E-02 -0.19088769439E-01  0.10203350397E+01  0.10200621898E+01 0.  0.
     999903    2    3    3    0    0  0.77616576968E-01 -0.65168496352E-01 -0.84859784829E-01  0.13353758213E+00  0.18969365360E-01 0.  0.
         14    1    1    2    0    0 -0.11832005842E-01  0.72349618164E-02  0.19088769439E-01  0.23594960340E-01  0.00000000000E+00 0.  1.
     999901    1    3    3    0    0 -0.65784571126E-01  0.57933534535E-01  0.65771015389E-01  0.88679745753E+00  0.88000000000E+00 0. -1.
        -11    1    4    4    0    0  0.62173995771E-01 -0.55775000050E-01 -0.60206450507E-01  0.10296375180E+00  0.51100000000E-03 0. -1.
         11    1    4    4    0    0  0.15442581197E-01 -0.93934963017E-02 -0.24653334321E-01  0.30573830329E-01  0.51100000000E-03 0.  1.
</event>
<event>
 8    1  0.1065239E+005  0.1043930E+01  0.7957747E-01            NaN
         13   -1    0    0    0    0  0.00000000000E+00  0.00000000000E+00  0.74505805969E-08  0.10566000000E+00  0.10566000000E+00 0.  1.
     999900   -1    0    0    0    0 -0.00000000000E+00 -0.00000000000E+00 -0.74505805969E-08  0.93827000000E+00  0.93827000000E+00 0.  1.
     999902    2    1    2    0    0 -0.22033851971E-01 -0.85046754260E-02  0.95281463935E-03  0.10202925722E+01  0.10200187277E+01 0.  0.
     999903    2    3    3    0    0 -0.11807008473E+00 -0.41374181464E-01  0.42234351314E-01  0.13349635678E+00  0.19625723981E-01 0.  0.
         14    1    1    2    0    0  0.22033851971E-01  0.85046754260E-02 -0.95281463935E-03  0.23637427790E-01  0.00000000000E+00 0. -1.
     999901    1    3    3    0    0  0.96036232763E-01  0.32869506038E-01 -0.41281536674E-01  0.88679621543E+00  0.88000000000E+00 0.  1.
        -11    1    4    4    0    0 -0.99384999712E-01 -0.39773158834E-01  0.30274476360E-01  0.11124786457E+00  0.51100000000E-03 0. -1.
         11    1    4    4    0    0 -0.18685085022E-01 -0.16010226298E-02  0.11959874954E-01  0.22248492211E-01  0.51100000000E-03 0.  1.
</event>
<event>
 8    1  0.1065239E+005  0.1043930E+01  0.7957747E-01            NaN
         13   -1    0    0    0    0  0.00000000000E+00  0.00000000000E+00  0.74505805969E-08  0.10566000000E+00  0.10566000000E+00 0. -1.
     999900   -1    0    0    0    0 -0.00000000000E+00 -0.00000000000E+00 -0.74505805969E-08  0.93827000000E+00  0.93827000000E+00 0.  1.
     999902    2    1    2    0    0  0.81487757517E-02  0.11501651924E-01  0.18778273968E-01  0.10204499209E+01  0.10201797522E+01 0.  0.
     999903    2    3    3    0    0 -0.69011208095E-01  0.10679277197E+00  0.28965801089E-01  0.13189049889E+00  0.19719104370E-01 0.  0.
         14    1    1    2    0    0 -0.81487757517E-02 -0.11501651924E-01 -0.18778273968E-01  0.23480079141E-01  0.00000000000E+00 0.  1.
     999901    1    3    3    0    0  0.77159983847E-01 -0.95291120042E-01 -0.10187527121E-01  0.88855942197E+00  0.88000000000E+00 0. -1.
        -11    1    4    4    0    0 -0.29987310921E-01  0.53236108257E-01  0.23248322866E-01  0.65376354102E-01  0.51100000000E-03 0.  1.
         11    1    4    4    0    0 -0.39023897174E-01  0.53556663709E-01  0.57174782231E-02  0.66514144786E-01  0.51100000000E-03 0. -1.
</event>
<event>
 8    1  0.1065239E+005  0.1043930E+01  0.7957747E-01            NaN
         13   -1    0    0    0    0  0.00000000000E+00  0.00000000000E+00  0.74505805969E-08  0.10566000000E+00  0.10566000000E+00 0. -1.
     999900   -1    0    0    0    0 -0.00000000000E+00 -0.00000000000E+00 -0.74505805969E-08  0.93827000000E+00  0.93827000000E+00 0.  1.
     999902    2    1    2    0    0 -0.58163117978E-02 -0.24316323676E-02 -0.22726741924E-01  0.10203451083E+01  0.10200724939E+01 0.  0.
     999903    2    3    3    0    0  0.12645907108E+00  0.21667228046E-01 -0.40732843478E-02  0.12993762658E+00  0.20145215943E-01 0.  0.
         14    1    1    2    0    0  0.58163117978E-02  0.24316323676E-02  0.22726741924E-01  0.23584891719E-01  0.00000000000E+00 0. -1.
     999901    1    3    3    0    0 -0.13227538288E+00 -0.24098860414E-01 -0.18653457577E-01  0.89040748170E+00  0.88000000000E+00 0.  1.
        -11    1    4    4    0    0  0.40436732302E-01 -0.71689909515E-03 -0.67664609617E-02  0.41008406193E-01  0.51100000000E-03 0. -1.
         11    1    4    4    0    0  0.86022338782E-01  0.22384127141E-01  0.26931766140E-02  0.88929220387E-01  0.51100000000E-03 0.  1.
</event>
<event>
 8    1  0.1065239E+005  0.1043930E+01  0.7957747E-01            NaN
         13   -1    0    0    0    0  0.00000000000E+00  0.00000000000E+00  0.74505805969E-08  0.10566000000E+00  0.10566000000E+00 0. -1.
     999900   -1    0    0    0    0 -0.00000000000E+00 -0.00000000000E+00 -0.74505805969E-08  0.93827000000E+00  0.93827000000E+00 0.  1.
     999902    2    1    2    0    0  0.13981193502E-01 -0.16542642316E-01  0.14257105972E-01  0.10179993645E+01  0.10176690564E+01 0.  0.
     999903    2    3    3    0    0 -0.90882780052E-01  0.84065349115E-01  0.12944260649E-01  0.12608000467E+00  0.20048717195E-01 0.  0.
         14    1    1    2    0    0 -0.13981193502E-01  0.16542642316E-01 -0.14257105972E-01  0.25930635496E-01  0.00000000000E+00 0.  1.
     999901    1    3    3    0    0  0.10486397355E+00 -0.10060799143E+00  0.13128453237E-02  0.89191935984E+00  0.88000000000E+00 0. -1.
        -11    1    4    4    0    0 -0.53687044875E-01  0.46235088045E-01  0.17015852758E-01  0.72868254542E-01  0.51100000000E-03 0.  1.
         11    1    4    4    0    0 -0.37195735178E-01  0.37830261070E-01 -0.40715921097E-02  0.53211750125E-01  0.51100000000E-03 0. -1.
</event>
<event>
 8    1  0.1187329E+005  0.1043930E+01  0.7957747E-01            NaN
         13   -1    0    0    0    0  0.00000000000E+00  0.00000000000E+00  0.74505805969E-08  0.10566000000E+00  0.10566000000E+00 0.  1.
     999900   -1    0    0    0    0 -0.00000000000E+00 -0.00000000000E+00 -0.74505805969E-08  0.93827000000E+00  0.93827000000E+00 0.  1.
     999902    2    1    2    0    0 -0.14287598103E-01 -0.18375886566E-01 -0.19560521431E-03  0.10206523943E+01  0.10203869183E+01 0.  0.
     999903    2    3    3    0    0 -0.15482462799E-01 -0.57484850769E-01  0.11622156288E+00  0.13212333127E+00  0.20122332491E-01 0.  0.
         14    1    1    2    0    0  0.14287598103E-01  0.18375886566E-01  0.19560521431E-03  0.23277605720E-01  0.00000000000E+00 0.  1.
     999901    1    3    3    0    0  0.11948646959E-02  0.39108964203E-01 -0.11641716810E+00  0.88852906301E+00  0.88000000000E+00 0.  1.
        -11    1    4    4    0    0  0.35619229206E-02 -0.24401290329E-01  0.45659865448E-01  0.51895998866E-01  0.51100000000E-03 0.  1.
         11    1    4    4    0    0 -0.19044385719E-01 -0.33083560441E-01  0.70561697436E-01  0.80227332406E-01  0.51100000000E-03 0. -1.
</event>
<event>
 8    1  0.1065239E+005  0.1043930E+01  0.7957747E-01            NaN
         13   -1    0    0    0    0  0.00000000000E+00  0.00000000000E+00  0.74505805969E-08  0.10566000000E+00  0.10566000000E+00 0.  1.
     999900   -1    0    0    0    0 -0.00000000000E+00 -0.00000000000E+00 -0.74505805969E-08  0.93827000000E+00  0.93827000000E+00 0. -1.
     999902    2    1    2    0    0 -0.23046137296E-01 -0.59485594848E-02  0.17024816207E-02  0.10200677233E+01  0.10197885820E+01 0.  0.
     999903    2    3    3    0    0 -0.65437930077E-02 -0.68385118306E-01  0.11005165890E+00  0.13107380014E+00  0.18698337509E-01 0.  0.
         14    1    1    2    0    0  0.23046137296E-01  0.59485594848E-02 -0.17024816207E-02  0.23862276670E-01  0.00000000000E+00 0.  1.
     999901    1    3    3    0    0 -0.16502344288E-01  0.62436558821E-01 -0.10834917728E+00  0.88899392319E+00  0.88000000000E+00 0. -1.
        -11    1    4    4    0    0 -0.15868481387E-04 -0.20756350855E-01  0.19169679691E-01  0.28258876359E-01  0.51100000000E-03 0. -1.
         11    1    4    4    0    0 -0.65279245263E-02 -0.47628767451E-01  0.90881979206E-01  0.10281492379E+00  0.51100000000E-03 0.  1.
</event>
<event>
 8    1  0.1065239E+005  0.1043930E+01  0.7957747E-01            NaN
         13   -1    0    0    0    0  0.00000000000E+00  0.00000000000E+00  0.74505805969E-08  0.10566000000E+00  0.10566000000E+00 0. -1.
     999900   -1    0    0    0    0 -0.00000000000E+00 -0.00000000000E+00 -0.74505805969E-08  0.93827000000E+00  0.93827000000E+00 0. -1.
     999902    2    1    2    0    0  0.99956350276E-02 -0.26394346506E-05  0.21928488753E-01  0.10198308020E+01  0.10195460231E+01 0.  0.
     999903    2    3    3    0    0  0.68435168880E-01 -0.10195384112E+00 -0.37635518656E-01  0.13002346461E+00  0.20290663509E-01 0.  0.
         14    1    1    2    0    0 -0.99956350276E-02  0.26394346506E-05 -0.21928488753E-01  0.24099198027E-01  0.00000000000E+00 0.  1.
     999901    1    3    3    0    0 -0.58439533853E-01  0.10195120169E+00  0.59564007408E-01  0.88980733736E+00  0.88000000000E+00 0. -1.
        -11    1    4    4    0    0  0.60862279440E-01 -0.96506144678E-01 -0.30044384144E-01  0.11798550402E+00  0.51100000000E-03 0.  1.
         11    1    4    4    0    0  0.75728894401E-02 -0.54476964460E-02 -0.75911345120E-02  0.12037960592E-01  0.51100000000E-03 0. -1.
</event>
<event>
 8    1  0.1065239E+005  0.1043930E+01  0.7957747E-01            NaN
         13   -1    0    0    0    0  0.00000000000E+00  0.00000000000E+00  0.74505805969E-08  0.10566000000E+00  0.10566000000E+00 0.  1.
     999900   -1    0    0    0    0 -0.00000000000E+00 -0.00000000000E+00 -0.74505805969E-08  0.93827000000E+00  0.93827000000E+00 0.  1.
     999902    2    1    2    0    0  0.17638635241E-01 -0.10702221920E-01 -0.11011886854E-01  0.10205436651E+01  0.10202756744E+01 0.  0.
     999903    2    3    3    0    0  0.87972456458E-01  0.62637526977E-01 -0.73777428677E-01  0.13247549295E+00  0.21072123027E-01 0.  0.
         14    1    1    2    0    0 -0.17638635241E-01  0.10702221920E-01  0.11011886854E-01  0.23386334884E-01  0.00000000000E+00 0. -1.
     999901    1    3    3    0    0 -0.70333821217E-01 -0.73339748897E-01  0.62765541824E-01  0.88806817217E+00  0.88000000000E+00 0.  1.
        -11    1    4    4    0    0  0.32236101016E-01  0.15662681884E-01 -0.15078020279E-01  0.38885648111E-01  0.51100000000E-03 0.  1.
         11    1    4    4    0    0  0.55736355442E-01  0.46974845093E-01 -0.58699408398E-01  0.93589844838E-01  0.51100000000E-03 0. -1.
</event>
<event>
 8    1  0.1065239E+005  0.1043930E+01  0.7957747E-01            NaN
         13   -1    0    0    0    0  0.00000000000E+00  0.00000000000E+00  0.74505805969E-08  0.10566000000E+00  0.10566000000E+00 0. -1.
     999900   -1    0    0    0    0 -0.00000000000E+00 -0.00000000000E+00 -0.74505805969E-08  0.93827000000E+00  0.93827000000E+00 0. -1.
     999902    2    1    2    0    0  0.45765681987E-02 -0.23217256122E-01  0.16211953974E-02  0.10202105094E+01  0.10199347378E+01 0.  0.
     999903    2    3    3    0    0 -0.62273949421E-01 -0.11553325437E+00  0.74386830689E-03  0.13285939238E+00  0.20617641970E-01 0.  0.
         14    1    1    2    0    0 -0.45765681987E-02  0.23217256122E-01 -0.16211953974E-02  0.23719490568E-01  0.00000000000E+00 0.  1.
     999901    1    3    3    0    0  0.66850517620E-01  0.92315998249E-01  0.87732709052E-03  0.88735111706E+00  0.88000000000E+00 0. -1.
        -11    1    4    4    0    0 -0.36854733686E-01 -0.51709520814E-01  0.69395740170E-02  0.63879298262E-01  0.51100000000E-03 0. -1.
         11    1    4    4    0    0 -0.25419215734E-01 -0.63823733557E-01 -0.61957057101E-02  0.68980094113E-01  0.51100000000E-03 0.  1.
</event>
<event>
 8    1  0.1065239E+005  0.1043930E+01  0.7957747E-01            NaN
         13   -1    0    0    0    0  0.00000000000E+00  0.00000000000E+00  0.74505805969E-08  0.10566000000E+00  0.10566000000E+00 0. -1.
     999900   -1    0    0    0    0 -0.00000000000E+00 -0.00000000000E+00 -0.74505805969E-08  0.93827000000E+00  0.93827000000E+00 0. -1.
     999902    2    1    2    0    0 -0.21017940415E-01  0.19956079023E-02 -0.12847437551E-01  0.10192157749E+01  0.10189160922E+01 0.  0.
     999903    2    3    3    0    0 -0.12364688121E-01 -0.55209949684E-01 -0.11666486457E+00  0.13122624077E+00  0.20214143186E-01 0.  0.
         14    1    1    2    0    0  0.21017940415E-01 -0.19956079023E-02  0.12847437551E-01  0.24714225090E-01  0.00000000000E+00 0.  1.
     999901    1    3    3    0    0 -0.86532522935E-02  0.57205557587E-01  0.10381742702E+00  0.88798953414E+00  0.88000000000E+00 0.  1.
        -11    1    4    4    0    0 -0.49926966315E-02 -0.39880469744E-02 -0.49254677811E-02  0.80841135684E-02  0.51100000000E-03 0. -1.
         11    1    4    4    0    0 -0.73719914896E-02 -0.51221902710E-01 -0.11173939679E+00  0.12314212720E+00  0.51100000000E-03 0.  1.
</event>
<event>
 8    1  0.1065239E+005  0.1043930E+01  0.7957747E-01            NaN
         13   -1    0    0    0    0  0.00000000000E+00  0.00000000000E+00  0.74505805969E-08  0.10566000000E+00  0.10566000000E+00 0.  1.
     999900   -1    0    0    0    0 -0.00000000000E+00 -0.00000000000E+00 -0.74505805969E-08  0.93827000000E+00  0.93827000000E+00 0.  1.
     999902    2    1    2    0    0  0.12693648997E-01 -0.18894437023E-01  0.56149130425E-02  0.10204852623E+01  0.10202159158E+01 0.  0.
     999903    2    3    3    0    0 -0.84485159909E-01 -0.94970957226E-01  0.24665759024E-01  0.13166903130E+00  0.23897890597E-01 0.  0.
         14    1    1    2    0    0 -0.12693648997E-01  0.18894437023E-01 -0.56149130425E-02  0.23444737656E-01  0.00000000000E+00 0. -1.
     999901    1    3    3    0    0  0.97178808906E-01  0.76076520203E-01 -0.19050845981E-01  0.88881623104E+00  0.88000000000E+00 0. -1.
        -11    1    4    4    0    0 -0.57832794734E-01 -0.58045177672E-01  0.50907086715E-02  0.82097815035E-01  0.51100000000E-03 0.  1.
         11    1    4    4    0    0 -0.26652365175E-01 -0.36925779554E-01  0.19575050352E-01  0.49571216269E-01  0.51100000000E-03 0. -1.
</event>
<event>
 8    1  0.1065239E+005  0.1043930E+01  0.7957747E-01            NaN
         13   -1    0    0    0    0  0.00000000000E+00  0.00000000000E+00  0.74505805969E-08  0.10566000000E+00  0.10566000000E+00 0.  1.
     999900   -1    0    0    0    0 -0.00000000000E+00 -0.00000000000E+00 -0.74505805969E-08  0.93827000000E+00  0.93827000000E+00 0.  1.
     999902    2    1    2    0    0  0.18704512783E-01 -0.11399746746E-01 -0.10799924783E-01  0.10195076455E+01  0.10192150842E+01 0.  0.
     999903    2    3    3    0    0 -0.95343314337E-01 -0.83839860879E-01  0.10769178619E-01  0.12893496276E+00  0.19717493587E-01 0.  0.
         14    1    1    2    0    0 -0.18704512783E-01  0.11399746746E-01  0.10799924783E-01  0.24422354507E-01  0.00000000000E+00 0.  1.
     999901    1    3    3    0    0  0.11404782712E+00  0.72440114132E-01 -0.21569103402E-01  0.89057268273E+00  0.88000000000E+00 0.  1.
        -11    1    4    4    0    0 -0.41633411541E-01 -0.41174832611E-01  0.14197738519E-01  0.60254001503E-01  0.51100000000E-03 0. -1.
         11    1    4    4    0    0 -0.53709902796E-01 -0.42665028267E-01 -0.34285598997E-02  0.68680961258E-01  0.51100000000E-03 0.  1.
</event>
<event>
 8    1  0.1065239E+005  0.1043930E+01  0.7957747E-01            NaN
         13   -1    0    0    0    0  0.00000000000E+00  0.00000000000E+00  0.74505805969E-08  0.10566000000E+00  0.10566000000E+00 0. -1.
     999900   -1    0    0    0    0 -0.00000000000E+00 -0.00000000000E+00 -0.74505805969E-08  0.93827000000E+00  0.93827000000E+00 0. -1.
     999902    2    1    2    0    0 -0.15410683030E-01  0.71163149310E-02  0.15310737568E-01  0.10210706524E+01  0.10208147370E+01 0.  0.
     999903    2    3    3    0    0 -0.50902550301E-01 -0.45736474093E-01  0.11271128203E+00  0.13341083238E+00  0.20290944043E-01 0.  0.
         14    1    1    2    0    0  0.15410683030E-01 -0.71163149310E-02 -0.15310737568E-01  0.22859347640E-01  0.00000000000E+00 0. -1.
     999901    1    3    3    0    0  0.35491867271E-01  0.52852789024E-01 -0.97400544458E-01  0.88765981998E+00  0.88000000000E+00 0. -1.
        -11    1    4    4    0    0 -0.19901535747E-01 -0.17275767842E-01  0.25994250212E-01  0.37020068135E-01  0.51100000000E-03 0. -1.
         11    1    4    4    0    0 -0.31001014554E-01 -0.28460706251E-01  0.86717031814E-01  0.96390764243E-01  0.51100000000E-03 0.  1.
</event>
<event>
 8    1  0.1065239E+005  0.1043930E+01  0.7957747E-01            NaN
         13   -1    0    0    0    0  0.00000000000E+00  0.00000000000E+00  0.74505805969E-08  0.10566000000E+00  0.10566000000E+00 0. -1.
     999900   -1    0    0    0    0 -0.00000000000E+00 -0.00000000000E+00 -0.74505805969E-08  0.93827000000E+00  0.93827000000E+00 0.  1.
     999902    2    1    2    0    0 -0.12458021008E-01  0.10471601880E-01  0.16934245756E-01  0.10204432929E+01  0.10201729699E+01 0.  0.
     999903    2    3    3    0    0 -0.60247358075E-01  0.89117190541E-01  0.76837402859E-01  0.13361899369E+00  0.19453307984E-01 0.  0.
         14    1    1    2    0    0  0.12458021008E-01 -0.10471601880E-01 -0.16934245756E-01  0.23486707149E-01  0.00000000000E+00 0.  1.
     999901    1    3    3    0    0  0.47789337067E-01 -0.78645588661E-01 -0.59903157104E-01  0.88682429916E+00  0.88000000000E+00 0.  1.
        -11    1    4    4    0    0 -0.16171950800E-01  0.20478965228E-01  0.29162863589E-01  0.39136348108E-01  0.51100000000E-03 0.  1.
         11    1    4    4    0    0 -0.44075407274E-01  0.68638225313E-01  0.47674539271E-01  0.94482645582E-01  0.51100000000E-03 0. -1.
</event>
<event>
 8    1  0.1065239E+005  0.1043930E+01  0.7957747E-01            NaN
         13   -1    0    0    0    0  0.00000000000E+00  0.00000000000E+00  0.74505805969E-08  0.10566000000E+00  0.10566000000E+00 0.  1.
     999900   -1    0    0    0    0 -0.00000000000E+00 -0.00000000000E+00 -0.74505805969E-08  0.93827000000E+00  0.93827000000E+00 0. -1.
     999902    2    1    2    0    0 -0.81996666931E-02  0.19368637711E-01  0.10981610556E-01  0.10202029178E+01  0.10199269675E+01 0.  0.
     999903    2    3    3    0    0 -0.10340713294E+00 -0.73598049137E-01  0.23485994810E-01  0.13011099773E+00  0.16357622087E-01 0.  0.
         14    1    1    2    0    0  0.81996666931E-02 -0.19368637711E-01 -0.10981610556E-01  0.23727082228E-01  0.00000000000E+00 0. -1.
     999901    1    3    3    0    0  0.95207466243E-01  0.92966686848E-01 -0.12504384254E-01  0.89009192004E+00  0.88000000000E+00 0. -1.
        -11    1    4    4    0    0 -0.26129128027E-01 -0.22685957964E-01  0.13032243797E-01  0.36979514864E-01  0.51100000000E-03 0.  1.
         11    1    4    4    0    0 -0.77278004909E-01 -0.50912091173E-01  0.10453751012E-01  0.93131482870E-01  0.51100000000E-03 0. -1.
</event>
<event>
 8    1  0.1065239E+005  0.1043930E+01  0.7957747E-01            NaN
         13   -1    0    0    0    0  0.00000000000E+00  0.00000000000E+00  0.74505805969E-08  0.10566000000E+00  0.10566000000E+00 0.  1.
     999900   -1    0    0    0    0 -0.00000000000E+00 -0.00000000000E+00 -0.74505805969E-08  0.93827000000E+00  0.93827000000E+00 0. -1.
     999902    2    1    2    0    0  0.37854824684E-02  0.22852541898E-01  0.37328022430E-02  0.10204672133E+01  0.10201974471E+01 0.  0.
     999903    2    3    3    0    0 -0.84030445400E-01 -0.60723260302E-01  0.74674890681E-01  0.12932786849E+00  0.20023190891E-01 0.  0.
         14    1    1    2    0    0 -0.37854824684E-02 -0.22852541898E-01 -0.37328022430E-02  0.23462786734E-01  0.00000000000E+00 0. -1.
     999901    1    3    3    0    0  0.87815927869E-01  0.83575802200E-01 -0.70942088438E-01  0.89113934478E+00  0.88000000000E+00 0. -1.
        -11    1    4    4    0    0 -0.43123043861E-01 -0.43310386047E-01  0.42421617519E-01  0.74399201645E-01  0.51100000000E-03 0. -1.
         11    1    4    4    0    0 -0.40907401539E-01 -0.17412874255E-01  0.32253273162E-01  0.54928666843E-01  0.51100000000E-03 0.  1.
</event>
<event>
 8    1  0.1065239E+005  0.1043930E+01  0.7957747E-01            NaN
         13   -1    0    0    0    0  0.00000000000E+00  0.00000000000E+00  0.74505805969E-08  0.10566000000E+00  0.10566000000E+00 0. -1.
     999900   -1    0    0    0    0 -0.00000000000E+00 -0.00000000000E+00 -0.74505805969E-08  0.93827000000E+00  0.93827000000E+00 0.  1.
     999902    2    1    2    0    0 -0.33409073457E-02  0.36490288819E-02  0.24328190740E-01  0.10191038457E+01  0.10188014087E+01 0.  0.
     999903    2    3    3    0    0  0.10402480618E-01 -0.12676821004E+00  0.15234956452E-01  0.12933970624E+00  0.17839984118E-01 0.  0.
         14    1    1    2    0    0  0.33409073457E-02 -0.36490288819E-02 -0.24328190740E-01  0.24826154321E-01  0.00000000000E+00 0.  1.
     999901    1    3    3    0    0 -0.13743387963E-01  0.13041723892E+00  0.90932342881E-02  0.88976413944E+00  0.88000000000E+00 0. -1.
        -11    1    4    4    0    0  0.16202218200E-02 -0.49490355042E-01  0.14353388665E-01  0.51557746732E-01  0.51100000000E-03 0. -1.
         11    1    4    4    0    0  0.87822587975E-02 -0.77277854995E-01  0.88156778697E-03  0.77781959509E-01  0.51100000000E-03 0.  1.
</event>
<event>
 8    1  0.1065239E+005  0.1043930E+01  0.7957747E-01            NaN
         13   -1    0    0    0    0  0.00000000000E+00  0.00000000000E+00  0.74505805969E-08  0.10566000000E+00  0.10566000000E+00 0.  1.
     999900   -1    0    0    0    0 -0.00000000000E+00 -0.00000000000E+00 -0.74505805969E-08  0.93827000000E+00  0.93827000000E+00 0. -1.
     999902    2    1    2    0    0  0.14725879033E-01  0.19584829054E-01 -0.60339063334E-02  0.10186946068E+01  0.10183819897E+01 0.  0.
     999903    2    3    3    0    0  0.83828725884E-01  0.10751574084E-01  0.96785572338E-01  0.12997357354E+00  0.19566072088E-01 0.  0.
         14    1    1    2    0    0 -0.14725879033E-01 -0.19584829054E-01  0.60339063334E-02  0.25235393161E-01  0.00000000000E+00 0.  1.
     999901    1    3    3    0    0 -0.69102846852E-01  0.88332549693E-02 -0.10281947867E+00  0.88872103330E+00  0.88000000000E+00 0. -1.
        -11    1    4    4    0    0  0.24623285623E-01 -0.25822920510E-02  0.18462217179E-01  0.30888331312E-01  0.51100000000E-03 0. -1.
         11    1    4    4    0    0  0.59205440262E-01  0.13333866135E-01  0.78323355159E-01  0.99085242227E-01  0.51100000000E-03 0.  1.
</event>
<event>
 8    1  0.1065239E+005  0.1043930E+01  0.7957747E-01            NaN
         13   -1    0    0    0    0  0.00000000000E+00  0.00000000000E+00  0.74505805969E-08  0.10566000000E+00  0.10566000000E+00 0. -1.
     999900   -1    0    0    0    0 -0.00000000000E+00 -0.00000000000E+00 -0.74505805969E-08  0.93827000000E+00  0.93827000000E+00 0.  1.
     999902    2    1    2    0    0 -0.29715408577E-02 -0.71054059416E-02  0.23450243050E-01  0.10192473999E+01  0.10189484930E+01 0.  0.
     999903    2    3    3    0    0 -0.12735333967E+00  0.12499342932E-01  0.45359538478E-02  0.13008322586E+00  0.22933906684E-01 0.  0.
         14    1    1    2    0    0  0.29715408577E-02  0.71054059416E-02 -0.23450243050E-01  0.24682600101E-01  0.00000000000E+00 0. -1.
     999901    1    3    3    0    0  0.12438179881E+00 -0.19604748874E-01  0.18914289202E-01  0.88916417404E+00  0.88000000000E+00 0. -1.
        -11    1    4    4    0    0 -0.57588116803E-01  0.13620257244E-01  0.10302809929E-01  0.60069223549E-01  0.51100000000E-03 0. -1.
         11    1    4    4    0    0 -0.69765222863E-01 -0.11209143116E-02 -0.57668560814E-02  0.70014002314E-01  0.51100000000E-03 0.  1.
</event>
<event>
 8    1  0.1065239E+005  0.1043930E+01  0.7957747E-01            NaN
         13   -1    0    0    0    0  0.00000000000E+00  0.00000000000E+00  0.74505805969E-08  0.10566000000E+00  0.10566000000E+00 0.  1.
     999900   -1    0    0    0    0 -0.00000000000E+00 -0.00000000000E+00 -0.74505805969E-08  0.93827000000E+00  0.93827000000E+00 0.  1.
     999902    2    1    2    0    0 -0.15544492074E-01  0.16317209844E-01  0.60877737232E-02  0.10205859738E+01  0.10203189630E+01 0.  0.
     999903    2    3    3    0    0  0.41710148629E-01  0.92358931319E-01 -0.80422687888E-01  0.13123536955E+00  0.22022824548E-01 0.  0.
         14    1    1    2    0    0  0.15544492074E-01 -0.16317209844E-01 -0.60877737232E-02  0.23344026213E-01  0.00000000000E+00 0.  1.
     999901    1    3    3    0    0 -0.57254640703E-01 -0.76041721475E-01  0.86510461611E-01  0.88935060424E+00  0.88000000000E+00 0. -1.
        -11    1    4    4    0    0  0.20865956515E-01  0.45262832445E-01 -0.25672636939E-01  0.56066545735E-01  0.51100000000E-03 0.  1.
         11    1    4    4    0    0  0.20844192115E-01  0.47096098873E-01 -0.54750050949E-01  0.75168823816E-01  0.51100000000E-03 0. -1.
</event>
<event>
 8    1  0.1065239E+005  0.1043930E+01  0.7957747E-01            NaN
         13   -1    0    0    0    0  0.00000000000E+00  0.00000000000E+00  0.74505805969E-08  0.10566000000E+00  0.10566000000E+00 0. -1.
     999900   -1    0    0    0    0 -0.00000000000E+00 -0.00000000000E+00 -0.74505805969E-08  0.93827000000E+00  0.93827000000E+00 0.  1.
     999902    2    1    2    0    0  0.77457952898E-02 -0.75665831782E-02  0.20862642595E-01  0.10204246733E+01  0.10201539166E+01 0.  0.
     999903    2    3    3    0    0 -0.10292005669E+00 -0.35816146699E-01  0.71077389803E-01  0.13162408295E+00  0.19939143324E-01 0.  0.
         14    1    1    2    0    0 -0.77457952898E-02  0.75665831782E-02 -0.20862642595E-01  0.23505326667E-01  0.00000000000E+00 0.  1.
     999901    1    3    3    0    0  0.11066585198E+00  0.28249563521E-01 -0.50214747208E-01  0.88880059039E+00  0.88000000000E+00 0. -1.
        -11    1    4    4    0    0 -0.67668465848E-01 -0.17406406570E-01  0.54148207993E-01  0.88398494386E-01  0.51100000000E-03 0. -1.
         11    1    4    4    0    0 -0.35251590844E-01 -0.18409740129E-01  0.16929181810E-01  0.43225588561E-01  0.51100000000E-03 0.  1.
</event>
<event>
 8    1  0.1065239E+005  0.1043930E+01  0.7957747E-01            NaN
         13   -1    0    0    0    0  0.00000000000E+00  0.00000000000E+00  0.74505805969E-08  0.10566000000E+00  0.10566000000E+00 0. -1.
     999900   -1    0    0    0    0 -0.00000000000E+00 -0.00000000000E+00 -0.74505805969E-08  0.93827000000E+00  0.93827000000E+00 0.  1.
     999902    2    1    2    0    0  0.17187704717E-01  0.11831679615E-01  0.11297699046E-01  0.10202014552E+01  0.10199254705E+01 0.  0.
     999903    2    3    3    0    0 -0.11386359303E+00  0.57038761413E-01  0.10722544669E-01  0.12934879974E+00  0.19944946952E-01 0.  0.
         14    1    1    2    0    0 -0.17187704717E-01 -0.11831679615E-01 -0.11297699046E-01  0.23728544829E-01  0.00000000000E+00 0.  1.
     999901    1    3    3    0    0  0.13105129775E+00 -0.45207081798E-01  0.57515437665E-03  0.89085265543E+00  0.88000000000E+00 0. -1.
        -11    1    4    4    0    0 -0.65376757309E-01  0.23092408622E-01  0.10698497449E-01  0.70157670293E-01  0.51100000000E-03 0.  1.
         11    1    4    4    0    0 -0.48486835720E-01  0.33946352792E-01  0.24047220893E-04  0.59191129448E-01  0.51100000000E-03 0. -1.
</event>
<event>
 8    1  0.1065239E+005  0.1043930E+01  0.7957747E-01            NaN
         13   -1    0    0    0    0  0.00000000000E+00  0.00000000000E+00  0.74505805969E-08  0.10566000000E+00  0.10566000000E+00 0.  1.
     999900   -1    0    0    0    0 -0.00000000000E+00 -0.00000000000E+00 -0.74505805969E-08  0.93827000000E+00  0.93827000000E+00 0. -1.
     999902    2    1    2    0    0  0.69720803658E-02  0.19344493351E-01  0.14864273281E-01  0.10185574568E+01  0.10182413893E+01 0.  0.
     999903    2    3    3    0    0  0.63374817232E-01 -0.99248650757E-01  0.47034824966E-01  0.12823136658E+00  0.19087862080E-01 0.  0.
         14    1    1    2    0    0 -0.69720803658E-02 -0.19344493351E-01 -0.14864273281E-01  0.25372543188E-01  0.00000000000E+00 0. -1.
     999901    1    3    3    0    0 -0.56402736866E-01  0.11859314411E+00 -0.32170551685E-01  0.89032609023E+00  0.88000000000E+00 0. -1.
        -11    1    4    4    0    0  0.44054079045E-01 -0.54739098933E-01  0.22005543817E-01  0.73631758856E-01  0.51100000000E-03 0.  1.
         11    1    4    4    0    0  0.19320738187E-01 -0.44509551824E-01  0.25029281149E-01  0.54599607723E-01  0.51100000000E-03 0. -1.
</event>
<event>
 8    1  0.1065239E+005  0.1043930E+01  0.7957747E-01            NaN
         13   -1    0    0    0    0  0.00000000000E+00  0.00000000000E+00  0.74505805969E-08  0.10566000000E+00  0.10566000000E+00 0.  1.
     999900   -1    0    0    0    0 -0.00000000000E+00 -0.00000000000E+00 -0.74505805969E-08  0.93827000000E+00  0.93827000000E+00 0.  1.
     999902    2    1    2    0    0  0.16741028155E-01 -0.79619121554E-02 -0.15526952576E-01  0.10197485955E+01  0.10194618471E+01 0.  0.
     999903    2    3    3    0    0  0.62331253742E-01 -0.23277712090E-01 -0.11345826013E+00  0.13301098862E+00  0.19801748143E-01 0.  0.
         14    1    1    2    0    0 -0.16741028155E-01  0.79619121554E-02  0.15526952576E-01  0.24181404532E-01  0.00000000000E+00 0.  1.
     999901    1    3    3    0    0 -0.45590225587E-01  0.15315799934E-01  0.97931307552E-01  0.88673760685E+00  0.88000000000E+00 0. -1.
        -11    1    4    4    0    0  0.37448886667E-01 -0.23029179231E-01 -0.64049805853E-01  0.77687843061E-01  0.51100000000E-03 0.  1.
         11    1    4    4    0    0  0.24882367074E-01 -0.24853285906E-03 -0.49408454275E-01  0.55323145560E-01  0.51100000000E-03 0. -1.
</event>
<event>
 8    1  0.1065239E+005  0.1043930E+01  0.7957747E-01            NaN
         13   -1    0    0    0    0  0.00000000000E+00  0.00000000000E+00  0.74505805969E-08  0.10566000000E+00  0.10566000000E+00 0. -1.
     999900   -1    0    0    0    0 -0.00000000000E+00 -0.00000000000E+00 -0.74505805969E-08  0.93827000000E+00  0.93827000000E+00 0.  1.
     999902    2    1    2    0    0  0.30568532439E-02 -0.66625843115E-02 -0.20334924736E-01  0.10223141830E+01  0.10220856350E+01 0.  0.
     999903    2    3    3    0    0  0.96626707832E-01 -0.42170264180E-01 -0.81202366843E-01  0.13455241396E+00  0.19886575249E-01 0.  0.
         14    1    1    2    0    0 -0.30568532439E-02  0.66625843115E-02  0.20334924736E-01  0.21615817021E-01  0.00000000000E+00 0. -1.
     999901    1    3    3    0    0 -0.93569854588E-01  0.35507679868E-01  0.60867442107E-01  0.88776176902E+00  0.88000000000E+00 0.  1.
        -11    1    4    4    0    0  0.22191606503E-01 -0.13482981025E-01 -0.30366684223E-01  0.39958163224E-01  0.51100000000E-03 0. -1.
         11    1    4    4    0    0  0.74435101329E-01 -0.28687283154E-01 -0.50835682620E-01  0.94594250740E-01  0.51100000000E-03 0.  1.
</event>
<event>
 8    1  0.1065239E+005  0.1043930E+01  0.7957747E-01            NaN
         13   -1    0    0    0    0  0.00000000000E+00  0.00000000000E+00  0.74505805969E-08  0.10566000000E+00  0.10566000000E+00 0. -1.
     999900   -1    0    0    0    0 -0.00000000000E+00 -0.00000000000E+00 -0.74505805969E-08  0.93827000000E+00  0.93827000000E+00 0. -1.
     999902    2    1    2    0    0 -0.20054930692E-01 -0.12926009515E-01 -0.15318270902E-02  0.10200212472E+01  0.10197410045E+01 0.  0.
     999903    2    3    3    0    0 -0.50313909169E-01 -0.83066799016E-01 -0.88113184979E-01  0.13247875938E+00  0.18844250153E-01 0.  0.
         14    1    1    2    0    0  0.20054930692E-01  0.12926009515E-01  0.15318270902E-02  0.23908752817E-01  0.00000000000E+00 0. -1.
     999901    1    3    3    0    0  0.30258978477E-01  0.70140789501E-01  0.86581357889E-01  0.88754248781E+00  0.88000000000E+00 0.  1.
        -11    1    4    4    0    0 -0.48905943604E-02 -0.43171200358E-02 -0.12987202851E-01  0.14542489384E-01  0.51100000000E-03 0. -1.
         11    1    4    4    0    0 -0.45423314808E-01 -0.78749678980E-01 -0.75125982128E-01  0.11793626999E+00  0.51100000000E-03 0.  1.
</event>
<event>
 8    1  0.1065239E+005  0.1043930E+01  0.7957747E-01            NaN
         13   -1    0    0    0    0  0.00000000000E+00  0.00000000000E+00  0.74505805969E-08  0.10566000000E+00  0.10566000000E+00 0. -1.
     999900   -1    0    0    0    0 -0.00000000000E+00 -0.00000000000E+00 -0.74505805969E-08  0.93827000000E+00  0.93827000000E+00 0.  1.
     999902    2    1    2    0    0  0.12546349366E-02  0.21235079565E-01  0.10250319726E-01  0.10203170424E+01  0.10200437712E+01 0.  0.
     999903    2    3    3    0    0  0.45879196337E-02  0.10331476721E+00  0.80217777850E-01  0.13372602556E+00  0.27436616037E-01 0.  0.
         14    1    1    2    0    0 -0.12546349366E-02 -0.21235079565E-01 -0.10250319726E-01  0.23612957617E-01  0.00000000000E+00 0.  1.
     999901    1    3    3    0    0 -0.33332846971E-02 -0.82079687644E-01 -0.69967458124E-01  0.88659101682E+00  0.88000000000E+00 0.  1.
        -11    1    4    4    0    0 -0.91541260467E-04  0.33338180351E-01  0.42735876739E-01  0.54203864535E-01  0.51100000000E-03 0.  1.
         11    1    4    4    0    0  0.46794608942E-02  0.69976586858E-01  0.37481901111E-01  0.79522161027E-01  0.51100000000E-03 0. -1.
</event>
<event>
 8    1  0.1065239E+005  0.1043930E+01  0.7957747E-01            NaN
         13   -1    0    0    0    0  0.00000000000E+00  0.00000000000E+00  0.74505805969E-08  0.10566000000E+00  0.10566000000E+00 0. -1.
     999900   -1    0    0    0    0 -0.00000000000E+00 -0.00000000000E+00 -0.74505805969E-08  0.93827000000E+00  0.93827000000E+00 0.  1.
     999902    2    1    2    0    0  0.12094422846E-01  0.17707320423E-01 -0.10754186394E-01  0.10199409028E+01  0.10196587509E+01 0.  0.
     999903    2    3    3    0    0 -0.65433970006E-01 -0.51326005605E-01  0.94737939974E-01  0.12758175954E+00  0.19643442004E-01 0.  0.
         14    1    1    2    0    0 -0.12094422846E-01 -0.17707320423E-01  0.10754186394E-01  0.23989097222E-01  0.00000000000E+00 0. -1.
     999901    1    3    3    0    0  0.77528392852E-01  0.69033326027E-01 -0.10549212637E+00  0.89235914324E+00  0.88000000000E+00 0.  1.
        -11    1    4    4    0    0 -0.52214247259E-01 -0.29949344090E-01  0.69799805839E-01  0.92171388426E-01  0.51100000000E-03 0. -1.
         11    1    4    4    0    0 -0.13219722747E-01 -0.21376661514E-01  0.24938134135E-01  0.35410371110E-01  0.51100000000E-03 0.  1.
</event>
<event>
 8    1  0.1065239E+005  0.1043930E+01  0.7957747E-01            NaN
         13   -1    0    0    0    0  0.00000000000E+00  0.00000000000E+00  0.74505805969E-08  0.10566000000E+00  0.10566000000E+00 0.  1.
     999900   -1    0    0    0    0 -0.00000000000E+00 -0.00000000000E+00 -0.74505805969E-08  0.93827000000E+00  0.93827000000E+00 0.  1.
     999902    2    1    2    0    0 -0.18925294083E-01  0.13652357088E-01  0.15302837330E-01  0.10160242579E+01  0.10156409613E+01 0.  0.
     999903    2    3    3    0    0  0.34417240866E-02  0.82440134824E-01  0.97323179484E-01  0.12925519081E+00  0.20661117894E-01 0.  0.
         14    1    1    2    0    0  0.18925294083E-01 -0.13652357088E-01 -0.15302837330E-01  0.27905742071E-01  0.00000000000E+00 0. -1.
     999901    1    3    3    0    0 -0.22367018170E-01 -0.68787777735E-01 -0.82020342154E-01  0.88676906712E+00  0.88000000000E+00 0.  1.
        -11    1    4    4    0    0 -0.55165577382E-02  0.47933627060E-01  0.45285159109E-01  0.66174555299E-01  0.51100000000E-03 0.  1.
         11    1    4    4    0    0  0.89582818248E-02  0.34506507763E-01  0.52038020375E-01  0.63080635514E-01  0.51100000000E-03 0. -1.
</event>
<event>
 7    1  0.1065239E+005  0.1043930E+01  0.7957747E-01            NaN
         13   -1    0    0    0    0  0.00000000000E+00  0.00000000000E+00  0.74505805969E-08  0.10566000000E+00  0.10566000000E+00 0.  1.
     999900   -1    0    0    0    0 -0.00000000000E+00 -0.00000000000E+00 -0.74505805969E-08  0.93827000000E+00  0.93827000000E+00 0. -1.
     999903    2    1    2    0    0 -0.53911266646E-01 -0.52474924654E-01  0.24768027795E-01  0.81787836209E-01  0.20390011331E-01 0.  0.
         14    1    1    2    0    0  0.17315995764E-01  0.62740286559E-01  0.44122337082E-01  0.78631850394E-01  0.00000000000E+00 0. -1.
     999901    1    1    2    0    0  0.36595270882E-01 -0.10265361905E-01 -0.68890364877E-01  0.88351031340E+00  0.88000000000E+00 0. -1.
        -11    1    3    3    0    0 -0.23752179022E-01 -0.17324597427E-01  0.19244533653E-01  0.35141441075E-01  0.51100000000E-03 0.  1.
         11    1    3    3    0    0 -0.30159087625E-01 -0.35150327226E-01  0.55234941418E-02  0.46646395134E-01  0.51100000000E-03 0. -1.
</event>
<event>
 8    1  0.1065239E+005  0.1043930E+01  0.7957747E-01            NaN
         13   -1    0    0    0    0  0.00000000000E+00  0.00000000000E+00  0.74505805969E-08  0.10566000000E+00  0.10566000000E+00 0.  1.
     999900   -1    0    0    0    0 -0.00000000000E+00 -0.00000000000E+00 -0.74505805969E-08  0.93827000000E+00  0.93827000000E+00 0.  1.
     999902    2    1    2    0    0 -0.13697088659E-01 -0.14286295233E-01 -0.12799955932E-01  0.10203599482E+01  0.10200876808E+01 0.  0.
     999903    2    3    3    0    0  0.15442662119E-01 -0.11621013682E+00 -0.59042200188E-01  0.13279251995E+00  0.20114677207E-01 0.  0.
         14    1    1    2    0    0  0.13697088659E-01  0.14286295233E-01  0.12799955932E-01  0.23570051784E-01  0.00000000000E+00 0.  1.
     999901    1    3    3    0    0 -0.29139750778E-01  0.10192384159E+00  0.46242244257E-01  0.88756742826E+00  0.88000000000E+00 0.  1.
        -11    1    4    4    0    0  0.14326722104E-01 -0.45599523068E-01 -0.29989598773E-01  0.56428792525E-01  0.51100000000E-03 0. -1.
         11    1    4    4    0    0  0.11159400150E-02 -0.70610613753E-01 -0.29052601415E-01  0.76363727428E-01  0.51100000000E-03 0.  1.
</event>
<event>
 8    1  0.1065239E+005  0.1043930E+01  0.7957747E-01            NaN
         13   -1    0    0    0    0  0.00000000000E+00  0.00000000000E+00  0.74505805969E-08  0.10566000000E+00  0.10566000000E+00 0.  1.
     999900   -1    0    0    0    0 -0.00000000000E+00 -0.00000000000E+00 -0.74505805969E-08  0.93827000000E+00  0.93827000000E+00 0.  1.
     999902    2    1    2    0    0  0.82107936315E-02 -0.40660820242E-02 -0.21072984553E-01  0.10209512961E+01  0.10206926708E+01 0.  0.
     999903    2    3    3    0    0 -0.29559104366E-01 -0.22731425318E-01  0.12119618955E+00  0.12853016337E+00  0.21000671135E-01 0.  0.
         14    1    1    2    0    0 -0.82107936315E-02  0.40660820242E-02  0.21072984553E-01  0.22978703903E-01  0.00000000000E+00 0.  1.
     999901    1    3    3    0    0  0.37769897998E-01  0.18665343294E-01 -0.14226917410E+00  0.89242113272E+00  0.88000000000E+00 0.  1.
        -11    1    4    4    0    0  0.15361939251E-02 -0.80630883436E-02  0.28461590953E-01  0.29625944137E-01  0.51100000000E-03 0.  1.
         11    1    4    4    0    0 -0.31095298291E-01 -0.14668336974E-01  0.92734598593E-01  0.98904219235E-01  0.51100000000E-03 0. -1.
</event>
<event>
 8    1  0.1065239E+005  0.1043930E+01  0.7957747E-01            NaN
         13   -1    0    0    0    0  0.00000000000E+00  0.00000000000E+00  0.74505805969E-08  0.10566000000E+00  0.10566000000E+00 0. -1.
     999900   -1    0    0    0    0 -0.00000000000E+00 -0.00000000000E+00 -0.74505805969E-08  0.93827000000E+00  0.93827000000E+00 0.  1.
     999902    2    1    2    0    0  0.35380096699E-02  0.93880842532E-02 -0.21648476886E-01  0.10200697781E+01  0.10197906854E+01 0.  0.
     999903    2    3    3    0    0 -0.11338090551E+00  0.36704792943E-01 -0.51415671249E-01  0.13141780956E+00  0.20605772534E-01 0.  0.
         14    1    1    2    0    0 -0.35380096699E-02 -0.93880842532E-02  0.21648476886E-01  0.23860221916E-01  0.00000000000E+00 0. -1.
     999901    1    3    3    0    0  0.11691891518E+00 -0.27316708690E-01  0.29767194362E-01  0.88865196852E+00  0.88000000000E+00 0. -1.
        -11    1    4    4    0    0 -0.65928993596E-01  0.17987859861E-01 -0.39850545744E-01  0.79110823634E-01  0.51100000000E-03 0.  1.
         11    1    4    4    0    0 -0.47451911910E-01  0.18716933081E-01 -0.11565125505E-01  0.52306985927E-01  0.51100000000E-03 0. -1.
</event>
<event>
 8    1  0.1065239E+005  0.1043930E+01  0.7957747E-01            NaN
         13   -1    0    0    0    0  0.00000000000E+00  0.00000000000E+00  0.74505805969E-08  0.10566000000E+00  0.10566000000E+00 0.  1.
     999900   -1    0    0    0    0 -0.00000000000E+00 -0.00000000000E+00 -0.74505805969E-08  0.93827000000E+00  0.93827000000E+00 0. -1.
     999902    2    1    2    0    0 -0.69657822641E-02 -0.18511295534E-01  0.13098370865E-01  0.10202074895E+01  0.10199316468E+01 0.  0.
     999903    2    3    3    0    0 -0.21287237819E-01  0.12468125175E+00 -0.77304757997E-02  0.12827528886E+00  0.19905487833E-01 0.  0.
         14    1    1    2    0    0  0.69657822641E-02  0.18511295534E-01 -0.13098370865E-01  0.23722510496E-01  0.00000000000E+00 0. -1.
     999901    1    3    3    0    0  0.14321455555E-01 -0.14319254728E+00  0.20828846665E-01  0.89193220064E+00  0.88000000000E+00 0. -1.
        -11    1    4    4    0    0 -0.89411334105E-02  0.89187356232E-01  0.12066901257E-02  0.89643993666E-01  0.51100000000E-03 0.  1.
         11    1    4    4    0    0 -0.12346104408E-01  0.35493895514E-01 -0.89371659253E-02  0.38631295197E-01  0.51100000000E-03 0. -1.
</event>
<event>
 8    1  0.1065239E+005  0.1043930E+01  0.7957747E-01            NaN
         13   -1    0    0    0    0  0.00000000000E+00  0.00000000000E+00  0.74505805969E-08  0.10566000000E+00  0.10566000000E+00 0. -1.
     999900   -1    0    0    0    0 -0.00000000000E+00 -0.00000000000E+00 -0.74505805969E-08  0.93827000000E+00  0.93827000000E+00 0. -1.
     999902    2    1    2    0    0 -0.24073238710E-01  0.52837566060E-02 -0.74368506045E-02  0.10181861531E+01  0.10178606470E+01 0.  0.
     999903    2    3    3    0    0 -0.81217268108E-01 -0.30751319100E-01 -0.96334305721E-01  0.13113106784E+00  0.19317614459E-01 0.  0.
         14    1    1    2    0    0  0.24073238710E-01 -0.52837566060E-02  0.74368506045E-02  0.25743846892E-01  0.00000000000E+00 0.  1.
     999901    1    3    3    0    0  0.57144029398E-01  0.36035075706E-01  0.88897455116E-01  0.88705508527E+00  0.88000000000E+00 0.  1.
        -11    1    4    4    0    0 -0.71471157828E-02 -0.39954854183E-02 -0.23961338781E-02  0.85467974296E-02  0.51100000000E-03 0. -1.
         11    1    4    4    0    0 -0.74070152326E-01 -0.26755833681E-01 -0.93938171843E-01  0.12258427041E+00  0.51100000000E-03 0.  1.
</event>
<event>
 8    1  0.1065239E+005  0.1043930E+01  0.7957747E-01            NaN
         13   -1    0    0    0    0  0.00000000000E+00  0.00000000000E+00  0.74505805969E-08  0.10566000000E+00  0.10566000000E+00 0. -1.
     999900   -1    0    0    0    0 -0.00000000000E+00 -0.00000000000E+00 -0.74505805969E-08  0.93827000000E+00  0.93827000000E+00 0.  1.
     999902    2    1    2    0    0  0.15137374287E-01 -0.98464903241E-02 -0.14565470377E-01  0.10207298621E+01  0.10204661704E+01 0.  0.
     999903    2    3    3    0    0  0.31605659893E-01 -0.20085581100E-01  0.12266051858E+00  0.12988362650E+00  0.20537899305E-01 0.  0.
         14    1    1    2    0    0 -0.15137374287E-01  0.98464903241E-02  0.14565470377E-01  0.23200137916E-01  0.00000000000E+00 0.  1.
     999901    1    3    3    0    0 -0.16468285605E-01  0.10239090775E-01 -0.13722598896E+00  0.89084623559E+00  0.88000000000E+00 0.  1.
        -11    1    4    4    0    0  0.12292184715E-01 -0.19833138778E-01  0.70193188429E-01  0.73971589287E-01  0.51100000000E-03 0. -1.
         11    1    4    4    0    0  0.19313475177E-01 -0.25244232159E-03  0.52467330154E-01  0.55912037211E-01  0.51100000000E-03 0.  1.
</event>
<event>
 8    1  0.1065239E+005  0.1043930E+01  0.7957747E-01            NaN
         13   -1    0    0    0    0  0.00000000000E+00  0.00000000000E+00  0.74505805969E-08  0.10566000000E+00  0.10566000000E+00 0. -1.
     999900   -1    0    0    0    0 -0.00000000000E+00 -0.00000000000E+00 -0.74505805969E-08  0.93827000000E+00  0.93827000000E+00 0. -1.
     999902    2    1    2    0    0  0.54216415278E-02 -0.11642933334E-01 -0.19748651298E-01  0.10203723829E+01  0.10201004061E+01 0.  0.
     999903    2    3    3    0    0  0.12323304815E-01  0.10789542586E+00  0.65124092910E-01  0.12821744405E+00  0.20131535401E-01 0.  0.
         14    1    1    2    0    0 -0.54216415278E-02  0.11642933334E-01  0.19748651298E-01  0.23557617060E-01  0.00000000000E+00 0. -1.
     999901    1    3    3    0    0 -0.69016632873E-02 -0.11953835920E+00 -0.84872744207E-01  0.89215493889E+00  0.88000000000E+00 0.  1.
        -11    1    4    4    0    0 -0.54389643472E-02  0.34551521343E-01  0.20820793250E-01  0.40708187295E-01  0.51100000000E-03 0. -1.
         11    1    4    4    0    0  0.17762269162E-01  0.73343904521E-01  0.44303299660E-01  0.87509256756E-01  0.51100000000E-03 0.  1.
</event>
<event>
 8    1  0.1065239E+005  0.1043930E+01  0.7957747E-01            NaN
         13   -1    0    0    0    0  0.00000000000E+00  0.00000000000E+00  0.74505805969E-08  0.10566000000E+00  0.10566000000E+00 0. -1.
     999900   -1    0    0    0    0 -0.00000000000E+00 -0.00000000000E+00 -0.74505805969E-08  0.93827000000E+00  0.93827000000E+00 0. -1.
     999902    2    1    2    0    0 -0.22099420592E-01  0.43327787955E-02  0.83759142497E-02  0.10199026551E+01  0.10196195921E+01 0.  0.
     999903    2    3    3    0    0 -0.11867166124E+00  0.25394772503E-01 -0.49232497481E-01  0.13249714784E+00  0.20094718840E-01 0.  0.
         14    1    1    2    0    0  0.22099420592E-01 -0.43327787955E-02 -0.83759142497E-02  0.24027344883E-01  0.00000000000E+00 0.  1.
     999901    1    3    3    0    0  0.96572240650E-01 -0.21061993707E-01  0.57608411731E-01  0.88740550728E+00  0.88000000000E+00 0.  1.
        -11    1    4    4    0    0 -0.90021027906E-01  0.27898729082E-01 -0.37729626616E-01  0.10151802990E+00  0.51100000000E-03 0. -1.
         11    1    4    4    0    0 -0.28650633335E-01 -0.25039565791E-02 -0.11502870865E-01  0.30979117938E-01  0.51100000000E-03 0.  1.
</event>
<event>
 8    1  0.1065239E+005  0.1043930E+01  0.7957747E-01            NaN
         13   -1    0    0    0    0  0.00000000000E+00  0.00000000000E+00  0.74505805969E-08  0.10566000000E+00  0.10566000000E+00 0. -1.
     999900   -1    0    0    0    0 -0.00000000000E+00 -0.00000000000E+00 -0.74505805969E-08  0.93827000000E+00  0.93827000000E+00 0. -1.
     999902    2    1    2    0    0 -0.46147213416E-02  0.19558552726E-01  0.12705870752E-01  0.10201545549E+01  0.10198774652E+01 0.  0.
     999903    2    3    3    0    0 -0.93766543964E-01 -0.58270981427E-01  0.67279586248E-01  0.13055701990E+00  0.18191225268E-01 0.  0.
         14    1    1    2    0    0  0.46147213416E-02 -0.19558552726E-01 -0.12705870752E-01  0.23775445093E-01  0.00000000000E+00 0.  1.
     999901    1    3    3    0    0  0.89151822622E-01  0.77829534153E-01 -0.54573715496E-01  0.88959753500E+00  0.88000000000E+00 0. -1.
        -11    1    4    4    0    0 -0.49869382527E-01 -0.24179714782E-01  0.25424626303E-01  0.60977755487E-01  0.51100000000E-03 0.  1.
         11    1    4    4    0    0 -0.43897161437E-01 -0.34091266645E-01  0.41854959944E-01  0.69579264416E-01  0.51100000000E-03 0. -1.
</event>
<event>
 8    1  0.1065239E+005  0.1043930E+01  0.7957747E-01            NaN
         13   -1    0    0    0    0  0.00000000000E+00  0.00000000000E+00  0.74505805969E-08  0.10566000000E+00  0.10566000000E+00 0. -1.
     999900   -1    0    0    0    0 -0.00000000000E+00 -0.00000000000E+00 -0.74505805969E-08  0.93827000000E+00  0.93827000000E+00 0. -1.
     999902    2    1    2    0    0  0.22472597105E-01  0.39416541492E-02 -0.74909916596E-02  0.10199160621E+01  0.10196333186E+01 0.  0.
     999903    2    3    3    0    0  0.59124884699E-01 -0.49638684022E-01 -0.10537075108E+00  0.13211276736E+00  0.19774659877E-01 0.  0.
         14    1    1    2    0    0 -0.22472597105E-01 -0.39416541492E-02  0.74909916596E-02  0.24013937913E-01  0.00000000000E+00 0. -1.
     999901    1    3    3    0    0 -0.36652287595E-01  0.53580338171E-01  0.97879759424E-01  0.88780329473E+00  0.88000000000E+00 0.  1.
        -11    1    4    4    0    0  0.24878933488E-01 -0.33759118175E-01 -0.55724490007E-01  0.69743238375E-01  0.51100000000E-03 0. -1.
         11    1    4    4    0    0  0.34245951212E-01 -0.15879565847E-01 -0.49646261076E-01  0.62369528984E-01  0.51100000000E-03 0.  1.
</event>
<event>
 8    1  0.1065239E+005  0.1043930E+01  0.7957747E-01            NaN
         13   -1    0    0    0    0  0.00000000000E+00  0.00000000000E+00  0.74505805969E-08  0.10566000000E+00  0.10566000000E+00 0. -1.
     999900   -1    0    0    0    0 -0.00000000000E+00 -0.00000000000E+00 -0.74505805969E-08  0.93827000000E+00  0.93827000000E+00 0.  1.
     999902    2    1    2    0    0  0.12360767825E-01 -0.20081400453E-01 -0.34975042625E-02  0.10200912970E+01  0.10198127134E+01 0.  0.
     999903    2    3    3    0    0  0.38906434464E-01 -0.67232279045E-01  0.10478175072E+00  0.13180515231E+00  0.18960298042E-01 0.  0.
         14    1    1    2    0    0 -0.12360767825E-01  0.20081400453E-01  0.34975042625E-02  0.23838703015E-01  0.00000000000E+00 0. -1.
     999901    1    3    3    0    0 -0.26545666640E-01  0.47150878592E-01 -0.10827925498E+00  0.88828614468E+00  0.88000000000E+00 0.  1.
        -11    1    4    4    0    0  0.42058187367E-02 -0.31004013252E-02  0.16596849176E-02  0.55060943190E-02  0.51100000000E-03 0. -1.
         11    1    4    4    0    0  0.34700615728E-01 -0.64131877719E-01  0.10312206580E+00  0.12629905799E+00  0.51100000000E-03 0.  1.
</event>
<event>
 8    1  0.1065239E+005  0.1043930E+01  0.7957747E-01            NaN
         13   -1    0    0    0    0  0.00000000000E+00  0.00000000000E+00  0.74505805969E-08  0.10566000000E+00  0.10566000000E+00 0. -1.
     999900   -1    0    0    0    0 -0.00000000000E+00 -0.00000000000E+00 -0.74505805969E-08  0.93827000000E+00  0.93827000000E+00 0.  1.
     999902    2    1    2    0    0 -0.11765824652E-01  0.10064114805E-01 -0.17350550886E-01  0.10206756960E+01  0.10204107574E+01 0.  0.
     999903    2    3    3    0    0 -0.71167836226E-01  0.10992880358E+00 -0.13415667385E-01  0.13302878518E+00  0.19169631861E-01 0.  0.
         14    1    1    2    0    0  0.11765824652E-01 -0.10064114805E-01  0.17350550886E-01  0.23254303959E-01  0.00000000000E+00 0. -1.
     999901    1    3    3    0    0  0.59402011574E-01 -0.99864688780E-01 -0.39348835017E-02  0.88764691086E+00  0.88000000000E+00 0. -1.
        -11    1    4    4    0    0 -0.54858583824E-01  0.86433625716E-01 -0.18335375459E-01  0.10400328354E+00  0.51100000000E-03 0.  1.
         11    1    4    4    0    0 -0.16309252402E-01  0.23495177868E-01  0.49197080743E-02  0.29025501641E-01  0.51100000000E-03 0. -1.
</event>
<event>
 8    1  0.1065239E+005  0.1043930E+01  0.7957747E-01            NaN
         13   -1    0    0    0    0  0.00000000000E+00  0.00000000000E+00  0.74505805969E-08  0.10566000000E+00  0.10566000000E+00 0.  1.
     999900   -1    0    0    0    0 -0.00000000000E+00 -0.00000000000E+00 -0.74505805969E-08  0.93827000000E+00  0.93827000000E+00 0. -1.
     999902    2    1    2    0    0 -0.21148222635E-01 -0.42751303346E-02 -0.21253860381E-02  0.10222495635E+01  0.10220196323E+01 0.  0.
     999903    2    3    3    0    0 -0.98936193011E-01  0.79897040092E-01  0.37079302380E-01  0.13395179239E+00  0.19907303087E-01 0.  0.
         14    1    1    2    0    0  0.21148222635E-01  0.42751303346E-02  0.21253860381E-02  0.21680436476E-01  0.00000000000E+00 0. -1.
     999901    1    3    3    0    0  0.77787970376E-01 -0.84172170426E-01 -0.39204688418E-01  0.88829777114E+00  0.88000000000E+00 0. -1.
        -11    1    4    4    0    0 -0.74701990787E-01  0.49129068468E-01  0.22919721222E-01  0.92301828465E-01  0.51100000000E-03 0.  1.
         11    1    4    4    0    0 -0.24234202224E-01  0.30767971624E-01  0.14159581157E-01  0.41649963923E-01  0.51100000000E-03 0. -1.
</event>
<event>
 8    1  0.1065239E+005  0.1043930E+01  0.7957747E-01            NaN
         13   -1    0    0    0    0  0.00000000000E+00  0.00000000000E+00  0.74505805969E-08  0.10566000000E+00  0.10566000000E+00 0.  1.
     999900   -1    0    0    0    0 -0.00000000000E+00 -0.00000000000E+00 -0.74505805969E-08  0.93827000000E+00  0.93827000000E+00 0. -1.
     999902    2    1    2    0    0 -0.22531879275E-01  0.84189713118E-02 -0.70217624284E-02  0.10188726696E+01  0.10185645031E+01 0.  0.
     999903    2    3    3    0    0 -0.10556273035E+00  0.68977439567E-01  0.33604964458E-01  0.13196118510E+00  0.19572519763E-01 0.  0.
         14    1    1    2    0    0  0.22531879275E-01 -0.84189713118E-02  0.70217624284E-02  0.25057330448E-01  0.00000000000E+00 0.  1.
     999901    1    3    3    0    0  0.83030851074E-01 -0.60558468255E-01 -0.40626726887E-01  0.88691148445E+00  0.88000000000E+00 0. -1.
        -11    1    4    4    0    0 -0.74337409300E-01  0.42866495270E-01  0.30743202260E-01  0.91153674881E-01  0.51100000000E-03 0.  1.
         11    1    4    4    0    0 -0.31225321049E-01  0.26110944298E-01  0.28617621985E-02  0.40807510223E-01  0.51100000000E-03 0. -1.
</event>
<event>
 8    1  0.1065239E+005  0.1043930E+01  0.7957747E-01            NaN
         13   -1    0    0    0    0  0.00000000000E+00  0.00000000000E+00  0.74505805969E-08  0.10566000000E+00  0.10566000000E+00 0.  1.
     999900   -1    0    0    0    0 -0.00000000000E+00 -0.00000000000E+00 -0.74505805969E-08  0.93827000000E+00  0.93827000000E+00 0. -1.
     999902    2    1    2    0    0  0.62207474799E-02  0.13739751538E-01 -0.17895799565E-01  0.10205261945E+01  0.10202577985E+01 0.  0.
     999903    2    3    3    0    0 -0.10943955285E-01  0.11852286434E+00  0.52614223219E-01  0.13134354109E+00  0.17760342681E-01 0.  0.
         14    1    1    2    0    0 -0.62207474799E-02 -0.13739751538E-01  0.17895799565E-01  0.23403805537E-01  0.00000000000E+00 0.  1.
     999901    1    3    3    0    0  0.17164702765E-01 -0.10478311280E+00 -0.70510022784E-01  0.88918265337E+00  0.88000000000E+00 0.  1.
        -11    1    4    4    0    0 -0.14301368107E-01  0.62112223949E-01  0.25315097993E-01  0.68582598383E-01  0.51100000000E-03 0. -1.
         11    1    4    4    0    0  0.33574128215E-02  0.56410640391E-01  0.27299125225E-01  0.62760942705E-01  0.51100000000E-03 0.  1.
</event>
<event>
 8    1  0.1065239E+005  0.1043930E+01  0.7957747E-01            NaN
         13   -1    0    0    0    0  0.00000000000E+00  0.00000000000E+00  0.74505805969E-08  0.10566000000E+00  0.10566000000E+00 0.  1.
     999900   -1    0    0    0    0 -0.00000000000E+00 -0.00000000000E+00 -0.74505805969E-08  0.93827000000E+00  0.93827000000E+00 0.  1.
     999902    2    1    2    0    0  0.21101156121E-01 -0.89499052440E-02  0.79866964523E-02  0.10196576513E+01  0.10193687158E+01 0.  0.
     999903    2    3    3    0    0 -0.17400819127E-01 -0.11132292888E+00 -0.61321099804E-01  0.13018240781E+00  0.22172032433E-01 0.  0.
         14    1    1    2    0    0 -0.21101156121E-01  0.89499052440E-02 -0.79866964523E-02  0.24272348748E-01  0.00000000000E+00 0. -1.
     999901    1    3    3    0    0  0.38501975247E-01  0.10237302364E+00  0.69307796256E-01  0.88947524344E+00  0.88000000000E+00 0.  1.
        -11    1    4    4    0    0 -0.46886569512E-02 -0.84504629362E-01 -0.50680442527E-01  0.98649806201E-01  0.51100000000E-03 0. -1.
         11    1    4    4    0    0 -0.12712162175E-01 -0.26818299519E-01 -0.10640657277E-01  0.31532601614E-01  0.51100000000E-03 0.  1.
</event>
<event>
 8    1  0.1065239E+005  0.1043930E+01  0.7957747E-01            NaN
         13   -1    0    0    0    0  0.00000000000E+00  0.00000000000E+00  0.74505805969E-08  0.10566000000E+00  0.10566000000E+00 0.  1.
     999900   -1    0    0    0    0 -0.00000000000E+00 -0.00000000000E+00 -0.74505805969E-08  0.93827000000E+00  0.93827000000E+00 0. -1.
     999902    2    1    2    0    0 -0.66016041082E-02 -0.23782076552E-01  0.45226443049E-02  0.10188377173E+01  0.10185286797E+01 0.  0.
     999903    2    3    3    0    0  0.24891864422E-01  0.52987605753E-01 -0.11142980812E+00  0.12736119266E+00  0.19415972288E-01 0.  0.
         14    1    1    2    0    0  0.66016041082E-02  0.23782076552E-01 -0.45226443049E-02  0.25092282746E-01  0.00000000000E+00 0. -1.
     999901    1    3    3    0    0 -0.31493468530E-01 -0.76769682305E-01  0.11595245242E+00  0.89147652460E+00  0.88000000000E+00 0.  1.
        -11    1    4    4    0    0  0.25432709984E-01  0.49836948396E-01 -0.92118701431E-01  0.10778061253E+00  0.51100000000E-03 0. -1.
         11    1    4    4    0    0 -0.54084556201E-03  0.31506573577E-02 -0.19311106689E-01  0.19580580130E-01  0.51100000000E-03 0.  1.
</event>
<event>
 8    1  0.1065239E+005  0.1043930E+01  0.7957747E-01            NaN
         13   -1    0    0    0    0  0.00000000000E+00  0.00000000000E+00  0.74505805969E-08  0.10566000000E+00  0.10566000000E+00 0.  1.
     999900   -1    0    0    0    0 -0.00000000000E+00 -0.00000000000E+00 -0.74505805969E-08  0.93827000000E+00  0.93827000000E+00 0. -1.
     999902    2    1    2    0    0  0.22045448080E-01  0.20844109292E-02 -0.67178032362E-02  0.10207896579E+01  0.10205273393E+01 0.  0.
     999903    2    3    3    0    0 -0.52911333025E-01  0.12798031843E-01  0.11542826677E+00  0.12913223319E+00  0.19698987242E-01 0.  0.
         14    1    1    2    0    0 -0.22045448080E-01 -0.20844109292E-02  0.67178032362E-02  0.23140342052E-01  0.00000000000E+00 0.  1.
     999901    1    3    3    0    0  0.74956781105E-01 -0.10713620914E-01 -0.12214607000E+00  0.89165742476E+00  0.88000000000E+00 0. -1.
        -11    1    4    4    0    0 -0.35162111298E-01  0.11756242636E-01  0.56518704132E-01  0.67595919623E-01  0.51100000000E-03 0.  1.
         11    1    4    4    0    0 -0.17749221727E-01  0.10417892066E-02  0.58909562636E-01  0.61536313569E-01  0.51100000000E-03 0. -1.
</event>
<event>
 8    1  0.1065239E+005  0.1043930E+01  0.7957747E-01            NaN
         13   -1    0    0    0    0  0.00000000000E+00  0.00000000000E+00  0.74505805969E-08  0.10566000000E+00  0.10566000000E+00 0. -1.
     999900   -1    0    0    0    0 -0.00000000000E+00 -0.00000000000E+00 -0.74505805969E-08  0.93827000000E+00  0.93827000000E+00 0. -1.
     999902    2    1    2    0    0 -0.16158557527E-01 -0.93309266861E-02 -0.18297611992E-01  0.10177963478E+01  0.10174607795E+01 0.  0.
     999903    2    3    3    0    0 -0.12315855131E+00 -0.13686986029E-01 -0.38011723093E-01  0.13108522226E+00  0.19572482130E-01 0.  0.
         14    1    1    2    0    0  0.16158557527E-01  0.93309266861E-02  0.18297611992E-01  0.26133652229E-01  0.00000000000E+00 0. -1.
     999901    1    3    3    0    0  0.10699999378E+00  0.43560593429E-02  0.19714111100E-01  0.88671112551E+00  0.88000000000E+00 0.  1.
        -11    1    4    4    0    0 -0.70984921488E-01 -0.52635642651E-02 -0.31478086097E-01  0.77831196912E-01  0.51100000000E-03 0. -1.
         11    1    4    4    0    0 -0.52173629820E-01 -0.84234217639E-02 -0.65336369955E-02  0.53254025352E-01  0.51100000000E-03 0.  1.
</event>
<event>
 7    1  0.1065239E+005  0.1043930E+01  0.7957747E-01            NaN
         13   -1    0    0    0    0  0.00000000000E+00  0.00000000000E+00  0.74505805969E-08  0.10566000000E+00  0.10566000000E+00 0.  1.
     999900   -1    0    0    0    0 -0.00000000000E+00 -0.00000000000E+00 -0.74505805969E-08  0.93827000000E+00  0.93827000000E+00 0.  1.
     999903    2    1    2    0    0  0.34329562091E-01 -0.93236975221E-01  0.22276206266E-01  0.10376795805E+00  0.19997684134E-01 0.  0.
         14    1    1    2    0    0 -0.51635985716E-02  0.44397961371E-02 -0.54210500666E-01  0.54636552988E-01  0.00000000000E+00 0. -1.
     999901    1    1    2    0    0 -0.29165963520E-01  0.88797179084E-01  0.31934294400E-01  0.88552548896E+00  0.88000000000E+00 0. -1.
        -11    1    3    3    0    0  0.32483875752E-01 -0.61497154828E-01  0.15297213480E-01  0.71213538720E-01  0.51100000000E-03 0. -1.
         11    1    3    3    0    0  0.18456863392E-02 -0.31739820393E-01  0.69789927856E-02  0.32554419331E-01  0.51100000000E-03 0.  1.
</event>
<event>
 8    1  0.1065239E+005  0.1043930E+01  0.7957747E-01            NaN
         13   -1    0    0    0    0  0.00000000000E+00  0.00000000000E+00  0.74505805969E-08  0.10566000000E+00  0.10566000000E+00 0.  1.
     999900   -1    0    0    0    0 -0.00000000000E+00 -0.00000000000E+00 -0.74505805969E-08  0.93827000000E+00  0.93827000000E+00 0.  1.
     999902    2    1    2    0    0  0.72850215293E-02 -0.22240782481E-01 -0.57990766549E-02  0.10198187322E+01  0.10195336646E+01 0.  0.
     999903    2    3    3    0    0  0.29030595254E-02 -0.81911416376E-01 -0.10222450993E+00  0.13253205345E+00  0.19924529450E-01 0.  0.
         14    1    1    2    0    0 -0.72850215293E-02  0.22240782481E-01  0.57990766549E-02  0.24111267783E-01  0.00000000000E+00 0. -1.
     999901    1    3    3    0    0  0.43819620039E-02  0.59670633895E-01  0.96425433273E-01  0.88728667877E+00  0.88000000000E+00 0. -1.
        -11    1    4    4    0    0  0.17685913819E-02 -0.76806381851E-01 -0.10139172401E+00  0.12721199247E+00  0.51100000000E-03 0. -1.
         11    1    4    4    0    0  0.11344681435E-02 -0.51050345243E-02 -0.83278591855E-03  0.53200609817E-02  0.51100000000E-03 0.  1.
</event>
<event>
 8    1  0.1065239E+005  0.1043930E+01  0.7957747E-01            NaN
         13   -1    0    0    0    0  0.00000000000E+00  0.00000000000E+00  0.74505805969E-08  0.10566000000E+00  0.10566000000E+00 0.  1.
     999900   -1    0    0    0    0 -0.00000000000E+00 -0.00000000000E+00 -0.74505805969E-08  0.93827000000E+00  0.93827000000E+00 0. -1.
     999902    2    1    2    0    0  0.50608562403E-02  0.21718079885E-01  0.91803766190E-02  0.10198143085E+01  0.10195291351E+01 0.  0.
     999903    2    3    3    0    0  0.84424190888E-01 -0.94649533565E-01 -0.38599247866E-02  0.12851749501E+00  0.20392873587E-01 0.  0.
         14    1    1    2    0    0 -0.50608562403E-02 -0.21718079885E-01 -0.91803766190E-02  0.24115691461E-01  0.00000000000E+00 0.  1.
     999901    1    3    3    0    0 -0.79363334648E-01  0.11636761345E+00  0.13040301406E-01  0.89129681353E+00  0.88000000000E+00 0. -1.
        -11    1    4    4    0    0  0.40035184883E-01 -0.56011415878E-01  0.48669809773E-02  0.69022049826E-01  0.51100000000E-03 0. -1.
         11    1    4    4    0    0  0.44389006005E-01 -0.38638117687E-01 -0.87269057639E-02  0.59495445184E-01  0.51100000000E-03 0.  1.
</event>
<event>
 8    1  0.1065239E+005  0.1043930E+01  0.7957747E-01            NaN
         13   -1    0    0    0    0  0.00000000000E+00  0.00000000000E+00  0.74505805969E-08  0.10566000000E+00  0.10566000000E+00 0.  1.
     999900   -1    0    0    0    0 -0.00000000000E+00 -0.00000000000E+00 -0.74505805969E-08  0.93827000000E+00  0.93827000000E+00 0. -1.
     999902    2    1    2    0    0 -0.16911391643E-01  0.14982926603E-01  0.57412641699E-02  0.10206180852E+01  0.10203518170E+01 0.  0.
     999903    2    3    3    0    0  0.31205886995E-01  0.12683603080E+00  0.46858424455E-02  0.13223331309E+00  0.20062549189E-01 0.  0.
         14    1    1    2    0    0  0.16911391643E-01 -0.14982926603E-01 -0.57412641699E-02  0.23311914790E-01  0.00000000000E+00 0.  1.
     999901    1    3    3    0    0 -0.48117278639E-01 -0.11185310419E+00  0.10554217244E-02  0.88838477212E+00  0.88000000000E+00 0.  1.
        -11    1    4    4    0    0  0.20197531781E-01  0.11050375915E+00  0.20411981706E-02  0.11235412181E+00  0.51100000000E-03 0. -1.
         11    1    4    4    0    0  0.11008355215E-01  0.16332271645E-01  0.26446442749E-02  0.19879191280E-01  0.51100000000E-03 0.  1.
</event>
<event>
 8    1  0.1065239E+005  0.1043930E+01  0.7957747E-01            NaN
         13   -1    0    0    0    0  0.00000000000E+00  0.00000000000E+00  0.74505805969E-08  0.10566000000E+00  0.10566000000E+00 0.  1.
     999900   -1    0    0    0    0 -0.00000000000E+00 -0.00000000000E+00 -0.74505805969E-08  0.93827000000E+00  0.93827000000E+00 0. -1.
     999902    2    1    2    0    0 -0.18434166514E-01 -0.11064584557E-01 -0.87699107211E-02  0.10207102915E+01  0.10204461497E+01 0.  0.
     999903    2    3    3    0    0  0.32880746315E-01 -0.71422871972E-01 -0.10412609934E+00  0.13202072491E+00  0.20121061687E-01 0.  0.
         14    1    1    2    0    0  0.18434166514E-01  0.11064584557E-01  0.87699107211E-02  0.23219708451E-01  0.00000000000E+00 0. -1.
     999901    1    3    3    0    0 -0.51314912829E-01  0.60358287415E-01  0.95356188622E-01  0.88868956664E+00  0.88000000000E+00 0.  1.
        -11    1    4    4    0    0  0.20162073707E-01 -0.55333608996E-01 -0.88169089033E-01  0.10603002821E+00  0.51100000000E-03 0. -1.
         11    1    4    4    0    0  0.12718672608E-01 -0.16089262976E-01 -0.15957010310E-01  0.25990696702E-01  0.51100000000E-03 0.  1.
</event>
<event>
 8    1  0.1177106E+005  0.1043930E+01  0.7957747E-01            NaN
         13   -1    0    0    0    0  0.00000000000E+00  0.00000000000E+00  0.74505805969E-08  0.10566000000E+00  0.10566000000E+00 0. -1.
     999900   -1    0    0    0    0 -0.00000000000E+00 -0.00000000000E+00 -0.74505805969E-08  0.93827000000E+00  0.93827000000E+00 0. -1.
     999902    2    1    2    0    0  0.14005067669E-01  0.16206941531E-01  0.41601135167E-02  0.10221099767E+01  0.10218770430E+01 0.  0.
     999903    2    3    3    0    0 -0.66111179616E-01  0.54229356651E-01 -0.99325362435E-01  0.13161934736E+00  0.12108417904E-01 0.  0.
         14    1    1    2    0    0 -0.14005067669E-01 -0.16206941531E-01 -0.41601135167E-02  0.21820023343E-01  0.00000000000E+00 0.  1.
     999901    1    3    3    0    0  0.80116247284E-01 -0.38022415120E-01  0.10348547595E+00  0.89049062930E+00  0.88000000000E+00 0.  1.
        -11    1    4    4    0    0 -0.45057187783E-01  0.30192443610E-01 -0.58554706012E-01  0.79816342557E-01  0.51100000000E-03 0. -1.
         11    1    4    4    0    0 -0.21053991833E-01  0.24036913041E-01 -0.40770656423E-01  0.51803004805E-01  0.51100000000E-03 0.  1.
</event>
<event>
 8    1  0.1065239E+005  0.1043930E+01  0.7957747E-01            NaN
         13   -1    0    0    0    0  0.00000000000E+00  0.00000000000E+00  0.74505805969E-08  0.10566000000E+00  0.10566000000E+00 0.  1.
     999900   -1    0    0    0    0 -0.00000000000E+00 -0.00000000000E+00 -0.74505805969E-08  0.93827000000E+00  0.93827000000E+00 0. -1.
     999902    2    1    2    0    0 -0.23418462349E-01  0.48330137904E-02 -0.17623151717E-02  0.10199531746E+01  0.10196713148E+01 0.  0.
     999903    2    3    3    0    0  0.62444660880E-01  0.81389660329E-01 -0.75089097804E-01  0.12944196575E+00  0.24356465385E-01 0.  0.
         14    1    1    2    0    0  0.23418462349E-01 -0.48330137904E-02  0.17623151717E-02  0.23976825391E-01  0.00000000000E+00 0. -1.
     999901    1    3    3    0    0 -0.85863123228E-01 -0.76556646539E-01  0.73326782633E-01  0.89051120886E+00  0.88000000000E+00 0.  1.
        -11    1    4    4    0    0  0.62688291675E-01  0.72128061854E-01 -0.64156586952E-01  0.11510259767E+00  0.51100000000E-03 0. -1.
         11    1    4    4    0    0 -0.24363079514E-03  0.92615984757E-02 -0.10932510852E-01  0.14339368076E-01  0.51100000000E-03 0.  1.
</event>
<event>
 8    1  0.1065239E+005  0.1043930E+01  0.7957747E-01            NaN
         13   -1    0    0    0    0  0.00000000000E+00  0.00000000000E+00  0.74505805969E-08  0.10566000000E+00  0.10566000000E+00 0. -1.
     999900   -1    0    0    0    0 -0.00000000000E+00 -0.00000000000E+00 -0.74505805969E-08  0.93827000000E+00  0.93827000000E+00 0.  1.
     999902    2    1    2    0    0  0.16455462771E-01 -0.48647459036E-02 -0.16371160348E-01  0.10202136997E+01  0.10199380031E+01 0.  0.
     999903    2    3    3    0    0 -0.92965247063E-02 -0.52844718409E-02 -0.13047985782E+00  0.13247266999E+00  0.20240157713E-01 0.  0.
         14    1    1    2    0    0 -0.16455462771E-01  0.48647459036E-02  0.16371160348E-01  0.23716300277E-01  0.00000000000E+00 0.  1.
     999901    1    3    3    0    0  0.25751987477E-01  0.41972593733E-03  0.11410869747E+00  0.88774102973E+00  0.88000000000E+00 0. -1.
        -11    1    4    4    0    0 -0.29106326620E-02 -0.11585438491E-01 -0.99505524472E-01  0.10022127862E+00  0.51100000000E-03 0.  1.
         11    1    4    4    0    0 -0.63858920443E-02  0.63009666504E-02 -0.30974333346E-01  0.32251391368E-01  0.51100000000E-03 0. -1.
</event>
<event>
 8    1  0.1065239E+005  0.1043930E+01  0.7957747E-01            NaN
         13   -1    0    0    0    0  0.00000000000E+00  0.00000000000E+00  0.74505805969E-08  0.10566000000E+00  0.10566000000E+00 0.  1.
     999900   -1    0    0    0    0 -0.00000000000E+00 -0.00000000000E+00 -0.74505805969E-08  0.93827000000E+00  0.93827000000E+00 0. -1.
     999902    2    1    2    0    0  0.12035704456E-01  0.11123522044E-01 -0.18008773104E-01  0.10195803217E+01  0.10192895200E+01 0.  0.
     999903    2    3    3    0    0 -0.11239511101E-01 -0.87151866121E-01  0.89941451634E-01  0.12725020420E+00  0.19528834303E-01 0.  0.
         14    1    1    2    0    0 -0.12035704456E-01 -0.11123522044E-01  0.18008773104E-01  0.24349678297E-01  0.00000000000E+00 0.  1.
     999901    1    3    3    0    0  0.23275215557E-01  0.98275388165E-01 -0.10795022474E+00  0.89233011750E+00  0.88000000000E+00 0. -1.
        -11    1    4    4    0    0 -0.14829988436E-01 -0.56647106479E-01  0.51024247211E-01  0.77669544571E-01  0.51100000000E-03 0.  1.
         11    1    4    4    0    0  0.35904773356E-02 -0.30504759642E-01  0.38917204423E-01  0.49580659631E-01  0.51100000000E-03 0. -1.
</event>
<event>
 8    1  0.1065239E+005  0.1043930E+01  0.7957747E-01            NaN
         13   -1    0    0    0    0  0.00000000000E+00  0.00000000000E+00  0.74505805969E-08  0.10566000000E+00  0.10566000000E+00 0. -1.
     999900   -1    0    0    0    0 -0.00000000000E+00 -0.00000000000E+00 -0.74505805969E-08  0.93827000000E+00  0.93827000000E+00 0. -1.
     999902    2    1    2    0    0 -0.20882623892E-01  0.80290615958E-03  0.10109030866E-01  0.10207153248E+01  0.10204512988E+01 0.  0.
     999903    2    3    3    0    0 -0.43552230439E-01 -0.19776848349E-01  0.12255321693E+00  0.13303231138E+00  0.19758147302E-01 0.  0.
         14    1    1    2    0    0  0.20882623892E-01 -0.80290615958E-03 -0.10109030866E-01  0.23214675186E-01  0.00000000000E+00 0.  1.
     999901    1    3    3    0    0  0.22669606546E-01  0.20579754508E-01 -0.11244418606E+00  0.88768301343E+00  0.88000000000E+00 0. -1.
        -11    1    4    4    0    0 -0.98886788614E-02 -0.53782831550E-02  0.55500368026E-01  0.56632710260E-01  0.51100000000E-03 0.  1.
         11    1    4    4    0    0 -0.33663551577E-01 -0.14398565194E-01  0.67052848904E-01  0.76399601122E-01  0.51100000000E-03 0. -1.
</event>
<event>
 8    1  0.1065239E+005  0.1043930E+01  0.7957747E-01            NaN
         13   -1    0    0    0    0  0.00000000000E+00  0.00000000000E+00  0.74505805969E-08  0.10566000000E+00  0.10566000000E+00 0.  1.
     999900   -1    0    0    0    0 -0.00000000000E+00 -0.00000000000E+00 -0.74505805969E-08  0.93827000000E+00  0.93827000000E+00 0. -1.
     999902    2    1    2    0    0  0.10330618898E-01  0.19497673162E-01 -0.92081880859E-02  0.10200203435E+01  0.10197400794E+01 0.  0.
     999903    2    3    3    0    0  0.10578380539E+00  0.42327516069E-01 -0.65335116726E-01  0.13278714719E+00  0.19542693825E-01 0.  0.
         14    1    1    2    0    0 -0.10330618898E-01 -0.19497673162E-01  0.92081880859E-02  0.23909656488E-01  0.00000000000E+00 0.  1.
     999901    1    3    3    0    0 -0.95453186490E-01 -0.22829842907E-01  0.56126928640E-01  0.88723319632E+00  0.88000000000E+00 0. -1.
        -11    1    4    4    0    0  0.87076815315E-01  0.37274489184E-01 -0.61758500188E-01  0.11307578333E+00  0.51100000000E-03 0. -1.
         11    1    4    4    0    0  0.18706990073E-01  0.50530268852E-02 -0.35766165386E-02  0.19711363859E-01  0.51100000000E-03 0.  1.
</event>
<event>
 8    1  0.1065239E+005  0.1043930E+01  0.7957747E-01            NaN
         13   -1    0    0    0    0  0.00000000000E+00  0.00000000000E+00  0.74505805969E-08  0.10566000000E+00  0.10566000000E+00 0. -1.
     999900   -1    0    0    0    0 -0.00000000000E+00 -0.00000000000E+00 -0.74505805969E-08  0.93827000000E+00  0.93827000000E+00 0. -1.
     999902    2    1    2    0    0  0.17263687423E-01  0.70797103031E-02  0.12374994848E-01  0.10215403216E+01  0.10212949285E+01 0.  0.
     999903    2    3    3    0    0  0.96902298816E-01 -0.54898008612E-01  0.71512325833E-01  0.13380118763E+00  0.19618822580E-01 0.  0.
         14    1    1    2    0    0 -0.17263687423E-01 -0.70797103031E-02 -0.12374994848E-01  0.22389678401E-01  0.00000000000E+00 0. -1.
     999901    1    3    3    0    0 -0.79638611393E-01  0.61977718915E-01 -0.59137330986E-01  0.88773913397E+00  0.88000000000E+00 0. -1.
        -11    1    4    4    0    0  0.64826273046E-01 -0.40302754112E-01  0.38429598699E-01  0.85462581538E-01  0.51100000000E-03 0.  1.
         11    1    4    4    0    0  0.32076025770E-01 -0.14595254500E-01  0.33082727135E-01  0.48338606091E-01  0.51100000000E-03 0. -1.
</event>
<event>
 8    1  0.1065239E+005  0.1043930E+01  0.7957747E-01            NaN
         13   -1    0    0    0    0  0.00000000000E+00  0.00000000000E+00  0.74505805969E-08  0.10566000000E+00  0.10566000000E+00 0.  1.
     999900   -1    0    0    0    0 -0.00000000000E+00 -0.00000000000E+00 -0.74505805969E-08  0.93827000000E+00  0.93827000000E+00 0.  1.
     999902    2    1    2    0    0 -0.31620314546E-03 -0.16162664984E-01  0.16812759097E-01  0.10206061797E+01  0.10203396363E+01 0.  0.
     999903    2    3    3    0    0  0.57342389262E-01 -0.89737322877E-01  0.77163218834E-01  0.13360002329E+00  0.23534382485E-01 0.  0.
         14    1    1    2    0    0  0.31620314546E-03  0.16162664984E-01 -0.16812759097E-01  0.23323820276E-01  0.00000000000E+00 0. -1.
     999901    1    3    3    0    0 -0.57658592407E-01  0.73574657893E-01 -0.60350459737E-01  0.88700615643E+00  0.88000000000E+00 0. -1.
        -11    1    4    4    0    0  0.55018176628E-01 -0.69335501527E-01  0.63314020461E-01  0.10882710067E+00  0.51100000000E-03 0.  1.
         11    1    4    4    0    0  0.23242126338E-02 -0.20401821350E-01  0.13849198372E-01  0.24772922623E-01  0.51100000000E-03 0. -1.
</event>
<event>
 8    1  0.1065239E+005  0.1043930E+01  0.7957747E-01            NaN
         13   -1    0    0    0    0  0.00000000000E+00  0.00000000000E+00  0.74505805969E-08  0.10566000000E+00  0.10566000000E+00 0. -1.
     999900   -1    0    0    0    0 -0.00000000000E+00 -0.00000000000E+00 -0.74505805969E-08  0.93827000000E+00  0.93827000000E+00 0. -1.
     999902    2    1    2    0    0  0.21475520415E-01  0.57452903396E-02  0.71700843504E-02  0.10205715658E+01  0.10203042215E+01 0.  0.
     999903    2    3    3    0    0  0.64242283713E-01 -0.33970854940E-01  0.10926673712E+00  0.13274833186E+00  0.20045193165E-01 0.  0.
         14    1    1    2    0    0 -0.21475520415E-01 -0.57452903396E-02 -0.71700843504E-02  0.23358434190E-01  0.00000000000E+00 0.  1.
     999901    1    3    3    0    0 -0.42766763298E-01  0.39716145280E-01 -0.10209665277E+00  0.88782323395E+00  0.88000000000E+00 0. -1.
        -11    1    4    4    0    0  0.53916275693E-01 -0.19986805556E-01  0.77116380019E-01  0.96195812638E-01  0.51100000000E-03 0. -1.
         11    1    4    4    0    0  0.10326008020E-01 -0.13984049384E-01  0.32150357098E-01  0.36552519220E-01  0.51100000000E-03 0.  1.
</event>
<event>
 8    1  0.1065239E+005  0.1043930E+01  0.7957747E-01            NaN
         13   -1    0    0    0    0  0.00000000000E+00  0.00000000000E+00  0.74505805969E-08  0.10566000000E+00  0.10566000000E+00 0. -1.
     999900   -1    0    0    0    0 -0.00000000000E+00 -0.00000000000E+00 -0.74505805969E-08  0.93827000000E+00  0.93827000000E+00 0.  1.
     999902    2    1    2    0    0 -0.17947515795E-01 -0.12656908395E-01  0.90614850840E-02  0.10201724504E+01  0.10198957826E+01 0.  0.
     999903    2    3    3    0    0 -0.10754241236E+00  0.27355515759E-02 -0.73262165137E-01  0.13166732561E+00  0.19901911812E-01 0.  0.
         14    1    1    2    0    0  0.17947515795E-01  0.12656908395E-01 -0.90614850840E-02  0.23757549648E-01  0.00000000000E+00 0. -1.
     999901    1    3    3    0    0  0.89594896561E-01 -0.15392459971E-01  0.82323650221E-01  0.88850512475E+00  0.88000000000E+00 0. -1.
        -11    1    4    4    0    0 -0.65246320602E-01  0.51519308897E-02 -0.33340326759E-01  0.73453817146E-01  0.51100000000E-03 0.  1.
         11    1    4    4    0    0 -0.42296091755E-01 -0.24163793138E-02 -0.39921838378E-01  0.58213508460E-01  0.51100000000E-03 0. -1.
</event>
<event>
 8    1  0.1065239E+005  0.1043930E+01  0.7957747E-01            NaN
         13   -1    0    0    0    0  0.00000000000E+00  0.00000000000E+00  0.74505805969E-08  0.10566000000E+00  0.10566000000E+00 0. -1.
     999900   -1    0    0    0    0 -0.00000000000E+00 -0.00000000000E+00 -0.74505805969E-08  0.93827000000E+00  0.93827000000E+00 0. -1.
     999902    2    1    2    0    0  0.10985745575E-01  0.18450814865E-01 -0.13550161098E-01  0.10185385439E+01  0.10182219991E+01 0.  0.
     999903    2    3    3    0    0 -0.72728119814E-01 -0.99879666975E-01 -0.19133507963E-01  0.12666339127E+00  0.20302617414E-01 0.  0.
         14    1    1    2    0    0 -0.10985745575E-01 -0.18450814865E-01  0.13550161098E-01  0.25391456060E-01  0.00000000000E+00 0. -1.
     999901    1    3    3    0    0  0.83713865389E-01  0.11833048184E+00  0.55833468653E-02  0.89187515267E+00  0.88000000000E+00 0.  1.
        -11    1    4    4    0    0 -0.42274433559E-01 -0.72518959556E-01 -0.85638803217E-02  0.84378483009E-01  0.51100000000E-03 0.  1.
         11    1    4    4    0    0 -0.30453686255E-01 -0.27360707420E-01 -0.10569627642E-01  0.42284908259E-01  0.51100000000E-03 0. -1.
</event>
<event>
 8    1  0.1065239E+005  0.1043930E+01  0.7957747E-01            NaN
         13   -1    0    0    0    0  0.00000000000E+00  0.00000000000E+00  0.74505805969E-08  0.10566000000E+00  0.10566000000E+00 0.  1.
     999900   -1    0    0    0    0 -0.00000000000E+00 -0.00000000000E+00 -0.74505805969E-08  0.93827000000E+00  0.93827000000E+00 0. -1.
     999902    2    1    2    0    0 -0.18792178030E-01 -0.12130339813E-01  0.54296906862E-02  0.10209132096E+01  0.10206537165E+01 0.  0.
     999903    2    3    3    0    0  0.19252750904E-01 -0.73101259020E-01  0.10657331123E+00  0.13220915224E+00  0.20172426271E-01 0.  0.
         14    1    1    2    0    0  0.18792178030E-01  0.12130339813E-01 -0.54296906862E-02  0.23016790394E-01  0.00000000000E+00 0. -1.
     999901    1    3    3    0    0 -0.38044928934E-01  0.60970919208E-01 -0.10114362054E+00  0.88870405737E+00  0.88000000000E+00 0. -1.
        -11    1    4    4    0    0  0.17542831218E-01 -0.39007211651E-01  0.71107153507E-01  0.82980732034E-01  0.51100000000E-03 0.  1.
         11    1    4    4    0    0  0.17099196856E-02 -0.34094047369E-01  0.35466157721E-01  0.49228420204E-01  0.51100000000E-03 0. -1.
</event>
<event>
 8    1  0.1065239E+005  0.1043930E+01  0.7957747E-01            NaN
         13   -1    0    0    0    0  0.00000000000E+00  0.00000000000E+00  0.74505805969E-08  0.10566000000E+00  0.10566000000E+00 0. -1.
     999900   -1    0    0    0    0 -0.00000000000E+00 -0.00000000000E+00 -0.74505805969E-08  0.93827000000E+00  0.93827000000E+00 0. -1.
     999902    2    1    2    0    0  0.22755151217E-01  0.11551294048E-01  0.15144586409E-02  0.10183659063E+01  0.10180449873E+01 0.  0.
     999903    2    3    3    0    0 -0.10383223395E+00 -0.65017868544E-01 -0.21660903452E-01  0.12571575079E+00  0.18077588950E-01 0.  0.
         14    1    1    2    0    0 -0.22755151217E-01 -0.11551294048E-01 -0.15144586409E-02  0.25564093687E-01  0.00000000000E+00 0.  1.
     999901    1    3    3    0    0  0.12658738516E+00  0.76569162592E-01  0.23175362093E-01  0.89265015552E+00  0.88000000000E+00 0. -1.
        -11    1    4    4    0    0 -0.89017030453E-01 -0.52861792445E-01 -0.24353492162E-01  0.10635673233E+00  0.51100000000E-03 0. -1.
         11    1    4    4    0    0 -0.14815203495E-01 -0.12156076098E-01  0.26925887104E-02  0.19359018458E-01  0.51100000000E-03 0.  1.
</event>
<event>
 8    1  0.1065239E+005  0.1043930E+01  0.7957747E-01            NaN
         13   -1    0    0    0    0  0.00000000000E+00  0.00000000000E+00  0.74505805969E-08  0.10566000000E+00  0.10566000000E+00 0.  1.
     999900   -1    0    0    0    0 -0.00000000000E+00 -0.00000000000E+00 -0.74505805969E-08  0.93827000000E+00  0.93827000000E+00 0.  1.
     999902    2    1    2    0    0 -0.75990570928E-02 -0.21331305903E-01  0.58905704322E-02  0.10205319424E+01  0.10202636798E+01 0.  0.
     999903    2    3    3    0    0 -0.21996564023E-01 -0.32645010560E-02  0.12830172892E+00  0.13175852392E+00  0.20111419312E-01 0.  0.
         14    1    1    2    0    0  0.75990570928E-02  0.21331305903E-01 -0.58905704322E-02  0.23398057617E-01  0.00000000000E+00 0.  1.
     999901    1    3    3    0    0  0.14397506930E-01 -0.18066804847E-01 -0.12241115849E+00  0.88877341846E+00  0.88000000000E+00 0.  1.
        -11    1    4    4    0    0 -0.27196680891E-02 -0.93197940762E-02  0.38218820283E-01  0.39435954420E-01  0.51100000000E-03 0.  1.
         11    1    4    4    0    0 -0.19276895934E-01  0.60552930202E-02  0.90082908634E-01  0.92322569501E-01  0.51100000000E-03 0. -1.
</event>
<event>
 8    1  0.1065239E+005  0.1043930E+01  0.7957747E-01            NaN
         13   -1    0    0    0    0  0.00000000000E+00  0.00000000000E+00  0.74505805969E-08  0.10566000000E+00  0.10566000000E+00 0. -1.
     999900   -1    0    0    0    0 -0.00000000000E+00 -0.00000000000E+00 -0.74505805969E-08  0.93827000000E+00  0.93827000000E+00 0. -1.
     999902    2    1    2    0    0  0.16765524387E-01 -0.68643757160E-02  0.15256088801E-01  0.10202456020E+01  0.10199706553E+01 0.  0.
     999903    2    3    3    0    0  0.13117648993E+00  0.39575496589E-02  0.52270949338E-02  0.13271669330E+00  0.19064743632E-01 0.  0.
         14    1    1    2    0    0 -0.16765524387E-01  0.68643757160E-02 -0.15256088801E-01  0.23684397975E-01  0.00000000000E+00 0.  1.
     999901    1    3    3    0    0 -0.11441096554E+00 -0.10821925375E-01  0.10028993867E-01  0.88752890873E+00  0.88000000000E+00 0.  1.
        -11    1    4    4    0    0  0.10853961138E-01 -0.90415474399E-03 -0.47272202325E-02  0.11884178571E-01  0.51100000000E-03 0.  1.
         11    1    4    4    0    0  0.12032252879E+00  0.48617044029E-02  0.99543151662E-02  0.12083251473E+00  0.51100000000E-03 0. -1.
</event>
<event>
 8    1  0.1065239E+005  0.1043930E+01  0.7957747E-01            NaN
         13   -1    0    0    0    0  0.00000000000E+00  0.00000000000E+00  0.74505805969E-08  0.10566000000E+00  0.10566000000E+00 0. -1.
     999900   -1    0    0    0    0 -0.00000000000E+00 -0.00000000000E+00 -0.74505805969E-08  0.93827000000E+00  0.93827000000E+00 0.  1.
     999902    2    1    2    0    0  0.77834293877E-02 -0.22293862871E-01  0.16500074465E-02  0.10202589075E+01  0.10199842733E+01 0.  0.
     999903    2    3    3    0    0  0.28096663653E-01 -0.39702138857E-01 -0.12080124752E+00  0.13137759632E+00  0.17362288837E-01 0.  0.
         14    1    1    2    0    0 -0.77834293877E-02  0.22293862871E-01 -0.16500074465E-02  0.23671092482E-01  0.00000000000E+00 0. -1.
     999901    1    3    3    0    0 -0.20313234265E-01  0.17408275986E-01  0.12245125497E+00  0.88888131120E+00  0.88000000000E+00 0. -1.
        -11    1    4    4    0    0  0.21828750867E-01 -0.39131118230E-01 -0.11116362787E+00  0.11985554664E+00  0.51100000000E-03 0. -1.
         11    1    4    4    0    0  0.62679127863E-02 -0.57102062722E-03 -0.96376196522E-02  0.11522049679E-01  0.51100000000E-03 0.  1.
</event>
<event>
 8    1  0.1065239E+005  0.1043930E+01  0.7957747E-01            NaN
         13   -1    0    0    0    0  0.00000000000E+00  0.00000000000E+00  0.74505805969E-08  0.10566000000E+00  0.10566000000E+00 0. -1.
     999900   -1    0    0    0    0 -0.00000000000E+00 -0.00000000000E+00 -0.74505805969E-08  0.93827000000E+00  0.93827000000E+00 0. -1.
     999902    2    1    2    0    0  0.36156810137E-02  0.22807474225E-01  0.40945963378E-02  0.10204775002E+01  0.10202079732E+01 0.  0.
     999903    2    3    3    0    0 -0.11222939307E+00  0.66113193901E-01  0.59428310049E-02  0.13182746639E+00  0.19410630533E-01 0.  0.
         14    1    1    2    0    0 -0.36156810137E-02 -0.22807474225E-01 -0.40945963378E-02  0.23452499843E-01  0.00000000000E+00 0. -1.
     999901    1    3    3    0    0  0.11584507408E+00 -0.43305719677E-01 -0.18482346671E-02  0.88865003377E+00  0.88000000000E+00 0.  1.
        -11    1    4    4    0    0 -0.77390288583E-01  0.35902195311E-01 -0.12034704369E-03  0.85314125439E-01  0.51100000000E-03 0. -1.
         11    1    4    4    0    0 -0.34839104486E-01  0.30210998590E-01  0.60631780486E-02  0.46513340949E-01  0.51100000000E-03 0.  1.
</event>
<event>
 8    1  0.1065239E+005  0.1043930E+01  0.7957747E-01            NaN
         13   -1    0    0    0    0  0.00000000000E+00  0.00000000000E+00  0.74505805969E-08  0.10566000000E+00  0.10566000000E+00 0.  1.
     999900   -1    0    0    0    0 -0.00000000000E+00 -0.00000000000E+00 -0.74505805969E-08  0.93827000000E+00  0.93827000000E+00 0.  1.
     999902    2    1    2    0    0  0.12385835052E-01  0.11397022941E-01 -0.16425797483E-01  0.10204117546E+01  0.10201406967E+01 0.  0.
     999903    2    3    3    0    0  0.16827542430E-01 -0.12397803773E+00 -0.28194510678E-01  0.12997105565E+00  0.21067150937E-01 0.  0.
         14    1    1    2    0    0 -0.12385835052E-01 -0.11397022941E-01  0.16425797483E-01  0.23518245359E-01  0.00000000000E+00 0.  1.
     999901    1    3    3    0    0 -0.44417073786E-02  0.13537506067E+00  0.11768713195E-01  0.89044069900E+00  0.88000000000E+00 0. -1.
        -11    1    4    4    0    0 -0.35964232777E-02 -0.38410510943E-01 -0.43648415401E-02  0.38828012748E-01  0.51100000000E-03 0.  1.
         11    1    4    4    0    0  0.20423965708E-01 -0.85567526791E-01 -0.23829669138E-01  0.91143042897E-01  0.51100000000E-03 0. -1.
</event>
<event>
 8    1  0.1065239E+005  0.1043930E+01  0.7957747E-01            NaN
         13   -1    0    0    0    0  0.00000000000E+00  0.00000000000E+00  0.74505805969E-08  0.10566000000E+00  0.10566000000E+00 0.  1.
     999900   -1    0    0    0    0 -0.00000000000E+00 -0.00000000000E+00 -0.74505805969E-08  0.93827000000E+00  0.93827000000E+00 0. -1.
     999902    2    1    2    0    0  0.12767164704E-01 -0.11196591341E-01  0.13803825212E-01  0.10220459934E+01  0.10218116769E+01 0.  0.
     999903    2    3    3    0    0  0.11372512028E+00  0.24615932502E-01 -0.59398133977E-01  0.13253288366E+00  0.22304255575E-01 0.  0.
         14    1    1    2    0    0 -0.12767164704E-01  0.11196591341E-01 -0.13803825212E-01  0.21884006551E-01  0.00000000000E+00 0. -1.
     999901    1    3    3    0    0 -0.10095795557E+00 -0.35812523843E-01  0.73201959189E-01  0.88951310979E+00  0.88000000000E+00 0.  1.
        -11    1    4    4    0    0  0.73132349803E-01  0.14721328851E-01 -0.49691840435E-01  0.89635920465E-01  0.51100000000E-03 0. -1.
         11    1    4    4    0    0  0.40592770472E-01  0.98946036518E-02 -0.97062935425E-02  0.42896963195E-01  0.51100000000E-03 0.  1.
</event>
<event>
 8    1  0.1065239E+005  0.1043930E+01  0.7957747E-01            NaN
         13   -1    0    0    0    0  0.00000000000E+00  0.00000000000E+00  0.74505805969E-08  0.10566000000E+00  0.10566000000E+00 0. -1.
     999900   -1    0    0    0    0 -0.00000000000E+00 -0.00000000000E+00 -0.74505805969E-08  0.93827000000E+00  0.93827000000E+00 0.  1.
     999902    2    1    2    0    0 -0.22733491552E-01 -0.83757023761E-02  0.20864984674E-02  0.10196129791E+01  0.10193229663E+01 0.  0.
     999903    2    3    3    0    0  0.64609198250E-01 -0.91123954454E-01  0.61510195821E-01  0.12944041468E+00  0.22212455705E-01 0.  0.
         14    1    1    2    0    0  0.22733491552E-01  0.83757023761E-02 -0.20864984674E-02  0.24317020876E-01  0.00000000000E+00 0. -1.
     999901    1    3    3    0    0 -0.87342689802E-01  0.82748252078E-01 -0.59423697353E-01  0.89017256445E+00  0.88000000000E+00 0. -1.
        -11    1    4    4    0    0  0.46142489592E-01 -0.79708886122E-01  0.51572110187E-01  0.10555841768E+00  0.51100000000E-03 0. -1.
         11    1    4    4    0    0  0.18466708658E-01 -0.11415068333E-01  0.99380856334E-02  0.23881997001E-01  0.51100000000E-03 0.  1.
</event>
<event>
 8    1  0.1065239E+005  0.1043930E+01  0.7957747E-01            NaN
         13   -1    0    0    0    0  0.00000000000E+00  0.00000000000E+00  0.74505805969E-08  0.10566000000E+00  0.10566000000E+00 0. -1.
     999900   -1    0    0    0    0 -0.00000000000E+00 -0.00000000000E+00 -0.74505805969E-08  0.93827000000E+00  0.93827000000E+00 0. -1.
     999902    2    1    2    0    0  0.17341347290E-01 -0.62108182460E-02  0.14974174036E-01  0.10201913716E+01  0.10199151495E+01 0.  0.
     999903    2    3    3    0    0  0.19386133232E-01 -0.30250039671E-01  0.12632814981E+00  0.13284601989E+00  0.19959371369E-01 0.  0.
         14    1    1    2    0    0 -0.17341347290E-01  0.62108182460E-02 -0.14974174036E-01  0.23738628376E-01  0.00000000000E+00 0.  1.
     999901    1    3    3    0    0 -0.20447859420E-02  0.24039221425E-01 -0.11135397577E+00  0.88734535173E+00  0.88000000000E+00 0. -1.
        -11    1    4    4    0    0 -0.59863090226E-03 -0.14673879932E-01  0.32728910694E-01  0.35876508016E-01  0.51100000000E-03 0. -1.
         11    1    4    4    0    0  0.19984764135E-01 -0.15576159739E-01  0.93599239116E-01  0.96969511877E-01  0.51100000000E-03 0.  1.
</event>
<event>
 8    1  0.1065239E+005  0.1043930E+01  0.7957747E-01            NaN
         13   -1    0    0    0    0  0.00000000000E+00  0.00000000000E+00  0.74505805969E-08  0.10566000000E+00  0.10566000000E+00 0.  1.
     999900   -1    0    0    0    0 -0.00000000000E+00 -0.00000000000E+00 -0.74505805969E-08  0.93827000000E+00  0.93827000000E+00 0. -1.
     999902    2    1    2    0    0  0.32925288545E-02  0.17047181438E-01  0.15453210107E-01  0.10206867463E+01  0.10204220623E+01 0.  0.
     999903    2    3    3    0    0 -0.25600445520E-01 -0.11737080020E+00  0.44281397238E-01  0.12954474741E+00  0.19741121851E-01 0.  0.
         14    1    1    2    0    0 -0.32925288545E-02 -0.17047181438E-01 -0.15453210107E-01  0.23243253728E-01  0.00000000000E+00 0. -1.
     999901    1    3    3    0    0  0.28892974375E-01  0.13441798163E+00 -0.28828187131E-01  0.89114199886E+00  0.88000000000E+00 0.  1.
        -11    1    4    4    0    0 -0.23509315568E-01 -0.63754922381E-01  0.21774416090E-01  0.71356599999E-01  0.51100000000E-03 0.  1.
         11    1    4    4    0    0 -0.20911299520E-02 -0.53615877814E-01  0.22506981148E-01  0.58188147416E-01  0.51100000000E-03 0. -1.
</event>
<event>
 8    1  0.1065239E+005  0.1043930E+01  0.7957747E-01            NaN
         13   -1    0    0    0    0  0.00000000000E+00  0.00000000000E+00  0.74505805969E-08  0.10566000000E+00  0.10566000000E+00 0. -1.
     999900   -1    0    0    0    0 -0.00000000000E+00 -0.00000000000E+00 -0.74505805969E-08  0.93827000000E+00  0.93827000000E+00 0.  1.
     999902    2    1    2    0    0  0.22913170010E-01  0.47112364576E-02  0.59631892774E-02  0.10197893965E+01  0.10195036266E+01 0.  0.
     999903    2    3    3    0    0 -0.18297833863E-01 -0.60849741349E-01 -0.10794409827E+00  0.12907538026E+00  0.31161253060E-01 0.  0.
         14    1    1    2    0    0 -0.22913170010E-01 -0.47112364576E-02 -0.59631892774E-02  0.24140603456E-01  0.00000000000E+00 0. -1.
     999901    1    3    3    0    0  0.41211003873E-01  0.65560977807E-01  0.11390728754E+00  0.89071401629E+00  0.88000000000E+00 0. -1.
        -11    1    4    4    0    0 -0.79407295986E-02 -0.39307815080E-01 -0.38353193441E-01  0.55492234421E-01  0.51100000000E-03 0. -1.
         11    1    4    4    0    0 -0.10357104264E-01 -0.21541926270E-01 -0.69590904824E-01  0.73583145838E-01  0.51100000000E-03 0.  1.
</event>
<event>
 8    1  0.1065239E+005  0.1043930E+01  0.7957747E-01            NaN
         13   -1    0    0    0    0  0.00000000000E+00  0.00000000000E+00  0.74505805969E-08  0.10566000000E+00  0.10566000000E+00 0. -1.
     999900   -1    0    0    0    0 -0.00000000000E+00 -0.00000000000E+00 -0.74505805969E-08  0.93827000000E+00  0.93827000000E+00 0.  1.
     999902    2    1    2    0    0  0.17230104465E-01 -0.12806583209E-01 -0.11133471212E-01  0.10197465500E+01  0.10194597525E+01 0.  0.
     999903    2    3    3    0    0  0.63232029593E-01 -0.95598712976E-01  0.61738175966E-01  0.13166941886E+00  0.19693399968E-01 0.  0.
         14    1    1    2    0    0 -0.17230104465E-01  0.12806583209E-01  0.11133471212E-01  0.24183450014E-01  0.00000000000E+00 0. -1.
     999901    1    3    3    0    0 -0.46001925128E-01  0.82792129767E-01 -0.72871647178E-01  0.88807713113E+00  0.88000000000E+00 0.  1.
        -11    1    4    4    0    0  0.12455590964E-01 -0.29559089340E-01  0.24769332843E-01  0.40529772752E-01  0.51100000000E-03 0.  1.
         11    1    4    4    0    0  0.50776438628E-01 -0.66039623636E-01  0.36968843122E-01  0.91139646107E-01  0.51100000000E-03 0. -1.
</event>
<event>
 8    1  0.1065239E+005  0.1043930E+01  0.7957747E-01            NaN
         13   -1    0    0    0    0  0.00000000000E+00  0.00000000000E+00  0.74505805969E-08  0.10566000000E+00  0.10566000000E+00 0. -1.
     999900   -1    0    0    0    0 -0.00000000000E+00 -0.00000000000E+00 -0.74505805969E-08  0.93827000000E+00  0.93827000000E+00 0.  1.
     999902    2    1    2    0    0  0.12017064076E-01  0.98194727327E-02 -0.17170524513E-01  0.10207856965E+01  0.10205232870E+01 0.  0.
     999903    2    3    3    0    0  0.11990029238E+00 -0.68297444757E-02 -0.53885946490E-01  0.13328132488E+00  0.20916280971E-01 0.  0.
         14    1    1    2    0    0 -0.12017064076E-01 -0.98194727327E-02  0.17170524513E-01  0.23144303528E-01  0.00000000000E+00 0. -1.
     999901    1    3    3    0    0 -0.10788322831E+00  0.16649217208E-01  0.36715421977E-01  0.88750437159E+00  0.88000000000E+00 0. -1.
        -11    1    4    4    0    0  0.30200980137E-01  0.48794563172E-02 -0.69846010785E-02  0.31383977894E-01  0.51100000000E-03 0.  1.
         11    1    4    4    0    0  0.89699312245E-01 -0.11709200793E-01 -0.46901345411E-01  0.10189734699E+00  0.51100000000E-03 0. -1.
</event>
<event>
 8    1  0.1065239E+005  0.1043930E+01  0.7957747E-01            NaN
         13   -1    0    0    0    0  0.00000000000E+00  0.00000000000E+00  0.74505805969E-08  0.10566000000E+00  0.10566000000E+00 0.  1.
     999900   -1    0    0    0    0 -0.00000000000E+00 -0.00000000000E+00 -0.74505805969E-08  0.93827000000E+00  0.93827000000E+00 0. -1.
     999902    2    1    2    0    0  0.18816565717E-01 -0.83932909661E-02  0.10828257878E-01  0.10206542262E+01  0.10203887924E+01 0.  0.
     999903    2    3    3    0    0 -0.18141420393E-01 -0.91221258116E-01  0.91507375648E-01  0.13232124529E+00  0.22020061100E-01 0.  0.
         14    1    1    2    0    0 -0.18816565717E-01  0.83932909661E-02 -0.10828257878E-01  0.23275773828E-01  0.00000000000E+00 0. -1.
     999901    1    3    3    0    0  0.36957986110E-01  0.82827967150E-01 -0.80679117770E-01  0.88833298088E+00  0.88000000000E+00 0. -1.
        -11    1    4    4    0    0 -0.18798789999E-01 -0.70066264883E-01  0.58911111928E-01  0.93452962552E-01  0.51100000000E-03 0. -1.
         11    1    4    4    0    0  0.65736960515E-03 -0.21154993233E-01  0.32596263720E-01  0.38868282738E-01  0.51100000000E-03 0.  1.
</event>
<event>
 8    1  0.1065239E+005  0.1043930E+01  0.7957747E-01            NaN
         13   -1    0    0    0    0  0.00000000000E+00  0.00000000000E+00  0.74505805969E-08  0.10566000000E+00  0.10566000000E+00 0. -1.
     999900   -1    0    0    0    0 -0.00000000000E+00 -0.00000000000E+00 -0.74505805969E-08  0.93827000000E+00  0.93827000000E+00 0. -1.
     999902    2    1    2    0    0  0.15911801795E-01  0.17086603045E-01  0.24379423896E-02  0.10204548855E+01  0.10201848324E+01 0.  0.
     999903    2    3    3    0    0 -0.21807643470E-02  0.12878494309E+00 -0.28567894593E-01  0.13266818694E+00  0.13942952567E-01 0.  0.
         14    1    1    2    0    0 -0.15911801795E-01 -0.17086603045E-01 -0.24379423896E-02  0.23475114549E-01  0.00000000000E+00 0. -1.
     999901    1    3    3    0    0  0.18092566142E-01 -0.11169834004E+00  0.31005836983E-01  0.88778669851E+00  0.88000000000E+00 0. -1.
        -11    1    4    4    0    0 -0.79941572764E-02  0.62548387057E-01 -0.14391481124E-01  0.64680624022E-01  0.51100000000E-03 0.  1.
         11    1    4    4    0    0  0.58133929294E-02  0.66236556032E-01 -0.14176413469E-01  0.67987562923E-01  0.51100000000E-03 0. -1.
</event>
<event>
 8    1  0.1065239E+005  0.1043930E+01  0.7957747E-01            NaN
         13   -1    0    0    0    0  0.00000000000E+00  0.00000000000E+00  0.74505805969E-08  0.10566000000E+00  0.10566000000E+00 0. -1.
     999900   -1    0    0    0    0 -0.00000000000E+00 -0.00000000000E+00 -0.74505805969E-08  0.93827000000E+00  0.93827000000E+00 0.  1.
     999902    2    1    2    0    0 -0.15180013712E-01 -0.95033600016E-02  0.15803360243E-01  0.10200450076E+01  0.10197653282E+01 0.  0.
     999903    2    3    3    0    0 -0.10269739680E+00  0.77452561480E-01  0.21894504771E-01  0.13141813051E+00  0.15674855608E-01 0.  0.
         14    1    1    2    0    0  0.15180013712E-01  0.95033600016E-02 -0.15803360243E-01  0.23884992413E-01  0.00000000000E+00 0.  1.
     999901    1    3    3    0    0  0.87517383087E-01 -0.86955921482E-01 -0.60911445281E-02  0.88862687708E+00  0.88000000000E+00 0.  1.
        -11    1    4    4    0    0 -0.85301575921E-01  0.69358037291E-01  0.14698296466E-01  0.11091977836E+00  0.51100000000E-03 0. -1.
         11    1    4    4    0    0 -0.17395820878E-01  0.80945241890E-02  0.71962083050E-02  0.20498352149E-01  0.51100000000E-03 0.  1.
</event>
<event>
 8    1  0.1065239E+005  0.1043930E+01  0.7957747E-01            NaN
         13   -1    0    0    0    0  0.00000000000E+00  0.00000000000E+00  0.74505805969E-08  0.10566000000E+00  0.10566000000E+00 0. -1.
     999900   -1    0    0    0    0 -0.00000000000E+00 -0.00000000000E+00 -0.74505805969E-08  0.93827000000E+00  0.93827000000E+00 0.  1.
     999902    2    1    2    0    0 -0.60981369662E-02 -0.21432535921E-01 -0.31239666381E-02  0.10214288881E+01  0.10211810189E+01 0.  0.
     999903    2    3    3    0    0 -0.10959634622E+00 -0.31221439508E-01 -0.66783522437E-01  0.13302569076E+00  0.15800574091E-01 0.  0.
         14    1    1    2    0    0  0.60981369662E-02  0.21432535921E-01  0.31239666381E-02  0.22501111929E-01  0.00000000000E+00 0. -1.
     999901    1    3    3    0    0  0.10349820926E+00  0.97889035874E-02  0.63659555799E-01  0.88840319731E+00  0.88000000000E+00 0. -1.
        -11    1    4    4    0    0 -0.68190117713E-01 -0.25979794627E-01 -0.47303799609E-01  0.86964087192E-01  0.51100000000E-03 0.  1.
         11    1    4    4    0    0 -0.41406228511E-01 -0.52416448816E-02 -0.19479722828E-01  0.46061603566E-01  0.51100000000E-03 0. -1.
</event>
<event>
 8    1  0.1065239E+005  0.1043930E+01  0.7957747E-01            NaN
         13   -1    0    0    0    0  0.00000000000E+00  0.00000000000E+00  0.74505805969E-08  0.10566000000E+00  0.10566000000E+00 0. -1.
     999900   -1    0    0    0    0 -0.00000000000E+00 -0.00000000000E+00 -0.74505805969E-08  0.93827000000E+00  0.93827000000E+00 0. -1.
     999902    2    1    2    0    0 -0.15643703119E-01  0.99613456452E-02 -0.16067835516E-01  0.10193916791E+01  0.10190962988E+01 0.  0.
     999903    2    3    3    0    0  0.12280007369E+00 -0.26165467690E-01  0.90054230490E-02  0.12748333500E+00  0.20159693949E-01 0.  0.
         14    1    1    2    0    0  0.15643703119E-01 -0.99613456452E-02  0.16067835516E-01  0.24538320898E-01  0.00000000000E+00 0. -1.
     999901    1    3    3    0    0 -0.13844377681E+00  0.36126813335E-01 -0.25073258565E-01  0.89190834410E+00  0.88000000000E+00 0. -1.
        -11    1    4    4    0    0  0.17888266328E-01 -0.81513587534E-02  0.74355112564E-02  0.21023383895E-01  0.51100000000E-03 0.  1.
         11    1    4    4    0    0  0.10491180737E+00 -0.18014108936E-01  0.15699117926E-02  0.10645995111E+00  0.51100000000E-03 0. -1.
</event>
<event>
 8    1  0.1065239E+005  0.1043930E+01  0.7957747E-01            NaN
         13   -1    0    0    0    0  0.00000000000E+00  0.00000000000E+00  0.74505805969E-08  0.10566000000E+00  0.10566000000E+00 0. -1.
     999900   -1    0    0    0    0 -0.00000000000E+00 -0.00000000000E+00 -0.74505805969E-08  0.93827000000E+00  0.93827000000E+00 0.  1.
     999902    2    1    2    0    0 -0.17457165571E-01 -0.13811627773E-01  0.99386288239E-02  0.10195519354E+01  0.10192604470E+01 0.  0.
     999903    2    3    3    0    0 -0.12840896960E+00 -0.28076780425E-02  0.24757280391E-01  0.13239299688E+00  0.20450823018E-01 0.  0.
         14    1    1    2    0    0  0.17457165571E-01  0.13811627773E-01 -0.99386288239E-02  0.24378064615E-01  0.00000000000E+00 0.  1.
     999901    1    3    3    0    0  0.11095180403E+00 -0.11003949730E-01 -0.14818651568E-01  0.88715893850E+00  0.88000000000E+00 0.  1.
        -11    1    4    4    0    0 -0.93744872211E-01 -0.39349692926E-02  0.88875295916E-02  0.94248789660E-01  0.51100000000E-03 0. -1.
         11    1    4    4    0    0 -0.34664097388E-01  0.11272912501E-02  0.15869750800E-01  0.38144207224E-01  0.51100000000E-03 0.  1.
</event>
<event>
 8    1  0.1065239E+005  0.1043930E+01  0.7957747E-01            NaN
         13   -1    0    0    0    0  0.00000000000E+00  0.00000000000E+00  0.74505805969E-08  0.10566000000E+00  0.10566000000E+00 0.  1.
     999900   -1    0    0    0    0 -0.00000000000E+00 -0.00000000000E+00 -0.74505805969E-08  0.93827000000E+00  0.93827000000E+00 0.  1.
     999902    2    1    2    0    0 -0.18256838881E-01  0.67086270912E-02  0.15629684309E-01  0.10189779485E+01  0.10186723981E+01 0.  0.
     999903    2    3    3    0    0  0.86628985592E-01  0.65546551751E-01  0.66870924909E-01  0.12932149665E+00  0.21246112717E-01 0.  0.
         14    1    1    2    0    0  0.18256838881E-01 -0.67086270912E-02 -0.15629684309E-01  0.24952051518E-01  0.00000000000E+00 0. -1.
     999901    1    3    3    0    0 -0.10488582447E+00 -0.58837924660E-01 -0.51241240600E-01  0.88965645184E+00  0.88000000000E+00 0.  1.
        -11    1    4    4    0    0  0.40314093920E-01  0.38168173453E-01  0.44078079114E-01  0.70888460364E-01  0.51100000000E-03 0. -1.
         11    1    4    4    0    0  0.46314891672E-01  0.27378378298E-01  0.22792845795E-01  0.58433036283E-01  0.51100000000E-03 0.  1.
</event>
<event>
 8    1  0.1065239E+005  0.1043930E+01  0.7957747E-01            NaN
         13   -1    0    0    0    0  0.00000000000E+00  0.00000000000E+00  0.74505805969E-08  0.10566000000E+00  0.10566000000E+00 0.  1.
     999900   -1    0    0    0    0 -0.00000000000E+00 -0.00000000000E+00 -0.74505805969E-08  0.93827000000E+00  0.93827000000E+00 0.  1.
     999902    2    1    2    0    0  0.13273080250E-01  0.27737942577E-01  0.33955089283E-02  0.10129930060E+01  0.10125204850E+01 0.  0.
     999903    2    3    3    0    0 -0.79175041099E-01 -0.75036543340E-01 -0.47595235077E-01  0.12074342987E+00  0.20359260460E-01 0.  0.
         14    1    1    2    0    0 -0.13273080250E-01 -0.27737942577E-01 -0.33955089283E-02  0.30936994014E-01  0.00000000000E+00 0.  1.
     999901    1    3    3    0    0  0.92448121350E-01  0.10277448592E+00  0.50990744005E-01  0.89224957611E+00  0.88000000000E+00 0.  1.
        -11    1    4    4    0    0 -0.16846043538E-01 -0.27839577373E-01 -0.10418161152E-01  0.34170608042E-01  0.51100000000E-03 0.  1.
         11    1    4    4    0    0 -0.62328997562E-01 -0.47196965967E-01 -0.37177073924E-01  0.86572821833E-01  0.51100000000E-03 0. -1.
</event>
<event>
 8    1  0.1065239E+005  0.1043930E+01  0.7957747E-01            NaN
         13   -1    0    0    0    0  0.00000000000E+00  0.00000000000E+00  0.74505805969E-08  0.10566000000E+00  0.10566000000E+00 0.  1.
     999900   -1    0    0    0    0 -0.00000000000E+00 -0.00000000000E+00 -0.74505805969E-08  0.93827000000E+00  0.93827000000E+00 0.  1.
     999902    2    1    2    0    0  0.14551077040E-01 -0.64867615687E-02 -0.16838543256E-01  0.10207492222E+01  0.10204859755E+01 0.  0.
     999903    2    3    3    0    0  0.44686070081E-01  0.11606783645E+00 -0.37740593752E-01  0.13149973924E+00  0.19981028163E-01 0.  0.
         14    1    1    2    0    0 -0.14551077040E-01  0.64867615687E-02  0.16838543256E-01  0.23180777762E-01  0.00000000000E+00 0.  1.
     999901    1    3    3    0    0 -0.30134993042E-01 -0.12255459801E+00  0.20902050496E-01  0.88924948300E+00  0.88000000000E+00 0. -1.
        -11    1    4    4    0    0  0.30297110588E-01  0.67169200256E-01 -0.31524529451E-01  0.80147822497E-01  0.51100000000E-03 0. -1.
         11    1    4    4    0    0  0.14388959493E-01  0.48898636191E-01 -0.62160643010E-02  0.51351916741E-01  0.51100000000E-03 0.  1.
</event>
<event>
 8    1  0.1065239E+005  0.1043930E+01  0.7957747E-01            NaN
         13   -1    0    0    0    0  0.00000000000E+00  0.00000000000E+00  0.74505805969E-08  0.10566000000E+00  0.10566000000E+00 0.  1.
     999900   -1    0    0    0    0 -0.00000000000E+00 -0.00000000000E+00 -0.74505805969E-08  0.93827000000E+00  0.93827000000E+00 0.  1.
     999902    2    1    2    0    0 -0.99391815581E-03 -0.22506407146E-01 -0.78249139385E-02  0.10200814044E+01  0.10198025868E+01 0.  0.
     999903    2    3    3    0    0 -0.71062629402E-01  0.76778807244E-01  0.71518706976E-01  0.12819431046E+00  0.19338387890E-01 0.  0.
         14    1    1    2    0    0  0.99391815581E-03  0.22506407146E-01  0.78249139385E-02  0.23848595641E-01  0.00000000000E+00 0. -1.
     999901    1    3    3    0    0  0.70068711246E-01 -0.99285214390E-01 -0.79343620915E-01  0.89188709390E+00  0.88000000000E+00 0.  1.
        -11    1    4    4    0    0 -0.65247982527E-01  0.68138421036E-01  0.70386369852E-01  0.11770575953E+00  0.51100000000E-03 0.  1.
         11    1    4    4    0    0 -0.58146468756E-02  0.86403862079E-02  0.11323371247E-02  0.10488550923E-01  0.51100000000E-03 0. -1.
</event>
<event>
 8    1  0.1065239E+005  0.1043930E+01  0.7957747E-01            NaN
         13   -1    0    0    0    0  0.00000000000E+00  0.00000000000E+00  0.74505805969E-08  0.10566000000E+00  0.10566000000E+00 0. -1.
     999900   -1    0    0    0    0 -0.00000000000E+00 -0.00000000000E+00 -0.74505805969E-08  0.93827000000E+00  0.93827000000E+00 0. -1.
     999902    2    1    2    0    0 -0.87285240680E-02 -0.23514631882E-01  0.34784268852E-02  0.10186075890E+01  0.10182927850E+01 0.  0.
     999903    2    3    3    0    0 -0.66151208733E-01 -0.27023347588E-01  0.10756631003E+00  0.13060760972E+00  0.19534403780E-01 0.  0.
         14    1    1    2    0    0  0.87285240680E-02  0.23514631882E-01 -0.34784268852E-02  0.25322410994E-01  0.00000000000E+00 0. -1.
     999901    1    3    3    0    0  0.57422684665E-01  0.35087157066E-02 -0.10408788314E+00  0.88799997929E+00  0.88000000000E+00 0. -1.
        -11    1    4    4    0    0 -0.57300737647E-01 -0.19654424456E-01  0.77231366629E-01  0.98156080035E-01  0.51100000000E-03 0. -1.
         11    1    4    4    0    0 -0.88504710860E-02 -0.73689231327E-02  0.30334943401E-01  0.32451529682E-01  0.51100000000E-03 0.  1.
</event>
<event>
 8    1  0.1065239E+005  0.1043930E+01  0.7957747E-01            NaN
         13   -1    0    0    0    0  0.00000000000E+00  0.00000000000E+00  0.74505805969E-08  0.10566000000E+00  0.10566000000E+00 0.  1.
     999900   -1    0    0    0    0 -0.00000000000E+00 -0.00000000000E+00 -0.74505805969E-08  0.93827000000E+00  0.93827000000E+00 0.  1.
     999902    2    1    2    0    0  0.62052603150E-02 -0.80832286042E-02  0.19870029734E-01  0.10215992606E+01  0.10213551720E+01 0.  0.
     999903    2    3    3    0    0 -0.85070720929E-01  0.95391968019E-01  0.19742335596E-01  0.13084764687E+00  0.19866850646E-01 0.  0.
         14    1    1    2    0    0 -0.62052603150E-02  0.80832286042E-02 -0.19870029734E-01  0.22330739394E-01  0.00000000000E+00 0. -1.
     999901    1    3    3    0    0  0.91275981244E-01 -0.10347519662E+00  0.12769413823E-03  0.89075161374E+00  0.88000000000E+00 0. -1.
        -11    1    4    4    0    0 -0.64115550567E-01  0.68938328108E-01  0.57853671758E-02  0.94324061093E-01  0.51100000000E-03 0. -1.
         11    1    4    4    0    0 -0.20955170362E-01  0.26453639912E-01  0.13956968420E-01  0.36523585776E-01  0.51100000000E-03 0.  1.
</event>
<event>
 8    1  0.1065239E+005  0.1043930E+01  0.7957747E-01            NaN
         13   -1    0    0    0    0  0.00000000000E+00  0.00000000000E+00  0.74505805969E-08  0.10566000000E+00  0.10566000000E+00 0. -1.
     999900   -1    0    0    0    0 -0.00000000000E+00 -0.00000000000E+00 -0.74505805969E-08  0.93827000000E+00  0.93827000000E+00 0.  1.
     999902    2    1    2    0    0  0.19217446512E-01  0.57161028237E-02  0.12825186527E-01  0.10201293804E+01  0.10198516967E+01 0.  0.
     999903    2    3    3    0    0  0.78559955999E-01  0.10242092035E+00  0.24502126176E-01  0.13276828929E+00  0.19114205248E-01 0.  0.
         14    1    1    2    0    0 -0.19217446512E-01 -0.57161028237E-02 -0.12825186527E-01  0.23800619559E-01  0.00000000000E+00 0.  1.
     999901    1    3    3    0    0 -0.59342509487E-01 -0.96704817527E-01 -0.11676939649E-01  0.88736109115E+00  0.88000000000E+00 0. -1.
        -11    1    4    4    0    0  0.20602259546E-01  0.14834066514E-01  0.64747669212E-02  0.26204701018E-01  0.51100000000E-03 0. -1.
         11    1    4    4    0    0  0.57957696453E-01  0.87586853837E-01  0.18027359255E-01  0.10656358827E+00  0.51100000000E-03 0.  1.
</event>
<event>
 8    1  0.1065239E+005  0.1043930E+01  0.7957747E-01            NaN
         13   -1    0    0    0    0  0.00000000000E+00  0.00000000000E+00  0.74505805969E-08  0.10566000000E+00  0.10566000000E+00 0.  1.
     999900   -1    0    0    0    0 -0.00000000000E+00 -0.00000000000E+00 -0.74505805969E-08  0.93827000000E+00  0.93827000000E+00 0.  1.
     999902    2    1    2    0    0  0.16469718922E-01  0.14553252319E-01  0.83067622853E-02  0.10204342324E+01  0.10201636984E+01 0.  0.
     999903    2    3    3    0    0  0.82438954409E-01  0.77373187519E-01  0.68101948666E-01  0.13371344852E+00  0.21415404550E-01 0.  0.
         14    1    1    2    0    0 -0.16469718922E-01 -0.14553252319E-01 -0.83067622853E-02  0.23495767578E-01  0.00000000000E+00 0.  1.
     999901    1    3    3    0    0 -0.65969235487E-01 -0.62819935201E-01 -0.59795186381E-01  0.88672078390E+00  0.88000000000E+00 0. -1.
        -11    1    4    4    0    0  0.48812392039E-01  0.31283217888E-01  0.32622526665E-01  0.66526533842E-01  0.51100000000E-03 0. -1.
         11    1    4    4    0    0  0.33626562370E-01  0.46089969631E-01  0.35479422002E-01  0.67186914678E-01  0.51100000000E-03 0.  1.
</event>
<event>
 8    1  0.1065239E+005  0.1043930E+01  0.7957747E-01            NaN
         13   -1    0    0    0    0  0.00000000000E+00  0.00000000000E+00  0.74505805969E-08  0.10566000000E+00  0.10566000000E+00 0. -1.
     999900   -1    0    0    0    0 -0.00000000000E+00 -0.00000000000E+00 -0.74505805969E-08  0.93827000000E+00  0.93827000000E+00 0.  1.
     999902    2    1    2    0    0 -0.10283166358E-01  0.76742498355E-04 -0.21341249241E-01  0.10202403753E+01  0.10199653058E+01 0.  0.
     999903    2    3    3    0    0 -0.10100773695E+00 -0.17629654977E-01 -0.82996327162E-01  0.13325344593E+00  0.18834088023E-01 0.  0.
         14    1    1    2    0    0  0.10283166358E-01 -0.76742498355E-04  0.21341249241E-01  0.23689624711E-01  0.00000000000E+00 0. -1.
     999901    1    3    3    0    0  0.90724570591E-01  0.17706397475E-01  0.61655077921E-01  0.88698692936E+00  0.88000000000E+00 0. -1.
        -11    1    4    4    0    0 -0.12787857727E-01  0.22606199569E-02 -0.53368028677E-02  0.14049280896E-01  0.51100000000E-03 0.  1.
         11    1    4    4    0    0 -0.88219879222E-01 -0.19890274934E-01 -0.77659524294E-01  0.11920416503E+00  0.51100000000E-03 0. -1.
</event>
<event>
 8    1  0.1065239E+005  0.1043930E+01  0.7957747E-01            NaN
         13   -1    0    0    0    0  0.00000000000E+00  0.00000000000E+00  0.74505805969E-08  0.10566000000E+00  0.10566000000E+00 0. -1.
     999900   -1    0    0    0    0 -0.00000000000E+00 -0.00000000000E+00 -0.74505805969E-08  0.93827000000E+00  0.93827000000E+00 0. -1.
     999902    2    1    2    0    0  0.98375403773E-02 -0.12312881441E-01  0.14500345655E-01  0.10225140183E+01  0.10222897208E+01 0.  0.
     999903    2    3    3    0    0  0.33666767925E-01 -0.11546543304E-01  0.12843943689E+00  0.13484823888E+00  0.20508160677E-01 0.  0.
         14    1    1    2    0    0 -0.98375403773E-02  0.12312881441E-01 -0.14500345655E-01  0.21415981746E-01  0.00000000000E+00 0. -1.
     999901    1    3    3    0    0 -0.23829227547E-01 -0.76633813633E-03 -0.11393909124E+00  0.88766577937E+00  0.88000000000E+00 0. -1.
        -11    1    4    4    0    0  0.25620432062E-01  0.11798251376E-02  0.89226137404E-01  0.92840525868E-01  0.51100000000E-03 0.  1.
         11    1    4    4    0    0  0.80463358630E-02 -0.12726368442E-01  0.39213299491E-01  0.42007713012E-01  0.51100000000E-03 0. -1.
</event>
<event>
 8    1  0.1065239E+005  0.1043930E+01  0.7957747E-01            NaN
         13   -1    0    0    0    0  0.00000000000E+00  0.00000000000E+00  0.74505805969E-08  0.10566000000E+00  0.10566000000E+00 0. -1.
     999900   -1    0    0    0    0 -0.00000000000E+00 -0.00000000000E+00 -0.74505805969E-08  0.93827000000E+00  0.93827000000E+00 0.  1.
     999902    2    1    2    0    0  0.55135369742E-02  0.15488899410E-01  0.17423940387E-01  0.10199738151E+01  0.10196924462E+01 0.  0.
     999903    2    3    3    0    0  0.11481653424E-01  0.42751737693E-01  0.12388655070E+00  0.13311803872E+00  0.20322286896E-01 0.  0.
         14    1    1    2    0    0 -0.55135369742E-02 -0.15488899410E-01 -0.17423940387E-01  0.23956184870E-01  0.00000000000E+00 0.  1.
     999901    1    3    3    0    0 -0.59681164493E-02 -0.27262838283E-01 -0.10646261032E+00  0.88685577642E+00  0.88000000000E+00 0. -1.
        -11    1    4    4    0    0 -0.48737082005E-02  0.10797783823E-01  0.43347180053E-01  0.44939785342E-01  0.51100000000E-03 0. -1.
         11    1    4    4    0    0  0.16355361624E-01  0.31953953870E-01  0.80539370652E-01  0.88178253373E-01  0.51100000000E-03 0.  1.
</event>
<event>
 8    1  0.1065239E+005  0.1043930E+01  0.7957747E-01            NaN
         13   -1    0    0    0    0  0.00000000000E+00  0.00000000000E+00  0.74505805969E-08  0.10566000000E+00  0.10566000000E+00 0.  1.
     999900   -1    0    0    0    0 -0.00000000000E+00 -0.00000000000E+00 -0.74505805969E-08  0.93827000000E+00  0.93827000000E+00 0.  1.
     999902    2    1    2    0    0 -0.40469953175E-02  0.14771518436E-01 -0.17765619214E-01  0.10204738035E+01  0.10202041906E+01 0.  0.
     999903    2    3    3    0    0 -0.19028141448E-01 -0.96904840394E-01 -0.83252652110E-01  0.13087580703E+00  0.21091574678E-01 0.  0.
         14    1    1    2    0    0  0.40469953175E-02 -0.14771518436E-01  0.17765619214E-01  0.23456196496E-01  0.00000000000E+00 0.  1.
     999901    1    3    3    0    0  0.14981146131E-01  0.11167635883E+00  0.65487032896E-01  0.88959799648E+00  0.88000000000E+00 0.  1.
        -11    1    4    4    0    0  0.12443793010E-02 -0.33300885435E-01 -0.36175372303E-01  0.49187560754E-01  0.51100000000E-03 0.  1.
         11    1    4    4    0    0 -0.20272520749E-01 -0.63603954959E-01 -0.47077279807E-01  0.81688246271E-01  0.51100000000E-03 0. -1.
</event>
<event>
 8    1  0.1065239E+005  0.1043930E+01  0.7957747E-01            NaN
         13   -1    0    0    0    0  0.00000000000E+00  0.00000000000E+00  0.74505805969E-08  0.10566000000E+00  0.10566000000E+00 0. -1.
     999900   -1    0    0    0    0 -0.00000000000E+00 -0.00000000000E+00 -0.74505805969E-08  0.93827000000E+00  0.93827000000E+00 0. -1.
     999902    2    1    2    0    0  0.16210419770E-01  0.12783675918E-01 -0.89213977341E-02  0.10214401931E+01  0.10211925756E+01 0.  0.
     999903    2    3    3    0    0 -0.10204831312E-02  0.12632676896E+00 -0.37920712850E-01  0.13350444185E+00  0.20638836887E-01 0.  0.
         14    1    1    2    0    0 -0.16210419770E-01 -0.12783675918E-01  0.89213977341E-02  0.22489806949E-01  0.00000000000E+00 0. -1.
     999901    1    3    3    0    0  0.17230902901E-01 -0.11354309304E+00  0.28999315116E-01  0.88793575121E+00  0.88000000000E+00 0.  1.
        -11    1    4    4    0    0  0.65775025018E-02  0.68532049825E-01 -0.12803304353E-01  0.70029216158E-01  0.51100000000E-03 0.  1.
         11    1    4    4    0    0 -0.75979856330E-02  0.57794719133E-01 -0.25117408497E-01  0.63475225687E-01  0.51100000000E-03 0. -1.
</event>
<event>
 8    1  0.1065239E+005  0.1043930E+01  0.7957747E-01            NaN
         13   -1    0    0    0    0  0.00000000000E+00  0.00000000000E+00  0.74505805969E-08  0.10566000000E+00  0.10566000000E+00 0. -1.
     999900   -1    0    0    0    0 -0.00000000000E+00 -0.00000000000E+00 -0.74505805969E-08  0.93827000000E+00  0.93827000000E+00 0. -1.
     999902    2    1    2    0    0  0.11516360259E-01 -0.93896796364E-02  0.18426827864E-01  0.10202584850E+01  0.10199838408E+01 0.  0.
     999903    2    3    3    0    0 -0.16171799189E-01  0.12573910389E+00 -0.89346116762E-02  0.12909347745E+00  0.22659419635E-01 0.  0.
         14    1    1    2    0    0 -0.11516360259E-01  0.93896796364E-02 -0.18426827864E-01  0.23671515001E-01  0.00000000000E+00 0.  1.
     999901    1    3    3    0    0  0.27688159449E-01 -0.13512878352E+00  0.27361439540E-01  0.89116500755E+00  0.88000000000E+00 0. -1.
        -11    1    4    4    0    0 -0.77833015279E-02  0.24801724160E-01  0.60778968380E-02  0.26700323124E-01  0.51100000000E-03 0.  1.
         11    1    4    4    0    0 -0.83884976616E-02  0.10093737973E+00 -0.15012508514E-01  0.10239315432E+00  0.51100000000E-03 0. -1.
</event>
<event>
 8    1  0.1065239E+005  0.1043930E+01  0.7957747E-01            NaN
         13   -1    0    0    0    0  0.00000000000E+00  0.00000000000E+00  0.74505805969E-08  0.10566000000E+00  0.10566000000E+00 0.  1.
     999900   -1    0    0    0    0 -0.00000000000E+00 -0.00000000000E+00 -0.74505805969E-08  0.93827000000E+00  0.93827000000E+00 0. -1.
     999902    2    1    2    0    0  0.15252329983E-01  0.15260359664E-01  0.92858049560E-02  0.10204408893E+01  0.10201705104E+01 0.  0.
     999903    2    3    3    0    0  0.24493584446E-01 -0.65557296434E-01 -0.10679961684E+00  0.12909767850E+00  0.19035693877E-01 0.  0.
         14    1    1    2    0    0 -0.15252329983E-01 -0.15260359664E-01 -0.92858049560E-02  0.23489110683E-01  0.00000000000E+00 0. -1.
     999901    1    3    3    0    0 -0.92412544628E-02  0.80817656098E-01  0.11608542180E+00  0.89134321082E+00  0.88000000000E+00 0.  1.
        -11    1    4    4    0    0  0.32089417296E-02 -0.31620763915E-01 -0.38624476320E-01  0.50022807894E-01  0.51100000000E-03 0. -1.
         11    1    4    4    0    0  0.21284642716E-01 -0.33936532520E-01 -0.68175140520E-01  0.79074870603E-01  0.51100000000E-03 0.  1.
</event>
<event>
 8    1  0.1065239E+005  0.1043930E+01  0.7957747E-01            NaN
         13   -1    0    0    0    0  0.00000000000E+00  0.00000000000E+00  0.74505805969E-08  0.10566000000E+00  0.10566000000E+00 0. -1.
     999900   -1    0    0    0    0 -0.00000000000E+00 -0.00000000000E+00 -0.74505805969E-08  0.93827000000E+00  0.93827000000E+00 0. -1.
     999902    2    1    2    0    0  0.79562405549E-02  0.16616169844E-01 -0.16078970139E-01  0.10194773489E+01  0.10191840525E+01 0.  0.
     999903    2    3    3    0    0 -0.19403206859E-01 -0.49664978808E-01  0.11354285792E+00  0.12709651747E+00  0.20456040948E-01 0.  0.
         14    1    1    2    0    0 -0.79562405549E-02 -0.16616169844E-01  0.16078970139E-01  0.24452651078E-01  0.00000000000E+00 0. -1.
     999901    1    3    3    0    0  0.27359447414E-01  0.66281148652E-01 -0.12962182806E+00  0.89238083145E+00  0.88000000000E+00 0. -1.
        -11    1    4    4    0    0 -0.17503293645E-01 -0.27497288183E-01  0.84039420737E-01  0.90140731663E-01  0.51100000000E-03 0.  1.
         11    1    4    4    0    0 -0.18999132138E-02 -0.22167690625E-01  0.29503437187E-01  0.36955785808E-01  0.51100000000E-03 0. -1.
</event>
<event>
 8    1  0.1065239E+005  0.1043930E+01  0.7957747E-01            NaN
         13   -1    0    0    0    0  0.00000000000E+00  0.00000000000E+00  0.74505805969E-08  0.10566000000E+00  0.10566000000E+00 0. -1.
     999900   -1    0    0    0    0 -0.00000000000E+00 -0.00000000000E+00 -0.74505805969E-08  0.93827000000E+00  0.93827000000E+00 0.  1.
     999902    2    1    2    0    0 -0.76651862087E-02 -0.56734932899E-02  0.21675153607E-01  0.10202497152E+01  0.10199748651E+01 0.  0.
     999903    2    3    3    0    0  0.35823665184E-01  0.70057907810E-01  0.10440458255E+00  0.13206579068E+00  0.18697881617E-01 0.  0.
         14    1    1    2    0    0  0.76651862087E-02  0.56734932899E-02 -0.21675153607E-01  0.23680284830E-01  0.00000000000E+00 0.  1.
     999901    1    3    3    0    0 -0.43488851393E-01 -0.75731401100E-01 -0.82729428942E-01  0.88818392449E+00  0.88000000000E+00 0.  1.
        -11    1    4    4    0    0  0.11238259746E-01  0.37977417663E-01  0.61215151420E-01  0.72911855132E-01  0.51100000000E-03 0. -1.
         11    1    4    4    0    0  0.24585405438E-01  0.32080490148E-01  0.43189431130E-01  0.59153935549E-01  0.51100000000E-03 0.  1.
</event>
<event>
 8    1  0.1065239E+005  0.1043930E+01  0.7957747E-01            NaN
         13   -1    0    0    0    0  0.00000000000E+00  0.00000000000E+00  0.74505805969E-08  0.10566000000E+00  0.10566000000E+00 0.  1.
     999900   -1    0    0    0    0 -0.00000000000E+00 -0.00000000000E+00 -0.74505805969E-08  0.93827000000E+00  0.93827000000E+00 0. -1.
     999902    2    1    2    0    0 -0.10634477036E-01 -0.17212515735E-02 -0.21631564730E-01  0.10197643342E+01  0.10194779635E+01 0.  0.
     999903    2    3    3    0    0  0.98509362216E-01  0.24035146735E-01  0.74520053243E-01  0.12745222330E+00  0.20224939194E-01 0.  0.
         14    1    1    2    0    0  0.10634477036E-01  0.17212515735E-02  0.21631564730E-01  0.24165665757E-01  0.00000000000E+00 0.  1.
     999901    1    3    3    0    0 -0.10914383925E+00 -0.25756398309E-01 -0.96151617974E-01  0.89231211095E+00  0.88000000000E+00 0.  1.
        -11    1    4    4    0    0  0.63706010055E-01  0.14404952739E-01  0.59445792945E-01  0.88317732084E-01  0.51100000000E-03 0. -1.
         11    1    4    4    0    0  0.34803352161E-01  0.96301939957E-02  0.15074260298E-01  0.39134491214E-01  0.51100000000E-03 0.  1.
</event>
<event>
 8    1  0.1065239E+005  0.1043930E+01  0.7957747E-01            NaN
         13   -1    0    0    0    0  0.00000000000E+00  0.00000000000E+00  0.74505805969E-08  0.10566000000E+00  0.10566000000E+00 0. -1.
     999900   -1    0    0    0    0 -0.00000000000E+00 -0.00000000000E+00 -0.74505805969E-08  0.93827000000E+00  0.93827000000E+00 0. -1.
     999902    2    1    2    0    0 -0.15001250055E-01  0.76045292761E-02  0.16131334773E-01  0.10206257873E+01  0.10203596970E+01 0.  0.
     999903    2    3    3    0    0 -0.27632941611E-01  0.11225523266E+00 -0.58687008327E-01  0.13118263912E+00  0.19997578324E-01 0.  0.
         14    1    1    2    0    0  0.15001250055E-01 -0.76045292761E-02 -0.16131334773E-01  0.23304212715E-01  0.00000000000E+00 0.  1.
     999901    1    3    3    0    0  0.12631691556E-01 -0.10465070338E+00  0.74818343100E-01  0.88944314816E+00  0.88000000000E+00 0.  1.
        -11    1    4    4    0    0 -0.21160965321E-01  0.63787918134E-01 -0.43173929919E-01  0.79880750491E-01  0.51100000000E-03 0. -1.
         11    1    4    4    0    0 -0.64719762900E-02  0.48467314525E-01 -0.15513078408E-01  0.51301888631E-01  0.51100000000E-03 0.  1.
</event>
<event>
 8    1  0.1065239E+005  0.1043930E+01  0.7957747E-01            NaN
         13   -1    0    0    0    0  0.00000000000E+00  0.00000000000E+00  0.74505805969E-08  0.10566000000E+00  0.10566000000E+00 0.  1.
     999900   -1    0    0    0    0 -0.00000000000E+00 -0.00000000000E+00 -0.74505805969E-08  0.93827000000E+00  0.93827000000E+00 0. -1.
     999902    2    1    2    0    0  0.12686700273E-01  0.19615525195E-01  0.10098975534E-02  0.10205475047E+01  0.10202796030E+01 0.  0.
     999903    2    3    3    0    0 -0.30263850821E-01  0.36804533582E-01  0.12069014924E+00  0.13124239707E+00  0.19697215719E-01 0.  0.
         14    1    1    2    0    0 -0.12686700273E-01 -0.19615525195E-01 -0.10098975534E-02  0.23382495281E-01  0.00000000000E+00 0.  1.
     999901    1    3    3    0    0  0.42950551093E-01 -0.17189008387E-01 -0.11968025168E+00  0.88930510765E+00  0.88000000000E+00 0. -1.
        -11    1    4    4    0    0 -0.14099998864E-01  0.37951271627E-02  0.39622266420E-01  0.42230298073E-01  0.51100000000E-03 0. -1.
         11    1    4    4    0    0 -0.16163851957E-01  0.33009406419E-01  0.81067882817E-01  0.89012098996E-01  0.51100000000E-03 0.  1.
</event>
<event>
 8    1  0.1065239E+005  0.1043930E+01  0.7957747E-01            NaN
         13   -1    0    0    0    0  0.00000000000E+00  0.00000000000E+00  0.74505805969E-08  0.10566000000E+00  0.10566000000E+00 0.  1.
     999900   -1    0    0    0    0 -0.00000000000E+00 -0.00000000000E+00 -0.74505805969E-08  0.93827000000E+00  0.93827000000E+00 0. -1.
     999902    2    1    2    0    0 -0.11044635441E-01  0.10128928180E-01  0.21751901287E-01  0.10175155273E+01  0.10171726127E+01 0.  0.
     999903    2    3    3    0    0 -0.96179842266E-01 -0.69088639213E-01  0.47982783193E-01  0.12947752948E+00  0.20935162516E-01 0.  0.
         14    1    1    2    0    0  0.11044635441E-01 -0.10128928180E-01 -0.21751901287E-01  0.26414472694E-01  0.00000000000E+00 0. -1.
     999901    1    3    3    0    0  0.85135206825E-01  0.79217567393E-01 -0.26230881906E-01  0.88803799783E+00  0.88000000000E+00 0. -1.
        -11    1    4    4    0    0 -0.43714752211E-01 -0.38852465081E-01  0.14405490928E-01  0.60235146663E-01  0.51100000000E-03 0.  1.
         11    1    4    4    0    0 -0.52465090056E-01 -0.30236174132E-01  0.33577292265E-01  0.69242382812E-01  0.51100000000E-03 0. -1.
</event>
<event>
 8    1  0.1065239E+005  0.1043930E+01  0.7957747E-01            NaN
         13   -1    0    0    0    0  0.00000000000E+00  0.00000000000E+00  0.74505805969E-08  0.10566000000E+00  0.10566000000E+00 0.  1.
     999900   -1    0    0    0    0 -0.00000000000E+00 -0.00000000000E+00 -0.74505805969E-08  0.93827000000E+00  0.93827000000E+00 0.  1.
     999902    2    1    2    0    0 -0.15781869153E-01 -0.59614791832E-02 -0.10400011471E-01  0.10241116533E+01  0.10239198755E+01 0.  0.
     999903    2    3    3    0    0  0.11958194167E+00  0.42528049819E-01 -0.35031229715E-01  0.13210196016E+00  0.10736155194E-01 0.  0.
         14    1    1    2    0    0  0.15781869153E-01  0.59614791832E-02  0.10400011471E-01  0.19818346717E-01  0.00000000000E+00 0.  1.
     999901    1    3    3    0    0 -0.13536381083E+00 -0.48489529002E-01  0.24631218245E-01  0.89200969312E+00  0.88000000000E+00 0. -1.
        -11    1    4    4    0    0  0.74278079641E-01  0.25184818217E-01 -0.16366957174E-01  0.80122697108E-01  0.51100000000E-03 0.  1.
         11    1    4    4    0    0  0.45303862032E-01  0.17343231602E-01 -0.18664272541E-01  0.51979263057E-01  0.51100000000E-03 0. -1.
</event>
<event>
 8    1  0.1065239E+005  0.1043930E+01  0.7957747E-01            NaN
         13   -1    0    0    0    0  0.00000000000E+00  0.00000000000E+00  0.74505805969E-08  0.10566000000E+00  0.10566000000E+00 0. -1.
     999900   -1    0    0    0    0 -0.00000000000E+00 -0.00000000000E+00 -0.74505805969E-08  0.93827000000E+00  0.93827000000E+00 0. -1.
     999902    2    1    2    0    0  0.21819165222E-01  0.50538039543E-02  0.73503809271E-02  0.10203578765E+01  0.10200855607E+01 0.  0.
     999903    2    3    3    0    0  0.88016599981E-01  0.16601396492E-01  0.96613740054E-01  0.13329339491E+00  0.20257989073E-01 0.  0.
         14    1    1    2    0    0 -0.21819165222E-01 -0.50538039543E-02 -0.73503809271E-02  0.23572123476E-01  0.00000000000E+00 0.  1.
     999901    1    3    3    0    0 -0.66197434759E-01 -0.11547592538E-01 -0.89263359127E-01  0.88706448162E+00  0.88000000000E+00 0. -1.
        -11    1    4    4    0    0  0.45116498774E-01  0.87059774827E-03  0.38168705822E-01  0.59104717470E-01  0.51100000000E-03 0.  1.
         11    1    4    4    0    0  0.42900101206E-01  0.15730798744E-01  0.58445034231E-01  0.74188677438E-01  0.51100000000E-03 0. -1.
</event>
<event>
 8    1  0.1065239E+005  0.1043930E+01  0.7957747E-01            NaN
         13   -1    0    0    0    0  0.00000000000E+00  0.00000000000E+00  0.74505805969E-08  0.10566000000E+00  0.10566000000E+00 0. -1.
     999900   -1    0    0    0    0 -0.00000000000E+00 -0.00000000000E+00 -0.74505805969E-08  0.93827000000E+00  0.93827000000E+00 0. -1.
     999902    2    1    2    0    0 -0.20223887803E-01  0.91508452594E-03 -0.11965620328E-01  0.10204136421E+01  0.10201426282E+01 0.  0.
     999903    2    3    3    0    0 -0.13132833239E+00  0.11111776508E-01  0.38113429460E-02  0.13322872189E+00  0.19098783648E-01 0.  0.
         14    1    1    2    0    0  0.20223887803E-01 -0.91508452594E-03  0.11965620328E-01  0.23516357868E-01  0.00000000000E+00 0. -1.
     999901    1    3    3    0    0  0.11110444458E+00 -0.10196691982E-01 -0.15776963274E-01  0.88718492024E+00  0.88000000000E+00 0. -1.
        -11    1    4    4    0    0 -0.11779061519E+00  0.48720873750E-02  0.24354230103E-03  0.11789269145E+00  0.51100000000E-03 0. -1.
         11    1    4    4    0    0 -0.13537717194E-01  0.62396891333E-02  0.35678006450E-02  0.15336030443E-01  0.51100000000E-03 0.  1.
</event>
<event>
 8    1  0.1065239E+005  0.1043930E+01  0.7957747E-01            NaN
         13   -1    0    0    0    0  0.00000000000E+00  0.00000000000E+00  0.74505805969E-08  0.10566000000E+00  0.10566000000E+00 0.  1.
     999900   -1    0    0    0    0 -0.00000000000E+00 -0.00000000000E+00 -0.74505805969E-08  0.93827000000E+00  0.93827000000E+00 0.  1.
     999902    2    1    2    0    0  0.24071650315E-01  0.11105891342E-02 -0.19802890894E-03  0.10198319301E+01  0.10195471783E+01 0.  0.
     999903    2    3    3    0    0 -0.18196409197E-01 -0.93630014538E-01 -0.85266096656E-01  0.12966399820E+00  0.21089245158E-01 0.  0.
         14    1    1    2    0    0 -0.24071650315E-01 -0.11105891342E-02  0.19802890894E-03  0.24098069892E-01  0.00000000000E+00 0. -1.
     999901    1    3    3    0    0  0.42268059512E-01  0.94740603672E-01  0.85068067747E-01  0.89016793190E+00  0.88000000000E+00 0.  1.
        -11    1    4    4    0    0 -0.20181949423E-01 -0.71652368691E-01 -0.56769001364E-01  0.93618126762E-01  0.51100000000E-03 0. -1.
         11    1    4    4    0    0  0.19855402256E-02 -0.21977645846E-01 -0.28497095292E-01  0.36045871442E-01  0.51100000000E-03 0.  1.
</event>
<event>
 8    1  0.1065239E+005  0.1043930E+01  0.7957747E-01            NaN
         13   -1    0    0    0    0  0.00000000000E+00  0.00000000000E+00  0.74505805969E-08  0.10566000000E+00  0.10566000000E+00 0.  1.
     999900   -1    0    0    0    0 -0.00000000000E+00 -0.00000000000E+00 -0.74505805969E-08  0.93827000000E+00  0.93827000000E+00 0.  1.
     999902    2    1    2    0    0  0.17779312040E-01  0.53902170411E-02 -0.13447498371E-01  0.10209954499E+01  0.10207378288E+01 0.  0.
     999903    2    3    3    0    0 -0.59382123563E-01  0.10510546571E+00 -0.47789977132E-01  0.13134584257E+00  0.19860838977E-01 0.  0.
         14    1    1    2    0    0 -0.17779312040E-01 -0.53902170411E-02  0.13447498371E-01  0.22934550112E-01  0.00000000000E+00 0.  1.
     999901    1    3    3    0    0  0.77161435603E-01 -0.99715248666E-01  0.34342478761E-01  0.88964960732E+00  0.88000000000E+00 0.  1.
        -11    1    4    4    0    0 -0.10248595219E-01  0.24298319110E-01 -0.25214510844E-02  0.26496430931E-01  0.51100000000E-03 0.  1.
         11    1    4    4    0    0 -0.49133528344E-01  0.80807146597E-01 -0.45268526048E-01  0.10484941164E+00  0.51100000000E-03 0. -1.
</event>
<event>
 8    1  0.1065239E+005  0.1043930E+01  0.7957747E-01            NaN
         13   -1    0    0    0    0  0.00000000000E+00  0.00000000000E+00  0.74505805969E-08  0.10566000000E+00  0.10566000000E+00 0.  1.
     999900   -1    0    0    0    0 -0.00000000000E+00 -0.00000000000E+00 -0.74505805969E-08  0.93827000000E+00  0.93827000000E+00 0.  1.
     999902    2    1    2    0    0 -0.12626752051E-01 -0.99350377858E-02  0.18852518520E-01  0.10191599112E+01  0.10188588555E+01 0.  0.
     999903    2    3    3    0    0  0.38530367130E-01 -0.32837201627E-01 -0.11636161568E+00  0.12706999309E+00  0.66246917298E-02 0.  0.
         14    1    1    2    0    0  0.12626752051E-01  0.99350377858E-02 -0.18852518520E-01  0.24770088771E-01  0.00000000000E+00 0. -1.
     999901    1    3    3    0    0 -0.51157119181E-01  0.22902163841E-01  0.13521413420E+00  0.89208991813E+00  0.88000000000E+00 0. -1.
        -11    1    4    4    0    0  0.21374381486E-01 -0.13940119582E-01 -0.57317216307E-01  0.62743250825E-01  0.51100000000E-03 0. -1.
         11    1    4    4    0    0  0.17155985644E-01 -0.18897082045E-01 -0.59044399368E-01  0.64326742269E-01  0.51100000000E-03 0.  1.
</event>
<event>
 7    1  0.1065239E+005  0.1043930E+01  0.7957747E-01            NaN
         13   -1    0    0    0    0  0.00000000000E+00  0.00000000000E+00  0.74505805969E-08  0.10566000000E+00  0.10566000000E+00 0.  1.
     999900   -1    0    0    0    0 -0.00000000000E+00 -0.00000000000E+00 -0.74505805969E-08  0.93827000000E+00  0.93827000000E+00 0.  1.
     999903    2    1    2    0    0  0.10462870215E+00  0.48400855870E-01 -0.19095464021E-01  0.11866810766E+00  0.20680301401E-01 0.  0.
         14    1    1    2    0    0 -0.33604669001E-01  0.13956119961E-01  0.17084749921E-01  0.40198703249E-01  0.00000000000E+00 0.  1.
     999901    1    1    2    0    0 -0.71024033149E-01 -0.62356975831E-01  0.20107141001E-02  0.88506318909E+00  0.88000000000E+00 0.  1.
        -11    1    3    3    0    0  0.78370370191E-01  0.26883487073E-01 -0.95739736037E-02  0.83405988350E-01  0.51100000000E-03 0.  1.
         11    1    3    3    0    0  0.26258331959E-01  0.21517368797E-01 -0.95214904175E-02  0.35262119306E-01  0.51100000000E-03 0. -1.
</event>
<event>
 8    1  0.1065239E+005  0.1043930E+01  0.7957747E-01            NaN
         13   -1    0    0    0    0  0.00000000000E+00  0.00000000000E+00  0.74505805969E-08  0.10566000000E+00  0.10566000000E+00 0. -1.
     999900   -1    0    0    0    0 -0.00000000000E+00 -0.00000000000E+00 -0.74505805969E-08  0.93827000000E+00  0.93827000000E+00 0. -1.
     999902    2    1    2    0    0  0.59978612800E-02 -0.19281802307E-01  0.11446025079E-01  0.10207185000E+01  0.10204545471E+01 0.  0.
     999903    2    3    3    0    0  0.10330936750E-01 -0.12955047095E+00  0.20796403115E-01  0.13377690986E+00  0.23952420561E-01 0.  0.
         14    1    1    2    0    0 -0.59978612800E-02  0.19281802307E-01 -0.11446025079E-01  0.23211499957E-01  0.00000000000E+00 0.  1.
     999901    1    3    3    0    0 -0.43330754701E-02  0.11026866865E+00 -0.93503780365E-02  0.88694159018E+00  0.88000000000E+00 0.  1.
        -11    1    4    4    0    0 -0.10908946521E-03 -0.27007409171E-01 -0.51220528510E-02  0.27493791972E-01  0.51100000000E-03 0.  1.
         11    1    4    4    0    0  0.10440026215E-01 -0.10254306178E+00  0.25918455966E-01  0.10628311789E+00  0.51100000000E-03 0. -1.
</event>
<event>
 8    1  0.1065239E+005  0.1043930E+01  0.7957747E-01            NaN
         13   -1    0    0    0    0  0.00000000000E+00  0.00000000000E+00  0.74505805969E-08  0.10566000000E+00  0.10566000000E+00 0.  1.
     999900   -1    0    0    0    0 -0.00000000000E+00 -0.00000000000E+00 -0.74505805969E-08  0.93827000000E+00  0.93827000000E+00 0. -1.
     999902    2    1    2    0    0 -0.51133447592E-02  0.61800348334E-02 -0.22598334421E-01  0.10199503452E+01  0.10196684181E+01 0.  0.
     999903    2    3    3    0    0  0.10274460907E+00 -0.64581660313E-01  0.37348836081E-01  0.12852776363E+00  0.19930000654E-01 0.  0.
         14    1    1    2    0    0  0.51133447592E-02 -0.61800348334E-02  0.22598334421E-01  0.23979654789E-01  0.00000000000E+00 0.  1.
     999901    1    3    3    0    0 -0.10785795383E+00  0.70761695146E-01 -0.59947170502E-01  0.89142258158E+00  0.88000000000E+00 0. -1.
        -11    1    4    4    0    0  0.34188080149E-01 -0.11693472709E-01  0.72375535162E-02  0.36853838744E-01  0.51100000000E-03 0. -1.
         11    1    4    4    0    0  0.68556528917E-01 -0.52888187604E-01  0.30111282565E-01  0.91673924886E-01  0.51100000000E-03 0.  1.
</event>
<event>
 8    1  0.1065239E+005  0.1043930E+01  0.7957747E-01            NaN
         13   -1    0    0    0    0  0.00000000000E+00  0.00000000000E+00  0.74505805969E-08  0.10566000000E+00  0.10566000000E+00 0. -1.
     999900   -1    0    0    0    0 -0.00000000000E+00 -0.00000000000E+00 -0.74505805969E-08  0.93827000000E+00  0.93827000000E+00 0.  1.
     999902    2    1    2    0    0  0.17234063999E-02  0.18769504891E-03 -0.24351509603E-01  0.10195168605E+01  0.10192245226E+01 0.  0.
     999903    2    3    3    0    0  0.10886132231E+00 -0.18529176795E-01  0.62768171204E-01  0.12855182580E+00  0.19789156434E-01 0.  0.
         14    1    1    2    0    0 -0.17234063999E-02 -0.18769504891E-03  0.24351509603E-01  0.24413139475E-01  0.00000000000E+00 0. -1.
     999901    1    3    3    0    0 -0.10713791591E+00  0.18716871843E-01 -0.87119680807E-01  0.89096503472E+00  0.88000000000E+00 0.  1.
        -11    1    4    4    0    0  0.24234293616E-01 -0.47487695556E-02  0.51047847004E-02  0.25222445305E-01  0.51100000000E-03 0. -1.
         11    1    4    4    0    0  0.84627028696E-01 -0.13780407239E-01  0.57663386504E-01  0.10332938050E+00  0.51100000000E-03 0.  1.
</event>
<event>
 8    1  0.1065239E+005  0.1043930E+01  0.7957747E-01            NaN
         13   -1    0    0    0    0  0.00000000000E+00  0.00000000000E+00  0.74505805969E-08  0.10566000000E+00  0.10566000000E+00 0. -1.
     999900   -1    0    0    0    0 -0.00000000000E+00 -0.00000000000E+00 -0.74505805969E-08  0.93827000000E+00  0.93827000000E+00 0. -1.
     999902    2    1    2    0    0  0.12187103351E-01  0.54483549491E-02  0.24055903594E-01  0.10164182469E+01  0.10160458435E+01 0.  0.
     999903    2    3    3    0    0 -0.10361319003E+00 -0.62959249726E-01 -0.22950251515E-01  0.12495939372E+00  0.19712325083E-01 0.  0.
         14    1    1    2    0    0 -0.12187103351E-01 -0.54483549491E-02 -0.24055903594E-01  0.27511753079E-01  0.00000000000E+00 0. -1.
     999901    1    3    3    0    0  0.11580029339E+00  0.68407604675E-01  0.47006155109E-01  0.89145885320E+00  0.88000000000E+00 0.  1.
        -11    1    4    4    0    0 -0.50418467646E-01 -0.33349224532E-01 -0.21166794432E-01  0.64050659357E-01  0.51100000000E-03 0. -1.
         11    1    4    4    0    0 -0.53194722388E-01 -0.29610025194E-01 -0.17834570835E-02  0.60908734367E-01  0.51100000000E-03 0.  1.
</event>
<event>
 8    1  0.1065239E+005  0.1043930E+01  0.7957747E-01            NaN
         13   -1    0    0    0    0  0.00000000000E+00  0.00000000000E+00  0.74505805969E-08  0.10566000000E+00  0.10566000000E+00 0.  1.
     999900   -1    0    0    0    0 -0.00000000000E+00 -0.00000000000E+00 -0.74505805969E-08  0.93827000000E+00  0.93827000000E+00 0. -1.
     999902    2    1    2    0    0  0.81041770045E-03 -0.21361235013E-01  0.45199418845E-02  0.10220807663E+01  0.10218472018E+01 0.  0.
     999903    2    3    3    0    0  0.35561637691E-01 -0.10802797620E+00  0.69984261986E-01  0.13472269398E+00  0.17825084314E-01 0.  0.
         14    1    1    2    0    0 -0.81041770045E-03  0.21361235013E-01 -0.45199418845E-02  0.21849233688E-01  0.00000000000E+00 0.  1.
     999901    1    3    3    0    0 -0.34751219990E-01  0.86666741190E-01 -0.65464320101E-01  0.88735807233E+00  0.88000000000E+00 0. -1.
        -11    1    4    4    0    0  0.18921662392E-01 -0.79788842421E-01  0.54550358269E-01  0.98490057320E-01  0.51100000000E-03 0.  1.
         11    1    4    4    0    0  0.16639975298E-01 -0.28239133782E-01  0.15433903716E-01  0.36232636664E-01  0.51100000000E-03 0. -1.
</event>
<event>
 8    1  0.1065239E+005  0.1043930E+01  0.7957747E-01            NaN
         13   -1    0    0    0    0  0.00000000000E+00  0.00000000000E+00  0.74505805969E-08  0.10566000000E+00  0.10566000000E+00 0.  1.
     999900   -1    0    0    0    0 -0.00000000000E+00 -0.00000000000E+00 -0.74505805969E-08  0.93827000000E+00  0.93827000000E+00 0. -1.
     999902    2    1    2    0    0  0.13155521095E-01  0.44481821688E-02  0.19911448999E-01  0.10196540889E+01  0.10193650676E+01 0.  0.
     999903    2    3    3    0    0  0.28390848846E-01  0.86095012205E-01 -0.89411009541E-01  0.12900841297E+00  0.20747302577E-01 0.  0.
         14    1    1    2    0    0 -0.13155521095E-01 -0.44481821688E-02 -0.19911448999E-01  0.24275911129E-01  0.00000000000E+00 0. -1.
     999901    1    3    3    0    0 -0.15235327751E-01 -0.81646830037E-01  0.10932245854E+00  0.89064567590E+00  0.88000000000E+00 0.  1.
        -11    1    4    4    0    0  0.14327066365E-01  0.64402394079E-01 -0.54577775378E-01  0.85626677385E-01  0.51100000000E-03 0.  1.
         11    1    4    4    0    0  0.14063782481E-01  0.21692618126E-01 -0.34833234162E-01  0.43381735581E-01  0.51100000000E-03 0. -1.
</event>
<event>
 8    1  0.1065239E+005  0.1043930E+01  0.7957747E-01            NaN
         13   -1    0    0    0    0  0.00000000000E+00  0.00000000000E+00  0.74505805969E-08  0.10566000000E+00  0.10566000000E+00 0.  1.
     999900   -1    0    0    0    0 -0.00000000000E+00 -0.00000000000E+00 -0.74505805969E-08  0.93827000000E+00  0.93827000000E+00 0. -1.
     999902    2    1    2    0    0  0.23390813162E-01  0.21309122458E-02  0.50795329046E-02  0.10198993408E+01  0.10196161988E+01 0.  0.
     999903    2    3    3    0    0 -0.82471195205E-01 -0.51333311183E-01 -0.80659709136E-01  0.12781391572E+00  0.19844432428E-01 0.  0.
         14    1    1    2    0    0 -0.23390813162E-01 -0.21309122458E-02 -0.50795329046E-02  0.24030659207E-01  0.00000000000E+00 0.  1.
     999901    1    3    3    0    0  0.10586200837E+00  0.53464223428E-01  0.85739242040E-01  0.89208542507E+00  0.88000000000E+00 0. -1.
        -11    1    4    4    0    0 -0.22349237812E-01 -0.84843725870E-02 -0.11043651986E-01  0.26338116469E-01  0.51100000000E-03 0. -1.
         11    1    4    4    0    0 -0.60121957393E-01 -0.42848938596E-01 -0.69616057150E-01  0.10147579925E+00  0.51100000000E-03 0.  1.
</event>
<event>
 8    1  0.1065239E+005  0.1043930E+01  0.7957747E-01            NaN
         13   -1    0    0    0    0  0.00000000000E+00  0.00000000000E+00  0.74505805969E-08  0.10566000000E+00  0.10566000000E+00 0.  1.
     999900   -1    0    0    0    0 -0.00000000000E+00 -0.00000000000E+00 -0.74505805969E-08  0.93827000000E+00  0.93827000000E+00 0.  1.
     999902    2    1    2    0    0 -0.72080954524E-02 -0.85512568125E-02  0.21297549765E-01  0.10198745171E+01  0.10195907828E+01 0.  0.
     999903    2    3    3    0    0 -0.80498475175E-01 -0.21387499595E-01 -0.96554511055E-01  0.12890574257E+00  0.18880869106E-01 0.  0.
         14    1    1    2    0    0  0.72080954524E-02  0.85512568125E-02 -0.21297549765E-01  0.24055482933E-01  0.00000000000E+00 0. -1.
     999901    1    3    3    0    0  0.73290379723E-01  0.12836242783E-01  0.11785206082E+00  0.89096877450E+00  0.88000000000E+00 0. -1.
        -11    1    4    4    0    0 -0.77303594205E-01 -0.20280284731E-01 -0.96737402296E-01  0.12548116094E+00  0.51100000000E-03 0. -1.
         11    1    4    4    0    0 -0.31948809703E-02 -0.11072148644E-02  0.18289124098E-03  0.34245816352E-02  0.51100000000E-03 0.  1.
</event>
<event>
 8    1  0.1065239E+005  0.1043930E+01  0.7957747E-01            NaN
         13   -1    0    0    0    0  0.00000000000E+00  0.00000000000E+00  0.74505805969E-08  0.10566000000E+00  0.10566000000E+00 0. -1.
     999900   -1    0    0    0    0 -0.00000000000E+00 -0.00000000000E+00 -0.74505805969E-08  0.93827000000E+00  0.93827000000E+00 0. -1.
     999902    2    1    2    0    0  0.10671413185E-01 -0.19387881010E-01  0.96833709718E-02  0.10197734965E+01  0.10194873454E+01 0.  0.
     999903    2    3    3    0    0  0.63362224851E-01  0.10908342898E+00  0.15273050919E-01  0.12886808979E+00  0.21441839169E-01 0.  0.
         14    1    1    2    0    0 -0.10671413185E-01  0.19387881010E-01 -0.96833709718E-02  0.24156503530E-01  0.00000000000E+00 0.  1.
     999901    1    3    3    0    0 -0.52690811666E-01 -0.12847130999E+00 -0.55896799468E-02  0.89090540668E+00  0.88000000000E+00 0. -1.
        -11    1    4    4    0    0  0.49937152702E-02  0.12843412902E-01 -0.46663734602E-02  0.14557699318E-01  0.51100000000E-03 0. -1.
         11    1    4    4    0    0  0.58368509581E-01  0.96240016076E-01  0.19939424379E-01  0.11431039047E+00  0.51100000000E-03 0.  1.
</event>
<event>
 8    1  0.1065239E+005  0.1043930E+01  0.7957747E-01            NaN
         13   -1    0    0    0    0  0.00000000000E+00  0.00000000000E+00  0.74505805969E-08  0.10566000000E+00  0.10566000000E+00 0. -1.
     999900   -1    0    0    0    0 -0.00000000000E+00 -0.00000000000E+00 -0.74505805969E-08  0.93827000000E+00  0.93827000000E+00 0. -1.
     999902    2    1    2    0    0  0.20262398708E-01 -0.22429382340E-02  0.12076174936E-01  0.10202354948E+01  0.10199603107E+01 0.  0.
     999903    2    3    3    0    0 -0.57926514511E-01 -0.94956048142E-01  0.64836512609E-01  0.13035186193E+00  0.20388780734E-01 0.  0.
         14    1    1    2    0    0 -0.20262398708E-01  0.22429382340E-02 -0.12076174936E-01  0.23694505152E-01  0.00000000000E+00 0.  1.
     999901    1    3    3    0    0  0.78188913219E-01  0.92713109908E-01 -0.52760337672E-01  0.88988363292E+00  0.88000000000E+00 0. -1.
        -11    1    4    4    0    0 -0.29623852786E-01 -0.65142364329E-01  0.46444408218E-01  0.85313799939E-01  0.51100000000E-03 0.  1.
         11    1    4    4    0    0 -0.28302661725E-01 -0.29813683813E-01  0.18392104390E-01  0.45038061994E-01  0.51100000000E-03 0. -1.
</event>
<event>
 8    1  0.1065239E+005  0.1043930E+01  0.7957747E-01            NaN
         13   -1    0    0    0    0  0.00000000000E+00  0.00000000000E+00  0.74505805969E-08  0.10566000000E+00  0.10566000000E+00 0.  1.
     999900   -1    0    0    0    0 -0.00000000000E+00 -0.00000000000E+00 -0.74505805969E-08  0.93827000000E+00  0.93827000000E+00 0.  1.
     999902    2    1    2    0    0  0.15855622749E-01  0.15026509138E-01 -0.10820248585E-01  0.10195522534E+01  0.10192607728E+01 0.  0.
     999903    2    3    3    0    0  0.66712096856E-01 -0.38657432534E-02 -0.11211984313E+00  0.13208118007E+00  0.20226988578E-01 0.  0.
         14    1    1    2    0    0 -0.15855622749E-01 -0.15026509138E-01  0.10820248585E-01  0.24377746595E-01  0.00000000000E+00 0.  1.
     999901    1    3    3    0    0 -0.50856474106E-01  0.18892252391E-01  0.10129959454E+00  0.88747107334E+00  0.88000000000E+00 0. -1.
        -11    1    4    4    0    0  0.45839520305E-01 -0.59182474553E-02 -0.58872970516E-01  0.74850351055E-01  0.51100000000E-03 0.  1.
         11    1    4    4    0    0  0.20872576551E-01  0.20525042019E-02 -0.53246872611E-01  0.57230829010E-01  0.51100000000E-03 0. -1.
</event>
<event>
 8    1  0.1065239E+005  0.1043930E+01  0.7957747E-01            NaN
         13   -1    0    0    0    0  0.00000000000E+00  0.00000000000E+00  0.74505805969E-08  0.10566000000E+00  0.10566000000E+00 0. -1.
     999900   -1    0    0    0    0 -0.00000000000E+00 -0.00000000000E+00 -0.74505805969E-08  0.93827000000E+00  0.93827000000E+00 0.  1.
     999902    2    1    2    0    0  0.98218256003E-02 -0.21173099651E-01 -0.34275209939E-02  0.10203394021E+01  0.10200666543E+01 0.  0.
     999903    2    3    3    0    0  0.85768513704E-01  0.58623153798E-01  0.75435242542E-01  0.12997168206E+00  0.20229933659E-01 0.  0.
         14    1    1    2    0    0 -0.98218256003E-02  0.21173099651E-01  0.34275209939E-02  0.23590597854E-01  0.00000000000E+00 0. -1.
     999901    1    3    3    0    0 -0.75946688104E-01 -0.79796253449E-01 -0.78862763536E-01  0.89036772009E+00  0.88000000000E+00 0.  1.
        -11    1    4    4    0    0  0.40949164372E-01  0.28044887870E-01  0.48493227428E-01  0.69391671156E-01  0.51100000000E-03 0. -1.
         11    1    4    4    0    0  0.44819349333E-01  0.30578265928E-01  0.26942015114E-01  0.60580010904E-01  0.51100000000E-03 0.  1.
</event>
<event>
 8    1  0.1065239E+005  0.1043930E+01  0.7957747E-01            NaN
         13   -1    0    0    0    0  0.00000000000E+00  0.00000000000E+00  0.74505805969E-08  0.10566000000E+00  0.10566000000E+00 0.  1.
     999900   -1    0    0    0    0 -0.00000000000E+00 -0.00000000000E+00 -0.74505805969E-08  0.93827000000E+00  0.93827000000E+00 0. -1.
     999902    2    1    2    0    0  0.22243402715E-01 -0.71219064730E-02  0.36326634222E-02  0.10202934444E+01  0.10200196204E+01 0.  0.
     999903    2    3    3    0    0  0.12782720878E+00 -0.32614613634E-01  0.44925074841E-02  0.13361505991E+00  0.20719393904E-01 0.  0.
         14    1    1    2    0    0 -0.22243402715E-01  0.71219064730E-02 -0.36326634222E-02  0.23636555580E-01  0.00000000000E+00 0.  1.
     999901    1    3    3    0    0 -0.10558380607E+00  0.25492707161E-01 -0.85984406195E-03  0.88667838451E+00  0.88000000000E+00 0. -1.
        -11    1    4    4    0    0  0.56406958946E-01 -0.24811495957E-01 -0.45408516318E-04  0.61624820747E-01  0.51100000000E-03 0. -1.
         11    1    4    4    0    0  0.71420249837E-01 -0.78031176771E-02  0.45379160004E-02  0.71990239164E-01  0.51100000000E-03 0.  1.
</event>
<event>
 8    1  0.1065239E+005  0.1043930E+01  0.7957747E-01            NaN
         13   -1    0    0    0    0  0.00000000000E+00  0.00000000000E+00  0.74505805969E-08  0.10566000000E+00  0.10566000000E+00 0.  1.
     999900   -1    0    0    0    0 -0.00000000000E+00 -0.00000000000E+00 -0.74505805969E-08  0.93827000000E+00  0.93827000000E+00 0. -1.
     999902    2    1    2    0    0  0.58419055093E-02 -0.23890337495E-01 -0.30822113014E-03  0.10193338400E+01  0.10190370486E+01 0.  0.
     999903    2    3    3    0    0  0.81458426810E-01 -0.99645862573E-01  0.22318664554E-01  0.13255949791E+00  0.22563786720E-01 0.  0.
         14    1    1    2    0    0 -0.58419055093E-02  0.23890337495E-01  0.30822113014E-03  0.24596159982E-01  0.00000000000E+00 0. -1.
     999901    1    3    3    0    0 -0.75616521301E-01  0.75755525077E-01 -0.22626885684E-01  0.88677434211E+00  0.88000000000E+00 0. -1.
        -11    1    4    4    0    0  0.77114552305E-01 -0.84631042013E-01  0.23475635422E-01  0.11687785945E+00  0.51100000000E-03 0.  1.
         11    1    4    4    0    0  0.43438745055E-02 -0.15014820559E-01 -0.11569708680E-02  0.15681638458E-01  0.51100000000E-03 0. -1.
</event>
<event>
 8    1  0.1065239E+005  0.1043930E+01  0.7957747E-01            NaN
         13   -1    0    0    0    0  0.00000000000E+00  0.00000000000E+00  0.74505805969E-08  0.10566000000E+00  0.10566000000E+00 0. -1.
     999900   -1    0    0    0    0 -0.00000000000E+00 -0.00000000000E+00 -0.74505805969E-08  0.93827000000E+00  0.93827000000E+00 0. -1.
     999902    2    1    2    0    0 -0.93662864801E-02  0.60762286328E-02 -0.20021406305E-01  0.10210061132E+01  0.10207487343E+01 0.  0.
     999903    2    3    3    0    0  0.87456251978E-01 -0.78178744235E-01  0.49511398578E-01  0.12898127307E+00  0.20598013335E-01 0.  0.
         14    1    1    2    0    0  0.93662864801E-02 -0.60762286328E-02  0.20021406305E-01  0.22923886827E-01  0.00000000000E+00 0. -1.
     999901    1    3    3    0    0 -0.96822538458E-01  0.84254972868E-01 -0.69532804883E-01  0.89202484010E+00  0.88000000000E+00 0. -1.
        -11    1    4    4    0    0  0.53094392968E-02 -0.12817499647E-01  0.32309936748E-02  0.14254083064E-01  0.51100000000E-03 0.  1.
         11    1    4    4    0    0  0.82146812681E-01 -0.65361244588E-01  0.46280404903E-01  0.11472719001E+00  0.51100000000E-03 0. -1.
</event>
<event>
 8    1  0.1065239E+005  0.1043930E+01  0.7957747E-01            NaN
         13   -1    0    0    0    0  0.00000000000E+00  0.00000000000E+00  0.74505805969E-08  0.10566000000E+00  0.10566000000E+00 0. -1.
     999900   -1    0    0    0    0 -0.00000000000E+00 -0.00000000000E+00 -0.74505805969E-08  0.93827000000E+00  0.93827000000E+00 0.  1.
     999902    2    1    2    0    0  0.10130779673E-01  0.16698962065E-01 -0.11434329782E-01  0.10212974586E+01  0.10210466528E+01 0.  0.
     999903    2    3    3    0    0  0.87043332647E-01  0.24740220086E-01 -0.96489470111E-01  0.13382093527E+00  0.20228806844E-01 0.  0.
         14    1    1    2    0    0 -0.10130779673E-01 -0.16698962065E-01  0.11434329782E-01  0.22632541359E-01  0.00000000000E+00 0. -1.
     999901    1    3    3    0    0 -0.76912552974E-01 -0.80412580202E-02  0.85055140330E-01  0.88747652337E+00  0.88000000000E+00 0.  1.
        -11    1    4    4    0    0  0.67179328965E-01  0.17777607094E-01 -0.85143102266E-01  0.10990320532E+00  0.51100000000E-03 0. -1.
         11    1    4    4    0    0  0.19864003682E-01  0.69626129920E-02 -0.11346367845E-01  0.23917729956E-01  0.51100000000E-03 0.  1.
</event>
<event>
 8    1  0.1065239E+005  0.1043930E+01  0.7957747E-01            NaN
         13   -1    0    0    0    0  0.00000000000E+00  0.00000000000E+00  0.74505805969E-08  0.10566000000E+00  0.10566000000E+00 0. -1.
     999900   -1    0    0    0    0 -0.00000000000E+00 -0.00000000000E+00 -0.74505805969E-08  0.93827000000E+00  0.93827000000E+00 0.  1.
     999902    2    1    2    0    0 -0.20279332504E-01 -0.12169502530E-01  0.19911082723E-02  0.10201957920E+01  0.10199196740E+01 0.  0.
     999903    2    3    3    0    0  0.47504026555E-01  0.61684350311E-01  0.10098184419E+00  0.12898978821E+00  0.19479245207E-01 0.  0.
         14    1    1    2    0    0  0.20279332504E-01  0.12169502530E-01 -0.19911082723E-02  0.23734208029E-01  0.00000000000E+00 0. -1.
     999901    1    3    3    0    0 -0.67783359059E-01 -0.73853852841E-01 -0.98990735917E-01  0.89120600376E+00  0.88000000000E+00 0.  1.
        -11    1    4    4    0    0  0.12814559033E-01  0.24083081901E-01  0.22805836086E-01  0.35560863848E-01  0.51100000000E-03 0. -1.
         11    1    4    4    0    0  0.34689467523E-01  0.37601268410E-01  0.78176008104E-01  0.93428924360E-01  0.51100000000E-03 0.  1.
</event>
<event>
 8    1  0.1065239E+005  0.1043930E+01  0.7957747E-01            NaN
         13   -1    0    0    0    0  0.00000000000E+00  0.00000000000E+00  0.74505805969E-08  0.10566000000E+00  0.10566000000E+00 0.  1.
     999900   -1    0    0    0    0 -0.00000000000E+00 -0.00000000000E+00 -0.74505805969E-08  0.93827000000E+00  0.93827000000E+00 0.  1.
     999902    2    1    2    0    0 -0.44239692560E-02  0.22369886491E-01 -0.77514746058E-02  0.10198453849E+01  0.10195609547E+01 0.  0.
     999903    2    3    3    0    0  0.19178656148E-01 -0.95941664360E-01  0.79136959687E-01  0.12737448510E+00  0.19722506280E-01 0.  0.
         14    1    1    2    0    0  0.44239692560E-02 -0.22369886491E-01  0.77514746058E-02  0.24084615092E-01  0.00000000000E+00 0.  1.
     999901    1    3    3    0    0 -0.23602625404E-01  0.11831155085E+00 -0.86888434292E-01  0.89247089981E+00  0.88000000000E+00 0.  1.
        -11    1    4    4    0    0  0.22231011171E-01 -0.85634166824E-01  0.65930230305E-01  0.11033804772E+00  0.51100000000E-03 0. -1.
         11    1    4    4    0    0 -0.30523550236E-02 -0.10307497536E-01  0.13206729381E-01  0.17036437380E-01  0.51100000000E-03 0.  1.
</event>
<event>
 8    1  0.1065239E+005  0.1043930E+01  0.7957747E-01            NaN
         13   -1    0    0    0    0  0.00000000000E+00  0.00000000000E+00  0.74505805969E-08  0.10566000000E+00  0.10566000000E+00 0.  1.
     999900   -1    0    0    0    0 -0.00000000000E+00 -0.00000000000E+00 -0.74505805969E-08  0.93827000000E+00  0.93827000000E+00 0.  1.
     999902    2    1    2    0    0  0.23967622184E-01 -0.89209842988E-03 -0.90665805587E-03  0.10199286504E+01  0.10196462069E+01 0.  0.
     999903    2    3    3    0    0 -0.33803448466E-01 -0.80032045482E-01  0.93859675305E-01  0.12943368370E+00  0.19890660991E-01 0.  0.
         14    1    1    2    0    0 -0.23967622184E-01  0.89209842988E-03  0.90665805587E-03  0.24001349579E-01  0.00000000000E+00 0.  1.
     999901    1    3    3    0    0  0.57771070650E-01  0.79139947052E-01 -0.94766333361E-01  0.89049496672E+00  0.88000000000E+00 0.  1.
        -11    1    4    4    0    0 -0.28650036769E-02 -0.24526217920E-01  0.18511812197E-01  0.30865707887E-01  0.51100000000E-03 0.  1.
         11    1    4    4    0    0 -0.30938444789E-01 -0.55505827562E-01  0.75347863107E-01  0.98567975809E-01  0.51100000000E-03 0. -1.
</event>
<event>
 8    1  0.1065239E+005  0.1043930E+01  0.7957747E-01            NaN
         13   -1    0    0    0    0  0.00000000000E+00  0.00000000000E+00  0.74505805969E-08  0.10566000000E+00  0.10566000000E+00 0.  1.
     999900   -1    0    0    0    0 -0.00000000000E+00 -0.00000000000E+00 -0.74505805969E-08  0.93827000000E+00  0.93827000000E+00 0.  1.
     999902    2    1    2    0    0 -0.12067374898E-02 -0.21417695648E-01 -0.13429762046E-01  0.10186212582E+01  0.10183067982E+01 0.  0.
     999903    2    3    3    0    0  0.51126842253E-02  0.11116723089E+00 -0.59289389775E-01  0.12748613754E+00  0.18793370194E-01 0.  0.
         14    1    1    2    0    0  0.12067374898E-02  0.21417695648E-01  0.13429762046E-01  0.25308741787E-01  0.00000000000E+00 0.  1.
     999901    1    3    3    0    0 -0.63194217151E-02 -0.13258492653E+00  0.45859627729E-01  0.89113512067E+00  0.88000000000E+00 0.  1.
        -11    1    4    4    0    0  0.41694068775E-02  0.92390895883E-01 -0.56747781489E-01  0.10850821822E+00  0.51100000000E-03 0. -1.
         11    1    4    4    0    0  0.94327734789E-03  0.18776335002E-01 -0.25416082851E-02  0.18977919326E-01  0.51100000000E-03 0.  1.
</event>
<event>
 8    1  0.1065239E+005  0.1043930E+01  0.7957747E-01            NaN
         13   -1    0    0    0    0  0.00000000000E+00  0.00000000000E+00  0.74505805969E-08  0.10566000000E+00  0.10566000000E+00 0.  1.
     999900   -1    0    0    0    0 -0.00000000000E+00 -0.00000000000E+00 -0.74505805969E-08  0.93827000000E+00  0.93827000000E+00 0. -1.
     999902    2    1    2    0    0  0.26427984596E-01  0.66693941654E-02 -0.63072275927E-02  0.10159532184E+01  0.10155679405E+01 0.  0.
     999903    2    3    3    0    0  0.99964327610E-01  0.79019053648E-01 -0.16145773138E-01  0.12987259908E+00  0.19217917879E-01 0.  0.
         14    1    1    2    0    0 -0.26427984596E-01 -0.66693941654E-02  0.63072275927E-02  0.27976781592E-01  0.00000000000E+00 0.  1.
     999901    1    3    3    0    0 -0.73536343014E-01 -0.72349659482E-01  0.98385455457E-02  0.88608061933E+00  0.88000000000E+00 0.  1.
        -11    1    4    4    0    0  0.12165862083E-01  0.18137892066E-01 -0.53079340568E-02  0.22481695083E-01  0.51100000000E-03 0. -1.
         11    1    4    4    0    0  0.87798465527E-01  0.60881161581E-01 -0.10837839082E-01  0.10739090400E+00  0.51100000000E-03 0.  1.
</event>
<event>
 8    1  0.1065239E+005  0.1043930E+01  0.7957747E-01            NaN
         13   -1    0    0    0    0  0.00000000000E+00  0.00000000000E+00  0.74505805969E-08  0.10566000000E+00  0.10566000000E+00 0.  1.
     999900   -1    0    0    0    0 -0.00000000000E+00 -0.00000000000E+00 -0.74505805969E-08  0.93827000000E+00  0.93827000000E+00 0. -1.
     999902    2    1    2    0    0 -0.17246625064E-01  0.52055974961E-02 -0.15021592928E-01  0.10204738158E+01  0.10202042032E+01 0.  0.
     999903    2    3    3    0    0  0.68266804566E-01  0.87465605044E-01 -0.68301964636E-01  0.13091322009E+00  0.12748496032E-01 0.  0.
         14    1    1    2    0    0  0.17246625064E-01 -0.52055974961E-02  0.15021592928E-01  0.23456184163E-01  0.00000000000E+00 0.  1.
     999901    1    3    3    0    0 -0.85513429630E-01 -0.82260007548E-01  0.53280371708E-01  0.88956059574E+00  0.88000000000E+00 0.  1.
        -11    1    4    4    0    0  0.19648803768E-01  0.27044440953E-01 -0.27446414431E-01  0.43255566833E-01  0.51100000000E-03 0.  1.
         11    1    4    4    0    0  0.48618000798E-01  0.60421164091E-01 -0.40855550205E-01  0.87657653261E-01  0.51100000000E-03 0. -1.
</event>
<event>
 8    1  0.1065239E+005  0.1043930E+01  0.7957747E-01            NaN
         13   -1    0    0    0    0  0.00000000000E+00  0.00000000000E+00  0.74505805969E-08  0.10566000000E+00  0.10566000000E+00 0. -1.
     999900   -1    0    0    0    0 -0.00000000000E+00 -0.00000000000E+00 -0.74505805969E-08  0.93827000000E+00  0.93827000000E+00 0. -1.
     999902    2    1    2    0    0  0.21238335281E-01 -0.82147662022E-02 -0.19918697619E-02  0.10210713733E+01  0.10208154743E+01 0.  0.
     999903    2    3    3    0    0  0.59581735304E-01  0.41953896689E-01  0.10826334904E+00  0.13194634029E+00  0.19462048769E-01 0.  0.
         14    1    1    2    0    0 -0.21238335281E-01  0.82147662022E-02  0.19918697619E-02  0.22858626696E-01  0.00000000000E+00 0.  1.
     999901    1    3    3    0    0 -0.38343400023E-01 -0.50168662891E-01 -0.11025521880E+00  0.88912503301E+00  0.88000000000E+00 0. -1.
        -11    1    4    4    0    0  0.59284743145E-02  0.12930767178E-01  0.16996012277E-01  0.22169282844E-01  0.51100000000E-03 0.  1.
         11    1    4    4    0    0  0.53653260989E-01  0.29023129511E-01  0.91267336759E-01  0.10977705745E+00  0.51100000000E-03 0. -1.
</event>
<event>
 7    1  0.1065239E+005  0.1043930E+01  0.7957747E-01            NaN
         13   -1    0    0    0    0  0.00000000000E+00  0.00000000000E+00  0.74505805969E-08  0.10566000000E+00  0.10566000000E+00 0.  1.
     999900   -1    0    0    0    0 -0.00000000000E+00 -0.00000000000E+00 -0.74505805969E-08  0.93827000000E+00  0.93827000000E+00 0. -1.
     999903    2    1    2    0    0  0.71218228279E-01 -0.74365043057E-01 -0.36656448521E-01  0.11108524285E+00  0.19850448156E-01 0.  0.
         14    1    1    2    0    0 -0.44956558555E-01 -0.92448659351E-02 -0.11040217104E-01  0.47206420082E-01  0.00000000000E+00 0. -1.
     999901    1    1    2    0    0 -0.26261669724E-01  0.83609908992E-01  0.47696665626E-01  0.88563833707E+00  0.88000000000E+00 0. -1.
        -11    1    3    3    0    0  0.51396099184E-01 -0.60444683949E-01 -0.20447279076E-01  0.81935774675E-01  0.51100000000E-03 0. -1.
         11    1    3    3    0    0  0.19822129095E-01 -0.13920359108E-01 -0.16209169445E-01  0.29149468171E-01  0.51100000000E-03 0.  1.
</event>
<event>
 8    1  0.1065239E+005  0.1043930E+01  0.7957747E-01            NaN
         13   -1    0    0    0    0  0.00000000000E+00  0.00000000000E+00  0.74505805969E-08  0.10566000000E+00  0.10566000000E+00 0.  1.
     999900   -1    0    0    0    0 -0.00000000000E+00 -0.00000000000E+00 -0.74505805969E-08  0.93827000000E+00  0.93827000000E+00 0. -1.
     999902    2    1    2    0    0 -0.67409412325E-02 -0.16462587281E-01 -0.13774395172E-01  0.10214313105E+01  0.10211834952E+01 0.  0.
     999903    2    3    3    0    0  0.10397645566E+00 -0.78300156461E-01 -0.13168706558E-01  0.13234042996E+00  0.19963885746E-01 0.  0.
         14    1    1    2    0    0  0.67409412325E-02  0.16462587281E-01  0.13774395172E-01  0.22498689540E-01  0.00000000000E+00 0.  1.
     999901    1    3    3    0    0 -0.11071739690E+00  0.61837569180E-01 -0.60568861347E-03  0.88909088050E+00  0.88000000000E+00 0. -1.
        -11    1    4    4    0    0  0.77521322286E-02 -0.72286980150E-02 -0.66772281519E-02  0.12537787918E-01  0.51100000000E-03 0. -1.
         11    1    4    4    0    0  0.96224323436E-01 -0.71071458446E-01 -0.64914784064E-02  0.11980264204E+00  0.51100000000E-03 0.  1.
</event>
<event>
 8    1  0.1065239E+005  0.1043930E+01  0.7957747E-01            NaN
         13   -1    0    0    0    0  0.00000000000E+00  0.00000000000E+00  0.74505805969E-08  0.10566000000E+00  0.10566000000E+00 0.  1.
     999900   -1    0    0    0    0 -0.00000000000E+00 -0.00000000000E+00 -0.74505805969E-08  0.93827000000E+00  0.93827000000E+00 0. -1.
     999902    2    1    2    0    0 -0.22914109922E-01 -0.84414643885E-02  0.78555261046E-02  0.10182780206E+01  0.10179548631E+01 0.  0.
     999903    2    3    3    0    0  0.10720991574E+00 -0.58220173090E-01  0.29202719413E-01  0.12706206222E+00  0.20209261409E-01 0.  0.
         14    1    1    2    0    0  0.22914109922E-01  0.84414643885E-02 -0.78555261046E-02  0.25651979357E-01  0.00000000000E+00 0. -1.
     999901    1    3    3    0    0 -0.13012402566E+00  0.49778708701E-01 -0.21347193308E-01  0.89121595843E+00  0.88000000000E+00 0.  1.
        -11    1    4    4    0    0  0.38632505483E-01 -0.11223126194E-01  0.13627269824E-01  0.42478143148E-01  0.51100000000E-03 0.  1.
         11    1    4    4    0    0  0.68577410253E-01 -0.46997046896E-01  0.15575449589E-01  0.84583919068E-01  0.51100000000E-03 0. -1.
</event>
<event>
 8    1  0.1065239E+005  0.1043930E+01  0.7957747E-01            NaN
         13   -1    0    0    0    0  0.00000000000E+00  0.00000000000E+00  0.74505805969E-08  0.10566000000E+00  0.10566000000E+00 0. -1.
     999900   -1    0    0    0    0 -0.00000000000E+00 -0.00000000000E+00 -0.74505805969E-08  0.93827000000E+00  0.93827000000E+00 0.  1.
     999902    2    1    2    0    0  0.51932274577E-02 -0.89390060673E-03  0.22847343489E-01  0.10204828301E+01  0.10202134271E+01 0.  0.
     999903    2    3    3    0    0  0.12747706760E+00  0.18209830066E-01  0.19428413233E-01  0.13181529998E+00  0.20391404866E-01 0.  0.
         14    1    1    2    0    0 -0.51932274577E-02  0.89390060673E-03 -0.22847343489E-01  0.23447169855E-01  0.00000000000E+00 0.  1.
     999901    1    3    3    0    0 -0.12228384014E+00 -0.19103730673E-01  0.34189302562E-02  0.88866753017E+00  0.88000000000E+00 0.  1.
        -11    1    4    4    0    0  0.94956781458E-01  0.19733270893E-01  0.80335780511E-02  0.97319020866E-01  0.51100000000E-03 0. -1.
         11    1    4    4    0    0  0.32520286145E-01 -0.15234408274E-02  0.11394835181E-01  0.34496279114E-01  0.51100000000E-03 0.  1.
</event>
<event>
 8    1  0.1065239E+005  0.1043930E+01  0.7957747E-01            NaN
         13   -1    0    0    0    0  0.00000000000E+00  0.00000000000E+00  0.74505805969E-08  0.10566000000E+00  0.10566000000E+00 0.  1.
     999900   -1    0    0    0    0 -0.00000000000E+00 -0.00000000000E+00 -0.74505805969E-08  0.93827000000E+00  0.93827000000E+00 0. -1.
     999902    2    1    2    0    0  0.14210992023E-01 -0.76277862807E-02  0.17393897373E-01  0.10202090581E+01  0.10199332523E+01 0.  0.
     999903    2    3    3    0    0  0.84826765652E-02  0.12058597291E+00 -0.40280365674E-01  0.12903124070E+00  0.20337663391E-01 0.  0.
         14    1    1    2    0    0 -0.14210992023E-01  0.76277862807E-02 -0.17393897373E-01  0.23720941879E-01  0.00000000000E+00 0. -1.
     999901    1    3    3    0    0  0.57283154576E-02 -0.12821375920E+00  0.57674263048E-01  0.89117781742E+00  0.88000000000E+00 0.  1.
        -11    1    4    4    0    0  0.14238022294E-01  0.57743057723E-01 -0.19639223024E-01  0.62633395214E-01  0.51100000000E-03 0. -1.
         11    1    4    4    0    0 -0.57553457292E-02  0.62842915192E-01 -0.20641142650E-01  0.66397845486E-01  0.51100000000E-03 0.  1.
</event>
<event>
 8    1  0.1065239E+005  0.1043930E+01  0.7957747E-01            NaN
         13   -1    0    0    0    0  0.00000000000E+00  0.00000000000E+00  0.74505805969E-08  0.10566000000E+00  0.10566000000E+00 0.  1.
     999900   -1    0    0    0    0 -0.00000000000E+00 -0.00000000000E+00 -0.74505805969E-08  0.93827000000E+00  0.93827000000E+00 0.  1.
     999902    2    1    2    0    0 -0.74035548774E-02  0.12119707448E-01 -0.21864958260E-01  0.10178574793E+01  0.10175234994E+01 0.  0.
     999903    2    3    3    0    0 -0.81283653168E-01 -0.33579008656E-01 -0.94486669388E-01  0.13060297555E+00  0.19870189645E-01 0.  0.
         14    1    1    2    0    0  0.74035548774E-02 -0.12119707448E-01  0.21864958260E-01  0.26072520652E-01  0.00000000000E+00 0.  1.
     999901    1    3    3    0    0  0.73880098290E-01  0.45698716105E-01  0.72621711129E-01  0.88725450379E+00  0.88000000000E+00 0. -1.
        -11    1    4    4    0    0 -0.71345914845E-01 -0.34466973654E-01 -0.77139661555E-01  0.11058481064E+00  0.51100000000E-03 0.  1.
         11    1    4    4    0    0 -0.99377383225E-02  0.88796499747E-03 -0.17347007833E-01  0.20018164915E-01  0.51100000000E-03 0. -1.
</event>
<event>
 8    1  0.1065239E+005  0.1043930E+01  0.7957747E-01            NaN
         13   -1    0    0    0    0  0.00000000000E+00  0.00000000000E+00  0.74505805969E-08  0.10566000000E+00  0.10566000000E+00 0.  1.
     999900   -1    0    0    0    0 -0.00000000000E+00 -0.00000000000E+00 -0.74505805969E-08  0.93827000000E+00  0.93827000000E+00 0.  1.
     999902    2    1    2    0    0  0.27254657777E-02 -0.16785612023E-01 -0.22397829936E-01  0.10158079851E+01  0.10154186402E+01 0.  0.
     999903    2    3    3    0    0  0.75837249800E-01  0.35434489804E-01  0.89579217658E-01  0.12417401808E+00  0.19694136330E-01 0.  0.
         14    1    1    2    0    0 -0.27254657777E-02  0.16785612023E-01  0.22397829936E-01  0.28122014873E-01  0.00000000000E+00 0.  1.
     999901    1    3    3    0    0 -0.73111784023E-01 -0.52220101827E-01 -0.11197704759E+00  0.89163396704E+00  0.88000000000E+00 0.  1.
        -11    1    4    4    0    0  0.21439035648E-01  0.84850831322E-02  0.13085127882E-01  0.26516232349E-01  0.51100000000E-03 0. -1.
         11    1    4    4    0    0  0.54398214152E-01  0.26949406672E-01  0.76494089776E-01  0.97657785735E-01  0.51100000000E-03 0.  1.
</event>
<event>
 8    1  0.1065239E+005  0.1043930E+01  0.7957747E-01            NaN
         13   -1    0    0    0    0  0.00000000000E+00  0.00000000000E+00  0.74505805969E-08  0.10566000000E+00  0.10566000000E+00 0. -1.
     999900   -1    0    0    0    0 -0.00000000000E+00 -0.00000000000E+00 -0.74505805969E-08  0.93827000000E+00  0.93827000000E+00 0.  1.
     999902    2    1    2    0    0 -0.12136147511E-01 -0.17736828866E-01  0.11000068398E-01  0.10197870366E+01  0.10195012101E+01 0.  0.
     999903    2    3    3    0    0 -0.26237570821E-01 -0.25066300495E-01 -0.12279710103E+00  0.12953187444E+00  0.19561414328E-01 0.  0.
         14    1    1    2    0    0  0.12136147511E-01  0.17736828866E-01 -0.11000068398E-01  0.24142963352E-01  0.00000000000E+00 0. -1.
     999901    1    3    3    0    0  0.14101423310E-01  0.73294716294E-02  0.13379716943E+00  0.89025516221E+00  0.88000000000E+00 0. -1.
        -11    1    4    4    0    0 -0.12248622294E-01 -0.20163591221E-01 -0.96469989386E-01  0.99314244357E-01  0.51100000000E-03 0.  1.
         11    1    4    4    0    0 -0.13988948527E-01 -0.49027092741E-02 -0.26327111646E-01  0.30217630081E-01  0.51100000000E-03 0. -1.
</event>
<event>
 8    1  0.1065239E+005  0.1043930E+01  0.7957747E-01            NaN
         13   -1    0    0    0    0  0.00000000000E+00  0.00000000000E+00  0.74505805969E-08  0.10566000000E+00  0.10566000000E+00 0.  1.
     999900   -1    0    0    0    0 -0.00000000000E+00 -0.00000000000E+00 -0.74505805969E-08  0.93827000000E+00  0.93827000000E+00 0. -1.
     999902    2    1    2    0    0  0.14969907946E-02 -0.17165158465E-01 -0.16031730117E-01  0.10203949194E+01  0.10201234688E+01 0.  0.
     999903    2    3    3    0    0  0.92486917889E-01  0.87159480511E-01 -0.13086288874E-01  0.12956863292E+00  0.21591078157E-01 0.  0.
         14    1    1    2    0    0 -0.14969907946E-02  0.17165158465E-01  0.16031730117E-01  0.23535080563E-01  0.00000000000E+00 0. -1.
     999901    1    3    3    0    0 -0.90989927094E-01 -0.10432463898E+00 -0.29454412438E-02  0.89082628652E+00  0.88000000000E+00 0. -1.
        -11    1    4    4    0    0  0.38228537365E-01  0.28315437964E-01  0.39276385622E-02  0.47737538288E-01  0.51100000000E-03 0.  1.
         11    1    4    4    0    0  0.54258380524E-01  0.58844042547E-01 -0.17013927436E-01  0.81831094629E-01  0.51100000000E-03 0. -1.
</event>
<event>
 8    1  0.1065239E+005  0.1043930E+01  0.7957747E-01            NaN
         13   -1    0    0    0    0  0.00000000000E+00  0.00000000000E+00  0.74505805969E-08  0.10566000000E+00  0.10566000000E+00 0. -1.
     999900   -1    0    0    0    0 -0.00000000000E+00 -0.00000000000E+00 -0.74505805969E-08  0.93827000000E+00  0.93827000000E+00 0.  1.
     999902    2    1    2    0    0  0.16655277425E-01 -0.86890309991E-02  0.14518350387E-01  0.10201880535E+01  0.10199117533E+01 0.  0.
     999903    2    3    3    0    0  0.40160054041E-01 -0.11158334098E+00  0.56234543570E-01  0.13290007639E+00  0.20891014513E-01 0.  0.
         14    1    1    2    0    0 -0.16655277425E-01  0.86890309991E-02 -0.14518350387E-01  0.23741946503E-01  0.00000000000E+00 0.  1.
     999901    1    3    3    0    0 -0.23504776617E-01  0.10289430998E+00 -0.41716193183E-01  0.88728797711E+00  0.88000000000E+00 0.  1.
        -11    1    4    4    0    0  0.16245955618E-01 -0.66654598624E-01  0.24158722332E-01  0.72737002807E-01  0.51100000000E-03 0.  1.
         11    1    4    4    0    0  0.23914098424E-01 -0.44928742359E-01  0.32075821239E-01  0.60163073580E-01  0.51100000000E-03 0. -1.
</event>
<event>
 7    1  0.1065239E+005  0.1043930E+01  0.7957747E-01            NaN
         13   -1    0    0    0    0  0.00000000000E+00  0.00000000000E+00  0.74505805969E-08  0.10566000000E+00  0.10566000000E+00 0.  1.
     999900   -1    0    0    0    0 -0.00000000000E+00 -0.00000000000E+00 -0.74505805969E-08  0.93827000000E+00  0.93827000000E+00 0. -1.
     999902    2    1    2    0    0 -0.10724117100E-01  0.21185779101E-01  0.18529663109E-02  0.10201124139E+01  0.10198343295E+01 0.  0.
         14    1    1    2    0    0  0.10724117100E-01 -0.21185779101E-01 -0.18529663109E-02  0.23817586104E-01  0.00000000000E+00 0.  1.
     999901    1    3    3    0    0  0.55001837376E-01 -0.17563158186E-01 -0.97705885179E-01  0.88728806294E+00  0.88000000000E+00 0. -1.
        -11    1    3    3    0    0 -0.68153892081E-01  0.28884189803E-01  0.71247161293E-01  0.10274078323E+00  0.51100000000E-03 0. -1.
         11    1    3    3    0    0  0.24279376039E-02  0.98647474840E-02  0.28311690197E-01  0.30083567720E-01  0.51100000000E-03 0.  1.
</event>
<event>
 8    1  0.1065239E+005  0.1043930E+01  0.7957747E-01            NaN
         13   -1    0    0    0    0  0.00000000000E+00  0.00000000000E+00  0.74505805969E-08  0.10566000000E+00  0.10566000000E+00 0. -1.
     999900   -1    0    0    0    0 -0.00000000000E+00 -0.00000000000E+00 -0.74505805969E-08  0.93827000000E+00  0.93827000000E+00 0.  1.
     999902    2    1    2    0    0 -0.19924169580E-01 -0.83592603722E-02  0.92418658403E-02  0.10204297478E+01  0.10201591094E+01 0.  0.
     999903    2    3    3    0    0  0.12180295842E+00 -0.14840417911E-01 -0.31217961953E-01  0.12814863637E+00  0.19781637212E-01 0.  0.
         14    1    1    2    0    0  0.19924169580E-01  0.83592603722E-02 -0.92418658403E-02  0.23500252161E-01  0.00000000000E+00 0. -1.
     999901    1    3    3    0    0 -0.14172712800E+00  0.64811575390E-02  0.40459827793E-01  0.89228111147E+00  0.88000000000E+00 0.  1.
        -11    1    4    4    0    0  0.78284018810E-01 -0.18858187659E-01 -0.18393959203E-01  0.82599138609E-01  0.51100000000E-03 0. -1.
         11    1    4    4    0    0  0.43518939615E-01  0.40177697480E-02 -0.12824002749E-01  0.45549497763E-01  0.51100000000E-03 0.  1.
</event>
<event>
 8    1  0.1065239E+005  0.1043930E+01  0.7957747E-01            NaN
         13   -1    0    0    0    0  0.00000000000E+00  0.00000000000E+00  0.74505805969E-08  0.10566000000E+00  0.10566000000E+00 0.  1.
     999900   -1    0    0    0    0 -0.00000000000E+00 -0.00000000000E+00 -0.74505805969E-08  0.93827000000E+00  0.93827000000E+00 0. -1.
     999902    2    1    2    0    0 -0.92638326359E-02  0.17932596506E-01 -0.12211131510E-01  0.10203395709E+01  0.10200668270E+01 0.  0.
     999903    2    3    3    0    0 -0.61613135533E-01  0.11612794975E+00 -0.12408108605E-01  0.13333178304E+00  0.18480368689E-01 0.  0.
         14    1    1    2    0    0  0.92638326359E-02 -0.17932596506E-01  0.12211131510E-01  0.23590429104E-01  0.00000000000E+00 0. -1.
     999901    1    3    3    0    0  0.52349302897E-01 -0.98195353244E-01  0.19697709462E-03  0.88700778785E+00  0.88000000000E+00 0. -1.
        -11    1    4    4    0    0 -0.22271446677E-01  0.41600356369E-01  0.44066826721E-02  0.47395009867E-01  0.51100000000E-03 0.  1.
         11    1    4    4    0    0 -0.39341688856E-01  0.74527593381E-01 -0.16814791277E-01  0.85936773176E-01  0.51100000000E-03 0. -1.
</event>
<event>
 8    1  0.1065239E+005  0.1043930E+01  0.7957747E-01            NaN
         13   -1    0    0    0    0  0.00000000000E+00  0.00000000000E+00  0.74505805969E-08  0.10566000000E+00  0.10566000000E+00 0.  1.
     999900   -1    0    0    0    0 -0.00000000000E+00 -0.00000000000E+00 -0.74505805969E-08  0.93827000000E+00  0.93827000000E+00 0.  1.
     999902    2    1    2    0    0 -0.19271538273E-01  0.90767349138E-02 -0.44267830702E-02  0.10221728009E+01  0.10219412210E+01 0.  0.
     999903    2    3    3    0    0  0.95416699518E-01 -0.75529517384E-01  0.40381619279E-01  0.12958140349E+00  0.18751277615E-01 0.  0.
         14    1    1    2    0    0  0.19271538273E-01 -0.90767349138E-02  0.44267830702E-02  0.21757199094E-01  0.00000000000E+00 0.  1.
     999901    1    3    3    0    0 -0.11468823779E+00  0.84606252298E-01 -0.44808402350E-01  0.89259139741E+00  0.88000000000E+00 0.  1.
        -11    1    4    4    0    0  0.75757217023E-01 -0.56475682395E-01  0.38813901179E-01  0.10215399492E+00  0.51100000000E-03 0. -1.
         11    1    4    4    0    0  0.19659482494E-01 -0.19053834989E-01  0.15677181002E-02  0.27427408568E-01  0.51100000000E-03 0.  1.
</event>
<event>
 8    1  0.1065239E+005  0.1043930E+01  0.7957747E-01            NaN
         13   -1    0    0    0    0  0.00000000000E+00  0.00000000000E+00  0.74505805969E-08  0.10566000000E+00  0.10566000000E+00 0.  1.
     999900   -1    0    0    0    0 -0.00000000000E+00 -0.00000000000E+00 -0.74505805969E-08  0.93827000000E+00  0.93827000000E+00 0. -1.
     999902    2    1    2    0    0  0.12799615115E-01 -0.10886225697E-01 -0.16547516628E-01  0.10203469475E+01  0.10200743762E+01 0.  0.
     999903    2    3    3    0    0  0.95994316761E-01 -0.30151014277E-01  0.81219288233E-01  0.13082413243E+00  0.19859212791E-01 0.  0.
         14    1    1    2    0    0 -0.12799615115E-01  0.10886225697E-01  0.16547516628E-01  0.23583052464E-01  0.00000000000E+00 0.  1.
     999901    1    3    3    0    0 -0.83194701646E-01  0.19264788581E-01 -0.97766804860E-01  0.88952281511E+00  0.88000000000E+00 0. -1.
        -11    1    4    4    0    0  0.70328001712E-01 -0.29921766050E-01  0.65974591626E-01  0.10096656758E+00  0.51100000000E-03 0.  1.
         11    1    4    4    0    0  0.25666315049E-01 -0.22924822697E-03  0.15244696607E-01  0.29857564847E-01  0.51100000000E-03 0. -1.
</event>
<event>
 8    1  0.1065239E+005  0.1043930E+01  0.7957747E-01            NaN
         13   -1    0    0    0    0  0.00000000000E+00  0.00000000000E+00  0.74505805969E-08  0.10566000000E+00  0.10566000000E+00 0. -1.
     999900   -1    0    0    0    0 -0.00000000000E+00 -0.00000000000E+00 -0.74505805969E-08  0.93827000000E+00  0.93827000000E+00 0. -1.
     999902    2    1    2    0    0 -0.18893918433E-01  0.44010721379E-02  0.22115268858E-01  0.10145117284E+01  0.10140851110E+01 0.  0.
     999903    2    3    3    0    0  0.91840939830E-01 -0.44476227788E-02  0.82717095798E-01  0.12545993590E+00  0.21060341942E-01 0.  0.
         14    1    1    2    0    0  0.18893918433E-01 -0.44010721379E-02 -0.22115268858E-01  0.29418271642E-01  0.00000000000E+00 0. -1.
     999901    1    3    3    0    0 -0.11073485826E+00  0.88486949167E-02 -0.60601826939E-01  0.88905179245E+00  0.88000000000E+00 0. -1.
        -11    1    4    4    0    0  0.18522769741E-01  0.75933169467E-02  0.17207948693E-01  0.26403145274E-01  0.51100000000E-03 0.  1.
         11    1    4    4    0    0  0.73318170089E-01 -0.12040939725E-01  0.65509147105E-01  0.99056790631E-01  0.51100000000E-03 0. -1.
</event>
<event>
 8    1  0.1065239E+005  0.1043930E+01  0.7957747E-01            NaN
         13   -1    0    0    0    0  0.00000000000E+00  0.00000000000E+00  0.74505805969E-08  0.10566000000E+00  0.10566000000E+00 0.  1.
     999900   -1    0    0    0    0 -0.00000000000E+00 -0.00000000000E+00 -0.74505805969E-08  0.93827000000E+00  0.93827000000E+00 0.  1.
     999902    2    1    2    0    0 -0.52036956682E-02  0.20309935506E-01 -0.13428034799E-01  0.10190325293E+01  0.10187283307E+01 0.  0.
     999903    2    3    3    0    0 -0.45443071995E-01 -0.69277483476E-01 -0.98150467993E-01  0.12952536028E+00  0.16699164026E-01 0.  0.
         14    1    1    2    0    0  0.52036956682E-02 -0.20309935506E-01  0.13428034799E-01  0.24897470703E-01  0.00000000000E+00 0. -1.
     999901    1    3    3    0    0  0.40239376327E-01  0.89587418983E-01  0.84722433194E-01  0.88950716902E+00  0.88000000000E+00 0.  1.
        -11    1    4    4    0    0 -0.12247377754E-01 -0.33412510674E-01 -0.39049021490E-01  0.52834471055E-01  0.51100000000E-03 0.  1.
         11    1    4    4    0    0 -0.33195694240E-01 -0.35864972803E-01 -0.59101446503E-01  0.76690889224E-01  0.51100000000E-03 0. -1.
</event>
<event>
 8    1  0.1065239E+005  0.1043930E+01  0.7957747E-01            NaN
         13   -1    0    0    0    0  0.00000000000E+00  0.00000000000E+00  0.74505805969E-08  0.10566000000E+00  0.10566000000E+00 0. -1.
     999900   -1    0    0    0    0 -0.00000000000E+00 -0.00000000000E+00 -0.74505805969E-08  0.93827000000E+00  0.93827000000E+00 0.  1.
     999902    2    1    2    0    0  0.33959430107E-02  0.62380317166E-02 -0.22813269104E-01  0.10200366805E+01  0.10197568038E+01 0.  0.
     999903    2    3    3    0    0 -0.19650207870E-01 -0.99938548331E-01  0.73468157325E-01  0.12814279429E+00  0.25478647439E-01 0.  0.
         14    1    1    2    0    0 -0.33959430107E-02 -0.62380317166E-02  0.22813269104E-01  0.23893319481E-01  0.00000000000E+00 0. -1.
     999901    1    3    3    0    0  0.23046150880E-01  0.10617658005E+00 -0.96281426428E-01  0.89189388623E+00  0.88000000000E+00 0.  1.
        -11    1    4    4    0    0 -0.40736186396E-02 -0.75319465685E-01  0.58015817354E-01  0.95161507261E-01  0.51100000000E-03 0.  1.
         11    1    4    4    0    0 -0.15576589230E-01 -0.24619082646E-01  0.15452339971E-01  0.32981287027E-01  0.51100000000E-03 0. -1.
</event>
<event>
 8    1  0.1065239E+005  0.1043930E+01  0.7957747E-01            NaN
         13   -1    0    0    0    0  0.00000000000E+00  0.00000000000E+00  0.74505805969E-08  0.10566000000E+00  0.10566000000E+00 0. -1.
     999900   -1    0    0    0    0 -0.00000000000E+00 -0.00000000000E+00 -0.74505805969E-08  0.93827000000E+00  0.93827000000E+00 0.  1.
     999902    2    1    2    0    0 -0.12327095424E-01  0.11246288673E-01 -0.17858400204E-01  0.10194890764E+01  0.10191960646E+01 0.  0.
     999903    2    3    3    0    0  0.45720897836E-01 -0.10415597391E+00 -0.57840478806E-01  0.12916002576E+00  0.19948029123E-01 0.  0.
         14    1    1    2    0    0  0.12327095424E-01 -0.11246288673E-01  0.17858400204E-01  0.24440923640E-01  0.00000000000E+00 0. -1.
     999901    1    3    3    0    0 -0.58047993260E-01  0.11540226258E+00  0.39982078602E-01  0.89032905060E+00  0.88000000000E+00 0. -1.
        -11    1    4    4    0    0  0.41615725656E-01 -0.81062562711E-01 -0.52259289417E-01  0.10504428660E+00  0.51100000000E-03 0. -1.
         11    1    4    4    0    0  0.41051721793E-02 -0.23093411200E-01 -0.55811893895E-02  0.24115739165E-01  0.51100000000E-03 0.  1.
</event>
<event>
 8    1  0.1065239E+005  0.1043930E+01  0.7957747E-01            NaN
         13   -1    0    0    0    0  0.00000000000E+00  0.00000000000E+00  0.74505805969E-08  0.10566000000E+00  0.10566000000E+00 0. -1.
     999900   -1    0    0    0    0 -0.00000000000E+00 -0.00000000000E+00 -0.74505805969E-08  0.93827000000E+00  0.93827000000E+00 0.  1.
     999902    2    1    2    0    0  0.20588306777E-01  0.42710560399E-02 -0.99370533986E-02  0.10206734885E+01  0.10204084990E+01 0.  0.
     999903    2    3    3    0    0  0.61827001240E-01 -0.82930947098E-01 -0.80407848823E-01  0.13260200926E+00  0.20438949088E-01 0.  0.
         14    1    1    2    0    0 -0.20588306777E-01 -0.42710560399E-02  0.99370533986E-02  0.23256511473E-01  0.00000000000E+00 0. -1.
     999901    1    3    3    0    0 -0.41238694464E-01  0.87202003138E-01  0.70470795424E-01  0.88807147926E+00  0.88000000000E+00 0. -1.
        -11    1    4    4    0    0  0.48820057613E-01 -0.60098703254E-01 -0.48932066518E-01  0.91596181214E-01  0.51100000000E-03 0. -1.
         11    1    4    4    0    0  0.13006943627E-01 -0.22832243843E-01 -0.31475782305E-01  0.41005828051E-01  0.51100000000E-03 0.  1.
</event>
<event>
 8    1  0.1065239E+005  0.1043930E+01  0.7957747E-01            NaN
         13   -1    0    0    0    0  0.00000000000E+00  0.00000000000E+00  0.74505805969E-08  0.10566000000E+00  0.10566000000E+00 0.  1.
     999900   -1    0    0    0    0 -0.00000000000E+00 -0.00000000000E+00 -0.74505805969E-08  0.93827000000E+00  0.93827000000E+00 0. -1.
     999902    2    1    2    0    0 -0.74599710454E-03 -0.21674018045E-01 -0.87640008264E-02  0.10205392480E+01  0.10202711548E+01 0.  0.
     999903    2    3    3    0    0  0.76975838162E-01 -0.57102175822E-01  0.87350979643E-01  0.13119458615E+00  0.19896925557E-01 0.  0.
         14    1    1    2    0    0  0.74599710454E-03  0.21674018045E-01  0.87640008264E-02  0.23390752027E-01  0.00000000000E+00 0.  1.
     999901    1    3    3    0    0 -0.77721835266E-01  0.35428157777E-01 -0.96114980469E-01  0.88934466182E+00  0.88000000000E+00 0.  1.
        -11    1    4    4    0    0  0.53000720385E-01 -0.28154333306E-01  0.58475915565E-01  0.83794013315E-01  0.51100000000E-03 0. -1.
         11    1    4    4    0    0  0.23975117776E-01 -0.28947842516E-01  0.28875064077E-01  0.47400572836E-01  0.51100000000E-03 0.  1.
</event>
<event>
 8    1  0.1065239E+005  0.1043930E+01  0.7957747E-01            NaN
         13   -1    0    0    0    0  0.00000000000E+00  0.00000000000E+00  0.74505805969E-08  0.10566000000E+00  0.10566000000E+00 0. -1.
     999900   -1    0    0    0    0 -0.00000000000E+00 -0.00000000000E+00 -0.74505805969E-08  0.93827000000E+00  0.93827000000E+00 0. -1.
     999902    2    1    2    0    0 -0.90891181664E-02  0.91420079312E-02 -0.21586690239E-01  0.10187869379E+01  0.10184766326E+01 0.  0.
     999903    2    3    3    0    0 -0.33039727683E-01 -0.10074696228E+00 -0.72756982296E-01  0.13015449627E+00  0.20125615785E-01 0.  0.
         14    1    1    2    0    0  0.90891181664E-02 -0.91420079312E-02  0.21586690239E-01  0.25143062135E-01  0.00000000000E+00 0. -1.
     999901    1    3    3    0    0  0.23950609517E-01  0.10988897022E+00  0.51170292057E-01  0.88863244160E+00  0.88000000000E+00 0.  1.
        -11    1    4    4    0    0 -0.12157267421E-01 -0.31459802098E-01 -0.12458816105E-01  0.35958330313E-01  0.51100000000E-03 0. -1.
         11    1    4    4    0    0 -0.20882460262E-01 -0.69287160187E-01 -0.60298166192E-01  0.94196165954E-01  0.51100000000E-03 0.  1.
</event>
<event>
 8    1  0.1065239E+005  0.1043930E+01  0.7957747E-01            NaN
         13   -1    0    0    0    0  0.00000000000E+00  0.00000000000E+00  0.74505805969E-08  0.10566000000E+00  0.10566000000E+00 0.  1.
     999900   -1    0    0    0    0 -0.00000000000E+00 -0.00000000000E+00 -0.74505805969E-08  0.93827000000E+00  0.93827000000E+00 0.  1.
     999902    2    1    2    0    0  0.19983453313E-01 -0.96124754166E-02  0.10547460274E-01  0.10193742062E+01  0.10190784000E+01 0.  0.
     999903    2    3    3    0    0 -0.37825070274E-01 -0.84463937112E-01 -0.87496788309E-01  0.12889274016E+00  0.19818120185E-01 0.  0.
         14    1    1    2    0    0 -0.19983453313E-01  0.96124754166E-02 -0.10547460274E-01  0.24555793781E-01  0.00000000000E+00 0.  1.
     999901    1    3    3    0    0  0.57808523587E-01  0.74851461695E-01  0.98044248583E-01  0.89048146606E+00  0.88000000000E+00 0. -1.
        -11    1    4    4    0    0 -0.16957460635E-01 -0.45529291160E-01 -0.58514880355E-01  0.76057374190E-01  0.51100000000E-03 0.  1.
         11    1    4    4    0    0 -0.20867609638E-01 -0.38934645952E-01 -0.28981907954E-01  0.52835365969E-01  0.51100000000E-03 0. -1.
</event>
<event>
 8    1  0.1065239E+005  0.1043930E+01  0.7957747E-01            NaN
         13   -1    0    0    0    0  0.00000000000E+00  0.00000000000E+00  0.74505805969E-08  0.10566000000E+00  0.10566000000E+00 0. -1.
     999900   -1    0    0    0    0 -0.00000000000E+00 -0.00000000000E+00 -0.74505805969E-08  0.93827000000E+00  0.93827000000E+00 0. -1.
     999902    2    1    2    0    0  0.16985714353E-01 -0.14909024012E-01 -0.28466264905E-02  0.10211506942E+01  0.10208965881E+01 0.  0.
     999903    2    3    3    0    0  0.12782891947E+00 -0.29774802818E-01 -0.17260992746E-01  0.13395568666E+00  0.20479565010E-01 0.  0.
         14    1    1    2    0    0 -0.16985714353E-01  0.14909024012E-01  0.28466264905E-02  0.22779305771E-01  0.00000000000E+00 0. -1.
     999901    1    3    3    0    0 -0.11084320511E+00  0.14865778806E-01  0.14414366255E-01  0.88719500757E+00  0.88000000000E+00 0. -1.
        -11    1    4    4    0    0  0.75013842288E-01 -0.92177732166E-02 -0.36534848893E-02  0.75668044449E-01  0.51100000000E-03 0.  1.
         11    1    4    4    0    0  0.52815077180E-01 -0.20557029601E-01 -0.13607507857E-01  0.58287642212E-01  0.51100000000E-03 0. -1.
</event>
<event>
 8    1  0.1065239E+005  0.1043930E+01  0.7957747E-01            NaN
         13   -1    0    0    0    0  0.00000000000E+00  0.00000000000E+00  0.74505805969E-08  0.10566000000E+00  0.10566000000E+00 0. -1.
     999900   -1    0    0    0    0 -0.00000000000E+00 -0.00000000000E+00 -0.74505805969E-08  0.93827000000E+00  0.93827000000E+00 0. -1.
     999902    2    1    2    0    0 -0.63468363937E-02 -0.22888268600E-01  0.40330725591E-02  0.10198380751E+01  0.10195534702E+01 0.  0.
     999903    2    3    3    0    0  0.38787075070E-01 -0.47379060469E-01  0.11500290909E+00  0.13138370177E+00  0.16935035479E-01 0.  0.
         14    1    1    2    0    0  0.63468363937E-02  0.22888268600E-01 -0.40330725591E-02  0.24091924912E-01  0.00000000000E+00 0. -1.
     999901    1    3    3    0    0 -0.45133911464E-01  0.24490791869E-01 -0.11096983654E+00  0.88845437332E+00  0.88000000000E+00 0. -1.
        -11    1    4    4    0    0  0.24068332794E-01 -0.17028040340E-01  0.47241522676E-01  0.55688970066E-01  0.51100000000E-03 0.  1.
         11    1    4    4    0    0  0.14718742277E-01 -0.30351020129E-01  0.67761386418E-01  0.75694731702E-01  0.51100000000E-03 0. -1.
</event>
<event>
 8    1  0.1065239E+005  0.1043930E+01  0.7957747E-01            NaN
         13   -1    0    0    0    0  0.00000000000E+00  0.00000000000E+00  0.74505805969E-08  0.10566000000E+00  0.10566000000E+00 0.  1.
     999900   -1    0    0    0    0 -0.00000000000E+00 -0.00000000000E+00 -0.74505805969E-08  0.93827000000E+00  0.93827000000E+00 0.  1.
     999902    2    1    2    0    0 -0.11009508910E-01  0.22770993579E-01  0.46057691374E-03  0.10186329732E+01  0.10183188079E+01 0.  0.
     999903    2    3    3    0    0 -0.82236694238E-01  0.39904993668E-01 -0.91509381329E-01  0.13081240622E+00  0.19561092800E-01 0.  0.
         14    1    1    2    0    0  0.11009508910E-01 -0.22770993579E-01 -0.46057691374E-03  0.25297026823E-01  0.00000000000E+00 0. -1.
     999901    1    3    3    0    0  0.71227185327E-01 -0.17134000089E-01  0.91969958242E-01  0.88782056695E+00  0.88000000000E+00 0. -1.
        -11    1    4    4    0    0 -0.24101562152E-01  0.81434649656E-02 -0.14722429222E-01  0.29397489060E-01  0.51100000000E-03 0.  1.
         11    1    4    4    0    0 -0.58135132086E-01  0.31761528703E-01 -0.76786952107E-01  0.10141491716E+00  0.51100000000E-03 0. -1.
</event>
<event>
 8    1  0.1065239E+005  0.1043930E+01  0.7957747E-01            NaN
         13   -1    0    0    0    0  0.00000000000E+00  0.00000000000E+00  0.74505805969E-08  0.10566000000E+00  0.10566000000E+00 0.  1.
     999900   -1    0    0    0    0 -0.00000000000E+00 -0.00000000000E+00 -0.74505805969E-08  0.93827000000E+00  0.93827000000E+00 0. -1.
     999902    2    1    2    0    0  0.11290353644E-02 -0.27254535702E-02  0.22787196055E-01  0.10209526389E+01  0.10206940442E+01 0.  0.
     999903    2    3    3    0    0  0.12026789378E+00  0.30094765528E-01 -0.38359038976E-01  0.13021693378E+00  0.10722536291E-01 0.  0.
         14    1    1    2    0    0 -0.11290353644E-02  0.27254535702E-02 -0.22787196055E-01  0.22977361077E-01  0.00000000000E+00 0. -1.
     999901    1    3    3    0    0 -0.11913885841E+00 -0.32820219098E-01  0.61146235031E-01  0.89073570515E+00  0.88000000000E+00 0.  1.
        -11    1    4    4    0    0  0.17586972220E-01  0.76221257260E-03 -0.65656339359E-02  0.18794978847E-01  0.51100000000E-03 0. -1.
         11    1    4    4    0    0  0.10268092156E+00  0.29332552955E-01 -0.31793405041E-01  0.11142195493E+00  0.51100000000E-03 0.  1.
</event>
<event>
 8    1  0.1065239E+005  0.1043930E+01  0.7957747E-01            NaN
         13   -1    0    0    0    0  0.00000000000E+00  0.00000000000E+00  0.74505805969E-08  0.10566000000E+00  0.10566000000E+00 0. -1.
     999900   -1    0    0    0    0 -0.00000000000E+00 -0.00000000000E+00 -0.74505805969E-08  0.93827000000E+00  0.93827000000E+00 0.  1.
     999902    2    1    2    0    0  0.20022931619E-01  0.32054117090E-02  0.12833057444E-01  0.10199325039E+01  0.10196501521E+01 0.  0.
     999903    2    3    3    0    0 -0.94194897028E-01 -0.22448678921E-01 -0.79920556833E-01  0.12734801060E+00  0.21297854078E-01 0.  0.
         14    1    1    2    0    0 -0.20022931619E-01 -0.32054117090E-02 -0.12833057444E-01  0.23997496082E-01  0.00000000000E+00 0.  1.
     999901    1    3    3    0    0  0.11421782865E+00  0.25654090630E-01  0.92753614277E-01  0.89258449332E+00  0.88000000000E+00 0. -1.
        -11    1    4    4    0    0 -0.61100522704E-01 -0.15083448550E-01 -0.64433840033E-01  0.90070889621E-01  0.51100000000E-03 0.  1.
         11    1    4    4    0    0 -0.33094374324E-01 -0.73652303709E-02 -0.15486716800E-01  0.37277120980E-01  0.51100000000E-03 0. -1.
</event>
<event>
 8    1  0.1065239E+005  0.1043930E+01  0.7957747E-01            NaN
         13   -1    0    0    0    0  0.00000000000E+00  0.00000000000E+00  0.74505805969E-08  0.10566000000E+00  0.10566000000E+00 0.  1.
     999900   -1    0    0    0    0 -0.00000000000E+00 -0.00000000000E+00 -0.74505805969E-08  0.93827000000E+00  0.93827000000E+00 0. -1.
     999902    2    1    2    0    0  0.76268876462E-02  0.12503537610E-02 -0.22196278362E-01  0.10204266476E+01  0.10201559369E+01 0.  0.
     999903    2    3    3    0    0 -0.81783450258E-01  0.32436111938E-01  0.91183430178E-01  0.12811408000E+00  0.18925259863E-01 0.  0.
         14    1    1    2    0    0 -0.76268876462E-02 -0.12503537610E-02  0.22196278362E-01  0.23503352374E-01  0.00000000000E+00 0.  1.
     999901    1    3    3    0    0  0.89410337904E-01 -0.31185758177E-01 -0.11337970854E+00  0.89231256763E+00  0.88000000000E+00 0.  1.
        -11    1    4    4    0    0 -0.41568313846E-01  0.97731880246E-02  0.33774272154E-01  0.54446326788E-01  0.51100000000E-03 0.  1.
         11    1    4    4    0    0 -0.40215136412E-01  0.22662923914E-01  0.57409158025E-01  0.73667753210E-01  0.51100000000E-03 0. -1.
</event>
<event>
 8    1  0.1065239E+005  0.1043930E+01  0.7957747E-01            NaN
         13   -1    0    0    0    0  0.00000000000E+00  0.00000000000E+00  0.74505805969E-08  0.10566000000E+00  0.10566000000E+00 0.  1.
     999900   -1    0    0    0    0 -0.00000000000E+00 -0.00000000000E+00 -0.74505805969E-08  0.93827000000E+00  0.93827000000E+00 0. -1.
     999902    2    1    2    0    0 -0.18654484649E-01  0.15005225193E-01 -0.25762764741E-02  0.10198513003E+01  0.10195670115E+01 0.  0.
     999903    2    3    3    0    0 -0.12512847596E+00  0.27542541432E-01 -0.29566443036E-01  0.13293396239E+00  0.19532964930E-01 0.  0.
         14    1    1    2    0    0  0.18654484649E-01 -0.15005225193E-01  0.25762764741E-02  0.24078699738E-01  0.00000000000E+00 0. -1.
     999901    1    3    3    0    0  0.10647399131E+00 -0.12537316239E-01  0.26990166562E-01  0.88691733787E+00  0.88000000000E+00 0.  1.
        -11    1    4    4    0    0 -0.16017301654E-01  0.73603705886E-02 -0.99560084722E-02  0.20251227943E-01  0.51100000000E-03 0.  1.
         11    1    4    4    0    0 -0.10911117430E+00  0.20182170843E-01 -0.19610434564E-01  0.11268273445E+00  0.51100000000E-03 0. -1.
</event>
<event>
 8    1  0.1065239E+005  0.1043930E+01  0.7957747E-01            NaN
         13   -1    0    0    0    0  0.00000000000E+00  0.00000000000E+00  0.74505805969E-08  0.10566000000E+00  0.10566000000E+00 0.  1.
     999900   -1    0    0    0    0 -0.00000000000E+00 -0.00000000000E+00 -0.74505805969E-08  0.93827000000E+00  0.93827000000E+00 0. -1.
     999902    2    1    2    0    0 -0.11602829649E-01  0.16583882874E-01 -0.13535589925E-01  0.10195812214E+01  0.10192904414E+01 0.  0.
     999903    2    3    3    0    0  0.80878058839E-02 -0.48121140337E-01 -0.11956579543E+00  0.13063979154E+00  0.19741300472E-01 0.  0.
         14    1    1    2    0    0  0.11602829649E-01 -0.16583882874E-01  0.13535589925E-01  0.24348778648E-01  0.00000000000E+00 0.  1.
     999901    1    3    3    0    0 -0.19690635533E-01  0.64705023211E-01  0.10603020551E+00  0.88894142981E+00  0.88000000000E+00 0.  1.
        -11    1    4    4    0    0 -0.44004770444E-03 -0.12421859862E-01 -0.54806482262E-01  0.56200603763E-01  0.51100000000E-03 0.  1.
         11    1    4    4    0    0  0.85278535883E-02 -0.35699280476E-01 -0.64759313172E-01  0.74439187777E-01  0.51100000000E-03 0. -1.
</event>
<event>
 8    1  0.1318765E+005  0.1043930E+01  0.7957747E-01            NaN
         13   -1    0    0    0    0  0.00000000000E+00  0.00000000000E+00  0.74505805969E-08  0.10566000000E+00  0.10566000000E+00 0. -1.
     999900   -1    0    0    0    0 -0.00000000000E+00 -0.00000000000E+00 -0.74505805969E-08  0.93827000000E+00  0.93827000000E+00 0. -1.
     999902    2    1    2    0    0  0.83886537597E-04 -0.30907606682E-02 -0.23824858932E-01  0.10199053514E+01  0.10196223526E+01 0.  0.
     999903    2    3    3    0    0 -0.50442123302E-03 -0.87968526325E-01 -0.97340635579E-01  0.13276998931E+00  0.20345875791E-01 0.  0.
         14    1    1    2    0    0 -0.83886537597E-04  0.30907606682E-02  0.23824858932E-01  0.24024648626E-01  0.00000000000E+00 0. -1.
     999901    1    3    3    0    0  0.58830777062E-03  0.84877765657E-01  0.73515776647E-01  0.88713536206E+00  0.88000000000E+00 0.  1.
        -11    1    4    4    0    0 -0.74713490679E-02 -0.55584592444E-01 -0.51013208682E-01  0.75816070560E-01  0.51100000000E-03 0.  1.
         11    1    4    4    0    0  0.69669278349E-02 -0.32383933881E-01 -0.46327426897E-01  0.56953918750E-01  0.51100000000E-03 0. -1.
</event>
<event>
 8    1  0.1065239E+005  0.1043930E+01  0.7957747E-01            NaN
         13   -1    0    0    0    0  0.00000000000E+00  0.00000000000E+00  0.74505805969E-08  0.10566000000E+00  0.10566000000E+00 0.  1.
     999900   -1    0    0    0    0 -0.00000000000E+00 -0.00000000000E+00 -0.74505805969E-08  0.93827000000E+00  0.93827000000E+00 0. -1.
     999902    2    1    2    0    0  0.15396472376E-01  0.10016408405E-01  0.18337279643E-01  0.10179755086E+01  0.10176445846E+01 0.  0.
     999903    2    3    3    0    0  0.22361231998E-01 -0.10246846350E+00  0.72501346381E-01  0.12913632157E+00  0.20492281759E-01 0.  0.
         14    1    1    2    0    0 -0.15396472376E-01 -0.10016408405E-01 -0.18337279643E-01  0.25954491396E-01  0.00000000000E+00 0. -1.
     999901    1    3    3    0    0 -0.69647596219E-02  0.11248487191E+00 -0.54164066739E-01  0.88883918704E+00  0.88000000000E+00 0. -1.
        -11    1    4    4    0    0  0.24410273162E-01 -0.68013374139E-01  0.46700909240E-01  0.86040203059E-01  0.51100000000E-03 0.  1.
         11    1    4    4    0    0 -0.20490411648E-02 -0.34455089365E-01  0.25800437141E-01  0.43096118509E-01  0.51100000000E-03 0. -1.
</event>
<event>
 8    1  0.1065239E+005  0.1043930E+01  0.7957747E-01            NaN
         13   -1    0    0    0    0  0.00000000000E+00  0.00000000000E+00  0.74505805969E-08  0.10566000000E+00  0.10566000000E+00 0. -1.
     999900   -1    0    0    0    0 -0.00000000000E+00 -0.00000000000E+00 -0.74505805969E-08  0.93827000000E+00  0.93827000000E+00 0.  1.
     999902    2    1    2    0    0  0.23697549119E-02  0.21462147471E-01 -0.10197501234E-01  0.10200505414E+01  0.10197709931E+01 0.  0.
     999903    2    3    3    0    0 -0.12873327322E-01  0.13057238244E+00  0.85243870994E-02  0.13298351797E+00  0.19926897962E-01 0.  0.
         14    1    1    2    0    0 -0.23697549119E-02 -0.21462147471E-01  0.10197501234E-01  0.23879458617E-01  0.00000000000E+00 0. -1.
     999901    1    3    3    0    0  0.15243082233E-01 -0.10911023497E+00 -0.18721888333E-01  0.88706702342E+00  0.88000000000E+00 0.  1.
        -11    1    4    4    0    0 -0.11204369012E-01  0.61465281994E-01 -0.44846546454E-02  0.62640977195E-01  0.51100000000E-03 0. -1.
         11    1    4    4    0    0 -0.16689583094E-02  0.69107100447E-01  0.13009041745E-01  0.70342540771E-01  0.51100000000E-03 0.  1.
</event>
<event>
 8    1  0.1753416E+005  0.1043930E+01  0.7957747E-01            NaN
         13   -1    0    0    0    0  0.00000000000E+00  0.00000000000E+00  0.74505805969E-08  0.10566000000E+00  0.10566000000E+00 0. -1.
     999900   -1    0    0    0    0 -0.00000000000E+00 -0.00000000000E+00 -0.74505805969E-08  0.93827000000E+00  0.93827000000E+00 0. -1.
     999902    2    1    2    0    0 -0.43389157051E-02  0.18870630276E-01 -0.14858020156E-01  0.10195232870E+01  0.10192311049E+01 0.  0.
     999903    2    3    3    0    0 -0.17882223614E-01  0.61657074275E-01  0.11039781643E+00  0.12952153106E+00  0.21605101393E-01 0.  0.
         14    1    1    2    0    0  0.43389157051E-02 -0.18870630276E-01  0.14858020156E-01  0.24406713000E-01  0.00000000000E+00 0.  1.
     999901    1    3    3    0    0  0.13543307909E-01 -0.42786443999E-01 -0.12525583658E+00  0.89000175594E+00  0.88000000000E+00 0. -1.
        -11    1    4    4    0    0  0.53580770947E-03  0.34286632774E-01  0.63677180093E-01  0.72324993346E-01  0.51100000000E-03 0. -1.
         11    1    4    4    0    0 -0.18418031324E-01  0.27370441501E-01  0.46720636336E-01  0.57196537714E-01  0.51100000000E-03 0.  1.
</event>
<event>
 8    1  0.1065239E+005  0.1043930E+01  0.7957747E-01            NaN
         13   -1    0    0    0    0  0.00000000000E+00  0.00000000000E+00  0.74505805969E-08  0.10566000000E+00  0.10566000000E+00 0.  1.
     999900   -1    0    0    0    0 -0.00000000000E+00 -0.00000000000E+00 -0.74505805969E-08  0.93827000000E+00  0.93827000000E+00 0.  1.
     999902    2    1    2    0    0 -0.35503720319E-02 -0.29310147841E-02 -0.23731060748E-01  0.10197564766E+01  0.10194699173E+01 0.  0.
     999903    2    3    3    0    0 -0.12782387728E+00 -0.89321474363E-02 -0.18485117677E-01  0.13098910680E+00  0.19942910148E-01 0.  0.
         14    1    1    2    0    0  0.35503720319E-02  0.29310147841E-02  0.23731060748E-01  0.24173523398E-01  0.00000000000E+00 0.  1.
     999901    1    3    3    0    0  0.12427350525E+00  0.60011326522E-02 -0.52459430711E-02  0.88876736980E+00  0.88000000000E+00 0.  1.
        -11    1    4    4    0    0 -0.66201463034E-01 -0.74576034398E-02 -0.19231735570E-01  0.69342413651E-01  0.51100000000E-03 0. -1.
         11    1    4    4    0    0 -0.61622414246E-01 -0.14745439964E-02  0.74661789244E-03  0.61646693153E-01  0.51100000000E-03 0.  1.
</event>
<event>
 8    1  0.1065239E+005  0.1043930E+01  0.7957747E-01            NaN
         13   -1    0    0    0    0  0.00000000000E+00  0.00000000000E+00  0.74505805969E-08  0.10566000000E+00  0.10566000000E+00 0. -1.
     999900   -1    0    0    0    0 -0.00000000000E+00 -0.00000000000E+00 -0.74505805969E-08  0.93827000000E+00  0.93827000000E+00 0. -1.
     999902    2    1    2    0    0 -0.16427314271E-01 -0.26698044681E-02 -0.16409201882E-01  0.10205580849E+01  0.10202904284E+01 0.  0.
     999903    2    3    3    0    0  0.11835257729E+00  0.45243179521E-01  0.79690049091E-02  0.12867492539E+00  0.20963147214E-01 0.  0.
         14    1    1    2    0    0  0.16427314271E-01  0.26698044681E-02  0.16409201882E-01  0.23371915122E-01  0.00000000000E+00 0. -1.
     999901    1    3    3    0    0 -0.13477989156E+00 -0.47912983989E-01 -0.24378206791E-01  0.89188315948E+00  0.88000000000E+00 0.  1.
        -11    1    4    4    0    0  0.58714269156E-01  0.31227375460E-01  0.10648677344E-01  0.67351093761E-01  0.51100000000E-03 0. -1.
         11    1    4    4    0    0  0.59638308135E-01  0.14015804061E-01 -0.26796724349E-02  0.61323831632E-01  0.51100000000E-03 0.  1.
</event>
<event>
 8    1  0.1065239E+005  0.1043930E+01  0.7957747E-01            NaN
         13   -1    0    0    0    0  0.00000000000E+00  0.00000000000E+00  0.74505805969E-08  0.10566000000E+00  0.10566000000E+00 0. -1.
     999900   -1    0    0    0    0 -0.00000000000E+00 -0.00000000000E+00 -0.74505805969E-08  0.93827000000E+00  0.93827000000E+00 0.  1.
     999902    2    1    2    0    0 -0.22280749523E-01  0.77663808953E-02  0.65196684871E-02  0.10194503238E+01  0.10191563708E+01 0.  0.
     999903    2    3    3    0    0 -0.92206767617E-01  0.92439666957E-01  0.98903128771E-02  0.13261856146E+00  0.21040069731E-01 0.  0.
         14    1    1    2    0    0  0.22280749523E-01 -0.77663808953E-02 -0.65196684871E-02  0.24479676238E-01  0.00000000000E+00 0. -1.
     999901    1    3    3    0    0  0.69926018095E-01 -0.84673286061E-01 -0.33706443900E-02  0.88683176230E+00  0.88000000000E+00 0. -1.
        -11    1    4    4    0    0 -0.65782521067E-02  0.94063070550E-02 -0.47765748113E-02  0.12443022186E-01  0.51100000000E-03 0.  1.
         11    1    4    4    0    0 -0.85628515511E-01  0.83033359902E-01  0.14666887688E-01  0.12017553928E+00  0.51100000000E-03 0. -1.
</event>
<event>
 8    1  0.1065239E+005  0.1043930E+01  0.7957747E-01            NaN
         13   -1    0    0    0    0  0.00000000000E+00  0.00000000000E+00  0.74505805969E-08  0.10566000000E+00  0.10566000000E+00 0. -1.
     999900   -1    0    0    0    0 -0.00000000000E+00 -0.00000000000E+00 -0.74505805969E-08  0.93827000000E+00  0.93827000000E+00 0.  1.
     999902    2    1    2    0    0  0.21430905534E-01  0.21887266513E-02 -0.87651484084E-02  0.10206726987E+01  0.10204076910E+01 0.  0.
     999903    2    3    3    0    0 -0.74868675617E-01 -0.38954618176E-01  0.94754918092E-01  0.12843798278E+00  0.19875614514E-01 0.  0.
         14    1    1    2    0    0 -0.21430905534E-01 -0.21887266513E-02  0.87651484084E-02  0.23257301283E-01  0.00000000000E+00 0. -1.
     999901    1    3    3    0    0  0.96299581151E-01  0.41143344828E-01 -0.10352006650E+00  0.89223471594E+00  0.88000000000E+00 0.  1.
        -11    1    4    4    0    0 -0.69610064900E-01 -0.30547614033E-01  0.77696476594E-01  0.10870014469E+00  0.51100000000E-03 0. -1.
         11    1    4    4    0    0 -0.52586107165E-02 -0.84070041431E-02  0.17058441498E-01  0.19737838095E-01  0.51100000000E-03 0.  1.
</event>
<event>
 8    1  0.1065239E+005  0.1043930E+01  0.7957747E-01            NaN
         13   -1    0    0    0    0  0.00000000000E+00  0.00000000000E+00  0.74505805969E-08  0.10566000000E+00  0.10566000000E+00 0. -1.
     999900   -1    0    0    0    0 -0.00000000000E+00 -0.00000000000E+00 -0.74505805969E-08  0.93827000000E+00  0.93827000000E+00 0. -1.
     999902    2    1    2    0    0 -0.12443377701E-01 -0.72657212569E-03 -0.19485949306E-01  0.10207984679E+01  0.10205363513E+01 0.  0.
     999903    2    3    3    0    0  0.18199342979E-01 -0.10622094930E+00 -0.74131353172E-01  0.13228613818E+00  0.19749903227E-01 0.  0.
         14    1    1    2    0    0  0.12443377701E-01  0.72657212569E-03  0.19485949306E-01  0.23131532073E-01  0.00000000000E+00 0. -1.
     999901    1    3    3    0    0 -0.30642720680E-01  0.10549437717E+00  0.54645403866E-01  0.88851232975E+00  0.88000000000E+00 0.  1.
        -11    1    4    4    0    0  0.41000889002E-02 -0.37901902501E-01 -0.37563052414E-01  0.53522041906E-01  0.51100000000E-03 0. -1.
         11    1    4    4    0    0  0.14099254078E-01 -0.68319046797E-01 -0.36568300758E-01  0.78764096276E-01  0.51100000000E-03 0.  1.
</event>
<event>
 8    1  0.1065239E+005  0.1043930E+01  0.7957747E-01            NaN
         13   -1    0    0    0    0  0.00000000000E+00  0.00000000000E+00  0.74505805969E-08  0.10566000000E+00  0.10566000000E+00 0. -1.
     999900   -1    0    0    0    0 -0.00000000000E+00 -0.00000000000E+00 -0.74505805969E-08  0.93827000000E+00  0.93827000000E+00 0.  1.
     999902    2    1    2    0    0  0.14445532690E-01  0.13724021155E-01 -0.12887344576E-01  0.10202001491E+01  0.10199241337E+01 0.  0.
     999903    2    3    3    0    0  0.14028044302E-02 -0.98142949934E-01 -0.83367891568E-01  0.13022720603E+00  0.19362679634E-01 0.  0.
         14    1    1    2    0    0 -0.14445532690E-01 -0.13724021155E-01  0.12887344576E-01  0.23729850855E-01  0.00000000000E+00 0.  1.
     999901    1    3    3    0    0  0.13042728260E-01  0.11186697109E+00  0.70480546992E-01  0.88997294312E+00  0.88000000000E+00 0. -1.
        -11    1    4    4    0    0  0.71144993973E-02 -0.62483931475E-01 -0.43710386652E-01  0.76587967831E-01  0.51100000000E-03 0.  1.
         11    1    4    4    0    0 -0.57116949672E-02 -0.35659018459E-01 -0.39657504916E-01  0.53639238194E-01  0.51100000000E-03 0. -1.
</event>
<event>
 8    1  0.1065239E+005  0.1043930E+01  0.7957747E-01            NaN
         13   -1    0    0    0    0  0.00000000000E+00  0.00000000000E+00  0.74505805969E-08  0.10566000000E+00  0.10566000000E+00 0. -1.
     999900   -1    0    0    0    0 -0.00000000000E+00 -0.00000000000E+00 -0.74505805969E-08  0.93827000000E+00  0.93827000000E+00 0.  1.
     999902    2    1    2    0    0 -0.58112500317E-02  0.13126523300E-01 -0.18913523185E-01  0.10201855775E+01  0.10199092190E+01 0.  0.
     999903    2    3    3    0    0 -0.55505166684E-01  0.40585083135E-01 -0.11266706015E+00  0.13338617314E+00  0.19236222118E-01 0.  0.
         14    1    1    2    0    0  0.58112500317E-02 -0.13126523300E-01  0.18913523185E-01  0.23744422506E-01  0.00000000000E+00 0. -1.
     999901    1    3    3    0    0  0.49693916653E-01 -0.27458559835E-01  0.93753536966E-01  0.88679940435E+00  0.88000000000E+00 0. -1.
        -11    1    4    4    0    0 -0.24185097421E-01  0.17442689490E-01 -0.67192656073E-01  0.73513811662E-01  0.51100000000E-03 0. -1.
         11    1    4    4    0    0 -0.31320069263E-01  0.23142393645E-01 -0.45474404078E-01  0.59872361483E-01  0.51100000000E-03 0.  1.
</event>
<event>
 8    1  0.1065239E+005  0.1043930E+01  0.7957747E-01            NaN
         13   -1    0    0    0    0  0.00000000000E+00  0.00000000000E+00  0.74505805969E-08  0.10566000000E+00  0.10566000000E+00 0.  1.
     999900   -1    0    0    0    0 -0.00000000000E+00 -0.00000000000E+00 -0.74505805969E-08  0.93827000000E+00  0.93827000000E+00 0.  1.
     999902    2    1    2    0    0  0.66455999815E-02 -0.14136469020E-01 -0.16550420315E-01  0.10211721405E+01  0.10209185180E+01 0.  0.
     999903    2    3    3    0    0 -0.18023658777E-01 -0.66151998854E-01 -0.11346828137E+00  0.13398148488E+00  0.19366160810E-01 0.  0.
         14    1    1    2    0    0 -0.66455999815E-02  0.14136469020E-01  0.16550420315E-01  0.22757859479E-01  0.00000000000E+00 0.  1.
     999901    1    3    3    0    0  0.24669258759E-01  0.52015529834E-01  0.96917861054E-01  0.88719065564E+00  0.88000000000E+00 0. -1.
        -11    1    4    4    0    0  0.12367553149E-02 -0.79829638426E-02 -0.53397655843E-02  0.96969837020E-02  0.51100000000E-03 0. -1.
         11    1    4    4    0    0 -0.19260414092E-01 -0.58169035011E-01 -0.10812851579E+00  0.12428450117E+00  0.51100000000E-03 0.  1.
</event>
<event>
 8    1  0.1065239E+005  0.1043930E+01  0.7957747E-01            NaN
         13   -1    0    0    0    0  0.00000000000E+00  0.00000000000E+00  0.74505805969E-08  0.10566000000E+00  0.10566000000E+00 0.  1.
     999900   -1    0    0    0    0 -0.00000000000E+00 -0.00000000000E+00 -0.74505805969E-08  0.93827000000E+00  0.93827000000E+00 0.  1.
     999902    2    1    2    0    0 -0.20071811060E-01  0.74588973244E-03 -0.14313120720E-01  0.10192662741E+01  0.10189678298E+01 0.  0.
     999903    2    3    3    0    0  0.96379991727E-01  0.81325739423E-01 -0.36802556576E-03  0.12783562608E+00  0.20948344894E-01 0.  0.
         14    1    1    2    0    0  0.20071811060E-01 -0.74588973244E-03  0.14313120720E-01  0.24663725904E-01  0.00000000000E+00 0.  1.
     999901    1    3    3    0    0 -0.11645180279E+00 -0.80579849690E-01 -0.13945095155E-01  0.89143064802E+00  0.88000000000E+00 0. -1.
        -11    1    4    4    0    0  0.60526652914E-01  0.62751661573E-01 -0.40884887425E-02  0.87282435830E-01  0.51100000000E-03 0.  1.
         11    1    4    4    0    0  0.35853338813E-01  0.18574077849E-01  0.37204631768E-02  0.40553190247E-01  0.51100000000E-03 0. -1.
</event>
<event>
 8    1  0.1065239E+005  0.1043930E+01  0.7957747E-01            NaN
         13   -1    0    0    0    0  0.00000000000E+00  0.00000000000E+00  0.74505805969E-08  0.10566000000E+00  0.10566000000E+00 0.  1.
     999900   -1    0    0    0    0 -0.00000000000E+00 -0.00000000000E+00 -0.74505805969E-08  0.93827000000E+00  0.93827000000E+00 0. -1.
     999902    2    1    2    0    0 -0.22067669617E-01  0.51020638433E-02 -0.31091865787E-03  0.10212780736E+01  0.10210268331E+01 0.  0.
     999903    2    3    3    0    0 -0.94634705095E-03 -0.95591204282E-01 -0.87289961047E-01  0.13102496450E+00  0.20234379471E-01 0.  0.
         14    1    1    2    0    0  0.22067669617E-01 -0.51020638433E-02  0.31091865787E-03  0.22651926368E-01  0.00000000000E+00 0. -1.
     999901    1    3    3    0    0 -0.21121322566E-01  0.10069326813E+00  0.86979042389E-01  0.89025310914E+00  0.88000000000E+00 0.  1.
        -11    1    4    4    0    0  0.76391634871E-02 -0.21345226565E-01 -0.24761217119E-01  0.33576100282E-01  0.51100000000E-03 0.  1.
         11    1    4    4    0    0 -0.85855105380E-02 -0.74245977717E-01 -0.62528743928E-01  0.97448864213E-01  0.51100000000E-03 0. -1.
</event>
<event>
 8    1  0.1065239E+005  0.1043930E+01  0.7957747E-01            NaN
         13   -1    0    0    0    0  0.00000000000E+00  0.00000000000E+00  0.74505805969E-08  0.10566000000E+00  0.10566000000E+00 0. -1.
     999900   -1    0    0    0    0 -0.00000000000E+00 -0.00000000000E+00 -0.74505805969E-08  0.93827000000E+00  0.93827000000E+00 0.  1.
     999902    2    1    2    0    0  0.12400203654E-01 -0.16809958003E-02  0.18168402632E-01  0.10218691376E+01  0.10216309767E+01 0.  0.
     999903    2    3    3    0    0 -0.50603296301E-01  0.72216035981E-01 -0.93050727210E-01  0.12956879173E+00  0.18809160209E-01 0.  0.
         14    1    1    2    0    0 -0.12400203654E-01  0.16809958003E-02 -0.18168402632E-01  0.22060862443E-01  0.00000000000E+00 0.  1.
     999901    1    3    3    0    0  0.63003499956E-01 -0.73897031781E-01  0.11121912984E+00  0.89230034582E+00  0.88000000000E+00 0. -1.
        -11    1    4    4    0    0 -0.49293078280E-01  0.70986641776E-01 -0.84691479055E-01  0.12100338269E+00  0.51100000000E-03 0. -1.
         11    1    4    4    0    0 -0.13102180215E-02  0.12293942052E-02 -0.83592481550E-02  0.85654090441E-02  0.51100000000E-03 0.  1.
</event>
<event>
 8    1  0.1065239E+005  0.1043930E+01  0.7957747E-01            NaN
         13   -1    0    0    0    0  0.00000000000E+00  0.00000000000E+00  0.74505805969E-08  0.10566000000E+00  0.10566000000E+00 0. -1.
     999900   -1    0    0    0    0 -0.00000000000E+00 -0.00000000000E+00 -0.74505805969E-08  0.93827000000E+00  0.93827000000E+00 0.  1.
     999902    2    1    2    0    0  0.11973746850E-01 -0.86981873834E-02 -0.17425684227E-01  0.10210677265E+01  0.10208117449E+01 0.  0.
     999903    2    3    3    0    0 -0.34811058989E-01 -0.13498152236E-01 -0.12636128655E+00  0.13310442595E+00  0.18857452851E-01 0.  0.
         14    1    1    2    0    0 -0.11973746850E-01  0.86981873834E-02  0.17425684227E-01  0.22862273469E-01  0.00000000000E+00 0. -1.
     999901    1    3    3    0    0  0.46784805839E-01  0.47999648525E-02  0.10893560232E+00  0.88796330058E+00  0.88000000000E+00 0. -1.
        -11    1    4    4    0    0 -0.30498079931E-01 -0.13890679149E-01 -0.82812907780E-01  0.89338248598E-01  0.51100000000E-03 0.  1.
         11    1    4    4    0    0 -0.43129790580E-02  0.39252691297E-03 -0.43548378770E-01  0.43766177355E-01  0.51100000000E-03 0. -1.
</event>
<event>
 8    1  0.1065239E+005  0.1043930E+01  0.7957747E-01            NaN
         13   -1    0    0    0    0  0.00000000000E+00  0.00000000000E+00  0.74505805969E-08  0.10566000000E+00  0.10566000000E+00 0.  1.
     999900   -1    0    0    0    0 -0.00000000000E+00 -0.00000000000E+00 -0.74505805969E-08  0.93827000000E+00  0.93827000000E+00 0. -1.
     999902    2    1    2    0    0  0.38901960548E-02  0.15387059314E-01  0.18723012657E-01  0.10193852160E+01  0.10190896782E+01 0.  0.
     999903    2    3    3    0    0  0.90076124064E-01  0.61487207911E-01 -0.67360763191E-01  0.12979898949E+00  0.20394126432E-01 0.  0.
         14    1    1    2    0    0 -0.38901960548E-02 -0.15387059314E-01 -0.18723012657E-01  0.24544784021E-01  0.00000000000E+00 0. -1.
     999901    1    3    3    0    0 -0.86185928010E-01 -0.46100148597E-01  0.86083775848E-01  0.88958622648E+00  0.88000000000E+00 0.  1.
        -11    1    4    4    0    0  0.67009893401E-01  0.35462421275E-01 -0.41272668386E-01  0.86322670330E-01  0.51100000000E-03 0. -1.
         11    1    4    4    0    0  0.23066230663E-01  0.26024786636E-01 -0.26088094805E-01  0.43476319164E-01  0.51100000000E-03 0.  1.
</event>
<event>
 8    1  0.1065239E+005  0.1043930E+01  0.7957747E-01            NaN
         13   -1    0    0    0    0  0.00000000000E+00  0.00000000000E+00  0.74505805969E-08  0.10566000000E+00  0.10566000000E+00 0. -1.
     999900   -1    0    0    0    0 -0.00000000000E+00 -0.00000000000E+00 -0.74505805969E-08  0.93827000000E+00  0.93827000000E+00 0. -1.
     999902    2    1    2    0    0  0.19926571191E-01 -0.56095316387E-02 -0.83886403192E-02  0.10215938327E+01  0.10213496241E+01 0.  0.
     999903    2    3    3    0    0 -0.52120646919E-03  0.27731638284E-02 -0.13182636490E+00  0.13270393339E+00  0.14972687106E-01 0.  0.
         14    1    1    2    0    0 -0.19926571191E-01  0.56095316387E-02  0.83886403192E-02  0.22336167331E-01  0.00000000000E+00 0. -1.
     999901    1    3    3    0    0  0.20447777660E-01 -0.83826954671E-02  0.12343772458E+00  0.88888989928E+00  0.88000000000E+00 0.  1.
        -11    1    4    4    0    0 -0.50175529959E-02  0.31807364626E-02 -0.22301503658E-01  0.23084867531E-01  0.51100000000E-03 0. -1.
         11    1    4    4    0    0  0.44963465267E-02 -0.40757263423E-03 -0.10952486125E+00  0.10961906586E+00  0.51100000000E-03 0.  1.
</event>
<event>
 8    1  0.1065239E+005  0.1043930E+01  0.7957747E-01            NaN
         13   -1    0    0    0    0  0.00000000000E+00  0.00000000000E+00  0.74505805969E-08  0.10566000000E+00  0.10566000000E+00 0.  1.
     999900   -1    0    0    0    0 -0.00000000000E+00 -0.00000000000E+00 -0.74505805969E-08  0.93827000000E+00  0.93827000000E+00 0. -1.
     999902    2    1    2    0    0 -0.16612481248E-01 -0.69550945554E-02  0.13405660089E-01  0.10214787284E+01  0.10212319683E+01 0.  0.
     999903    2    3    3    0    0 -0.41814403062E-01  0.22075574350E-01 -0.12017258404E+00  0.13056848383E+00  0.19258861004E-01 0.  0.
         14    1    1    2    0    0  0.16612481248E-01  0.69550945554E-02 -0.13405660089E-01  0.22451271588E-01  0.00000000000E+00 0.  1.
     999901    1    3    3    0    0  0.25201921813E-01 -0.29030668905E-01  0.13357824413E+00  0.89091024458E+00  0.88000000000E+00 0.  1.
        -11    1    4    4    0    0 -0.16020124154E-01  0.16249253175E-01 -0.73025479936E-01  0.76509244197E-01  0.51100000000E-03 0.  1.
         11    1    4    4    0    0 -0.25794278908E-01  0.58263211748E-02 -0.47147104107E-01  0.54059239630E-01  0.51100000000E-03 0. -1.
</event>
<event>
 8    1  0.1065239E+005  0.1043930E+01  0.7957747E-01            NaN
         13   -1    0    0    0    0  0.00000000000E+00  0.00000000000E+00  0.74505805969E-08  0.10566000000E+00  0.10566000000E+00 0. -1.
     999900   -1    0    0    0    0 -0.00000000000E+00 -0.00000000000E+00 -0.74505805969E-08  0.93827000000E+00  0.93827000000E+00 0.  1.
     999902    2    1    2    0    0 -0.19769096684E-01  0.14097004927E-01 -0.23985186495E-02  0.10195313192E+01  0.10192393317E+01 0.  0.
     999903    2    3    3    0    0 -0.30154244723E-01  0.43077817134E-01 -0.11858158414E+00  0.13136115339E+00  0.20716749739E-01 0.  0.
         14    1    1    2    0    0  0.19769096684E-01 -0.14097004927E-01  0.23985186495E-02  0.24398680770E-01  0.00000000000E+00 0. -1.
     999901    1    3    3    0    0  0.10385148039E-01 -0.28980812208E-01  0.11618306549E+00  0.88817016584E+00  0.88000000000E+00 0. -1.
        -11    1    4    4    0    0 -0.17303877233E-01  0.24526077642E-01 -0.42725959026E-01  0.52218017460E-01  0.51100000000E-03 0.  1.
         11    1    4    4    0    0 -0.12850367490E-01  0.18551739492E-01 -0.75855625114E-01  0.79143135933E-01  0.51100000000E-03 0. -1.
</event>
<event>
 8    1  0.1065239E+005  0.1043930E+01  0.7957747E-01            NaN
         13   -1    0    0    0    0  0.00000000000E+00  0.00000000000E+00  0.74505805969E-08  0.10566000000E+00  0.10566000000E+00 0. -1.
     999900   -1    0    0    0    0 -0.00000000000E+00 -0.00000000000E+00 -0.74505805969E-08  0.93827000000E+00  0.93827000000E+00 0.  1.
     999902    2    1    2    0    0 -0.15697739160E-01  0.88937767102E-02  0.10807102833E-01  0.10228987910E+01  0.10226825631E+01 0.  0.
     999903    2    3    3    0    0 -0.98482901862E-01  0.75433069078E-01 -0.48738106368E-01  0.13451458781E+00  0.18158784452E-01 0.  0.
         14    1    1    2    0    0  0.15697739160E-01 -0.88937767102E-02 -0.10807102833E-01  0.21031208965E-01  0.00000000000E+00 0. -1.
     999901    1    3    3    0    0  0.82785162702E-01 -0.66539292368E-01  0.59545209201E-01  0.88838420322E+00  0.88000000000E+00 0. -1.
        -11    1    4    4    0    0 -0.71588177581E-01  0.45701785619E-01 -0.37726524576E-01  0.92935849680E-01  0.51100000000E-03 0. -1.
         11    1    4    4    0    0 -0.26894724281E-01  0.29731283460E-01 -0.11011581792E-01  0.41578738135E-01  0.51100000000E-03 0.  1.
</event>
<event>
 8    1  0.1065239E+005  0.1043930E+01  0.7957747E-01            NaN
         13   -1    0    0    0    0  0.00000000000E+00  0.00000000000E+00  0.74505805969E-08  0.10566000000E+00  0.10566000000E+00 0.  1.
     999900   -1    0    0    0    0 -0.00000000000E+00 -0.00000000000E+00 -0.74505805969E-08  0.93827000000E+00  0.93827000000E+00 0. -1.
     999902    2    1    2    0    0  0.20583751810E-01 -0.10457582768E-01  0.10216539277E-01  0.10186826328E+01  0.10183697152E+01 0.  0.
     999903    2    3    3    0    0  0.13276721956E-02  0.11714876274E+00  0.48334868786E-01  0.12845390766E+00  0.20941621910E-01 0.  0.
         14    1    1    2    0    0 -0.20583751810E-01  0.10457582768E-01 -0.10216539277E-01  0.25247367204E-01  0.00000000000E+00 0. -1.
     999901    1    3    3    0    0  0.19256079614E-01 -0.12760634550E+00 -0.38118329509E-01  0.89022872514E+00  0.88000000000E+00 0.  1.
        -11    1    4    4    0    0 -0.44646960966E-02  0.23807015575E-01  0.17832727325E-01  0.30082798851E-01  0.51100000000E-03 0.  1.
         11    1    4    4    0    0  0.57923682921E-02  0.93341747161E-01  0.30502141461E-01  0.98371108808E-01  0.51100000000E-03 0. -1.
</event>
<event>
 8    1  0.1065239E+005  0.1043930E+01  0.7957747E-01            NaN
         13   -1    0    0    0    0  0.00000000000E+00  0.00000000000E+00  0.74505805969E-08  0.10566000000E+00  0.10566000000E+00 0.  1.
     999900   -1    0    0    0    0 -0.00000000000E+00 -0.00000000000E+00 -0.74505805969E-08  0.93827000000E+00  0.93827000000E+00 0.  1.
     999902    2    1    2    0    0  0.25769077493E-02 -0.15261796170E-01  0.18704635943E-01  0.10196518971E+01  0.10193628230E+01 0.  0.
     999903    2    3    3    0    0 -0.11720229051E+00  0.49724774936E-01  0.70643922205E-02  0.12908701677E+00  0.20115221039E-01 0.  0.
         14    1    1    2    0    0 -0.25769077493E-02  0.15261796170E-01 -0.18704635943E-01  0.24278102925E-01  0.00000000000E+00 0. -1.
     999901    1    3    3    0    0  0.11977919826E+00 -0.64986571107E-01  0.11640243722E-01  0.89056488031E+00  0.88000000000E+00 0. -1.
        -11    1    4    4    0    0 -0.51369679452E-01  0.24747910292E-01  0.12796699907E-01  0.58440736480E-01  0.51100000000E-03 0. -1.
         11    1    4    4    0    0 -0.65832611059E-01  0.24976864644E-01 -0.57323076861E-02  0.70646280289E-01  0.51100000000E-03 0.  1.
</event>
<event>
 8    1  0.1065239E+005  0.1043930E+01  0.7957747E-01            NaN
         13   -1    0    0    0    0  0.00000000000E+00  0.00000000000E+00  0.74505805969E-08  0.10566000000E+00  0.10566000000E+00 0. -1.
     999900   -1    0    0    0    0 -0.00000000000E+00 -0.00000000000E+00 -0.74505805969E-08  0.93827000000E+00  0.93827000000E+00 0.  1.
     999902    2    1    2    0    0  0.71691272874E-02 -0.18178229909E-01  0.14155252197E-01  0.10198008559E+01  0.10195153604E+01 0.  0.
     999903    2    3    3    0    0  0.68338156595E-01  0.68036927496E-01 -0.82234391283E-01  0.12824846438E+00  0.19648062400E-01 0.  0.
         14    1    1    2    0    0 -0.71691272874E-02  0.18178229909E-01 -0.14155252197E-01  0.24129144068E-01  0.00000000000E+00 0.  1.
     999901    1    3    3    0    0 -0.61169029308E-01 -0.86215157405E-01  0.96389643480E-01  0.89155239155E+00  0.88000000000E+00 0. -1.
        -11    1    4    4    0    0  0.60451460185E-01  0.49340003860E-01 -0.67338804091E-01  0.10307080419E+00  0.51100000000E-03 0. -1.
         11    1    4    4    0    0  0.78866964103E-02  0.18696923636E-01 -0.14895587192E-01  0.25177660188E-01  0.51100000000E-03 0.  1.
</event>
<event>
 8    1  0.1065239E+005  0.1043930E+01  0.7957747E-01            NaN
         13   -1    0    0    0    0  0.00000000000E+00  0.00000000000E+00  0.74505805969E-08  0.10566000000E+00  0.10566000000E+00 0.  1.
     999900   -1    0    0    0    0 -0.00000000000E+00 -0.00000000000E+00 -0.74505805969E-08  0.93827000000E+00  0.93827000000E+00 0. -1.
     999902    2    1    2    0    0 -0.81818820800E-02  0.21881466403E-01  0.23506550068E-02  0.10204509169E+01  0.10201807714E+01 0.  0.
     999903    2    3    3    0    0  0.59458003652E-01  0.10335303645E+00  0.54542677882E-01  0.13256760351E+00  0.19548950045E-01 0.  0.
         14    1    1    2    0    0  0.81818820800E-02 -0.21881466403E-01 -0.23506550068E-02  0.23479083144E-01  0.00000000000E+00 0. -1.
     999901    1    3    3    0    0 -0.67639885732E-01 -0.81471570048E-01 -0.52192022875E-01  0.88788331335E+00  0.88000000000E+00 0. -1.
        -11    1    4    4    0    0  0.41399236835E-01  0.68346891391E-01  0.26409370793E-01  0.84160028280E-01  0.51100000000E-03 0. -1.
         11    1    4    4    0    0  0.18058766817E-01  0.35006145060E-01  0.28133307089E-01  0.48407575230E-01  0.51100000000E-03 0.  1.
</event>
<event>
 8    1  0.1065239E+005  0.1043930E+01  0.7957747E-01            NaN
         13   -1    0    0    0    0  0.00000000000E+00  0.00000000000E+00  0.74505805969E-08  0.10566000000E+00  0.10566000000E+00 0.  1.
     999900   -1    0    0    0    0 -0.00000000000E+00 -0.00000000000E+00 -0.74505805969E-08  0.93827000000E+00  0.93827000000E+00 0. -1.
     999902    2    1    2    0    0 -0.15412964106E-01  0.25838727251E-02 -0.16177857358E-01  0.10214364692E+01  0.10211887688E+01 0.  0.
     999903    2    3    3    0    0 -0.10119445415E+00 -0.11649316544E-01 -0.85170532411E-01  0.13446350626E+00  0.21222412642E-01 0.  0.
         14    1    1    2    0    0  0.15412964106E-01 -0.25838727251E-02  0.16177857358E-01  0.22493530836E-01  0.00000000000E+00 0.  1.
     999901    1    3    3    0    0  0.85781490042E-01  0.14233189269E-01  0.68992675053E-01  0.88697296290E+00  0.88000000000E+00 0.  1.
        -11    1    4    4    0    0 -0.84437632554E-01 -0.13577013500E-01 -0.79200808516E-01  0.11656362330E+00  0.51100000000E-03 0. -1.
         11    1    4    4    0    0 -0.16756821595E-01  0.19276969568E-02 -0.59697238946E-02  0.17899882957E-01  0.51100000000E-03 0.  1.
</event>
<event>
 8    1  0.1065239E+005  0.1043930E+01  0.7957747E-01            NaN
         13   -1    0    0    0    0  0.00000000000E+00  0.00000000000E+00  0.74505805969E-08  0.10566000000E+00  0.10566000000E+00 0.  1.
     999900   -1    0    0    0    0 -0.00000000000E+00 -0.00000000000E+00 -0.74505805969E-08  0.93827000000E+00  0.93827000000E+00 0.  1.
     999902    2    1    2    0    0 -0.10648384602E-01  0.15988225350E-01 -0.13735386336E-01  0.10203149141E+01  0.10200415931E+01 0.  0.
     999903    2    3    3    0    0  0.11519142749E+00 -0.53076180989E-01  0.11747698632E-02  0.12855941886E+00  0.20976132552E-01 0.  0.
         14    1    1    2    0    0  0.10648384602E-01 -0.15988225350E-01  0.13735386336E-01  0.23615085904E-01  0.00000000000E+00 0. -1.
     999901    1    3    3    0    0 -0.12583981209E+00  0.69064406339E-01 -0.14910156199E-01  0.89175549524E+00  0.88000000000E+00 0. -1.
        -11    1    4    4    0    0  0.77391839095E-01 -0.27459163943E-01 -0.59771345137E-02  0.82337656640E-01  0.51100000000E-03 0. -1.
         11    1    4    4    0    0  0.37799588396E-01 -0.25617017046E-01  0.71519043768E-02  0.46221762217E-01  0.51100000000E-03 0.  1.
</event>
<event>
 8    1  0.1065239E+005  0.1043930E+01  0.7957747E-01            NaN
         13   -1    0    0    0    0  0.00000000000E+00  0.00000000000E+00  0.74505805969E-08  0.10566000000E+00  0.10566000000E+00 0.  1.
     999900   -1    0    0    0    0 -0.00000000000E+00 -0.00000000000E+00 -0.74505805969E-08  0.93827000000E+00  0.93827000000E+00 0.  1.
     999902    2    1    2    0    0  0.13969641655E-01  0.11700978917E-01  0.15365975087E-01  0.10200935366E+01  0.10198150060E+01 0.  0.
     999903    2    3    3    0    0 -0.40440232847E-01  0.48103841591E-01  0.11525358616E+00  0.13202645713E+00  0.14078503106E-01 0.  0.
         14    1    1    2    0    0 -0.13969641655E-01 -0.11700978917E-01 -0.15365975087E-01  0.23836463369E-01  0.00000000000E+00 0.  1.
     999901    1    3    3    0    0  0.54409874502E-01 -0.36402862674E-01 -0.99887611074E-01  0.88806707950E+00  0.88000000000E+00 0.  1.
        -11    1    4    4    0    0 -0.23159789329E-01  0.17750563057E-01  0.46314436210E-01  0.54742547010E-01  0.51100000000E-03 0. -1.
         11    1    4    4    0    0 -0.17280443517E-01  0.30353278534E-01  0.68939149951E-01  0.77283910116E-01  0.51100000000E-03 0.  1.
</event>
<event>
 8    1  0.1065239E+005  0.1043930E+01  0.7957747E-01            NaN
         13   -1    0    0    0    0  0.00000000000E+00  0.00000000000E+00  0.74505805969E-08  0.10566000000E+00  0.10566000000E+00 0.  1.
     999900   -1    0    0    0    0 -0.00000000000E+00 -0.00000000000E+00 -0.74505805969E-08  0.93827000000E+00  0.93827000000E+00 0. -1.
     999902    2    1    2    0    0 -0.65765034226E-02  0.19002999062E-01  0.12527917483E-01  0.10202379531E+01  0.10199628267E+01 0.  0.
     999903    2    3    3    0    0 -0.87045913136E-01  0.19799718105E-01 -0.92803375256E-01  0.13031062915E+00  0.19984338336E-01 0.  0.
         14    1    1    2    0    0  0.65765034226E-02 -0.19002999062E-01 -0.12527917483E-01  0.23692046916E-01  0.00000000000E+00 0. -1.
     999901    1    3    3    0    0  0.80469409713E-01 -0.79671904314E-03  0.10533129274E+00  0.88992732394E+00  0.88000000000E+00 0.  1.
        -11    1    4    4    0    0 -0.34500857373E-01  0.14373934461E-01 -0.27998056603E-01  0.46701942635E-01  0.51100000000E-03 0.  1.
         11    1    4    4    0    0 -0.52545055763E-01  0.54257836443E-02 -0.64805318654E-01  0.83608686511E-01  0.51100000000E-03 0. -1.
</event>
<event>
 8    1  0.1065239E+005  0.1043930E+01  0.7957747E-01            NaN
         13   -1    0    0    0    0  0.00000000000E+00  0.00000000000E+00  0.74505805969E-08  0.10566000000E+00  0.10566000000E+00 0. -1.
     999900   -1    0    0    0    0 -0.00000000000E+00 -0.00000000000E+00 -0.74505805969E-08  0.93827000000E+00  0.93827000000E+00 0.  1.
     999902    2    1    2    0    0  0.10022103264E-01  0.41101560343E-02  0.20924033652E-01  0.10203683549E+01  0.10200962839E+01 0.  0.
     999903    2    3    3    0    0 -0.83456984832E-01  0.96514325784E-01 -0.16538022083E-01  0.12981780824E+00  0.17293749260E-01 0.  0.
         14    1    1    2    0    0 -0.10022103264E-01 -0.41101560343E-02 -0.20924033652E-01  0.23561645120E-01  0.00000000000E+00 0.  1.
     999901    1    3    3    0    0  0.93479088096E-01 -0.92404169750E-01  0.37462055735E-01  0.89055054664E+00  0.88000000000E+00 0. -1.
        -11    1    4    4    0    0 -0.28267139454E-01  0.40051061595E-01 -0.13289239823E-01  0.50793540179E-01  0.51100000000E-03 0.  1.
         11    1    4    4    0    0 -0.55189845378E-01  0.56463264189E-01 -0.32487822595E-02  0.79024268063E-01  0.51100000000E-03 0. -1.
</event>
<event>
 8    1  0.1065239E+005  0.1043930E+01  0.7957747E-01            NaN
         13   -1    0    0    0    0  0.00000000000E+00  0.00000000000E+00  0.74505805969E-08  0.10566000000E+00  0.10566000000E+00 0.  1.
     999900   -1    0    0    0    0 -0.00000000000E+00 -0.00000000000E+00 -0.74505805969E-08  0.93827000000E+00  0.93827000000E+00 0.  1.
     999902    2    1    2    0    0  0.19145035292E-01 -0.60584324498E-02 -0.13187942553E-01  0.10199058703E+01  0.10196228839E+01 0.  0.
     999903    2    3    3    0    0 -0.28803463394E-01  0.84384876702E-01  0.89546076067E-01  0.12803517938E+00  0.20592729326E-01 0.  0.
         14    1    1    2    0    0 -0.19145035292E-01  0.60584324498E-02  0.13187942553E-01  0.24024129721E-01  0.00000000000E+00 0. -1.
     999901    1    3    3    0    0  0.47948498686E-01 -0.90443309152E-01 -0.10273401862E+00  0.89187069090E+00  0.88000000000E+00 0.  1.
        -11    1    4    4    0    0 -0.14453667708E-01  0.33918227634E-01  0.23668282624E-01  0.43815561156E-01  0.51100000000E-03 0. -1.
         11    1    4    4    0    0 -0.14349795686E-01  0.50466649069E-01  0.65877793443E-01  0.84219618227E-01  0.51100000000E-03 0.  1.
</event>
<event>
 8    1  0.1065239E+005  0.1043930E+01  0.7957747E-01            NaN
         13   -1    0    0    0    0  0.00000000000E+00  0.00000000000E+00  0.74505805969E-08  0.10566000000E+00  0.10566000000E+00 0.  1.
     999900   -1    0    0    0    0 -0.00000000000E+00 -0.00000000000E+00 -0.74505805969E-08  0.93827000000E+00  0.93827000000E+00 0. -1.
     999902    2    1    2    0    0  0.23150035171E-01  0.49631889448E-02 -0.62809750777E-02  0.10194349388E+01  0.10191406118E+01 0.  0.
     999903    2    3    3    0    0  0.49455586076E-01 -0.55334559663E-01  0.10513845769E+00  0.12997325305E+00  0.18198426742E-01 0.  0.
         14    1    1    2    0    0 -0.23150035171E-01 -0.49631889448E-02  0.62809750777E-02  0.24495061152E-01  0.00000000000E+00 0.  1.
     999901    1    3    3    0    0 -0.26305550905E-01  0.60297748608E-01 -0.11141943277E+00  0.88946168579E+00  0.88000000000E+00 0. -1.
        -11    1    4    4    0    0  0.28434380928E-01 -0.39983604152E-01  0.56706527564E-01  0.74987292317E-01  0.51100000000E-03 0. -1.
         11    1    4    4    0    0  0.21021205148E-01 -0.15350955511E-01  0.48431930131E-01  0.54985960737E-01  0.51100000000E-03 0.  1.
</event>
<event>
 8    1  0.1065239E+005  0.1043930E+01  0.7957747E-01            NaN
         13   -1    0    0    0    0  0.00000000000E+00  0.00000000000E+00  0.74505805969E-08  0.10566000000E+00  0.10566000000E+00 0. -1.
     999900   -1    0    0    0    0 -0.00000000000E+00 -0.00000000000E+00 -0.74505805969E-08  0.93827000000E+00  0.93827000000E+00 0. -1.
     999902    2    1    2    0    0  0.13405868902E-02 -0.23278482910E-01 -0.50120089213E-02  0.10200803632E+01  0.10198015210E+01 0.  0.
     999903    2    3    3    0    0  0.74361735433E-01  0.10209614867E+00 -0.10792636063E-01  0.12818109650E+00  0.18990029898E-01 0.  0.
         14    1    1    2    0    0 -0.13405868902E-02  0.23278482910E-01  0.50120089213E-02  0.23849636753E-01  0.00000000000E+00 0. -1.
     999901    1    3    3    0    0 -0.73021148543E-01 -0.12537463158E+00  0.57806271412E-02  0.89189926675E+00  0.88000000000E+00 0. -1.
        -11    1    4    4    0    0  0.45628663415E-01  0.72123939412E-01 -0.14192154567E-01  0.86518876170E-01  0.51100000000E-03 0. -1.
         11    1    4    4    0    0  0.28733072018E-01  0.29972209260E-01  0.33995185041E-02  0.41662220327E-01  0.51100000000E-03 0.  1.
</event>
<event>
 8    1  0.1065239E+005  0.1043930E+01  0.7957747E-01            NaN
         13   -1    0    0    0    0  0.00000000000E+00  0.00000000000E+00  0.74505805969E-08  0.10566000000E+00  0.10566000000E+00 0. -1.
     999900   -1    0    0    0    0 -0.00000000000E+00 -0.00000000000E+00 -0.74505805969E-08  0.93827000000E+00  0.93827000000E+00 0.  1.
     999902    2    1    2    0    0  0.17513824170E-01 -0.92899735852E-02  0.16452940460E-01  0.10181669083E+01  0.10178409091E+01 0.  0.
     999903    2    3    3    0    0 -0.58097607516E-01  0.87236267550E-01 -0.66716385807E-01  0.12578159873E+00  0.19607041318E-01 0.  0.
         14    1    1    2    0    0 -0.17513824170E-01  0.92899735852E-02 -0.16452940460E-01  0.25763091741E-01  0.00000000000E+00 0. -1.
     999901    1    3    3    0    0  0.75611431686E-01 -0.96526241135E-01  0.83169326266E-01  0.89238530953E+00  0.88000000000E+00 0. -1.
        -11    1    4    4    0    0 -0.22339712813E-01  0.28358296176E-01 -0.33709064259E-01  0.49394512497E-01  0.51100000000E-03 0.  1.
         11    1    4    4    0    0 -0.35757894703E-01  0.58877971374E-01 -0.33007321548E-01  0.76387086235E-01  0.51100000000E-03 0. -1.
</event>
<event>
 8    1  0.1065239E+005  0.1043930E+01  0.7957747E-01            NaN
         13   -1    0    0    0    0  0.00000000000E+00  0.00000000000E+00  0.74505805969E-08  0.10566000000E+00  0.10566000000E+00 0.  1.
     999900   -1    0    0    0    0 -0.00000000000E+00 -0.00000000000E+00 -0.74505805969E-08  0.93827000000E+00  0.93827000000E+00 0. -1.
     999902    2    1    2    0    0 -0.10066981823E-01 -0.19707980311E-01 -0.26201829237E-02  0.10216451628E+01  0.10214020877E+01 0.  0.
     999903    2    3    3    0    0 -0.52469585519E-01 -0.77431308466E-01 -0.93767638397E-01  0.13404287457E+00  0.20650842042E-01 0.  0.
         14    1    1    2    0    0  0.10066981823E-01  0.19707980311E-01  0.26201829237E-02  0.22284837211E-01  0.00000000000E+00 0.  1.
     999901    1    3    3    0    0  0.42402603696E-01  0.57723328155E-01  0.91147455473E-01  0.88760228822E+00  0.88000000000E+00 0.  1.
        -11    1    4    4    0    0 -0.32409151221E-01 -0.48490068364E-01 -0.71923955040E-01  0.92601059618E-01  0.51100000000E-03 0. -1.
         11    1    4    4    0    0 -0.20060434298E-01 -0.28941240102E-01 -0.21843683357E-01  0.41441814951E-01  0.51100000000E-03 0.  1.
</event>
<event>
 8    1  0.1065239E+005  0.1043930E+01  0.7957747E-01            NaN
         13   -1    0    0    0    0  0.00000000000E+00  0.00000000000E+00  0.74505805969E-08  0.10566000000E+00  0.10566000000E+00 0.  1.
     999900   -1    0    0    0    0 -0.00000000000E+00 -0.00000000000E+00 -0.74505805969E-08  0.93827000000E+00  0.93827000000E+00 0. -1.
     999902    2    1    2    0    0 -0.93101730751E-02 -0.24066943631E-01 -0.10541316640E-01  0.10160549851E+01  0.10156725438E+01 0.  0.
     999903    2    3    3    0    0 -0.94865867546E-01 -0.84647567596E-01 -0.14959266737E-01  0.12982177250E+00  0.21567786827E-01 0.  0.
         14    1    1    2    0    0  0.93101730751E-02  0.24066943631E-01  0.10541316640E-01  0.27875014886E-01  0.00000000000E+00 0.  1.
     999901    1    3    3    0    0  0.85555694471E-01  0.60580623965E-01  0.44179500970E-02  0.88623321261E+00  0.88000000000E+00 0.  1.
        -11    1    4    4    0    0 -0.31082633076E-01 -0.22282380461E-01  0.45149285409E-02  0.38513377658E-01  0.51100000000E-03 0.  1.
         11    1    4    4    0    0 -0.63783234470E-01 -0.62365187135E-01 -0.19474195278E-01  0.91308394842E-01  0.51100000000E-03 0. -1.
</event>
<event>
 8    1  0.1065239E+005  0.1043930E+01  0.7957747E-01            NaN
         13   -1    0    0    0    0  0.00000000000E+00  0.00000000000E+00  0.74505805969E-08  0.10566000000E+00  0.10566000000E+00 0.  1.
     999900   -1    0    0    0    0 -0.00000000000E+00 -0.00000000000E+00 -0.74505805969E-08  0.93827000000E+00  0.93827000000E+00 0. -1.
     999902    2    1    2    0    0  0.14226140271E-01 -0.17759595876E-01 -0.83219906592E-02  0.10197010537E+01  0.10194131630E+01 0.  0.
     999903    2    3    3    0    0 -0.99800792155E-01 -0.60248369410E-01 -0.54250663878E-01  0.13014111738E+00  0.20087602400E-01 0.  0.
         14    1    1    2    0    0 -0.14226140271E-01  0.17759595876E-01  0.83219906592E-02  0.24228946350E-01  0.00000000000E+00 0.  1.
     999901    1    3    3    0    0  0.11402693243E+00  0.42488773534E-01  0.45928673218E-01  0.88955993627E+00  0.88000000000E+00 0.  1.
        -11    1    4    4    0    0 -0.15543916060E-01 -0.71528907623E-02 -0.85907127446E-03  0.17139903652E-01  0.51100000000E-03 0.  1.
         11    1    4    4    0    0 -0.84256876095E-01 -0.53095478648E-01 -0.53391592603E-01  0.11300121373E+00  0.51100000000E-03 0. -1.
</event>
<event>
 8    1  0.1065239E+005  0.1043930E+01  0.7957747E-01            NaN
         13   -1    0    0    0    0  0.00000000000E+00  0.00000000000E+00  0.74505805969E-08  0.10566000000E+00  0.10566000000E+00 0. -1.
     999900   -1    0    0    0    0 -0.00000000000E+00 -0.00000000000E+00 -0.74505805969E-08  0.93827000000E+00  0.93827000000E+00 0. -1.
     999902    2    1    2    0    0  0.22734644394E-01 -0.87163201171E-02 -0.46023115369E-02  0.10191505819E+01  0.10188492965E+01 0.  0.
     999903    2    3    3    0    0 -0.94963533524E-01 -0.66914836410E-01 -0.50007096251E-01  0.12825130424E+00  0.21260746281E-01 0.  0.
         14    1    1    2    0    0 -0.22734644394E-01  0.87163201171E-02  0.46023115369E-02  0.24779418144E-01  0.00000000000E+00 0. -1.
     999901    1    3    3    0    0  0.11769817792E+00  0.58198516293E-01  0.45404784714E-01  0.89089927762E+00  0.88000000000E+00 0. -1.
        -11    1    4    4    0    0 -0.51358949886E-01 -0.48779035360E-01 -0.28399999730E-01  0.76314855236E-01  0.51100000000E-03 0. -1.
         11    1    4    4    0    0 -0.43604583638E-01 -0.18135801050E-01 -0.21607096521E-01  0.51936449002E-01  0.51100000000E-03 0.  1.
</event>
<event>
 8    1  0.1065239E+005  0.1043930E+01  0.7957747E-01            NaN
         13   -1    0    0    0    0  0.00000000000E+00  0.00000000000E+00  0.74505805969E-08  0.10566000000E+00  0.10566000000E+00 0. -1.
     999900   -1    0    0    0    0 -0.00000000000E+00 -0.00000000000E+00 -0.74505805969E-08  0.93827000000E+00  0.93827000000E+00 0. -1.
     999902    2    1    2    0    0 -0.17912005744E-01 -0.53414337798E-02  0.14809135360E-01  0.10200829592E+01  0.10198041784E+01 0.  0.
     999903    2    3    3    0    0  0.68333143524E-02  0.77689941550E-01 -0.99983028883E-01  0.12840825331E+00  0.20239867860E-01 0.  0.
         14    1    1    2    0    0  0.17912005744E-01  0.53414337798E-02 -0.14809135360E-01  0.23847040796E-01  0.00000000000E+00 0.  1.
     999901    1    3    3    0    0 -0.24745320097E-01 -0.83031375330E-01  0.11479216424E+00  0.89167470589E+00  0.88000000000E+00 0.  1.
        -11    1    4    4    0    0  0.12844595949E-01  0.54973436855E-01 -0.63067458775E-01  0.84645306321E-01  0.51100000000E-03 0.  1.
         11    1    4    4    0    0 -0.60112815971E-02  0.22716504694E-01 -0.36915570108E-01  0.43762946991E-01  0.51100000000E-03 0. -1.
</event>
<event>
 8    1  0.1065239E+005  0.1043930E+01  0.7957747E-01            NaN
         13   -1    0    0    0    0  0.00000000000E+00  0.00000000000E+00  0.74505805969E-08  0.10566000000E+00  0.10566000000E+00 0.  1.
     999900   -1    0    0    0    0 -0.00000000000E+00 -0.00000000000E+00 -0.74505805969E-08  0.93827000000E+00  0.93827000000E+00 0. -1.
     999902    2    1    2    0    0  0.52371366713E-02 -0.12890922625E-01 -0.19622216176E-01  0.10198751698E+01  0.10195914511E+01 0.  0.
     999903    2    3    3    0    0 -0.11748417649E+00 -0.43691252023E-01  0.27025457748E-01  0.12960263489E+00  0.18841719018E-01 0.  0.
         14    1    1    2    0    0 -0.52371366713E-02  0.12890922625E-01  0.19622216176E-01  0.24054830166E-01  0.00000000000E+00 0.  1.
     999901    1    3    3    0    0  0.12272131316E+00  0.30800329398E-01 -0.46647673924E-01  0.89027253494E+00  0.88000000000E+00 0. -1.
        -11    1    4    4    0    0 -0.71180226763E-01 -0.21660773957E-01  0.77015137613E-02  0.74802327809E-01  0.51100000000E-03 0. -1.
         11    1    4    4    0    0 -0.46303949725E-01 -0.22030478066E-01  0.19323943987E-01  0.54800307081E-01  0.51100000000E-03 0.  1.
</event>
<event>
 8    1  0.1065239E+005  0.1043930E+01  0.7957747E-01            NaN
         13   -1    0    0    0    0  0.00000000000E+00  0.00000000000E+00  0.74505805969E-08  0.10566000000E+00  0.10566000000E+00 0.  1.
     999900   -1    0    0    0    0 -0.00000000000E+00 -0.00000000000E+00 -0.74505805969E-08  0.93827000000E+00  0.93827000000E+00 0. -1.
     999902    2    1    2    0    0 -0.16159839314E-01  0.15942031726E-01  0.61101811021E-02  0.10204220631E+01  0.10201512456E+01 0.  0.
     999903    2    3    3    0    0  0.31587854603E-01  0.12567263768E+00 -0.15370824431E-01  0.13206285553E+00  0.20320707335E-01 0.  0.
         14    1    1    2    0    0  0.16159839314E-01 -0.15942031726E-01 -0.61101811021E-02  0.23507936858E-01  0.00000000000E+00 0. -1.
     999901    1    3    3    0    0 -0.47747693917E-01 -0.10973060595E+00  0.21481005533E-01  0.88835920762E+00  0.88000000000E+00 0.  1.
        -11    1    4    4    0    0  0.42134492560E-02  0.40534614154E-01 -0.12324421145E-01  0.42578874771E-01  0.51100000000E-03 0. -1.
         11    1    4    4    0    0  0.27374405347E-01  0.85138023525E-01 -0.30464032862E-02  0.89483980756E-01  0.51100000000E-03 0.  1.
</event>
<event>
 8    1  0.1065239E+005  0.1043930E+01  0.7957747E-01            NaN
         13   -1    0    0    0    0  0.00000000000E+00  0.00000000000E+00  0.74505805969E-08  0.10566000000E+00  0.10566000000E+00 0.  1.
     999900   -1    0    0    0    0 -0.00000000000E+00 -0.00000000000E+00 -0.74505805969E-08  0.93827000000E+00  0.93827000000E+00 0. -1.
     999902    2    1    2    0    0  0.19460337980E-01 -0.59823784073E-02 -0.64154183171E-02  0.10225840121E+01  0.10223611938E+01 0.  0.
     999903    2    3    3    0    0 -0.90405098653E-01  0.78436592942E-01  0.46739147098E-01  0.13015900984E+00  0.20771109678E-01 0.  0.
         14    1    1    2    0    0 -0.19460337980E-01  0.59823784073E-02  0.64154183171E-02  0.21345987864E-01  0.00000000000E+00 0. -1.
     999901    1    3    3    0    0  0.10986543663E+00 -0.84418971350E-01 -0.53154565415E-01  0.89242500229E+00  0.88000000000E+00 0. -1.
        -11    1    4    4    0    0 -0.58375644135E-01  0.50588887441E-01  0.19319254076E-01  0.79626917935E-01  0.51100000000E-03 0.  1.
         11    1    4    4    0    0 -0.32029454518E-01  0.27847705502E-01  0.27419893022E-01  0.50532091910E-01  0.51100000000E-03 0. -1.
</event>
<event>
 8    1  0.1065239E+005  0.1043930E+01  0.7957747E-01            NaN
         13   -1    0    0    0    0  0.00000000000E+00  0.00000000000E+00  0.74505805969E-08  0.10566000000E+00  0.10566000000E+00 0.  1.
     999900   -1    0    0    0    0 -0.00000000000E+00 -0.00000000000E+00 -0.74505805969E-08  0.93827000000E+00  0.93827000000E+00 0. -1.
     999902    2    1    2    0    0 -0.38188883132E-02  0.20595053676E-01  0.10992184591E-01  0.10202748047E+01  0.10200005435E+01 0.  0.
     999903    2    3    3    0    0 -0.10847293244E+00 -0.20078298134E-01  0.68449402007E-01  0.13128204749E+00  0.19497185177E-01 0.  0.
         14    1    1    2    0    0  0.38188883132E-02 -0.20595053676E-01 -0.10992184591E-01  0.23655195327E-01  0.00000000000E+00 0. -1.
     999901    1    3    3    0    0  0.10465404412E+00  0.40673351810E-01 -0.57457217416E-01  0.88899275719E+00  0.88000000000E+00 0. -1.
        -11    1    4    4    0    0 -0.84418573357E-01 -0.15821465473E-01  0.62244966664E-01  0.10607314124E+00  0.51100000000E-03 0. -1.
         11    1    4    4    0    0 -0.24054359079E-01 -0.42568326606E-02  0.62044353427E-02  0.25208906242E-01  0.51100000000E-03 0.  1.
</event>
<event>
 8    1  0.1065239E+005  0.1043930E+01  0.7957747E-01            NaN
         13   -1    0    0    0    0  0.00000000000E+00  0.00000000000E+00  0.74505805969E-08  0.10566000000E+00  0.10566000000E+00 0. -1.
     999900   -1    0    0    0    0 -0.00000000000E+00 -0.00000000000E+00 -0.74505805969E-08  0.93827000000E+00  0.93827000000E+00 0. -1.
     999902    2    1    2    0    0 -0.18245113324E-01  0.16179282638E-01 -0.23313369865E-03  0.10195433705E+01  0.10192516748E+01 0.  0.
     999903    2    3    3    0    0  0.10611671717E+00 -0.83718603619E-02  0.67773091589E-01  0.12786323156E+00  0.20614760070E-01 0.  0.
         14    1    1    2    0    0  0.18245113324E-01 -0.16179282638E-01  0.23313369865E-03  0.24386629497E-01  0.00000000000E+00 0. -1.
     999901    1    3    3    0    0 -0.12436183049E+00  0.24551143000E-01 -0.68006225288E-01  0.89168013894E+00  0.88000000000E+00 0. -1.
        -11    1    4    4    0    0  0.39309647112E-01 -0.19785639826E-02  0.37029243140E-01  0.54042474407E-01  0.51100000000E-03 0. -1.
         11    1    4    4    0    0  0.66807070057E-01 -0.63932963793E-02  0.30743848450E-01  0.73820757154E-01  0.51100000000E-03 0.  1.
</event>
<event>
 8    1  0.1065239E+005  0.1043930E+01  0.7957747E-01            NaN
         13   -1    0    0    0    0  0.00000000000E+00  0.00000000000E+00  0.74505805969E-08  0.10566000000E+00  0.10566000000E+00 0. -1.
     999900   -1    0    0    0    0 -0.00000000000E+00 -0.00000000000E+00 -0.74505805969E-08  0.93827000000E+00  0.93827000000E+00 0. -1.
     999902    2    1    2    0    0 -0.12335179664E-01 -0.15691385882E-02 -0.23208900684E-01  0.10175999426E+01  0.10172592448E+01 0.  0.
     999903    2    3    3    0    0  0.96704569421E-02 -0.10470254452E+00  0.67731641761E-01  0.12665048849E+00  0.19915581201E-01 0.  0.
         14    1    1    2    0    0  0.12335179664E-01  0.15691385882E-02  0.23208900684E-01  0.26330057429E-01  0.00000000000E+00 0. -1.
     999901    1    3    3    0    0 -0.22005636606E-01  0.10313340593E+00 -0.90940542445E-01  0.89094945408E+00  0.88000000000E+00 0. -1.
        -11    1    4    4    0    0  0.14532777519E-01 -0.80988956794E-01  0.46910089159E-01  0.94716578965E-01  0.51100000000E-03 0. -1.
         11    1    4    4    0    0 -0.48623205766E-02 -0.23713587721E-01  0.20821552602E-01  0.31933909528E-01  0.51100000000E-03 0.  1.
</event>
<event>
 8    1  0.1065239E+005  0.1043930E+01  0.7957747E-01            NaN
         13   -1    0    0    0    0  0.00000000000E+00  0.00000000000E+00  0.74505805969E-08  0.10566000000E+00  0.10566000000E+00 0.  1.
     999900   -1    0    0    0    0 -0.00000000000E+00 -0.00000000000E+00 -0.74505805969E-08  0.93827000000E+00  0.93827000000E+00 0. -1.
     999902    2    1    2    0    0 -0.19159149709E-01  0.17547612969E-02  0.12757937554E-01  0.10208450011E+01  0.10205839500E+01 0.  0.
     999903    2    3    3    0    0 -0.29650293909E-02 -0.12874395630E+00  0.13340354689E-01  0.13107396084E+00  0.20460216644E-01 0.  0.
         14    1    1    2    0    0  0.19159149709E-01 -0.17547612969E-02 -0.12757937554E-01  0.23084998926E-01  0.00000000000E+00 0.  1.
     999901    1    3    3    0    0 -0.16194120318E-01  0.13049871759E+00 -0.58241713424E-03  0.88977104023E+00  0.88000000000E+00 0.  1.
        -11    1    4    4    0    0  0.28091605247E-02 -0.11913998471E+00  0.12359431417E-01  0.11981337156E+00  0.51100000000E-03 0. -1.
         11    1    4    4    0    0 -0.57741899156E-02 -0.96039715915E-02  0.98092327178E-03  0.11260589282E-01  0.51100000000E-03 0.  1.
</event>
<event>
 8    1  0.1065239E+005  0.1043930E+01  0.7957747E-01            NaN
         13   -1    0    0    0    0  0.00000000000E+00  0.00000000000E+00  0.74505805969E-08  0.10566000000E+00  0.10566000000E+00 0. -1.
     999900   -1    0    0    0    0 -0.00000000000E+00 -0.00000000000E+00 -0.74505805969E-08  0.93827000000E+00  0.93827000000E+00 0. -1.
     999902    2    1    2    0    0  0.13283898271E-01  0.16758882984E-01  0.51150165527E-02  0.10219416961E+01  0.10217051164E+01 0.  0.
     999903    2    3    3    0    0 -0.52324999646E-01  0.10060622088E+00  0.67303197324E-01  0.13334602128E+00  0.19797064286E-01 0.  0.
         14    1    1    2    0    0 -0.13283898271E-01 -0.16758882984E-01 -0.51150165527E-02  0.21988303856E-01  0.00000000000E+00 0.  1.
     999901    1    3    3    0    0  0.65608897918E-01 -0.83847337893E-01 -0.62188180771E-01  0.88859567486E+00  0.88000000000E+00 0.  1.
        -11    1    4    4    0    0 -0.36070577404E-01  0.55763180435E-01  0.30423721937E-01  0.73051234240E-01  0.51100000000E-03 0.  1.
         11    1    4    4    0    0 -0.16254422243E-01  0.44843040441E-01  0.36879475388E-01  0.60294787041E-01  0.51100000000E-03 0. -1.
</event>
<event>
 8    1  0.1065239E+005  0.1043930E+01  0.7957747E-01            NaN
         13   -1    0    0    0    0  0.00000000000E+00  0.00000000000E+00  0.74505805969E-08  0.10566000000E+00  0.10566000000E+00 0.  1.
     999900   -1    0    0    0    0 -0.00000000000E+00 -0.00000000000E+00 -0.74505805969E-08  0.93827000000E+00  0.93827000000E+00 0. -1.
     999902    2    1    2    0    0  0.84574863060E-02  0.17646952816E-02 -0.22031204326E-01  0.10202653177E+01  0.10199908339E+01 0.  0.
     999903    2    3    3    0    0 -0.17060567340E-01 -0.12675019887E+00 -0.17553724665E-01  0.13055339978E+00  0.19477707030E-01 0.  0.
         14    1    1    2    0    0 -0.84574863060E-02 -0.17646952816E-02  0.22031204326E-01  0.23664682295E-01  0.00000000000E+00 0.  1.
     999901    1    3    3    0    0  0.25518053646E-01  0.12851489415E+00 -0.44774796610E-02  0.88971191793E+00  0.88000000000E+00 0.  1.
        -11    1    4    4    0    0 -0.16882760924E-02 -0.15871907895E-01  0.42147161992E-02  0.16516436965E-01  0.51100000000E-03 0. -1.
         11    1    4    4    0    0 -0.15372291248E-01 -0.11087829098E+00 -0.21768440864E-01  0.11403696281E+00  0.51100000000E-03 0.  1.
</event>
<event>
 8    1  0.1065239E+005  0.1043930E+01  0.7957747E-01            NaN
         13   -1    0    0    0    0  0.00000000000E+00  0.00000000000E+00  0.74505805969E-08  0.10566000000E+00  0.10566000000E+00 0. -1.
     999900   -1    0    0    0    0 -0.00000000000E+00 -0.00000000000E+00 -0.74505805969E-08  0.93827000000E+00  0.93827000000E+00 0.  1.
     999902    2    1    2    0    0 -0.67522699554E-02  0.18216749254E-01 -0.13462782603E-01  0.10202933839E+01  0.10200195585E+01 0.  0.
     999903    2    3    3    0    0  0.61678115669E-01  0.87621370140E-01 -0.75556719923E-01  0.13273754000E+00  0.20706089487E-01 0.  0.
         14    1    1    2    0    0  0.67522699554E-02 -0.18216749254E-01  0.13462782603E-01  0.23636616052E-01  0.00000000000E+00 0. -1.
     999901    1    3    3    0    0 -0.68430385624E-01 -0.69404620885E-01  0.62093937320E-01  0.88755584395E+00  0.88000000000E+00 0.  1.
        -11    1    4    4    0    0  0.21670277006E-01  0.37188635555E-01 -0.41998706551E-01  0.60139404660E-01  0.51100000000E-03 0.  1.
         11    1    4    4    0    0  0.40007838663E-01  0.50432734585E-01 -0.33558013372E-01  0.72598135339E-01  0.51100000000E-03 0. -1.
</event>
<event>
 8    1  0.1065239E+005  0.1043930E+01  0.7957747E-01            NaN
         13   -1    0    0    0    0  0.00000000000E+00  0.00000000000E+00  0.74505805969E-08  0.10566000000E+00  0.10566000000E+00 0. -1.
     999900   -1    0    0    0    0 -0.00000000000E+00 -0.00000000000E+00 -0.74505805969E-08  0.93827000000E+00  0.93827000000E+00 0.  1.
     999902    2    1    2    0    0 -0.74814576202E-02 -0.20277027916E-01  0.27080849789E-02  0.10221478102E+01  0.10219156922E+01 0.  0.
     999903    2    3    3    0    0 -0.52166076614E-01  0.20119632578E-01 -0.11750795685E+00  0.13193407064E+00  0.21734302549E-01 0.  0.
         14    1    1    2    0    0  0.74814576202E-02  0.20277027916E-01 -0.27080849789E-02  0.21782189823E-01  0.00000000000E+00 0.  1.
     999901    1    3    3    0    0  0.44684618994E-01 -0.40396660494E-01  0.12021604183E+00  0.89021373954E+00  0.88000000000E+00 0. -1.
        -11    1    4    4    0    0 -0.47123706157E-01  0.99527766350E-02 -0.88078694225E-01  0.10038834067E+00  0.51100000000E-03 0. -1.
         11    1    4    4    0    0 -0.50423704569E-02  0.10166855943E-01 -0.29429262625E-01  0.31545729968E-01  0.51100000000E-03 0.  1.
</event>
<event>
 8    1  0.1065239E+005  0.1043930E+01  0.7957747E-01            NaN
         13   -1    0    0    0    0  0.00000000000E+00  0.00000000000E+00  0.74505805969E-08  0.10566000000E+00  0.10566000000E+00 0. -1.
     999900   -1    0    0    0    0 -0.00000000000E+00 -0.00000000000E+00 -0.74505805969E-08  0.93827000000E+00  0.93827000000E+00 0. -1.
     999902    2    1    2    0    0  0.73094147298E-02 -0.22300565304E-01  0.24145478608E-02  0.10203382049E+01  0.10200654290E+01 0.  0.
     999903    2    3    3    0    0  0.50797162849E-01 -0.12208029480E+00  0.67194624439E-02  0.13362195321E+00  0.18047855058E-01 0.  0.
         14    1    1    2    0    0 -0.73094147298E-02  0.22300565304E-01 -0.24145478608E-02  0.23591795140E-01  0.00000000000E+00 0. -1.
     999901    1    3    3    0    0 -0.43487748119E-01  0.99779729493E-01 -0.43049145831E-02  0.88671625165E+00  0.88000000000E+00 0.  1.
        -11    1    4    4    0    0  0.40674752785E-02 -0.27072363512E-01 -0.15152826307E-02  0.27422881389E-01  0.51100000000E-03 0.  1.
         11    1    4    4    0    0  0.46729687570E-01 -0.95007931286E-01  0.82347450746E-02  0.10619907182E+00  0.51100000000E-03 0. -1.
</event>
<event>
 8    1  0.1065239E+005  0.1043930E+01  0.7957747E-01            NaN
         13   -1    0    0    0    0  0.00000000000E+00  0.00000000000E+00  0.74505805969E-08  0.10566000000E+00  0.10566000000E+00 0.  1.
     999900   -1    0    0    0    0 -0.00000000000E+00 -0.00000000000E+00 -0.74505805969E-08  0.93827000000E+00  0.93827000000E+00 0.  1.
     999902    2    1    2    0    0 -0.13210575938E-01 -0.18989530665E-01 -0.46593874812E-03  0.10207926127E+01  0.10205303619E+01 0.  0.
     999903    2    3    3    0    0 -0.80006049728E-01 -0.53167601482E-01  0.90060372615E-01  0.13297236689E+00  0.18520739745E-01 0.  0.
         14    1    1    2    0    0  0.13210575938E-01  0.18989530665E-01  0.46593874812E-03  0.23137387286E-01  0.00000000000E+00 0. -1.
     999901    1    3    3    0    0  0.66795473791E-01  0.34178070817E-01 -0.90526311363E-01  0.88782024582E+00  0.88000000000E+00 0.  1.
        -11    1    4    4    0    0 -0.31744430448E-01 -0.11458863481E-01  0.36097186015E-01  0.49419453416E-01  0.51100000000E-03 0.  1.
         11    1    4    4    0    0 -0.48261619280E-01 -0.41708738001E-01  0.53963186600E-01  0.83552913476E-01  0.51100000000E-03 0. -1.
</event>
<event>
 8    1  0.1065239E+005  0.1043930E+01  0.7957747E-01            NaN
         13   -1    0    0    0    0  0.00000000000E+00  0.00000000000E+00  0.74505805969E-08  0.10566000000E+00  0.10566000000E+00 0. -1.
     999900   -1    0    0    0    0 -0.00000000000E+00 -0.00000000000E+00 -0.74505805969E-08  0.93827000000E+00  0.93827000000E+00 0.  1.
     999902    2    1    2    0    0 -0.20561043776E-01 -0.10326308161E-01 -0.66142304950E-02  0.10199897158E+01  0.10197087247E+01 0.  0.
     999903    2    3    3    0    0 -0.35996761304E-02 -0.46843520262E-01  0.11969084541E+00  0.13006041134E+00  0.19558605916E-01 0.  0.
         14    1    1    2    0    0  0.20561043776E-01  0.10326308161E-01  0.66142304950E-02  0.23940284176E-01  0.00000000000E+00 0.  1.
     999901    1    3    3    0    0 -0.16961367646E-01  0.36517212101E-01 -0.12630507590E+00  0.88992930448E+00  0.88000000000E+00 0.  1.
        -11    1    4    4    0    0  0.62098571536E-02 -0.24503711226E-01  0.74907487375E-01  0.79059388915E-01  0.51100000000E-03 0.  1.
         11    1    4    4    0    0 -0.98095332840E-02 -0.22339809035E-01  0.44783358034E-01  0.51001022429E-01  0.51100000000E-03 0. -1.
</event>
<event>
 8    1  0.1065239E+005  0.1043930E+01  0.7957747E-01            NaN
         13   -1    0    0    0    0  0.00000000000E+00  0.00000000000E+00  0.74505805969E-08  0.10566000000E+00  0.10566000000E+00 0.  1.
     999900   -1    0    0    0    0 -0.00000000000E+00 -0.00000000000E+00 -0.74505805969E-08  0.93827000000E+00  0.93827000000E+00 0.  1.
     999902    2    1    2    0    0  0.39326488025E-02 -0.11689804307E-01 -0.20215113284E-01  0.10202494583E+01  0.10199746022E+01 0.  0.
     999903    2    3    3    0    0  0.53185298410E-01 -0.11915255341E+00  0.10388587837E-02  0.13209080281E+00  0.20515701515E-01 0.  0.
         14    1    1    2    0    0 -0.39326488025E-02  0.11689804307E-01  0.20215113284E-01  0.23680541726E-01  0.00000000000E+00 0.  1.
     999901    1    3    3    0    0 -0.49252649607E-01  0.10746274911E+00 -0.21253972068E-01  0.88815865546E+00  0.88000000000E+00 0.  1.
        -11    1    4    4    0    0  0.21811987946E-01 -0.32216007090E-01  0.67450933411E-02  0.39489129342E-01  0.51100000000E-03 0.  1.
         11    1    4    4    0    0  0.31373310464E-01 -0.86936546324E-01 -0.57062345575E-02  0.92601673473E-01  0.51100000000E-03 0. -1.
</event>
<event>
 8    1  0.1065239E+005  0.1043930E+01  0.7957747E-01            NaN
         13   -1    0    0    0    0  0.00000000000E+00  0.00000000000E+00  0.74505805969E-08  0.10566000000E+00  0.10566000000E+00 0. -1.
     999900   -1    0    0    0    0 -0.00000000000E+00 -0.00000000000E+00 -0.74505805969E-08  0.93827000000E+00  0.93827000000E+00 0.  1.
     999902    2    1    2    0    0 -0.16193809632E-01 -0.96008341298E-02 -0.11545765725E-01  0.10218456120E+01  0.10216069374E+01 0.  0.
     999903    2    3    3    0    0 -0.13028135098E+00 -0.10653015933E-01  0.15629761753E-01  0.13406434196E+00  0.25342477612E-01 0.  0.
         14    1    1    2    0    0  0.16193809632E-01  0.96008341298E-02  0.11545765725E-01  0.22084387983E-01  0.00000000000E+00 0. -1.
     999901    1    3    3    0    0  0.11408754134E+00  0.10521818032E-02 -0.27175527478E-01  0.88778127006E+00  0.88000000000E+00 0.  1.
        -11    1    4    4    0    0 -0.21049870437E-01  0.58584289652E-02 -0.29004549911E-02  0.22047494087E-01  0.51100000000E-03 0. -1.
         11    1    4    4    0    0 -0.10923148054E+00 -0.16511444898E-01  0.18530216744E-01  0.11201684787E+00  0.51100000000E-03 0.  1.
</event>
<event>
 8    1  0.1065239E+005  0.1043930E+01  0.7957747E-01            NaN
         13   -1    0    0    0    0  0.00000000000E+00  0.00000000000E+00  0.74505805969E-08  0.10566000000E+00  0.10566000000E+00 0. -1.
     999900   -1    0    0    0    0 -0.00000000000E+00 -0.00000000000E+00 -0.74505805969E-08  0.93827000000E+00  0.93827000000E+00 0.  1.
     999902    2    1    2    0    0  0.53795521959E-02  0.77264684184E-02  0.21476579518E-01  0.10204804507E+01  0.10202109923E+01 0.  0.
     999903    2    3    3    0    0 -0.77068343548E-01  0.50444714697E-01 -0.88300920267E-01  0.12881145180E+00  0.17639126331E-01 0.  0.
         14    1    1    2    0    0 -0.53795521959E-02 -0.77264684184E-02 -0.21476579518E-01  0.23449549331E-01  0.00000000000E+00 0.  1.
     999901    1    3    3    0    0  0.82447895744E-01 -0.42718246279E-01  0.10977749978E+00  0.89166899886E+00  0.88000000000E+00 0. -1.
        -11    1    4    4    0    0 -0.36992793147E-01  0.31305388654E-01 -0.54957378226E-01  0.73273928829E-01  0.51100000000E-03 0. -1.
         11    1    4    4    0    0 -0.40075550401E-01  0.19139326044E-01 -0.33343542041E-01  0.55537522975E-01  0.51100000000E-03 0.  1.
</event>
<event>
 8    1  0.1065239E+005  0.1043930E+01  0.7957747E-01            NaN
         13   -1    0    0    0    0  0.00000000000E+00  0.00000000000E+00  0.74505805969E-08  0.10566000000E+00  0.10566000000E+00 0. -1.
     999900   -1    0    0    0    0 -0.00000000000E+00 -0.00000000000E+00 -0.74505805969E-08  0.93827000000E+00  0.93827000000E+00 0. -1.
     999902    2    1    2    0    0 -0.63525414404E-02 -0.25374160018E-02  0.25009193277E-01  0.10180021576E+01  0.10176719215E+01 0.  0.
     999903    2    3    3    0    0  0.48817146795E-01 -0.19203109214E-02  0.12020637148E+00  0.13115009663E+00  0.19078120676E-01 0.  0.
         14    1    1    2    0    0  0.63525414404E-02  0.25374160018E-02 -0.25009193277E-01  0.25927842391E-01  0.00000000000E+00 0.  1.
     999901    1    3    3    0    0 -0.55169688236E-01 -0.61710508037E-03 -0.95197178198E-01  0.88685206098E+00  0.88000000000E+00 0. -1.
        -11    1    4    4    0    0  0.21320485393E-01 -0.34236248997E-02  0.76486957265E-01  0.79478299286E-01  0.51100000000E-03 0.  1.
         11    1    4    4    0    0  0.27496661402E-01  0.15033139783E-02  0.43719414211E-01  0.51671797347E-01  0.51100000000E-03 0. -1.
</event>
<event>
 8    1  0.1065239E+005  0.1043930E+01  0.7957747E-01            NaN
         13   -1    0    0    0    0  0.00000000000E+00  0.00000000000E+00  0.74505805969E-08  0.10566000000E+00  0.10566000000E+00 0. -1.
     999900   -1    0    0    0    0 -0.00000000000E+00 -0.00000000000E+00 -0.74505805969E-08  0.93827000000E+00  0.93827000000E+00 0. -1.
     999902    2    1    2    0    0  0.43350528374E-02 -0.15901037395E-01  0.18210917488E-01  0.10193683798E+01  0.10190724314E+01 0.  0.
     999903    2    3    3    0    0  0.70617822369E-02  0.18354126790E-01  0.12875308663E+00  0.13178715954E+00  0.20093664779E-01 0.  0.
         14    1    1    2    0    0 -0.43350528374E-02  0.15901037395E-01 -0.18210917488E-01  0.24561620245E-01  0.00000000000E+00 0.  1.
     999901    1    3    3    0    0 -0.27267293995E-02 -0.34255164184E-01 -0.11054216914E+00  0.88758122022E+00  0.88000000000E+00 0.  1.
        -11    1    4    4    0    0 -0.10825113176E-02 -0.29391577714E-02  0.40896992496E-01  0.41019941435E-01  0.51100000000E-03 0. -1.
         11    1    4    4    0    0  0.81442935545E-02  0.21293284561E-01  0.87856094131E-01  0.90767218101E-01  0.51100000000E-03 0.  1.
</event>
<event>
 8    1  0.1065239E+005  0.1043930E+01  0.7957747E-01            NaN
         13   -1    0    0    0    0  0.00000000000E+00  0.00000000000E+00  0.74505805969E-08  0.10566000000E+00  0.10566000000E+00 0.  1.
     999900   -1    0    0    0    0 -0.00000000000E+00 -0.00000000000E+00 -0.74505805969E-08  0.93827000000E+00  0.93827000000E+00 0. -1.
     999902    2    1    2    0    0  0.92874896284E-02  0.19115605771E-01 -0.99326348868E-02  0.10204710767E+01  0.10202014003E+01 0.  0.
     999903    2    3    3    0    0 -0.10088941035E+00 -0.76264049479E-01  0.10147560232E-01  0.12826065186E+00  0.18786789842E-01 0.  0.
         14    1    1    2    0    0 -0.92874896284E-02 -0.19115605771E-01  0.99326348868E-02  0.23458923321E-01  0.00000000000E+00 0. -1.
     999901    1    3    3    0    0  0.11017689998E+00  0.95379655249E-01 -0.20080195118E-01  0.89221042482E+00  0.88000000000E+00 0. -1.
        -11    1    4    4    0    0 -0.44711173740E-01 -0.22862773867E-01  0.67896132978E-02  0.50676971652E-01  0.51100000000E-03 0. -1.
         11    1    4    4    0    0 -0.56178236611E-01 -0.53401275612E-01  0.33579469337E-02  0.77583680206E-01  0.51100000000E-03 0.  1.
</event>
<event>
 8    1  0.1065239E+005  0.1043930E+01  0.7957747E-01            NaN
         13   -1    0    0    0    0  0.00000000000E+00  0.00000000000E+00  0.74505805969E-08  0.10566000000E+00  0.10566000000E+00 0. -1.
     999900   -1    0    0    0    0 -0.00000000000E+00 -0.00000000000E+00 -0.74505805969E-08  0.93827000000E+00  0.93827000000E+00 0. -1.
     999902    2    1    2    0    0  0.10597810416E-01 -0.59626931481E-02  0.20423901154E-01  0.10201602075E+01  0.10198832512E+01 0.  0.
     999903    2    3    3    0    0  0.32191794138E-03  0.11723551162E+00 -0.48970107753E-01  0.12881351848E+00  0.21226923333E-01 0.  0.
         14    1    1    2    0    0 -0.10597810416E-01  0.59626931481E-02 -0.20423901154E-01  0.23769792459E-01  0.00000000000E+00 0.  1.
     999901    1    3    3    0    0  0.10275892474E-01 -0.12319820477E+00  0.69394008908E-01  0.89134668906E+00  0.88000000000E+00 0.  1.
        -11    1    4    4    0    0  0.10376080293E-01  0.67107333885E-01 -0.30624095132E-01  0.74492641429E-01  0.51100000000E-03 0.  1.
         11    1    4    4    0    0 -0.10054162352E-01  0.50128177735E-01 -0.18346012622E-01  0.54320877053E-01  0.51100000000E-03 0. -1.
</event>
<event>
 8    1  0.1065239E+005  0.1043930E+01  0.7957747E-01            NaN
         13   -1    0    0    0    0  0.00000000000E+00  0.00000000000E+00  0.74505805969E-08  0.10566000000E+00  0.10566000000E+00 0. -1.
     999900   -1    0    0    0    0 -0.00000000000E+00 -0.00000000000E+00 -0.74505805969E-08  0.93827000000E+00  0.93827000000E+00 0.  1.
     999902    2    1    2    0    0 -0.18915499465E-01  0.14403315419E-01  0.46917388454E-02  0.10196964689E+01  0.10194084680E+01 0.  0.
     999903    2    3    3    0    0 -0.12639611748E+00 -0.78962945212E-02 -0.31419041551E-01  0.13214176959E+00  0.20879681921E-01 0.  0.
         14    1    1    2    0    0  0.18915499465E-01 -0.14403315419E-01 -0.46917388454E-02  0.24233531077E-01  0.00000000000E+00 0.  1.
     999901    1    3    3    0    0  0.10748061801E+00  0.22299609940E-01  0.36110780396E-01  0.88755469934E+00  0.88000000000E+00 0. -1.
        -11    1    4    4    0    0 -0.10022803578E+00 -0.13919657087E-01 -0.21082905004E-01  0.10336423953E+00  0.51100000000E-03 0.  1.
         11    1    4    4    0    0 -0.26168081697E-01  0.60233625658E-02 -0.10336136547E-01  0.28777530054E-01  0.51100000000E-03 0. -1.
</event>
<event>
 8    1  0.1065239E+005  0.1043930E+01  0.7957747E-01            NaN
         13   -1    0    0    0    0  0.00000000000E+00  0.00000000000E+00  0.74505805969E-08  0.10566000000E+00  0.10566000000E+00 0.  1.
     999900   -1    0    0    0    0 -0.00000000000E+00 -0.00000000000E+00 -0.74505805969E-08  0.93827000000E+00  0.93827000000E+00 0. -1.
     999902    2    1    2    0    0  0.14560633167E-01 -0.49882794016E-02  0.20723747524E-01  0.10181158821E+01  0.10177885737E+01 0.  0.
     999903    2    3    3    0    0 -0.58165444957E-01 -0.97013942188E-01 -0.54485970272E-01  0.12715330902E+00  0.20107686874E-01 0.  0.
         14    1    1    2    0    0 -0.14560633167E-01  0.49882794016E-02 -0.20723747524E-01  0.25814117863E-01  0.00000000000E+00 0. -1.
     999901    1    3    3    0    0  0.72726078124E-01  0.92025662786E-01  0.75209717796E-01  0.89096257312E+00  0.88000000000E+00 0.  1.
        -11    1    4    4    0    0 -0.17197592049E-01 -0.22637515299E-01 -0.49957851334E-02  0.28869244211E-01  0.51100000000E-03 0. -1.
         11    1    4    4    0    0 -0.40967852908E-01 -0.74376426889E-01 -0.49490185138E-01  0.98284064805E-01  0.51100000000E-03 0.  1.
</event>
<event>
 8    1  0.1065239E+005  0.1043930E+01  0.7957747E-01            NaN
         13   -1    0    0    0    0  0.00000000000E+00  0.00000000000E+00  0.74505805969E-08  0.10566000000E+00  0.10566000000E+00 0. -1.
     999900   -1    0    0    0    0 -0.00000000000E+00 -0.00000000000E+00 -0.74505805969E-08  0.93827000000E+00  0.93827000000E+00 0. -1.
     999902    2    1    2    0    0 -0.19615915227E-01 -0.64985117156E-02 -0.12063154878E-01  0.10200023070E+01  0.10197216149E+01 0.  0.
     999903    2    3    3    0    0  0.64677367856E-01  0.77682859894E-01  0.75381980030E-01  0.12768032899E+00  0.20050807040E-01 0.  0.
         14    1    1    2    0    0  0.19615915227E-01  0.64985117156E-02  0.12063154878E-01  0.23927692959E-01  0.00000000000E+00 0. -1.
     999901    1    3    3    0    0 -0.84293283084E-01 -0.84181371609E-01 -0.87445134908E-01  0.89232197805E+00  0.88000000000E+00 0. -1.
        -11    1    4    4    0    0  0.47135576091E-01  0.48044782804E-01  0.39975527458E-01  0.78283891093E-01  0.51100000000E-03 0.  1.
         11    1    4    4    0    0  0.17541791766E-01  0.29638077090E-01  0.35406452572E-01  0.49396437895E-01  0.51100000000E-03 0. -1.
</event>
<event>
 8    1  0.1065239E+005  0.1043930E+01  0.7957747E-01            NaN
         13   -1    0    0    0    0  0.00000000000E+00  0.00000000000E+00  0.74505805969E-08  0.10566000000E+00  0.10566000000E+00 0. -1.
     999900   -1    0    0    0    0 -0.00000000000E+00 -0.00000000000E+00 -0.74505805969E-08  0.93827000000E+00  0.93827000000E+00 0. -1.
     999902    2    1    2    0    0 -0.92524281898E-02  0.20857646932E-01  0.44920846636E-02  0.10206742977E+01  0.10204093269E+01 0.  0.
     999903    2    3    3    0    0  0.85778230800E-01  0.85354041068E-01  0.49057401504E-01  0.13209302489E+00  0.19968008800E-01 0.  0.
         14    1    1    2    0    0  0.92524281898E-02 -0.20857646932E-01 -0.44920846636E-02  0.23255702259E-01  0.00000000000E+00 0. -1.
     999901    1    3    3    0    0 -0.95030658989E-01 -0.64496394136E-01 -0.44565316840E-01  0.88858127286E+00  0.88000000000E+00 0. -1.
        -11    1    4    4    0    0  0.16740084312E-01  0.12455925350E-01  0.13038796612E-02  0.20912716760E-01  0.51100000000E-03 0. -1.
         11    1    4    4    0    0  0.69038146488E-01  0.72898115717E-01  0.47753521842E-01  0.11118030813E+00  0.51100000000E-03 0.  1.
</event>
<event>
 8    1  0.1065239E+005  0.1043930E+01  0.7957747E-01            NaN
         13   -1    0    0    0    0  0.00000000000E+00  0.00000000000E+00  0.74505805969E-08  0.10566000000E+00  0.10566000000E+00 0. -1.
     999900   -1    0    0    0    0 -0.00000000000E+00 -0.00000000000E+00 -0.74505805969E-08  0.93827000000E+00  0.93827000000E+00 0. -1.
     999902    2    1    2    0    0  0.15109132436E-01 -0.30459605560E-03  0.18406059383E-01  0.10201148434E+01  0.10198368164E+01 0.  0.
     999903    2    3    3    0    0 -0.94010942285E-01 -0.82300084921E-01  0.27656956022E-01  0.12954422296E+00  0.20135472169E-01 0.  0.
         14    1    1    2    0    0 -0.15109132436E-01  0.30459605560E-03 -0.18406059383E-01  0.23815156597E-01  0.00000000000E+00 0.  1.
     999901    1    3    3    0    0  0.10912007472E+00  0.81995488865E-01 -0.92508966395E-02  0.89057062044E+00  0.88000000000E+00 0.  1.
        -11    1    4    4    0    0 -0.72793908646E-01 -0.65273132417E-01  0.12988952114E-01  0.98633204092E-01  0.51100000000E-03 0.  1.
         11    1    4    4    0    0 -0.21217033639E-01 -0.17026952504E-01  0.14668003908E-01  0.30911018871E-01  0.51100000000E-03 0. -1.
</event>
<event>
 8    1  0.1065239E+005  0.1043930E+01  0.7957747E-01            NaN
         13   -1    0    0    0    0  0.00000000000E+00  0.00000000000E+00  0.74505805969E-08  0.10566000000E+00  0.10566000000E+00 0.  1.
     999900   -1    0    0    0    0 -0.00000000000E+00 -0.00000000000E+00 -0.74505805969E-08  0.93827000000E+00  0.93827000000E+00 0. -1.
     999902    2    1    2    0    0  0.17912953054E-02 -0.80250050237E-02 -0.22537067820E-01  0.10199398172E+01  0.10196576395E+01 0.  0.
     999903    2    3    3    0    0 -0.85435506382E-02  0.57038932699E-01  0.11187547545E+00  0.12729943227E+00  0.19041831566E-01 0.  0.
         14    1    1    2    0    0 -0.17912953054E-02  0.80250050237E-02  0.22537067820E-01  0.23990182793E-01  0.00000000000E+00 0.  1.
     999901    1    3    3    0    0  0.10334845944E-01 -0.65063937722E-01 -0.13441254327E+00  0.89264038494E+00  0.88000000000E+00 0. -1.
        -11    1    4    4    0    0 -0.11789387447E-01  0.47465142514E-01  0.10218269131E+00  0.11328500754E+00  0.51100000000E-03 0.  1.
         11    1    4    4    0    0  0.32458368087E-02  0.95737901847E-02  0.96927841368E-02  0.14014424726E-01  0.51100000000E-03 0. -1.
</event>
<event>
 8    1  0.1065239E+005  0.1043930E+01  0.7957747E-01            NaN
         13   -1    0    0    0    0  0.00000000000E+00  0.00000000000E+00  0.74505805969E-08  0.10566000000E+00  0.10566000000E+00 0. -1.
     999900   -1    0    0    0    0 -0.00000000000E+00 -0.00000000000E+00 -0.74505805969E-08  0.93827000000E+00  0.93827000000E+00 0. -1.
     999902    2    1    2    0    0  0.80660650741E-02 -0.30344629802E-04 -0.23165661695E-01  0.10194002179E+01  0.10191050457E+01 0.  0.
     999903    2    3    3    0    0  0.10206390797E+00 -0.37901910153E-01 -0.72231192562E-01  0.13222646028E+00  0.20319830599E-01 0.  0.
         14    1    1    2    0    0 -0.80660650741E-02  0.30344629802E-04  0.23165661695E-01  0.24529782069E-01  0.00000000000E+00 0. -1.
     999901    1    3    3    0    0 -0.93997842898E-01  0.37871565524E-01  0.49065530867E-01  0.88717375765E+00  0.88000000000E+00 0.  1.
        -11    1    4    4    0    0  0.25159682114E-01 -0.40748637517E-02 -0.88539861065E-02  0.26986446777E-01  0.51100000000E-03 0.  1.
         11    1    4    4    0    0  0.76904225858E-01 -0.33827046402E-01 -0.63377206456E-01  0.10524001350E+00  0.51100000000E-03 0. -1.
</event>
<event>
 8    1  0.1065239E+005  0.1043930E+01  0.7957747E-01            NaN
         13   -1    0    0    0    0  0.00000000000E+00  0.00000000000E+00  0.74505805969E-08  0.10566000000E+00  0.10566000000E+00 0. -1.
     999900   -1    0    0    0    0 -0.00000000000E+00 -0.00000000000E+00 -0.74505805969E-08  0.93827000000E+00  0.93827000000E+00 0.  1.
     999902    2    1    2    0    0  0.22512275321E-01 -0.28215145689E-02 -0.42655019993E-02  0.10208441170E+01  0.10205830458E+01 0.  0.
     999903    2    3    3    0    0 -0.91101645592E-01 -0.26458997484E-01  0.84878317499E-01  0.12876033500E+00  0.19372834363E-01 0.  0.
         14    1    1    2    0    0 -0.22512275321E-01  0.28215145689E-02  0.42655019993E-02  0.23085882957E-01  0.00000000000E+00 0.  1.
     999901    1    3    3    0    0  0.11361392091E+00  0.23637482915E-01 -0.89143819498E-01  0.89208378204E+00  0.88000000000E+00 0.  1.
        -11    1    4    4    0    0 -0.54739950302E-01 -0.59358813533E-02  0.48850957005E-01  0.73609605133E-01  0.51100000000E-03 0.  1.
         11    1    4    4    0    0 -0.36361695290E-01 -0.20523116130E-01  0.36027360494E-01  0.55150729870E-01  0.51100000000E-03 0. -1.
</event>
<event>
 8    1  0.1065239E+005  0.1043930E+01  0.7957747E-01            NaN
         13   -1    0    0    0    0  0.00000000000E+00  0.00000000000E+00  0.74505805969E-08  0.10566000000E+00  0.10566000000E+00 0. -1.
     999900   -1    0    0    0    0 -0.00000000000E+00 -0.00000000000E+00 -0.74505805969E-08  0.93827000000E+00  0.93827000000E+00 0.  1.
     999902    2    1    2    0    0 -0.15475602996E-01 -0.13314189178E-04 -0.18568729920E-01  0.10197578632E+01  0.10194713372E+01 0.  0.
     999903    2    3    3    0    0 -0.58188865545E-01 -0.11295198965E+00 -0.27039948724E-01  0.13147225107E+00  0.20240996413E-01 0.  0.
         14    1    1    2    0    0  0.15475602996E-01  0.13314189178E-04  0.18568729920E-01  0.24172136774E-01  0.00000000000E+00 0. -1.
     999901    1    3    3    0    0  0.42713262549E-01  0.11293867546E+00  0.84712188038E-02  0.88828561215E+00  0.88000000000E+00 0. -1.
        -11    1    4    4    0    0 -0.49420407682E-01 -0.83234130086E-01 -0.13826612201E-01  0.97784116463E-01  0.51100000000E-03 0.  1.
         11    1    4    4    0    0 -0.87684578628E-02 -0.29717859564E-01 -0.13213336523E-01  0.33688134609E-01  0.51100000000E-03 0. -1.
</event>
<event>
 8    1  0.1065239E+005  0.1043930E+01  0.7957747E-01            NaN
         13   -1    0    0    0    0  0.00000000000E+00  0.00000000000E+00  0.74505805969E-08  0.10566000000E+00  0.10566000000E+00 0. -1.
     999900   -1    0    0    0    0 -0.00000000000E+00 -0.00000000000E+00 -0.74505805969E-08  0.93827000000E+00  0.93827000000E+00 0.  1.
     999902    2    1    2    0    0 -0.20305792426E-01 -0.10336885359E-01 -0.71898061038E-02  0.10200371200E+01  0.10197572537E+01 0.  0.
     999903    2    3    3    0    0  0.22553436694E-01 -0.10029240689E+00 -0.79597677749E-01  0.13145858699E+00  0.19451102902E-01 0.  0.
         14    1    1    2    0    0  0.20305792426E-01  0.10336885359E-01  0.71898061038E-02  0.23892880044E-01  0.00000000000E+00 0.  1.
     999901    1    3    3    0    0 -0.42859229120E-01  0.89955521528E-01  0.72407871645E-01  0.88857853297E+00  0.88000000000E+00 0. -1.
        -11    1    4    4    0    0  0.41827938478E-02 -0.41539470007E-01 -0.42532974805E-01  0.59601496623E-01  0.51100000000E-03 0.  1.
         11    1    4    4    0    0  0.18370642846E-01 -0.58752936880E-01 -0.37064702944E-01  0.71857090366E-01  0.51100000000E-03 0. -1.
</event>
<event>
 8    1  0.1065239E+005  0.1043930E+01  0.7957747E-01            NaN
         13   -1    0    0    0    0  0.00000000000E+00  0.00000000000E+00  0.74505805969E-08  0.10566000000E+00  0.10566000000E+00 0.  1.
     999900   -1    0    0    0    0 -0.00000000000E+00 -0.00000000000E+00 -0.74505805969E-08  0.93827000000E+00  0.93827000000E+00 0.  1.
     999902    2    1    2    0    0 -0.14645060071E-01 -0.17608009695E-01  0.43067894421E-02  0.10206261757E+01  0.10203600945E+01 0.  0.
     999903    2    3    3    0    0 -0.74292277874E-01 -0.92330921078E-01  0.58847519820E-01  0.13376880539E+00  0.19665227348E-01 0.  0.
         14    1    1    2    0    0  0.14645060071E-01  0.17608009695E-01 -0.43067894421E-02  0.23303824261E-01  0.00000000000E+00 0.  1.
     999901    1    3    3    0    0  0.59647217803E-01  0.74722911384E-01 -0.54540730378E-01  0.88685737035E+00  0.88000000000E+00 0.  1.
        -11    1    4    4    0    0 -0.31013287066E-01 -0.27723419172E-01  0.27797427586E-01  0.50033689117E-01  0.51100000000E-03 0.  1.
         11    1    4    4    0    0 -0.43278990808E-01 -0.64607501907E-01  0.31050092234E-01  0.83735116270E-01  0.51100000000E-03 0. -1.
</event>
<event>
 8    1  0.1065239E+005  0.1043930E+01  0.7957747E-01            NaN
         13   -1    0    0    0    0  0.00000000000E+00  0.00000000000E+00  0.74505805969E-08  0.10566000000E+00  0.10566000000E+00 0. -1.
     999900   -1    0    0    0    0 -0.00000000000E+00 -0.00000000000E+00 -0.74505805969E-08  0.93827000000E+00  0.93827000000E+00 0. -1.
     999902    2    1    2    0    0  0.16666505744E-02  0.14588549140E-01 -0.18582782576E-01  0.10202461807E+01  0.10199712476E+01 0.  0.
     999903    2    3    3    0    0  0.15326804233E-01  0.66098144084E-01  0.10844285528E+00  0.12952997960E+00  0.20354045657E-01 0.  0.
         14    1    1    2    0    0 -0.16666505744E-02 -0.14588549140E-01  0.18582782576E-01  0.23683819338E-01  0.00000000000E+00 0. -1.
     999901    1    3    3    0    0 -0.13660153659E-01 -0.51509594944E-01 -0.12702563785E+00  0.89071620107E+00  0.88000000000E+00 0. -1.
        -11    1    4    4    0    0 -0.30965396015E-02  0.97046315513E-02  0.26246548353E-01  0.28158672776E-01  0.51100000000E-03 0. -1.
         11    1    4    4    0    0  0.18423343835E-01  0.56393512533E-01  0.82196306922E-01  0.10137130682E+00  0.51100000000E-03 0.  1.
</event>
<event>
 8    1  0.1065239E+005  0.1043930E+01  0.7957747E-01            NaN
         13   -1    0    0    0    0  0.00000000000E+00  0.00000000000E+00  0.74505805969E-08  0.10566000000E+00  0.10566000000E+00 0.  1.
     999900   -1    0    0    0    0 -0.00000000000E+00 -0.00000000000E+00 -0.74505805969E-08  0.93827000000E+00  0.93827000000E+00 0.  1.
     999902    2    1    2    0    0  0.85007012122E-02 -0.19954303534E-01 -0.60005845779E-02  0.10214257078E+01  0.10211777678E+01 0.  0.
     999903    2    3    3    0    0 -0.29761773618E-01 -0.91747570884E-01  0.88759134294E-01  0.13260756303E+00  0.20079888429E-01 0.  0.
         14    1    1    2    0    0 -0.85007012122E-02  0.19954303534E-01  0.60005845779E-02  0.22504292166E-01  0.00000000000E+00 0. -1.
     999901    1    3    3    0    0  0.38262474830E-01  0.71793267350E-01 -0.94759718872E-01  0.88881814481E+00  0.88000000000E+00 0.  1.
        -11    1    4    4    0    0 -0.12818484150E-01 -0.30704932502E-01  0.43407688043E-01  0.54695474383E-01  0.51100000000E-03 0.  1.
         11    1    4    4    0    0 -0.16943289468E-01 -0.61042638383E-01  0.45351446251E-01  0.77912088644E-01  0.51100000000E-03 0. -1.
</event>
<event>
 8    1  0.1065239E+005  0.1043930E+01  0.7957747E-01            NaN
         13   -1    0    0    0    0  0.00000000000E+00  0.00000000000E+00  0.74505805969E-08  0.10566000000E+00  0.10566000000E+00 0.  1.
     999900   -1    0    0    0    0 -0.00000000000E+00 -0.00000000000E+00 -0.74505805969E-08  0.93827000000E+00  0.93827000000E+00 0. -1.
     999902    2    1    2    0    0  0.10424178368E-02  0.11538787230E-01  0.21281627332E-01  0.10196990713E+01  0.10194111330E+01 0.  0.
     999903    2    3    3    0    0  0.68007627209E-01  0.10685199522E+00  0.33239812049E-01  0.13194237877E+00  0.16171579062E-01 0.  0.
         14    1    1    2    0    0 -0.10424178368E-02 -0.11538787230E-01 -0.21281627332E-01  0.24230928739E-01  0.00000000000E+00 0. -1.
     999901    1    3    3    0    0 -0.66965209372E-01 -0.95313207989E-01 -0.11958184718E-01  0.88775669249E+00  0.88000000000E+00 0. -1.
        -11    1    4    4    0    0  0.50753248027E-01  0.90242385852E-01  0.29811476371E-01  0.10774305376E+00  0.51100000000E-03 0. -1.
         11    1    4    4    0    0  0.17254379182E-01  0.16609609366E-01  0.34283356781E-02  0.24199325007E-01  0.51100000000E-03 0.  1.
</event>
<event>
 8    1  0.1065239E+005  0.1043930E+01  0.7957747E-01            NaN
         13   -1    0    0    0    0  0.00000000000E+00  0.00000000000E+00  0.74505805969E-08  0.10566000000E+00  0.10566000000E+00 0.  1.
     999900   -1    0    0    0    0 -0.00000000000E+00 -0.00000000000E+00 -0.74505805969E-08  0.93827000000E+00  0.93827000000E+00 0.  1.
     999902    2    1    2    0    0 -0.10193384202E-01  0.19380211041E-01 -0.98874425733E-02  0.10199037814E+01  0.10196207452E+01 0.  0.
     999903    2    3    3    0    0  0.28291085558E-01 -0.11590072914E+00 -0.42319769308E-01  0.12814493335E+00  0.19919752275E-01 0.  0.
         14    1    1    2    0    0  0.10193384202E-01 -0.19380211041E-01  0.98874425733E-02  0.24026218640E-01  0.00000000000E+00 0. -1.
     999901    1    3    3    0    0 -0.38484469759E-01  0.13528094018E+00  0.32432326735E-01  0.89175884801E+00  0.88000000000E+00 0. -1.
        -11    1    4    4    0    0 -0.25575440440E-03 -0.31041847005E-01 -0.65483785701E-02  0.31730175838E-01  0.51100000000E-03 0. -1.
         11    1    4    4    0    0  0.28546839962E-01 -0.84858882138E-01 -0.35771390738E-01  0.96414757511E-01  0.51100000000E-03 0.  1.
</event>
<event>
 8    1  0.1065239E+005  0.1043930E+01  0.7957747E-01            NaN
         13   -1    0    0    0    0  0.00000000000E+00  0.00000000000E+00  0.74505805969E-08  0.10566000000E+00  0.10566000000E+00 0.  1.
     999900   -1    0    0    0    0 -0.00000000000E+00 -0.00000000000E+00 -0.74505805969E-08  0.93827000000E+00  0.93827000000E+00 0.  1.
     999902    2    1    2    0    0  0.22401768843E-01 -0.59770710185E-02 -0.33265604234E-02  0.10205071345E+01  0.10202382961E+01 0.  0.
     999903    2    3    3    0    0  0.59812702230E-01 -0.11641102713E+00 -0.10793020055E-01  0.13278477663E+00  0.19652507107E-01 0.  0.
         14    1    1    2    0    0 -0.22401768843E-01  0.59770710185E-02  0.33265604234E-02  0.23422865527E-01  0.00000000000E+00 0.  1.
     999901    1    3    3    0    0 -0.37410933387E-01  0.11043395611E+00  0.74664596316E-02  0.88772235785E+00  0.88000000000E+00 0. -1.
        -11    1    4    4    0    0  0.96064024952E-02 -0.25509916938E-01 -0.96863017527E-02  0.28933102041E-01  0.51100000000E-03 0. -1.
         11    1    4    4    0    0  0.50206299735E-01 -0.90901110196E-01 -0.11067183024E-02  0.10385167459E+00  0.51100000000E-03 0.  1.
</event>
<event>
 7    1  0.1065239E+005  0.1043930E+01  0.7957747E-01            NaN
         13   -1    0    0    0    0  0.00000000000E+00  0.00000000000E+00  0.74505805969E-08  0.10566000000E+00  0.10566000000E+00 0.  1.
     999900   -1    0    0    0    0 -0.00000000000E+00 -0.00000000000E+00 -0.74505805969E-08  0.93827000000E+00  0.93827000000E+00 0.  1.
     999902    2    1    2    0    0  0.13167724165E-01 -0.19516504914E-01 -0.30210232647E-02  0.10201937512E+01  0.10199175852E+01 0.  0.
         14    1    1    2    0    0 -0.13167724165E-01  0.19516504914E-01  0.30210232647E-02  0.23736248763E-01  0.00000000000E+00 0.  1.
     999901    1    3    3    0    0 -0.96532018136E-01 -0.78304916808E-01  0.11895907095E-01  0.88881471811E+00  0.88000000000E+00 0.  1.
        -11    1    3    3    0    0  0.53356455922E-01  0.10721657888E-01  0.50871496324E-02  0.54662652230E-01  0.51100000000E-03 0.  1.
         11    1    3    3    0    0  0.56343286380E-01  0.48066754006E-01 -0.20004079992E-01  0.76716380898E-01  0.51100000000E-03 0. -1.
</event>
<event>
 8    1  0.1065239E+005  0.1043930E+01  0.7957747E-01            NaN
         13   -1    0    0    0    0  0.00000000000E+00  0.00000000000E+00  0.74505805969E-08  0.10566000000E+00  0.10566000000E+00 0. -1.
     999900   -1    0    0    0    0 -0.00000000000E+00 -0.00000000000E+00 -0.74505805969E-08  0.93827000000E+00  0.93827000000E+00 0.  1.
     999902    2    1    2    0    0  0.13046931571E-01 -0.16900016785E-01  0.10568303419E-01  0.10201072792E+01  0.10198290734E+01 0.  0.
     999903    2    3    3    0    0  0.12879761179E-01 -0.77099933630E-01 -0.10303808417E+00  0.13076456163E+00  0.19293412746E-01 0.  0.
         14    1    1    2    0    0 -0.13046931571E-01  0.16900016785E-01 -0.10568303419E-01  0.23822720833E-01  0.00000000000E+00 0.  1.
     999901    1    3    3    0    0  0.16717039198E-03  0.60199916845E-01  0.11360638759E+00  0.88934271754E+00  0.88000000000E+00 0. -1.
        -11    1    4    4    0    0  0.28319781835E-02 -0.41824881599E-01 -0.40672001881E-01  0.58410732569E-01  0.51100000000E-03 0. -1.
         11    1    4    4    0    0  0.10047782995E-01 -0.35275052030E-01 -0.62366082288E-01  0.72353829061E-01  0.51100000000E-03 0.  1.
</event>
<event>
 8    1  0.1065239E+005  0.1043930E+01  0.7957747E-01            NaN
         13   -1    0    0    0    0  0.00000000000E+00  0.00000000000E+00  0.74505805969E-08  0.10566000000E+00  0.10566000000E+00 0.  1.
     999900   -1    0    0    0    0 -0.00000000000E+00 -0.00000000000E+00 -0.74505805969E-08  0.93827000000E+00  0.93827000000E+00 0. -1.
     999902    2    1    2    0    0  0.11027067472E-01 -0.20983736092E-01  0.14557151191E-02  0.10201806315E+01  0.10199041565E+01 0.  0.
     999903    2    3    3    0    0  0.56691244366E-01  0.11197855272E+00  0.20363512718E-01  0.12882116860E+00  0.20667060071E-01 0.  0.
         14    1    1    2    0    0 -0.11027067472E-01  0.20983736092E-01 -0.14557151191E-02  0.23749368495E-01  0.00000000000E+00 0. -1.
     999901    1    3    3    0    0 -0.45664176895E-01 -0.13296228881E+00 -0.18907797599E-01  0.89135946290E+00  0.88000000000E+00 0.  1.
        -11    1    4    4    0    0  0.33145617048E-02  0.45695119795E-02  0.56107592985E-02  0.79754937108E-02  0.51100000000E-03 0. -1.
         11    1    4    4    0    0  0.53376682661E-01  0.10740904074E+00  0.14752753420E-01  0.12084567489E+00  0.51100000000E-03 0.  1.
</event>
<event>
 8    1  0.1065239E+005  0.1043930E+01  0.7957747E-01            NaN
         13   -1    0    0    0    0  0.00000000000E+00  0.00000000000E+00  0.74505805969E-08  0.10566000000E+00  0.10566000000E+00 0.  1.
     999900   -1    0    0    0    0 -0.00000000000E+00 -0.00000000000E+00 -0.74505805969E-08  0.93827000000E+00  0.93827000000E+00 0.  1.
     999902    2    1    2    0    0  0.21689833117E-01 -0.82161221536E-02 -0.54279953908E-03  0.10207298242E+01  0.10204661317E+01 0.  0.
     999903    2    3    3    0    0  0.44769812995E-01 -0.12667701641E-01 -0.12187343697E+00  0.13209400142E+00  0.20757739562E-01 0.  0.
         14    1    1    2    0    0 -0.21689833117E-01  0.82161221536E-02  0.54279953908E-03  0.23200175759E-01  0.00000000000E+00 0. -1.
     999901    1    3    3    0    0 -0.23079979878E-01  0.44515794874E-02  0.12133063743E+00  0.88863582283E+00  0.88000000000E+00 0. -1.
        -11    1    4    4    0    0  0.99493630407E-02  0.52218047735E-02 -0.36017424094E-01  0.37732917053E-01  0.51100000000E-03 0. -1.
         11    1    4    4    0    0  0.34820449955E-01 -0.17889506415E-01 -0.85856012872E-01  0.94361084362E-01  0.51100000000E-03 0.  1.
</event>
<event>
 8    1  0.1065239E+005  0.1043930E+01  0.7957747E-01            NaN
         13   -1    0    0    0    0  0.00000000000E+00  0.00000000000E+00  0.74505805969E-08  0.10566000000E+00  0.10566000000E+00 0. -1.
     999900   -1    0    0    0    0 -0.00000000000E+00 -0.00000000000E+00 -0.74505805969E-08  0.93827000000E+00  0.93827000000E+00 0.  1.
     999902    2    1    2    0    0  0.88990973490E-03 -0.29772726155E-02  0.24088493406E-01  0.10196419040E+01  0.10193525891E+01 0.  0.
     999903    2    3    3    0    0 -0.66645137601E-01 -0.62211246191E-01  0.93724465980E-01  0.13233202866E+00  0.20388152622E-01 0.  0.
         14    1    1    2    0    0 -0.88990973490E-03  0.29772726155E-02 -0.24088493406E-01  0.24288095976E-01  0.00000000000E+00 0.  1.
     999901    1    3    3    0    0  0.67535047336E-01  0.59233973575E-01 -0.69635972573E-01  0.88730987537E+00  0.88000000000E+00 0.  1.
        -11    1    4    4    0    0 -0.43128918188E-01 -0.26635096428E-01  0.48184863324E-01  0.69939789251E-01  0.51100000000E-03 0.  1.
         11    1    4    4    0    0 -0.23516219413E-01 -0.35576149762E-01  0.45539602655E-01  0.62392239408E-01  0.51100000000E-03 0. -1.
</event>
<event>
 8    1  0.1065239E+005  0.1043930E+01  0.7957747E-01            NaN
         13   -1    0    0    0    0  0.00000000000E+00  0.00000000000E+00  0.74505805969E-08  0.10566000000E+00  0.10566000000E+00 0. -1.
     999900   -1    0    0    0    0 -0.00000000000E+00 -0.00000000000E+00 -0.74505805969E-08  0.93827000000E+00  0.93827000000E+00 0. -1.
     999902    2    1    2    0    0 -0.10876638896E-01  0.30416735690E-02 -0.18212184074E-01  0.10225001913E+01  0.10222756011E+01 0.  0.
     999903    2    3    3    0    0 -0.13142662165E+00 -0.28024867253E-02  0.13571337403E-01  0.13369388801E+00  0.20225322759E-01 0.  0.
         14    1    1    2    0    0  0.10876638896E-01 -0.30416735690E-02  0.18212184074E-01  0.21429808691E-01  0.00000000000E+00 0. -1.
     999901    1    3    3    0    0  0.12054998276E+00  0.58441602943E-02 -0.31783521477E-01  0.88880630330E+00  0.88000000000E+00 0.  1.
        -11    1    4    4    0    0 -0.10960236337E+00  0.52635994029E-02  0.11036386133E-01  0.11028348233E+00  0.51100000000E-03 0.  1.
         11    1    4    4    0    0 -0.21824258278E-01 -0.80660861282E-02  0.25349512709E-02  0.23410405673E-01  0.51100000000E-03 0. -1.
</event>
<event>
 8    1  0.1065239E+005  0.1043930E+01  0.7957747E-01            NaN
         13   -1    0    0    0    0  0.00000000000E+00  0.00000000000E+00  0.74505805969E-08  0.10566000000E+00  0.10566000000E+00 0. -1.
     999900   -1    0    0    0    0 -0.00000000000E+00 -0.00000000000E+00 -0.74505805969E-08  0.93827000000E+00  0.93827000000E+00 0. -1.
     999902    2    1    2    0    0  0.84677672751E-02 -0.36627101554E-02  0.22307357084E-01  0.10197900599E+01  0.10195043058E+01 0.  0.
     999903    2    3    3    0    0  0.13679881509E-01 -0.44333353976E-01 -0.11743047660E+00  0.12782149006E+00  0.19895503362E-01 0.  0.
         14    1    1    2    0    0 -0.84677672751E-02  0.36627101554E-02 -0.22307357084E-01  0.24139940107E-01  0.00000000000E+00 0.  1.
     999901    1    3    3    0    0 -0.52121142343E-02  0.40670643821E-01  0.13973783368E+00  0.89196856983E+00  0.88000000000E+00 0.  1.
        -11    1    4    4    0    0  0.13587347907E-01 -0.23280232667E-01 -0.45662323219E-01  0.53027296168E-01  0.51100000000E-03 0. -1.
         11    1    4    4    0    0  0.92533602518E-04 -0.21053121310E-01 -0.71768153382E-01  0.74794193894E-01  0.51100000000E-03 0.  1.
</event>
<event>
 8    1  0.1065239E+005  0.1043930E+01  0.7957747E-01            NaN
         13   -1    0    0    0    0  0.00000000000E+00  0.00000000000E+00  0.74505805969E-08  0.10566000000E+00  0.10566000000E+00 0.  1.
     999900   -1    0    0    0    0 -0.00000000000E+00 -0.00000000000E+00 -0.74505805969E-08  0.93827000000E+00  0.93827000000E+00 0. -1.
     999902    2    1    2    0    0 -0.57865737733E-02  0.17471321838E-01  0.14577909673E-01  0.10204513507E+01  0.10201812154E+01 0.  0.
     999903    2    3    3    0    0 -0.23617037046E-01  0.10369004625E+00 -0.74855007305E-01  0.13154762109E+00  0.19801877828E-01 0.  0.
         14    1    1    2    0    0  0.57865737733E-02 -0.17471321838E-01 -0.14577909673E-01  0.23478649306E-01  0.00000000000E+00 0. -1.
     999901    1    3    3    0    0  0.17830463273E-01 -0.86218724415E-01  0.89432916978E-01  0.88890372960E+00  0.88000000000E+00 0. -1.
        -11    1    4    4    0    0 -0.18416940884E-02  0.52592355611E-01 -0.36471362917E-01  0.64029439634E-01  0.51100000000E-03 0. -1.
         11    1    4    4    0    0 -0.21775342958E-01  0.51097690642E-01 -0.38383644388E-01  0.67518181458E-01  0.51100000000E-03 0.  1.
</event>
<event>
 8    1  0.1065239E+005  0.1043930E+01  0.7957747E-01            NaN
         13   -1    0    0    0    0  0.00000000000E+00  0.00000000000E+00  0.74505805969E-08  0.10566000000E+00  0.10566000000E+00 0.  1.
     999900   -1    0    0    0    0 -0.00000000000E+00 -0.00000000000E+00 -0.74505805969E-08  0.93827000000E+00  0.93827000000E+00 0. -1.
     999902    2    1    2    0    0 -0.16001356703E-01  0.15042766232E-01  0.69306234757E-02  0.10209004152E+01  0.10206406302E+01 0.  0.
     999903    2    3    3    0    0  0.65672176919E-01  0.11163312792E+00 -0.12275659042E-01  0.13164840071E+00  0.20144963028E-01 0.  0.
         14    1    1    2    0    0  0.16001356703E-01 -0.15042766232E-01 -0.69306234757E-02  0.23029584755E-01  0.00000000000E+00 0. -1.
     999901    1    3    3    0    0 -0.81673533622E-01 -0.96590361683E-01  0.19206282518E-01  0.88925201453E+00  0.88000000000E+00 0. -1.
        -11    1    4    4    0    0  0.34207300435E-01  0.70753589656E-01 -0.14908762588E-01  0.79992138209E-01  0.51100000000E-03 0. -1.
         11    1    4    4    0    0  0.31464876484E-01  0.40879538259E-01  0.26331035453E-02  0.51656262502E-01  0.51100000000E-03 0.  1.
</event>
<event>
 8    1  0.1065239E+005  0.1043930E+01  0.7957747E-01            NaN
         13   -1    0    0    0    0  0.00000000000E+00  0.00000000000E+00  0.74505805969E-08  0.10566000000E+00  0.10566000000E+00 0. -1.
     999900   -1    0    0    0    0 -0.00000000000E+00 -0.00000000000E+00 -0.74505805969E-08  0.93827000000E+00  0.93827000000E+00 0.  1.
     999902    2    1    2    0    0  0.14653388411E-01 -0.16419156035E-01 -0.94353459180E-02  0.10199855595E+01  0.10197044696E+01 0.  0.
     999903    2    3    3    0    0  0.10975085708E+00  0.46643385343E-01 -0.51919981941E-01  0.13160199543E+00  0.20063515399E-01 0.  0.
         14    1    1    2    0    0 -0.14653388411E-01  0.16419156035E-01  0.94353459180E-02  0.23944440470E-01  0.00000000000E+00 0.  1.
     999901    1    3    3    0    0 -0.95097468666E-01 -0.63062541378E-01  0.42484636023E-01  0.88838356410E+00  0.88000000000E+00 0. -1.
        -11    1    4    4    0    0  0.89439148933E-01  0.31645665117E-01 -0.34630716452E-01  0.10099681740E+00  0.51100000000E-03 0.  1.
         11    1    4    4    0    0  0.20311708143E-01  0.14997720226E-01 -0.17289265489E-01  0.30605178023E-01  0.51100000000E-03 0. -1.
</event>
<event>
 8    1  0.1065239E+005  0.1043930E+01  0.7957747E-01            NaN
         13   -1    0    0    0    0  0.00000000000E+00  0.00000000000E+00  0.74505805969E-08  0.10566000000E+00  0.10566000000E+00 0.  1.
     999900   -1    0    0    0    0 -0.00000000000E+00 -0.00000000000E+00 -0.74505805969E-08  0.93827000000E+00  0.93827000000E+00 0.  1.
     999902    2    1    2    0    0  0.18547086072E-01 -0.15633485068E-02 -0.13929536275E-01  0.10206819798E+01  0.10204171860E+01 0.  0.
     999903    2    3    3    0    0 -0.97457542004E-01 -0.22170626273E-01  0.77463998415E-01  0.12813813677E+00  0.20717188058E-01 0.  0.
         14    1    1    2    0    0 -0.18547086072E-01  0.15633485068E-02  0.13929536275E-01  0.23248020156E-01  0.00000000000E+00 0. -1.
     999901    1    3    3    0    0  0.11600462808E+00  0.20607277766E-01 -0.91393534690E-01  0.89254384308E+00  0.88000000000E+00 0.  1.
        -11    1    4    4    0    0 -0.73428406306E-01 -0.21606824371E-01  0.49016993631E-01  0.90892862743E-01  0.51100000000E-03 0.  1.
         11    1    4    4    0    0 -0.24029135698E-01 -0.56380190158E-03  0.28447004783E-01  0.37245274024E-01  0.51100000000E-03 0. -1.
</event>
<event>
 8    1  0.1065239E+005  0.1043930E+01  0.7957747E-01            NaN
         13   -1    0    0    0    0  0.00000000000E+00  0.00000000000E+00  0.74505805969E-08  0.10566000000E+00  0.10566000000E+00 0. -1.
     999900   -1    0    0    0    0 -0.00000000000E+00 -0.00000000000E+00 -0.74505805969E-08  0.93827000000E+00  0.93827000000E+00 0.  1.
     999902    2    1    2    0    0 -0.23206287578E-01  0.21802908263E-02  0.23665882370E-02  0.10205016797E+01  0.10202327147E+01 0.  0.
     999903    2    3    3    0    0 -0.11439905759E+00 -0.16550561656E-01 -0.62975314028E-01  0.13318182176E+00  0.20259368223E-01 0.  0.
         14    1    1    2    0    0  0.23206287578E-01 -0.21802908263E-02 -0.23665882370E-02  0.23428320280E-01  0.00000000000E+00 0. -1.
     999901    1    3    3    0    0  0.91192770017E-01  0.18730852482E-01  0.65341902265E-01  0.88731985796E+00  0.88000000000E+00 0. -1.
        -11    1    4    4    0    0 -0.47019738000E-01 -0.13023221930E-01 -0.35444425088E-01  0.60307781105E-01  0.51100000000E-03 0. -1.
         11    1    4    4    0    0 -0.67379319595E-01 -0.35273397266E-02 -0.27530888941E-01  0.72874040656E-01  0.51100000000E-03 0.  1.
</event>
<event>
 8    1  0.1065239E+005  0.1043930E+01  0.7957747E-01            NaN
         13   -1    0    0    0    0  0.00000000000E+00  0.00000000000E+00  0.74505805969E-08  0.10566000000E+00  0.10566000000E+00 0. -1.
     999900   -1    0    0    0    0 -0.00000000000E+00 -0.00000000000E+00 -0.74505805969E-08  0.93827000000E+00  0.93827000000E+00 0.  1.
     999902    2    1    2    0    0 -0.17939930142E-01  0.14828390166E-01  0.48541976111E-02  0.10201542669E+01  0.10198771705E+01 0.  0.
     999903    2    3    3    0    0 -0.11166311281E+00  0.31772082747E-01  0.61905218007E-01  0.13317853862E+00  0.20643428204E-01 0.  0.
         14    1    1    2    0    0  0.17939930142E-01 -0.14828390166E-01 -0.48541976111E-02  0.23775733066E-01  0.00000000000E+00 0. -1.
     999901    1    3    3    0    0  0.93723182669E-01 -0.16943692582E-01 -0.57051020396E-01  0.88697572831E+00  0.88000000000E+00 0. -1.
        -11    1    4    4    0    0 -0.75836327043E-01  0.25967194375E-01  0.32633214318E-01  0.86548434305E-01  0.51100000000E-03 0. -1.
         11    1    4    4    0    0 -0.35826785768E-01  0.58048883726E-02  0.29272003689E-01  0.46630104316E-01  0.51100000000E-03 0.  1.
</event>
<event>
 8    1  0.1065239E+005  0.1043930E+01  0.7957747E-01            NaN
         13   -1    0    0    0    0  0.00000000000E+00  0.00000000000E+00  0.74505805969E-08  0.10566000000E+00  0.10566000000E+00 0. -1.
     999900   -1    0    0    0    0 -0.00000000000E+00 -0.00000000000E+00 -0.74505805969E-08  0.93827000000E+00  0.93827000000E+00 0. -1.
     999902    2    1    2    0    0  0.11698404601E-02  0.39078114594E-02 -0.26051878551E-01  0.10175607017E+01  0.10172189743E+01 0.  0.
     999903    2    3    3    0    0  0.87498288872E-02 -0.17895036678E-01  0.12169145431E+00  0.12494605202E+00  0.20147307974E-01 0.  0.
         14    1    1    2    0    0 -0.11698404601E-02 -0.39078114594E-02  0.26051878551E-01  0.26369298306E-01  0.00000000000E+00 0. -1.
     999901    1    3    3    0    0 -0.75799884271E-02  0.21802848138E-01 -0.14774333286E+00  0.89261464968E+00  0.88000000000E+00 0. -1.
        -11    1    4    4    0    0 -0.14085841616E-02 -0.13149618012E-01  0.33121740173E-01  0.35668015873E-01  0.51100000000E-03 0. -1.
         11    1    4    4    0    0  0.10158413049E-01 -0.47454186662E-02  0.88569714141E-01  0.89278036145E-01  0.51100000000E-03 0.  1.
</event>
<event>
 8    1  0.1065239E+005  0.1043930E+01  0.7957747E-01            NaN
         13   -1    0    0    0    0  0.00000000000E+00  0.00000000000E+00  0.74505805969E-08  0.10566000000E+00  0.10566000000E+00 0. -1.
     999900   -1    0    0    0    0 -0.00000000000E+00 -0.00000000000E+00 -0.74505805969E-08  0.93827000000E+00  0.93827000000E+00 0. -1.
     999902    2    1    2    0    0 -0.16196533915E-01  0.13250074931E-01 -0.92459922842E-02  0.10210524877E+01  0.10207961609E+01 0.  0.
     999903    2    3    3    0    0  0.12266535556E+00  0.15412801227E-01 -0.34260431802E-01  0.12981008299E+00  0.19812535506E-01 0.  0.
         14    1    1    2    0    0  0.16196533915E-01 -0.13250074931E-01  0.92459922842E-02  0.22877512318E-01  0.00000000000E+00 0. -1.
     999901    1    3    3    0    0 -0.13886188947E+00 -0.21627262955E-02  0.25014439517E-01  0.89124240469E+00  0.88000000000E+00 0.  1.
        -11    1    4    4    0    0  0.11052071333E-01 -0.36069192225E-02 -0.44751021988E-03  0.11645579995E-01  0.51100000000E-03 0. -1.
         11    1    4    4    0    0  0.11161328423E+00  0.19019720449E-01 -0.33812921582E-01  0.11816450300E+00  0.51100000000E-03 0.  1.
</event>
<event>
 8    1  0.1065239E+005  0.1043930E+01  0.7957747E-01            NaN
         13   -1    0    0    0    0  0.00000000000E+00  0.00000000000E+00  0.74505805969E-08  0.10566000000E+00  0.10566000000E+00 0.  1.
     999900   -1    0    0    0    0 -0.00000000000E+00 -0.00000000000E+00 -0.74505805969E-08  0.93827000000E+00  0.93827000000E+00 0. -1.
     999902    2    1    2    0    0  0.41762223889E-03  0.14080979808E-01  0.18149206903E-01  0.10209551853E+01  0.10206966485E+01 0.  0.
     999903    2    3    3    0    0  0.12133107916E+00  0.10708978246E-01 -0.42788525375E-01  0.13059298837E+00  0.19691564745E-01 0.  0.
         14    1    1    2    0    0 -0.41762223889E-03 -0.14080979808E-01 -0.18149206903E-01  0.22974814730E-01  0.00000000000E+00 0. -1.
     999901    1    3    3    0    0 -0.12091345692E+00  0.33720015620E-02  0.60937732279E-01  0.89036219690E+00  0.88000000000E+00 0.  1.
        -11    1    4    4    0    0  0.78645403835E-01  0.46930356028E-02 -0.17831550240E-01  0.80779635011E-01  0.51100000000E-03 0. -1.
         11    1    4    4    0    0  0.42685675323E-01  0.60159426429E-02 -0.24956975135E-01  0.49813353356E-01  0.51100000000E-03 0.  1.
</event>
<event>
 8    1  0.1065239E+005  0.1043930E+01  0.7957747E-01            NaN
         13   -1    0    0    0    0  0.00000000000E+00  0.00000000000E+00  0.74505805969E-08  0.10566000000E+00  0.10566000000E+00 0. -1.
     999900   -1    0    0    0    0 -0.00000000000E+00 -0.00000000000E+00 -0.74505805969E-08  0.93827000000E+00  0.93827000000E+00 0. -1.
     999902    2    1    2    0    0  0.12947730127E-01  0.14118444550E-01  0.14407924200E-01  0.10199599672E+01  0.10196782690E+01 0.  0.
     999903    2    3    3    0    0 -0.89905581454E-01 -0.87065186510E-01 -0.15629584967E-01  0.12770485636E+00  0.20022141041E-01 0.  0.
         14    1    1    2    0    0 -0.12947730127E-01 -0.14118444550E-01 -0.14407924200E-01  0.23970032785E-01  0.00000000000E+00 0.  1.
     999901    1    3    3    0    0  0.10285331158E+00  0.10118363106E+00  0.30037509166E-01  0.89225511086E+00  0.88000000000E+00 0. -1.
        -11    1    4    4    0    0 -0.34570596939E-01 -0.35655790216E-01  0.34948768905E-02  0.49788922806E-01  0.51100000000E-03 0. -1.
         11    1    4    4    0    0 -0.55334984515E-01 -0.51409396294E-01 -0.19124461857E-01  0.77915933550E-01  0.51100000000E-03 0.  1.
</event>
<event>
 8    1  0.1065239E+005  0.1043930E+01  0.7957747E-01            NaN
         13   -1    0    0    0    0  0.00000000000E+00  0.00000000000E+00  0.74505805969E-08  0.10566000000E+00  0.10566000000E+00 0. -1.
     999900   -1    0    0    0    0 -0.00000000000E+00 -0.00000000000E+00 -0.74505805969E-08  0.93827000000E+00  0.93827000000E+00 0. -1.
     999902    2    1    2    0    0  0.19986696484E-01  0.85534082319E-02  0.56258258860E-02  0.10214738484E+01  0.10212269798E+01 0.  0.
     999903    2    3    3    0    0  0.11358352188E+00 -0.68798301087E-01  0.65662376464E-02  0.13313577251E+00  0.68989688127E-02 0.  0.
         14    1    1    2    0    0 -0.19986696484E-01 -0.85534082319E-02 -0.56258258860E-02  0.22456151621E-01  0.00000000000E+00 0. -1.
     999901    1    3    3    0    0 -0.93596825396E-01  0.77351709319E-01 -0.94041176034E-03  0.88833807587E+00  0.88000000000E+00 0.  1.
        -11    1    4    4    0    0  0.28682724168E-01 -0.20887820577E-01  0.16655609146E-02  0.35525130940E-01  0.51100000000E-03 0.  1.
         11    1    4    4    0    0  0.84900797712E-01 -0.47910480510E-01  0.49006767318E-02  0.97610641573E-01  0.51100000000E-03 0. -1.
</event>
<event>
 8    1  0.1065239E+005  0.1043930E+01  0.7957747E-01            NaN
         13   -1    0    0    0    0  0.00000000000E+00  0.00000000000E+00  0.74505805969E-08  0.10566000000E+00  0.10566000000E+00 0. -1.
     999900   -1    0    0    0    0 -0.00000000000E+00 -0.00000000000E+00 -0.74505805969E-08  0.93827000000E+00  0.93827000000E+00 0.  1.
     999902    2    1    2    0    0  0.30731835699E-02 -0.23269833959E-01  0.10204865397E-02  0.10204359364E+01  0.10201654422E+01 0.  0.
     999903    2    3    3    0    0  0.45735209517E-01  0.44780051999E-01 -0.11085115168E+00  0.12972492895E+00  0.21062215335E-01 0.  0.
         14    1    1    2    0    0 -0.30731835699E-02  0.23269833959E-01 -0.10204865397E-02  0.23494063559E-01  0.00000000000E+00 0.  1.
     999901    1    3    3    0    0 -0.42662025947E-01 -0.68049885958E-01  0.11187163822E+00  0.89071100750E+00  0.88000000000E+00 0.  1.
        -11    1    4    4    0    0  0.24479625218E-01  0.37604633109E-01 -0.71060388289E-01  0.84042848517E-01  0.51100000000E-03 0.  1.
         11    1    4    4    0    0  0.21255584299E-01  0.71754188899E-02 -0.39790763389E-01  0.45682080428E-01  0.51100000000E-03 0. -1.
</event>
<event>
 8    1  0.1065239E+005  0.1043930E+01  0.7957747E-01            NaN
         13   -1    0    0    0    0  0.00000000000E+00  0.00000000000E+00  0.74505805969E-08  0.10566000000E+00  0.10566000000E+00 0. -1.
     999900   -1    0    0    0    0 -0.00000000000E+00 -0.00000000000E+00 -0.74505805969E-08  0.93827000000E+00  0.93827000000E+00 0. -1.
     999902    2    1    2    0    0 -0.19074682866E-01 -0.13482553043E-01 -0.42625070167E-02  0.10201857011E+01  0.10199093455E+01 0.  0.
     999903    2    3    3    0    0 -0.50118524331E-01  0.86193010752E-01  0.81453446793E-01  0.12987892094E+00  0.17110479998E-01 0.  0.
         14    1    1    2    0    0  0.19074682866E-01  0.13482553043E-01  0.42625070167E-02  0.23744298875E-01  0.00000000000E+00 0.  1.
     999901    1    3    3    0    0  0.31043841465E-01 -0.99675563795E-01 -0.85715953809E-01  0.89030678019E+00  0.88000000000E+00 0. -1.
        -11    1    4    4    0    0 -0.14036155395E-01  0.27117602716E-01  0.35310139139E-01  0.46684527226E-01  0.51100000000E-03 0.  1.
         11    1    4    4    0    0 -0.36082368936E-01  0.59075408037E-01  0.46143307654E-01  0.83194393711E-01  0.51100000000E-03 0. -1.
</event>
<event>
 8    1  0.1065239E+005  0.1043930E+01  0.7957747E-01            NaN
         13   -1    0    0    0    0  0.00000000000E+00  0.00000000000E+00  0.74505805969E-08  0.10566000000E+00  0.10566000000E+00 0. -1.
     999900   -1    0    0    0    0 -0.00000000000E+00 -0.00000000000E+00 -0.74505805969E-08  0.93827000000E+00  0.93827000000E+00 0. -1.
     999902    2    1    2    0    0  0.20922468056E-01  0.36090215100E-02 -0.10626248249E-01  0.10201878043E+01  0.10199114982E+01 0.  0.
     999903    2    3    3    0    0 -0.66079442400E-01 -0.10739954028E+00  0.65338705167E-03  0.12888568749E+00  0.26644691126E-01 0.  0.
         14    1    1    2    0    0 -0.20922468056E-01 -0.36090215100E-02  0.10626248249E-01  0.23742195721E-01  0.00000000000E+00 0.  1.
     999901    1    3    3    0    0  0.87001910456E-01  0.11100856179E+00 -0.11279635301E-01  0.89130211679E+00  0.88000000000E+00 0.  1.
        -11    1    4    4    0    0 -0.44450429552E-01 -0.81205914851E-01 -0.10400441794E-01  0.93159388172E-01  0.51100000000E-03 0. -1.
         11    1    4    4    0    0 -0.21629012849E-01 -0.26193625431E-01  0.11053828845E-01  0.35726299321E-01  0.51100000000E-03 0.  1.
</event>
<event>
 8    1  0.1065239E+005  0.1043930E+01  0.7957747E-01            NaN
         13   -1    0    0    0    0  0.00000000000E+00  0.00000000000E+00  0.74505805969E-08  0.10566000000E+00  0.10566000000E+00 0. -1.
     999900   -1    0    0    0    0 -0.00000000000E+00 -0.00000000000E+00 -0.74505805969E-08  0.93827000000E+00  0.93827000000E+00 0.  1.
     999902    2    1    2    0    0 -0.12972147963E-01 -0.75539447785E-02  0.18559827969E-01  0.10200593922E+01  0.10197800535E+01 0.  0.
     999903    2    3    3    0    0 -0.27246486347E-01  0.37856978472E-01 -0.11796031666E+00  0.12826140014E+00  0.18995489493E-01 0.  0.
         14    1    1    2    0    0  0.12972147963E-01  0.75539447785E-02 -0.18559827969E-01  0.23870607842E-01  0.00000000000E+00 0.  1.
     999901    1    3    3    0    0  0.14274338384E-01 -0.45410923251E-01  0.13652014463E+00  0.89179799202E+00  0.88000000000E+00 0. -1.
        -11    1    4    4    0    0  0.12031982610E-02  0.11426220366E-01 -0.28697197469E-01  0.30915958039E-01  0.51100000000E-03 0. -1.
         11    1    4    4    0    0 -0.28449684608E-01  0.26430758107E-01 -0.89263119190E-01  0.97345442096E-01  0.51100000000E-03 0.  1.
</event>
<event>
 8    1  0.1065239E+005  0.1043930E+01  0.7957747E-01            NaN
         13   -1    0    0    0    0  0.00000000000E+00  0.00000000000E+00  0.74505805969E-08  0.10566000000E+00  0.10566000000E+00 0. -1.
     999900   -1    0    0    0    0 -0.00000000000E+00 -0.00000000000E+00 -0.74505805969E-08  0.93827000000E+00  0.93827000000E+00 0. -1.
     999902    2    1    2    0    0 -0.40576718595E-02  0.23636355626E-01  0.24712761545E-02  0.10198208894E+01  0.10195358734E+01 0.  0.
     999903    2    3    3    0    0  0.51439236959E-01 -0.95827174141E-01 -0.63528757976E-01  0.12757235545E+00  0.20247478396E-01 0.  0.
         14    1    1    2    0    0  0.40576718595E-02 -0.23636355626E-01 -0.24712761545E-02  0.24109110603E-01  0.00000000000E+00 0. -1.
     999901    1    3    3    0    0 -0.55496908818E-01  0.11946352977E+00  0.66000034130E-01  0.89224853395E+00  0.88000000000E+00 0.  1.
        -11    1    4    4    0    0  0.44054793289E-01 -0.79663095791E-01 -0.43827264416E-01  0.10103526053E+00  0.51100000000E-03 0. -1.
         11    1    4    4    0    0  0.73844436695E-02 -0.16164078350E-01 -0.19701493560E-01  0.26537094918E-01  0.51100000000E-03 0.  1.
</event>
<event>
 8    1  0.1065239E+005  0.1043930E+01  0.7957747E-01            NaN
         13   -1    0    0    0    0  0.00000000000E+00  0.00000000000E+00  0.74505805969E-08  0.10566000000E+00  0.10566000000E+00 0. -1.
     999900   -1    0    0    0    0 -0.00000000000E+00 -0.00000000000E+00 -0.74505805969E-08  0.93827000000E+00  0.93827000000E+00 0. -1.
     999902    2    1    2    0    0  0.66288847551E-02  0.86005764088E-02 -0.22739284173E-01  0.10187310502E+01  0.10184193466E+01 0.  0.
     999903    2    3    3    0    0  0.11464790334E+00 -0.16785348568E-01 -0.57856260265E-01  0.13106796343E+00  0.20138880778E-01 0.  0.
         14    1    1    2    0    0 -0.66288847551E-02 -0.86005764088E-02  0.22739284173E-01  0.25198949827E-01  0.00000000000E+00 0. -1.
     999901    1    3    3    0    0 -0.10801901858E+00  0.25385924977E-01  0.35116976091E-01  0.88766308675E+00  0.88000000000E+00 0.  1.
        -11    1    4    4    0    0  0.84344001267E-01 -0.32766933467E-02 -0.42489997126E-01  0.94500308178E-01  0.51100000000E-03 0. -1.
         11    1    4    4    0    0  0.30303902070E-01 -0.13508655221E-01 -0.15366263139E-01  0.36567655249E-01  0.51100000000E-03 0.  1.
</event>
<event>
 8    1  0.1065239E+005  0.1043930E+01  0.7957747E-01            NaN
         13   -1    0    0    0    0  0.00000000000E+00  0.00000000000E+00  0.74505805969E-08  0.10566000000E+00  0.10566000000E+00 0.  1.
     999900   -1    0    0    0    0 -0.00000000000E+00 -0.00000000000E+00 -0.74505805969E-08  0.93827000000E+00  0.93827000000E+00 0.  1.
     999902    2    1    2    0    0 -0.18184491627E-01 -0.18049774891E-02  0.15861270844E-01  0.10197326119E+01  0.10194454797E+01 0.  0.
     999903    2    3    3    0    0  0.82720307825E-01 -0.53051992090E-01 -0.74304444915E-01  0.12791542693E+00  0.34409921841E-01 0.  0.
         14    1    1    2    0    0  0.18184491627E-01  0.18049774891E-02 -0.15861270844E-01  0.24197388129E-01  0.00000000000E+00 0. -1.
     999901    1    3    3    0    0 -0.10090479945E+00  0.51247014601E-01  0.90165715759E-01  0.89181718494E+00  0.88000000000E+00 0. -1.
        -11    1    4    4    0    0  0.54671729581E-01 -0.36472879484E-01 -0.68290001016E-01  0.94778976113E-01  0.51100000000E-03 0.  1.
         11    1    4    4    0    0  0.28048578245E-01 -0.16579112606E-01 -0.60144438991E-02  0.33136450817E-01  0.51100000000E-03 0. -1.
</event>
<event>
 7    1  0.1065239E+005  0.1043930E+01  0.7957747E-01            NaN
         13   -1    0    0    0    0  0.00000000000E+00  0.00000000000E+00  0.74505805969E-08  0.10566000000E+00  0.10566000000E+00 0. -1.
     999900   -1    0    0    0    0 -0.00000000000E+00 -0.00000000000E+00 -0.74505805969E-08  0.93827000000E+00  0.93827000000E+00 0.  1.
     999903    2    1    2    0    0 -0.51292547444E-01  0.61532595226E-01  0.34621555779E-01  0.89556738811E-01  0.20113966377E-01 0.  0.
         14    1    1    2    0    0 -0.13861235375E-01 -0.50885058816E-01  0.43617201492E-01  0.68438902116E-01  0.00000000000E+00 0.  1.
     999901    1    1    2    0    0  0.65153782818E-01 -0.10647536410E-01 -0.78238757271E-01  0.88593435907E+00  0.88000000000E+00 0.  1.
        -11    1    3    3    0    0 -0.22127765465E-01  0.16877493950E-01  0.41890476400E-02  0.28147771629E-01  0.51100000000E-03 0.  1.
         11    1    3    3    0    0 -0.29164781978E-01  0.44655101276E-01  0.30432508139E-01  0.61408967183E-01  0.51100000000E-03 0. -1.
</event>
<event>
 7    1  0.1065239E+005  0.1043930E+01  0.7957747E-01            NaN
         13   -1    0    0    0    0  0.00000000000E+00  0.00000000000E+00  0.74505805969E-08  0.10566000000E+00  0.10566000000E+00 0.  1.
     999900   -1    0    0    0    0 -0.00000000000E+00 -0.00000000000E+00 -0.74505805969E-08  0.93827000000E+00  0.93827000000E+00 0. -1.
     999903    2    1    2    0    0 -0.99092156416E-01  0.59929516800E-01  0.31555384183E-02  0.11755247986E+00  0.19945567198E-01 0.  0.
         14    1    1    2    0    0  0.17210376449E-01  0.19483135133E-01  0.28339843425E-01  0.38456941344E-01  0.00000000000E+00 0.  1.
     999901    1    1    2    0    0  0.81881779967E-01 -0.79412651933E-01 -0.31495381844E-01  0.88792057880E+00  0.88000000000E+00 0. -1.
        -11    1    3    3    0    0 -0.22301259268E-01  0.52533962083E-02  0.40884757890E-02  0.23279198696E-01  0.51100000000E-03 0. -1.
         11    1    3    3    0    0 -0.76790897148E-01  0.54676120592E-01 -0.93293737061E-03  0.94273281161E-01  0.51100000000E-03 0.  1.
</event>
<event>
 8    1  0.1065239E+005  0.1043930E+01  0.7957747E-01            NaN
         13   -1    0    0    0    0  0.00000000000E+00  0.00000000000E+00  0.74505805969E-08  0.10566000000E+00  0.10566000000E+00 0. -1.
     999900   -1    0    0    0    0 -0.00000000000E+00 -0.00000000000E+00 -0.74505805969E-08  0.93827000000E+00  0.93827000000E+00 0.  1.
     999902    2    1    2    0    0 -0.82798157509E-03  0.25395464536E-01 -0.26651831185E-02  0.10183816464E+01  0.10180611275E+01 0.  0.
     999903    2    3    3    0    0  0.89551948642E-01  0.88841013019E-01  0.28586969517E-01  0.13092992010E+00  0.20326142055E-01 0.  0.
         14    1    1    2    0    0  0.82798157509E-03 -0.25395464536E-01  0.26651831185E-02  0.25548353636E-01  0.00000000000E+00 0. -1.
     999901    1    3    3    0    0 -0.90379930217E-01 -0.63445548483E-01 -0.31252152636E-01  0.88745172627E+00  0.88000000000E+00 0.  1.
        -11    1    4    4    0    0  0.32491686531E-01  0.45974998105E-01  0.10018335753E-01  0.57184248851E-01  0.51100000000E-03 0.  1.
         11    1    4    4    0    0  0.57060262111E-01  0.42866014914E-01  0.18568633764E-01  0.73745671247E-01  0.51100000000E-03 0. -1.
</event>
<event>
 8    1  0.1065239E+005  0.1043930E+01  0.7957747E-01            NaN
         13   -1    0    0    0    0  0.00000000000E+00  0.00000000000E+00  0.74505805969E-08  0.10566000000E+00  0.10566000000E+00 0.  1.
     999900   -1    0    0    0    0 -0.00000000000E+00 -0.00000000000E+00 -0.74505805969E-08  0.93827000000E+00  0.93827000000E+00 0. -1.
     999902    2    1    2    0    0 -0.69563609184E-02  0.22085458431E-01  0.36780387557E-02  0.10204846081E+01  0.10202152464E+01 0.  0.
     999903    2    3    3    0    0 -0.86625510496E-01 -0.93635421936E-01 -0.34432398341E-02  0.12931166859E+00  0.20930370810E-01 0.  0.
         14    1    1    2    0    0  0.69563609184E-02 -0.22085458431E-01 -0.36780387557E-02  0.23445391881E-01  0.00000000000E+00 0. -1.
     999901    1    3    3    0    0  0.79669149577E-01  0.11572088037E+00  0.71212785898E-02  0.89117293953E+00  0.88000000000E+00 0.  1.
        -11    1    4    4    0    0 -0.24618744960E-01 -0.30212670998E-01 -0.10400501009E-01  0.40340050006E-01  0.51100000000E-03 0. -1.
         11    1    4    4    0    0 -0.62006765536E-01 -0.63422750938E-01  0.69572611753E-02  0.88971618581E-01  0.51100000000E-03 0.  1.
</event>
<event>
 8    1  0.1065239E+005  0.1043930E+01  0.7957747E-01            NaN
         13   -1    0    0    0    0  0.00000000000E+00  0.00000000000E+00  0.74505805969E-08  0.10566000000E+00  0.10566000000E+00 0.  1.
     999900   -1    0    0    0    0 -0.00000000000E+00 -0.00000000000E+00 -0.74505805969E-08  0.93827000000E+00  0.93827000000E+00 0.  1.
     999902    2    1    2    0    0  0.89832042516E-02 -0.12229415269E-02 -0.21941213384E-01  0.10201895200E+01  0.10199132543E+01 0.  0.
     999903    2    3    3    0    0 -0.85240489811E-01  0.63937037833E-02  0.92760263980E-01  0.12772520885E+00  0.20060953409E-01 0.  0.
         14    1    1    2    0    0 -0.89832042516E-02  0.12229415269E-02  0.21941213384E-01  0.23740479974E-01  0.00000000000E+00 0. -1.
     999901    1    3    3    0    0  0.94223694062E-01 -0.76166453102E-02 -0.11470147736E+00  0.89246431117E+00  0.88000000000E+00 0. -1.
        -11    1    4    4    0    0 -0.29150460300E-01 -0.51304834773E-02  0.23099964072E-01  0.37549176523E-01  0.51100000000E-03 0.  1.
         11    1    4    4    0    0 -0.56090029510E-01  0.11524187261E-01  0.69660299908E-01  0.90176032330E-01  0.51100000000E-03 0. -1.
</event>
<event>
 8    1  0.1065239E+005  0.1043930E+01  0.7957747E-01            NaN
         13   -1    0    0    0    0  0.00000000000E+00  0.00000000000E+00  0.74505805969E-08  0.10566000000E+00  0.10566000000E+00 0.  1.
     999900   -1    0    0    0    0 -0.00000000000E+00 -0.00000000000E+00 -0.74505805969E-08  0.93827000000E+00  0.93827000000E+00 0. -1.
     999902    2    1    2    0    0  0.20763703114E-01 -0.11294647048E-01 -0.22850244289E-03  0.10202920510E+01  0.10200181943E+01 0.  0.
     999903    2    3    3    0    0  0.27301812553E-01  0.10514366086E+00 -0.68604415582E-01  0.12996857501E+00  0.19613420563E-01 0.  0.
         14    1    1    2    0    0 -0.20763703114E-01  0.11294647048E-01  0.22850244289E-03  0.23637948987E-01  0.00000000000E+00 0. -1.
     999901    1    3    3    0    0 -0.65381094388E-02 -0.11643830790E+00  0.68375913140E-01  0.89032347600E+00  0.88000000000E+00 0.  1.
        -11    1    4    4    0    0  0.15008382452E-01  0.67303932786E-01 -0.32474652850E-01  0.76222930349E-01  0.51100000000E-03 0. -1.
         11    1    4    4    0    0  0.12293430100E-01  0.37839728070E-01 -0.36129762733E-01  0.53745644662E-01  0.51100000000E-03 0.  1.
</event>
<event>
 8    1  0.1065239E+005  0.1043930E+01  0.7957747E-01            NaN
         13   -1    0    0    0    0  0.00000000000E+00  0.00000000000E+00  0.74505805969E-08  0.10566000000E+00  0.10566000000E+00 0.  1.
     999900   -1    0    0    0    0 -0.00000000000E+00 -0.00000000000E+00 -0.74505805969E-08  0.93827000000E+00  0.93827000000E+00 0.  1.
     999902    2    1    2    0    0  0.30082051000E-04  0.22266333880E-01 -0.82660368223E-02  0.10201788338E+01  0.10199023165E+01 0.  0.
     999903    2    3    3    0    0 -0.47949948463E-01  0.63201110981E-02  0.11858354003E+00  0.12964686894E+00  0.20177048820E-01 0.  0.
         14    1    1    2    0    0 -0.30082051000E-04 -0.22266333880E-01  0.82660368223E-02  0.23751166164E-01  0.00000000000E+00 0.  1.
     999901    1    3    3    0    0  0.47980030514E-01  0.15946222782E-01 -0.12684957685E+00  0.89053196489E+00  0.88000000000E+00 0.  1.
        -11    1    4    4    0    0 -0.36020711129E-01 -0.29958466091E-02  0.94719364745E-01  0.10138286791E+00  0.51100000000E-03 0.  1.
         11    1    4    4    0    0 -0.11929237334E-01  0.93159577071E-02  0.23864175283E-01  0.28264001032E-01  0.51100000000E-03 0. -1.
</event>
<event>
 8    1  0.1065239E+005  0.1043930E+01  0.7957747E-01            NaN
         13   -1    0    0    0    0  0.00000000000E+00  0.00000000000E+00  0.74505805969E-08  0.10566000000E+00  0.10566000000E+00 0. -1.
     999900   -1    0    0    0    0 -0.00000000000E+00 -0.00000000000E+00 -0.74505805969E-08  0.93827000000E+00  0.93827000000E+00 0. -1.
     999902    2    1    2    0    0  0.30130223593E-03 -0.13895214329E-01 -0.19686715841E-01  0.10198315655E+01  0.10195468049E+01 0.  0.
     999903    2    3    3    0    0  0.16409438061E-01  0.11572806334E+00 -0.52371866232E-01  0.12959003356E+00  0.19710660143E-01 0.  0.
         14    1    1    2    0    0 -0.30130223593E-03  0.13895214329E-01  0.19686715841E-01  0.24098434490E-01  0.00000000000E+00 0. -1.
     999901    1    3    3    0    0 -0.16108135825E-01 -0.12962327767E+00  0.32685150391E-01  0.89024153195E+00  0.88000000000E+00 0.  1.
        -11    1    4    4    0    0  0.12071602891E-01  0.57035219105E-01 -0.35922536186E-01  0.68479409619E-01  0.51100000000E-03 0.  1.
         11    1    4    4    0    0  0.43378351702E-02  0.58692844236E-01 -0.16449330045E-01  0.61110623941E-01  0.51100000000E-03 0. -1.
</event>
<event>
 8    1  0.1065239E+005  0.1043930E+01  0.7957747E-01            NaN
         13   -1    0    0    0    0  0.00000000000E+00  0.00000000000E+00  0.74505805969E-08  0.10566000000E+00  0.10566000000E+00 0. -1.
     999900   -1    0    0    0    0 -0.00000000000E+00 -0.00000000000E+00 -0.74505805969E-08  0.93827000000E+00  0.93827000000E+00 0. -1.
     999902    2    1    2    0    0 -0.18680267566E-01 -0.12066405109E-01 -0.70658617404E-02  0.10205959705E+01  0.10203291911E+01 0.  0.
     999903    2    3    3    0    0  0.12861422049E-01 -0.37097482887E-01  0.12257497219E+00  0.13018697527E+00  0.19554674840E-01 0.  0.
         14    1    1    2    0    0  0.18680267566E-01  0.12066405109E-01  0.70658617404E-02  0.23334029457E-01  0.00000000000E+00 0.  1.
     999901    1    3    3    0    0 -0.31541689614E-01  0.25031077778E-01 -0.12964083393E+00  0.89040899527E+00  0.88000000000E+00 0. -1.
        -11    1    4    4    0    0 -0.22425286982E-02 -0.20488991518E-01  0.71061040318E-01  0.73991623042E-01  0.51100000000E-03 0.  1.
         11    1    4    4    0    0  0.15103950747E-01 -0.16608491369E-01  0.51513931876E-01  0.56195352228E-01  0.51100000000E-03 0. -1.
</event>
<event>
 8    1  0.1065239E+005  0.1043930E+01  0.7957747E-01            NaN
         13   -1    0    0    0    0  0.00000000000E+00  0.00000000000E+00  0.74505805969E-08  0.10566000000E+00  0.10566000000E+00 0.  1.
     999900   -1    0    0    0    0 -0.00000000000E+00 -0.00000000000E+00 -0.74505805969E-08  0.93827000000E+00  0.93827000000E+00 0. -1.
     999902    2    1    2    0    0 -0.19616344637E-01  0.12958188769E-01 -0.13047700521E-01  0.10170421194E+01  0.10166866354E+01 0.  0.
     999903    2    3    3    0    0  0.10155745727E+00  0.37346987777E-02 -0.72917004988E-01  0.12667562373E+00  0.20048913370E-01 0.  0.
         14    1    1    2    0    0  0.19616344637E-01 -0.12958188769E-01  0.13047700521E-01  0.26887880578E-01  0.00000000000E+00 0. -1.
     999901    1    3    3    0    0 -0.12117380191E+00  0.92234899915E-02  0.59869304467E-01  0.89036649569E+00  0.88000000000E+00 0. -1.
        -11    1    4    4    0    0  0.85562783352E-01  0.74460592265E-02 -0.67940682033E-01  0.10951087201E+00  0.51100000000E-03 0. -1.
         11    1    4    4    0    0  0.15994673922E-01 -0.37113604489E-02 -0.49763229551E-02  0.17164751715E-01  0.51100000000E-03 0.  1.
</event>
<event>
 8    1  0.1065239E+005  0.1043930E+01  0.7957747E-01            NaN
         13   -1    0    0    0    0  0.00000000000E+00  0.00000000000E+00  0.74505805969E-08  0.10566000000E+00  0.10566000000E+00 0.  1.
     999900   -1    0    0    0    0 -0.00000000000E+00 -0.00000000000E+00 -0.74505805969E-08  0.93827000000E+00  0.93827000000E+00 0. -1.
     999902    2    1    2    0    0  0.93835001054E-02 -0.18844555888E-01  0.91819703544E-02  0.10209631556E+01  0.10207048002E+01 0.  0.
     999903    2    3    3    0    0 -0.61604685850E-01  0.98293075418E-01  0.54193863904E-01  0.12923078671E+00  0.17520141408E-01 0.  0.
         14    1    1    2    0    0 -0.93835001054E-02  0.18844555888E-01 -0.91819703544E-02  0.22966844373E-01  0.00000000000E+00 0. -1.
     999901    1    3    3    0    0  0.70988185955E-01 -0.11713763131E+00 -0.45011893550E-01  0.89173236892E+00  0.88000000000E+00 0.  1.
        -11    1    4    4    0    0 -0.60208302414E-01  0.86777479712E-01  0.50282733964E-01  0.11697856693E+00  0.51100000000E-03 0. -1.
         11    1    4    4    0    0 -0.13963834362E-02  0.11515595706E-01  0.39111299407E-02  0.12252219782E-01  0.51100000000E-03 0.  1.
</event>
<event>
 8    1  0.1065239E+005  0.1043930E+01  0.7957747E-01            NaN
         13   -1    0    0    0    0  0.00000000000E+00  0.00000000000E+00  0.74505805969E-08  0.10566000000E+00  0.10566000000E+00 0. -1.
     999900   -1    0    0    0    0 -0.00000000000E+00 -0.00000000000E+00 -0.74505805969E-08  0.93827000000E+00  0.93827000000E+00 0. -1.
     999902    2    1    2    0    0 -0.58754618238E-02  0.88295905302E-03  0.21643881732E-01  0.10214854398E+01  0.10212388287E+01 0.  0.
     999903    2    3    3    0    0  0.57992179867E-01  0.27345096528E-01 -0.11019583736E+00  0.12898276082E+00  0.19559723563E-01 0.  0.
         14    1    1    2    0    0  0.58754618238E-02 -0.88295905302E-03 -0.21643881732E-01  0.22444560249E-01  0.00000000000E+00 0.  1.
     999901    1    3    3    0    0 -0.63867641691E-01 -0.26462137475E-01  0.13183971909E+00  0.89250267893E+00  0.88000000000E+00 0.  1.
        -11    1    4    4    0    0  0.16583909359E-01  0.30901715634E-02 -0.15951028758E-01  0.23222223178E-01  0.51100000000E-03 0. -1.
         11    1    4    4    0    0  0.41408270509E-01  0.24254924964E-01 -0.94244808605E-01  0.10576053764E+00  0.51100000000E-03 0.  1.
</event>
<event>
 8    1  0.1065239E+005  0.1043930E+01  0.7957747E-01            NaN
         13   -1    0    0    0    0  0.00000000000E+00  0.00000000000E+00  0.74505805969E-08  0.10566000000E+00  0.10566000000E+00 0. -1.
     999900   -1    0    0    0    0 -0.00000000000E+00 -0.00000000000E+00 -0.74505805969E-08  0.93827000000E+00  0.93827000000E+00 0. -1.
     999902    2    1    2    0    0  0.21620804308E-01  0.12476317864E-01  0.59209738531E-02  0.10182750664E+01  0.10179518335E+01 0.  0.
     999903    2    3    3    0    0  0.82944104389E-01  0.45710910905E-01 -0.87650496836E-01  0.13056976315E+00  0.19915863618E-01 0.  0.
         14    1    1    2    0    0 -0.21620804308E-01 -0.12476317864E-01 -0.59209738531E-02  0.25654933595E-01  0.00000000000E+00 0.  1.
     999901    1    3    3    0    0 -0.61323300081E-01 -0.33234593041E-01  0.93571470689E-01  0.88770530326E+00  0.88000000000E+00 0.  1.
        -11    1    4    4    0    0  0.20132584568E-01  0.66934696936E-02 -0.30290696191E-01  0.36985279432E-01  0.51100000000E-03 0.  1.
         11    1    4    4    0    0  0.62811519821E-01  0.39017441212E-01 -0.57359800645E-01  0.93584483714E-01  0.51100000000E-03 0. -1.
</event>
<event>
 8    1  0.1065239E+005  0.1043930E+01  0.7957747E-01            NaN
         13   -1    0    0    0    0  0.00000000000E+00  0.00000000000E+00  0.74505805969E-08  0.10566000000E+00  0.10566000000E+00 0.  1.
     999900   -1    0    0    0    0 -0.00000000000E+00 -0.00000000000E+00 -0.74505805969E-08  0.93827000000E+00  0.93827000000E+00 0. -1.
     999902    2    1    2    0    0  0.91490237313E-02  0.24443499187E-01  0.11957439864E-01  0.10152216448E+01  0.10148156574E+01 0.  0.
     999903    2    3    3    0    0  0.47835629940E-01 -0.44955217066E-01  0.10405713382E+00  0.12685506007E+00  0.30904694364E-01 0.  0.
         14    1    1    2    0    0 -0.91490237313E-02 -0.24443499187E-01 -0.11957439864E-01  0.28708355157E-01  0.00000000000E+00 0. -1.
     999901    1    3    3    0    0 -0.38686606208E-01  0.69398716252E-01 -0.92099693952E-01  0.88836658477E+00  0.88000000000E+00 0. -1.
        -11    1    4    4    0    0  0.11623409720E-01 -0.20074104339E-01  0.61307194337E-01  0.65550793412E-01  0.51100000000E-03 0.  1.
         11    1    4    4    0    0  0.36212220219E-01 -0.24881112727E-01  0.42749939480E-01  0.61304266656E-01  0.51100000000E-03 0. -1.
</event>
<event>
 8    1  0.1065239E+005  0.1043930E+01  0.7957747E-01            NaN
         13   -1    0    0    0    0  0.00000000000E+00  0.00000000000E+00  0.74505805969E-08  0.10566000000E+00  0.10566000000E+00 0. -1.
     999900   -1    0    0    0    0 -0.00000000000E+00 -0.00000000000E+00 -0.74505805969E-08  0.93827000000E+00  0.93827000000E+00 0.  1.
     999902    2    1    2    0    0 -0.21323733204E-01  0.40813504352E-02  0.87652487494E-02  0.10205165721E+01  0.10202479529E+01 0.  0.
     999903    2    3    3    0    0 -0.24877773266E-01  0.90091655623E-01  0.91590787735E-01  0.13244536231E+00  0.20432610783E-01 0.  0.
         14    1    1    2    0    0  0.21323733204E-01 -0.40813504352E-02 -0.87652487494E-02  0.23413427873E-01  0.00000000000E+00 0.  1.
     999901    1    3    3    0    0  0.35540400618E-02 -0.86010305188E-01 -0.82825538986E-01  0.88807120982E+00  0.88000000000E+00 0. -1.
        -11    1    4    4    0    0 -0.24767922300E-01  0.57123578793E-01  0.53751490995E-01  0.82255924616E-01  0.51100000000E-03 0.  1.
         11    1    4    4    0    0 -0.10985096587E-03  0.32968076831E-01  0.37839296740E-01  0.50189437693E-01  0.51100000000E-03 0. -1.
</event>
<event>
 8    1  0.1065239E+005  0.1043930E+01  0.7957747E-01            NaN
         13   -1    0    0    0    0  0.00000000000E+00  0.00000000000E+00  0.74505805969E-08  0.10566000000E+00  0.10566000000E+00 0.  1.
     999900   -1    0    0    0    0 -0.00000000000E+00 -0.00000000000E+00 -0.74505805969E-08  0.93827000000E+00  0.93827000000E+00 0. -1.
     999902    2    1    2    0    0 -0.12089882727E-01 -0.13764986798E-01 -0.16682976777E-01  0.10191517466E+01  0.10188504899E+01 0.  0.
     999903    2    3    3    0    0  0.86418913570E-01 -0.19731113292E-01 -0.93498865583E-01  0.13030965808E+00  0.19519827570E-01 0.  0.
         14    1    1    2    0    0  0.12089882727E-01  0.13764986798E-01  0.16682976777E-01  0.24778253369E-01  0.00000000000E+00 0.  1.
     999901    1    3    3    0    0 -0.98508796297E-01  0.59661264946E-02  0.76815888806E-01  0.88884208855E+00  0.88000000000E+00 0.  1.
        -11    1    4    4    0    0  0.16086518437E-01 -0.33513659917E-02 -0.29709188786E-01  0.33954451089E-01  0.51100000000E-03 0.  1.
         11    1    4    4    0    0  0.70332395133E-01 -0.16379747300E-01 -0.63789676797E-01  0.96355206987E-01  0.51100000000E-03 0. -1.
</event>
<event>
 8    1  0.1065239E+005  0.1043930E+01  0.7957747E-01            NaN
         13   -1    0    0    0    0  0.00000000000E+00  0.00000000000E+00  0.74505805969E-08  0.10566000000E+00  0.10566000000E+00 0.  1.
     999900   -1    0    0    0    0 -0.00000000000E+00 -0.00000000000E+00 -0.74505805969E-08  0.93827000000E+00  0.93827000000E+00 0. -1.
     999902    2    1    2    0    0  0.20531719651E-01  0.78591196605E-02 -0.93403985418E-02  0.10200435955E+01  0.10197638827E+01 0.  0.
     999903    2    3    3    0    0  0.89354650216E-01  0.67643790186E-01 -0.69374859885E-01  0.13329958560E+00  0.19899057019E-01 0.  0.
         14    1    1    2    0    0 -0.20531719651E-01 -0.78591196605E-02  0.93403985418E-02  0.23886404472E-01  0.00000000000E+00 0.  1.
     999901    1    3    3    0    0 -0.68822930564E-01 -0.59784670525E-01  0.60034461343E-01  0.88674400993E+00  0.88000000000E+00 0. -1.
        -11    1    4    4    0    0  0.36589814305E-01  0.34254733508E-01 -0.21159315528E-01  0.54407527358E-01  0.51100000000E-03 0. -1.
         11    1    4    4    0    0  0.52764835910E-01  0.33389056678E-01 -0.48215544356E-01  0.78892058238E-01  0.51100000000E-03 0.  1.
</event>
<event>
 8    1  0.1065239E+005  0.1043930E+01  0.7957747E-01            NaN
         13   -1    0    0    0    0  0.00000000000E+00  0.00000000000E+00  0.74505805969E-08  0.10566000000E+00  0.10566000000E+00 0.  1.
     999900   -1    0    0    0    0 -0.00000000000E+00 -0.00000000000E+00 -0.74505805969E-08  0.93827000000E+00  0.93827000000E+00 0.  1.
     999902    2    1    2    0    0 -0.13715434685E-01  0.15637751333E-01 -0.11268644291E-01  0.10202733992E+01  0.10199991051E+01 0.  0.
     999903    2    3    3    0    0  0.78314716781E-01 -0.80771849135E-03 -0.10266141184E+00  0.13061467804E+00  0.19671841906E-01 0.  0.
         14    1    1    2    0    0  0.13715434685E-01 -0.15637751333E-01  0.11268644291E-01  0.23656600759E-01  0.00000000000E+00 0. -1.
     999901    1    3    3    0    0 -0.92030151466E-01  0.16445469824E-01  0.91392767548E-01  0.88965872121E+00  0.88000000000E+00 0.  1.
        -11    1    4    4    0    0  0.13215069298E-01 -0.76471907676E-02 -0.20422304772E-01  0.25503906297E-01  0.51100000000E-03 0.  1.
         11    1    4    4    0    0  0.65099647483E-01  0.68394722763E-02 -0.82239107066E-01  0.10511077174E+00  0.51100000000E-03 0. -1.
</event>
<event>
 8    1  0.1065239E+005  0.1043930E+01  0.7957747E-01            NaN
         13   -1    0    0    0    0  0.00000000000E+00  0.00000000000E+00  0.74505805969E-08  0.10566000000E+00  0.10566000000E+00 0.  1.
     999900   -1    0    0    0    0 -0.00000000000E+00 -0.00000000000E+00 -0.74505805969E-08  0.93827000000E+00  0.93827000000E+00 0. -1.
     999902    2    1    2    0    0 -0.11594917665E-01 -0.20540344980E-01  0.26756199946E-02  0.10201917012E+01  0.10199154869E+01 0.  0.
     999903    2    3    3    0    0 -0.10081385376E+00 -0.23608883149E-01 -0.78592050300E-01  0.13194969098E+00  0.22653876155E-01 0.  0.
         14    1    1    2    0    0  0.11594917665E-01  0.20540344980E-01 -0.26756199946E-02  0.23738298800E-01  0.00000000000E+00 0.  1.
     999901    1    3    3    0    0  0.89218936100E-01  0.30685381691E-02  0.81267670295E-01  0.88824201022E+00  0.88000000000E+00 0.  1.
        -11    1    4    4    0    0 -0.47859752827E-01 -0.11295398270E-01 -0.51484879901E-01  0.71197583823E-01  0.51100000000E-03 0.  1.
         11    1    4    4    0    0 -0.52954100938E-01 -0.12313484879E-01 -0.27107170399E-01  0.60752107157E-01  0.51100000000E-03 0. -1.
</event>
<event>
 8    1  0.1065239E+005  0.1043930E+01  0.7957747E-01            NaN
         13   -1    0    0    0    0  0.00000000000E+00  0.00000000000E+00  0.74505805969E-08  0.10566000000E+00  0.10566000000E+00 0. -1.
     999900   -1    0    0    0    0 -0.00000000000E+00 -0.00000000000E+00 -0.74505805969E-08  0.93827000000E+00  0.93827000000E+00 0.  1.
     999902    2    1    2    0    0  0.61392770748E-02  0.19371174195E-01 -0.12249100114E-01  0.10202029360E+01  0.10199269861E+01 0.  0.
     999903    2    3    3    0    0  0.27450460022E-01  0.10233117378E+00  0.74999385774E-01  0.13174988358E+00  0.22537237544E-01 0.  0.
         14    1    1    2    0    0 -0.61392770748E-02 -0.19371174195E-01  0.12249100114E-01  0.23727064005E-01  0.00000000000E+00 0. -1.
     999901    1    3    3    0    0 -0.21311182947E-01 -0.82959999581E-01 -0.87248485888E-01  0.88845305241E+00  0.88000000000E+00 0.  1.
        -11    1    4    4    0    0  0.21098203558E-01  0.70493636199E-01  0.63835402928E-01  0.97415125755E-01  0.51100000000E-03 0.  1.
         11    1    4    4    0    0  0.63522564635E-02  0.31837537577E-01  0.11163982846E-01  0.34334757829E-01  0.51100000000E-03 0. -1.
</event>
<event>
 8    1  0.1065239E+005  0.1043930E+01  0.7957747E-01            NaN
         13   -1    0    0    0    0  0.00000000000E+00  0.00000000000E+00  0.74505805969E-08  0.10566000000E+00  0.10566000000E+00 0.  1.
     999900   -1    0    0    0    0 -0.00000000000E+00 -0.00000000000E+00 -0.74505805969E-08  0.93827000000E+00  0.93827000000E+00 0.  1.
     999902    2    1    2    0    0 -0.18627993286E-01  0.54009254921E-02 -0.13521858425E-01  0.10202865488E+01  0.10200125631E+01 0.  0.
     999903    2    3    3    0    0  0.10269818087E+00 -0.31790343589E-01  0.65574365970E-01  0.12767272201E+00  0.21042437470E-01 0.  0.
         14    1    1    2    0    0  0.18627993286E-01 -0.54009254921E-02  0.13521858425E-01  0.23643451213E-01  0.00000000000E+00 0.  1.
     999901    1    3    3    0    0 -0.12132617416E+00  0.37191269081E-01 -0.79096224394E-01  0.89261382677E+00  0.88000000000E+00 0.  1.
        -11    1    4    4    0    0  0.72500926463E-01 -0.30763357367E-01  0.53058373670E-01  0.94964312412E-01  0.51100000000E-03 0. -1.
         11    1    4    4    0    0  0.30197254407E-01 -0.10269862216E-02  0.12515992300E-01  0.32708409602E-01  0.51100000000E-03 0.  1.
</event>
<event>
 8    1  0.1151887E+005  0.1043930E+01  0.7957747E-01            NaN
         13   -1    0    0    0    0  0.00000000000E+00  0.00000000000E+00  0.74505805969E-08  0.10566000000E+00  0.10566000000E+00 0. -1.
     999900   -1    0    0    0    0 -0.00000000000E+00 -0.00000000000E+00 -0.74505805969E-08  0.93827000000E+00  0.93827000000E+00 0. -1.
     999902    2    1    2    0    0 -0.60985813193E-02  0.20439146508E-01 -0.75462666113E-02  0.10213048471E+01  0.10210542068E+01 0.  0.
     999903    2    3    3    0    0  0.87138026457E-01  0.35031683956E-01 -0.91149449888E-01  0.13231918949E+00  0.19490796715E-01 0.  0.
         14    1    1    2    0    0  0.60985813193E-02 -0.20439146508E-01  0.75462666113E-02  0.22625152902E-01  0.00000000000E+00 0.  1.
     999901    1    3    3    0    0 -0.93236607776E-01 -0.14592537448E-01  0.83603183277E-01  0.88898565761E+00  0.88000000000E+00 0.  1.
        -11    1    4    4    0    0  0.35483499391E-01  0.24674766981E-01 -0.42021247513E-01  0.60282412179E-01  0.51100000000E-03 0.  1.
         11    1    4    4    0    0  0.51654527066E-01  0.10356916976E-01 -0.49128202375E-01  0.72036777310E-01  0.51100000000E-03 0. -1.
</event>
<event>
 8    1  0.1065239E+005  0.1043930E+01  0.7957747E-01            NaN
         13   -1    0    0    0    0  0.00000000000E+00  0.00000000000E+00  0.74505805969E-08  0.10566000000E+00  0.10566000000E+00 0. -1.
     999900   -1    0    0    0    0 -0.00000000000E+00 -0.00000000000E+00 -0.74505805969E-08  0.93827000000E+00  0.93827000000E+00 0.  1.
     999902    2    1    2    0    0  0.14656562818E-01  0.16138529404E-01  0.62254375255E-02  0.10212579238E+01  0.10210062311E+01 0.  0.
     999903    2    3    3    0    0  0.47270988578E-01 -0.82341006161E-02  0.12211723048E+00  0.13272619479E+00  0.20031925256E-01 0.  0.
         14    1    1    2    0    0 -0.14656562818E-01 -0.16138529404E-01 -0.62254375255E-02  0.22672076159E-01  0.00000000000E+00 0.  1.
     999901    1    3    3    0    0 -0.32614425761E-01  0.24372630020E-01 -0.11589179295E+00  0.88853172905E+00  0.88000000000E+00 0.  1.
        -11    1    4    4    0    0  0.45597110658E-01 -0.10746301559E-01  0.12044936376E+00  0.12923966051E+00  0.51100000000E-03 0.  1.
         11    1    4    4    0    0  0.16738779200E-02  0.25122009433E-02  0.16678667121E-02  0.34865342734E-02  0.51100000000E-03 0. -1.
</event>
<event>
 8    1  0.1065239E+005  0.1043930E+01  0.7957747E-01            NaN
         13   -1    0    0    0    0  0.00000000000E+00  0.00000000000E+00  0.74505805969E-08  0.10566000000E+00  0.10566000000E+00 0.  1.
     999900   -1    0    0    0    0 -0.00000000000E+00 -0.00000000000E+00 -0.74505805969E-08  0.93827000000E+00  0.93827000000E+00 0.  1.
     999902    2    1    2    0    0 -0.11631479215E-01  0.17594092802E-01 -0.10023887673E-01  0.10205778752E+01  0.10203106770E+01 0.  0.
     999903    2    3    3    0    0 -0.13006169710E+00 -0.11426156532E-01  0.33093881367E-03  0.13211002892E+00  0.20158078124E-01 0.  0.
         14    1    1    2    0    0  0.11631479215E-01 -0.17594092802E-01  0.10023887673E-01  0.23352124836E-01  0.00000000000E+00 0.  1.
     999901    1    3    3    0    0  0.11843021789E+00  0.29020249334E-01 -0.10354826487E-01  0.88846784625E+00  0.88000000000E+00 0.  1.
        -11    1    4    4    0    0 -0.90671700166E-01 -0.51162728857E-02 -0.86112004076E-02  0.91224708017E-01  0.51100000000E-03 0.  1.
         11    1    4    4    0    0 -0.39389996938E-01 -0.63098836463E-02  0.89421392212E-02  0.40885320902E-01  0.51100000000E-03 0. -1.
</event>
<event>
 8    1  0.1065239E+005  0.1043930E+01  0.7957747E-01            NaN
         13   -1    0    0    0    0  0.00000000000E+00  0.00000000000E+00  0.74505805969E-08  0.10566000000E+00  0.10566000000E+00 0. -1.
     999900   -1    0    0    0    0 -0.00000000000E+00 -0.00000000000E+00 -0.74505805969E-08  0.93827000000E+00  0.93827000000E+00 0.  1.
     999902    2    1    2    0    0 -0.80754288768E-02 -0.21630964094E-01 -0.53992797278E-02  0.10202179064E+01  0.10199423088E+01 0.  0.
     999903    2    3    3    0    0 -0.12004392795E+00  0.31123021225E-01  0.35982562137E-01  0.13059305035E+00  0.19509303727E-01 0.  0.
         14    1    1    2    0    0  0.80754288768E-02  0.21630964094E-01  0.53992797278E-02  0.23712093555E-01  0.00000000000E+00 0. -1.
     999901    1    3    3    0    0  0.11196849908E+00 -0.52753985319E-01 -0.41381841865E-01  0.88962485610E+00  0.88000000000E+00 0. -1.
        -11    1    4    4    0    0 -0.55843941158E-01  0.22532242500E-01  0.23405855124E-01  0.64609154856E-01  0.51100000000E-03 0.  1.
         11    1    4    4    0    0 -0.64199986797E-01  0.85907787251E-02  0.12576707013E-01  0.65983895491E-01  0.51100000000E-03 0. -1.
</event>
<event>
 8    1  0.1065239E+005  0.1043930E+01  0.7957747E-01            NaN
         13   -1    0    0    0    0  0.00000000000E+00  0.00000000000E+00  0.74505805969E-08  0.10566000000E+00  0.10566000000E+00 0.  1.
     999900   -1    0    0    0    0 -0.00000000000E+00 -0.00000000000E+00 -0.74505805969E-08  0.93827000000E+00  0.93827000000E+00 0. -1.
     999902    2    1    2    0    0  0.33380799978E-02  0.10143096679E-01 -0.22328617203E-01  0.10191793973E+01  0.10188788208E+01 0.  0.
     999903    2    3    3    0    0 -0.34883892333E-01  0.11942462928E+00 -0.37590341507E-01  0.13146531451E+00  0.19772888541E-01 0.  0.
         14    1    1    2    0    0 -0.33380799978E-02 -0.10143096679E-01  0.22328617203E-01  0.24750602710E-01  0.00000000000E+00 0.  1.
     999901    1    3    3    0    0  0.38221972330E-01 -0.10928153260E+00  0.15261724304E-01  0.88771408278E+00  0.88000000000E+00 0.  1.
        -11    1    4    4    0    0 -0.22531324542E-02  0.30686640699E-01 -0.15099934100E-01  0.34278501340E-01  0.51100000000E-03 0.  1.
         11    1    4    4    0    0 -0.32630759878E-01  0.88737988583E-01 -0.22490407407E-01  0.97186813171E-01  0.51100000000E-03 0. -1.
</event>
<event>
 8    1  0.1065239E+005  0.1043930E+01  0.7957747E-01            NaN
         13   -1    0    0    0    0  0.00000000000E+00  0.00000000000E+00  0.74505805969E-08  0.10566000000E+00  0.10566000000E+00 0. -1.
     999900   -1    0    0    0    0 -0.00000000000E+00 -0.00000000000E+00 -0.74505805969E-08  0.93827000000E+00  0.93827000000E+00 0. -1.
     999902    2    1    2    0    0 -0.37902226959E-02 -0.21517873716E-01 -0.10671139625E-01  0.10196142048E+01  0.10193242216E+01 0.  0.
     999903    2    3    3    0    0  0.15066539145E-01 -0.22062983465E-01 -0.12761322109E+00  0.13167765014E+00  0.18441624350E-01 0.  0.
         14    1    1    2    0    0  0.37902226959E-02  0.21517873716E-01  0.10671139625E-01  0.24315795242E-01  0.00000000000E+00 0. -1.
     999901    1    3    3    0    0 -0.18856761841E-01  0.54510974946E-03  0.11694208146E+00  0.88793655462E+00  0.88000000000E+00 0.  1.
        -11    1    4    4    0    0 -0.28625712058E-02  0.97043188671E-03 -0.83967502627E-02  0.89388247510E-02  0.51100000000E-03 0. -1.
         11    1    4    4    0    0  0.17929110351E-01 -0.23033415352E-01 -0.11921647082E+00  0.12273882539E+00  0.51100000000E-03 0.  1.
</event>
<event>
 8    1  0.1065239E+005  0.1043930E+01  0.7957747E-01            NaN
         13   -1    0    0    0    0  0.00000000000E+00  0.00000000000E+00  0.74505805969E-08  0.10566000000E+00  0.10566000000E+00 0.  1.
     999900   -1    0    0    0    0 -0.00000000000E+00 -0.00000000000E+00 -0.74505805969E-08  0.93827000000E+00  0.93827000000E+00 0.  1.
     999902    2    1    2    0    0 -0.13473667569E-01  0.16940164822E-01 -0.86826481549E-02  0.10206083945E+01  0.10203419024E+01 0.  0.
     999903    2    3    3    0    0 -0.58566663048E-01  0.38673316140E-01 -0.11156690213E+00  0.13320156686E+00  0.19230298012E-01 0.  0.
         14    1    1    2    0    0  0.13473667569E-01 -0.16940164822E-01  0.86826481549E-02  0.23321605454E-01  0.00000000000E+00 0.  1.
     999901    1    3    3    0    0  0.45092995479E-01 -0.21733151317E-01  0.10288425397E+00  0.88740682769E+00  0.88000000000E+00 0. -1.
        -11    1    4    4    0    0 -0.29654449690E-01  0.15606844400E-01 -0.69673840359E-01  0.77315361540E-01  0.51100000000E-03 0.  1.
         11    1    4    4    0    0 -0.28912213358E-01  0.23066471739E-01 -0.41893061769E-01  0.55886205321E-01  0.51100000000E-03 0. -1.
</event>
<event>
 8    1  0.1065239E+005  0.1043930E+01  0.7957747E-01            NaN
         13   -1    0    0    0    0  0.00000000000E+00  0.00000000000E+00  0.74505805969E-08  0.10566000000E+00  0.10566000000E+00 0.  1.
     999900   -1    0    0    0    0 -0.00000000000E+00 -0.00000000000E+00 -0.74505805969E-08  0.93827000000E+00  0.93827000000E+00 0.  1.
     999902    2    1    2    0    0 -0.12304828947E-02  0.17628774986E-01  0.15326360084E-01  0.10205380119E+01  0.10202698901E+01 0.  0.
     999903    2    3    3    0    0 -0.11040888275E+00 -0.58025762678E-01  0.30882916233E-01  0.13043378285E+00  0.22407736808E-01 0.  0.
         14    1    1    2    0    0  0.12304828947E-02 -0.17628774986E-01 -0.15326360084E-01  0.23391988139E-01  0.00000000000E+00 0. -1.
     999901    1    3    3    0    0  0.10917839986E+00  0.75654537664E-01 -0.15556556149E-01  0.89010422901E+00  0.88000000000E+00 0.  1.
        -11    1    4    4    0    0 -0.60661346480E-01 -0.43560978140E-01  0.14350499353E-01  0.76049692477E-01  0.51100000000E-03 0. -1.
         11    1    4    4    0    0 -0.49747536271E-01 -0.14464784539E-01  0.16532416879E-01  0.54384090373E-01  0.51100000000E-03 0.  1.
</event>
<event>
 8    1  0.1065239E+005  0.1043930E+01  0.7957747E-01            NaN
         13   -1    0    0    0    0  0.00000000000E+00  0.00000000000E+00  0.74505805969E-08  0.10566000000E+00  0.10566000000E+00 0. -1.
     999900   -1    0    0    0    0 -0.00000000000E+00 -0.00000000000E+00 -0.74505805969E-08  0.93827000000E+00  0.93827000000E+00 0.  1.
     999902    2    1    2    0    0 -0.17966287244E-01  0.12010813665E-01  0.10719443745E-01  0.10198062856E+01  0.10195209201E+01 0.  0.
     999903    2    3    3    0    0  0.93106116368E-01  0.52435035072E-01  0.71476536009E-01  0.12982728541E+00  0.18112068595E-01 0.  0.
         14    1    1    2    0    0  0.17966287244E-01 -0.12010813665E-01 -0.10719443745E-01  0.24123714400E-01  0.00000000000E+00 0.  1.
     999901    1    3    3    0    0 -0.11107240361E+00 -0.40424221407E-01 -0.60757092264E-01  0.88997900019E+00  0.88000000000E+00 0.  1.
        -11    1    4    4    0    0  0.68182578674E-01  0.29564212831E-01  0.52992028403E-01  0.91276080712E-01  0.51100000000E-03 0. -1.
         11    1    4    4    0    0  0.24923537695E-01  0.22870822241E-01  0.18484507606E-01  0.38551204698E-01  0.51100000000E-03 0.  1.
</event>
<event>
 8    1  0.1065239E+005  0.1043930E+01  0.7957747E-01            NaN
         13   -1    0    0    0    0  0.00000000000E+00  0.00000000000E+00  0.74505805969E-08  0.10566000000E+00  0.10566000000E+00 0.  1.
     999900   -1    0    0    0    0 -0.00000000000E+00 -0.00000000000E+00 -0.74505805969E-08  0.93827000000E+00  0.93827000000E+00 0.  1.
     999902    2    1    2    0    0  0.13622599154E-01  0.32472940808E-02  0.19227383878E-01  0.10201431882E+01  0.10198658304E+01 0.  0.
     999903    2    3    3    0    0 -0.68185107213E-01  0.29281741266E-01  0.10692959167E+00  0.13162646322E+00  0.19620372764E-01 0.  0.
         14    1    1    2    0    0 -0.13622599154E-01 -0.32472940808E-02 -0.19227383878E-01  0.23786811836E-01  0.00000000000E+00 0. -1.
     999901    1    3    3    0    0  0.81807706366E-01 -0.26034447185E-01 -0.87702207789E-01  0.88851672495E+00  0.88000000000E+00 0.  1.
        -11    1    4    4    0    0 -0.50374374673E-01  0.11702815607E-01  0.71148178738E-01  0.87959410955E-01  0.51100000000E-03 0. -1.
         11    1    4    4    0    0 -0.17810732540E-01  0.17578925659E-01  0.35781412929E-01  0.43667052261E-01  0.51100000000E-03 0.  1.
</event>
<event>
 8    1  0.1065239E+005  0.1043930E+01  0.7957747E-01            NaN
         13   -1    0    0    0    0  0.00000000000E+00  0.00000000000E+00  0.74505805969E-08  0.10566000000E+00  0.10566000000E+00 0.  1.
     999900   -1    0    0    0    0 -0.00000000000E+00 -0.00000000000E+00 -0.74505805969E-08  0.93827000000E+00  0.93827000000E+00 0.  1.
     999902    2    1    2    0    0 -0.11080890072E-01 -0.20503630738E-01  0.37847482269E-02  0.10203183648E+01  0.10200451246E+01 0.  0.
     999903    2    3    3    0    0  0.83035835239E-01 -0.10645123126E-01  0.98643424166E-01  0.13017606349E+00  0.14387973971E-01 0.  0.
         14    1    1    2    0    0  0.11080890072E-01  0.20503630738E-01 -0.37847482269E-02  0.23611635211E-01  0.00000000000E+00 0. -1.
     999901    1    3    3    0    0 -0.94116725311E-01 -0.98585076120E-02 -0.94858675939E-01  0.89014230130E+00  0.88000000000E+00 0. -1.
        -11    1    4    4    0    0  0.43020476371E-01  0.16921042608E-02  0.50947420224E-01  0.66704762593E-01  0.51100000000E-03 0.  1.
         11    1    4    4    0    0  0.40015358867E-01 -0.12337227387E-01  0.47696003942E-01  0.63471300900E-01  0.51100000000E-03 0. -1.
</event>
<event>
 8    1  0.1065239E+005  0.1043930E+01  0.7957747E-01            NaN
         13   -1    0    0    0    0  0.00000000000E+00  0.00000000000E+00  0.74505805969E-08  0.10566000000E+00  0.10566000000E+00 0. -1.
     999900   -1    0    0    0    0 -0.00000000000E+00 -0.00000000000E+00 -0.74505805969E-08  0.93827000000E+00  0.93827000000E+00 0.  1.
     999902    2    1    2    0    0 -0.22419928662E-01  0.40631165685E-02  0.80657600914E-02  0.10197593855E+01  0.10194728961E+01 0.  0.
     999903    2    3    3    0    0  0.39716601808E-01 -0.83461904791E-01 -0.86623537336E-01  0.12819467066E+00  0.19670748667E-01 0.  0.
         14    1    1    2    0    0  0.22419928662E-01 -0.40631165685E-02 -0.80657600914E-02  0.24170614459E-01  0.00000000000E+00 0.  1.
     999901    1    3    3    0    0 -0.62136530470E-01  0.87525021360E-01  0.94689297428E-01  0.89156471489E+00  0.88000000000E+00 0. -1.
        -11    1    4    4    0    0  0.14389484009E-01 -0.52486562339E-01 -0.47669093460E-01  0.72349844979E-01  0.51100000000E-03 0. -1.
         11    1    4    4    0    0  0.25327117800E-01 -0.30975342452E-01 -0.38954443876E-01  0.55844825676E-01  0.51100000000E-03 0.  1.
</event>
<event>
 8    1  0.1065239E+005  0.1043930E+01  0.7957747E-01            NaN
         13   -1    0    0    0    0  0.00000000000E+00  0.00000000000E+00  0.74505805969E-08  0.10566000000E+00  0.10566000000E+00 0.  1.
     999900   -1    0    0    0    0 -0.00000000000E+00 -0.00000000000E+00 -0.74505805969E-08  0.93827000000E+00  0.93827000000E+00 0.  1.
     999902    2    1    2    0    0 -0.66961279253E-02  0.27908545548E-01 -0.12477647784E-02  0.10152022789E+01  0.10147957356E+01 0.  0.
     999903    2    3    3    0    0 -0.97794239370E-01  0.54627190907E-01  0.59054154753E-01  0.12804441614E+00  0.18977251414E-01 0.  0.
         14    1    1    2    0    0  0.66961279253E-02 -0.27908545548E-01  0.12477647784E-02  0.28727721120E-01  0.00000000000E+00 0.  1.
     999901    1    3    3    0    0  0.91098111445E-01 -0.26718645359E-01 -0.60301919531E-01  0.88715786274E+00  0.88000000000E+00 0.  1.
        -11    1    4    4    0    0 -0.32994389184E-01  0.28744027594E-01  0.24980542551E-01  0.50389854803E-01  0.51100000000E-03 0. -1.
         11    1    4    4    0    0 -0.64799850186E-01  0.25883163313E-01  0.34073612202E-01  0.77654561339E-01  0.51100000000E-03 0.  1.
</event>
<event>
 8    1  0.1065239E+005  0.1043930E+01  0.7957747E-01            NaN
         13   -1    0    0    0    0  0.00000000000E+00  0.00000000000E+00  0.74505805969E-08  0.10566000000E+00  0.10566000000E+00 0. -1.
     999900   -1    0    0    0    0 -0.00000000000E+00 -0.00000000000E+00 -0.74505805969E-08  0.93827000000E+00  0.93827000000E+00 0. -1.
     999902    2    1    2    0    0 -0.20778525514E-01  0.18707048510E-01  0.12870846506E-01  0.10131507947E+01  0.10126831555E+01 0.  0.
     999903    2    3    3    0    0 -0.11033339915E-01 -0.10556526267E+00 -0.57073989138E-01  0.12161792603E+00  0.16362164328E-01 0.  0.
         14    1    1    2    0    0  0.20778525514E-01 -0.18707048510E-01 -0.12870846506E-01  0.30779205258E-01  0.00000000000E+00 0. -1.
     999901    1    3    3    0    0 -0.97451855993E-02  0.12427231118E+00  0.69944835643E-01  0.89153286872E+00  0.88000000000E+00 0. -1.
        -11    1    4    4    0    0 -0.10737427473E-01 -0.34190008721E-01 -0.22395835928E-01  0.42262082686E-01  0.51100000000E-03 0. -1.
         11    1    4    4    0    0 -0.29591244244E-03 -0.71375253953E-01 -0.34678153210E-01  0.79355843339E-01  0.51100000000E-03 0.  1.
</event>
<event>
 8    1  0.1065239E+005  0.1043930E+01  0.7957747E-01            NaN
         13   -1    0    0    0    0  0.00000000000E+00  0.00000000000E+00  0.74505805969E-08  0.10566000000E+00  0.10566000000E+00 0.  1.
     999900   -1    0    0    0    0 -0.00000000000E+00 -0.00000000000E+00 -0.74505805969E-08  0.93827000000E+00  0.93827000000E+00 0.  1.
     999902    2    1    2    0    0 -0.92833860932E-02  0.72068939517E-02  0.82109602880E-02  0.10295933181E+01  0.10294934970E+01 0.  0.
     999903    2    3    3    0    0  0.89165376501E-01  0.57396652768E-01 -0.85543095772E-01  0.13774075534E+00  0.20249798336E-01 0.  0.
         14    1    1    2    0    0  0.92833860932E-02 -0.72068939517E-02 -0.82109602880E-02  0.14336681856E-01  0.00000000000E+00 0.  1.
     999901    1    3    3    0    0 -0.98448762594E-01 -0.50189758816E-01  0.93754056061E-01  0.89185256280E+00  0.88000000000E+00 0. -1.
        -11    1    4    4    0    0  0.27058462235E-01  0.26465501693E-01 -0.37956746614E-01  0.53605586396E-01  0.51100000000E-03 0. -1.
         11    1    4    4    0    0  0.62106914266E-01  0.30931151076E-01 -0.47586349158E-01  0.84135168947E-01  0.51100000000E-03 0.  1.
</event>
<event>
 8    1  0.1065239E+005  0.1043930E+01  0.7957747E-01            NaN
         13   -1    0    0    0    0  0.00000000000E+00  0.00000000000E+00  0.74505805969E-08  0.10566000000E+00  0.10566000000E+00 0. -1.
     999900   -1    0    0    0    0 -0.00000000000E+00 -0.00000000000E+00 -0.74505805969E-08  0.93827000000E+00  0.93827000000E+00 0.  1.
     999902    2    1    2    0    0 -0.15869897098E-01 -0.16962042623E-01 -0.64109834461E-02  0.10198330037E+01  0.10195482775E+01 0.  0.
     999903    2    3    3    0    0  0.49474194548E-01  0.11188265534E+00  0.29794815205E-01  0.12731876492E+00  0.18892125181E-01 0.  0.
         14    1    1    2    0    0  0.15869897098E-01  0.16962042623E-01  0.64109834461E-02  0.24096996339E-01  0.00000000000E+00 0. -1.
     999901    1    3    3    0    0 -0.65344091646E-01 -0.12884469797E+00 -0.36205798651E-01  0.89251423875E+00  0.88000000000E+00 0. -1.
        -11    1    4    4    0    0  0.50069119843E-01  0.10335740488E+00  0.25113152312E-01  0.11756105412E+00  0.51100000000E-03 0. -1.
         11    1    4    4    0    0 -0.59492529499E-03  0.85252504636E-02  0.46816628937E-02  0.97577107983E-02  0.51100000000E-03 0.  1.
</event>
<event>
 8    1  0.1065239E+005  0.1043930E+01  0.7957747E-01            NaN
         13   -1    0    0    0    0  0.00000000000E+00  0.00000000000E+00  0.74505805969E-08  0.10566000000E+00  0.10566000000E+00 0.  1.
     999900   -1    0    0    0    0 -0.00000000000E+00 -0.00000000000E+00 -0.74505805969E-08  0.93827000000E+00  0.93827000000E+00 0.  1.
     999902    2    1    2    0    0  0.33359979546E-02 -0.73425719722E-02  0.22166030383E-01  0.10203423942E+01  0.10200697163E+01 0.  0.
     999903    2    3    3    0    0  0.78491958688E-01 -0.64752042329E-01  0.83234512120E-01  0.13317069423E+00  0.21275225738E-01 0.  0.
         14    1    1    2    0    0 -0.33359979546E-02  0.73425719722E-02 -0.22166030383E-01  0.23587605823E-01  0.00000000000E+00 0. -1.
     999901    1    3    3    0    0 -0.75155960733E-01  0.57409470357E-01 -0.61068481737E-01  0.88717169994E+00  0.88000000000E+00 0.  1.
        -11    1    4    4    0    0  0.19702303222E-01 -0.26811930810E-01  0.34278486919E-01  0.47773802156E-01  0.51100000000E-03 0. -1.
         11    1    4    4    0    0  0.58789655466E-01 -0.37940111519E-01  0.48956025200E-01  0.85396892077E-01  0.51100000000E-03 0.  1.
</event>
<event>
 8    1  0.1065239E+005  0.1043930E+01  0.7957747E-01            NaN
         13   -1    0    0    0    0  0.00000000000E+00  0.00000000000E+00  0.74505805969E-08  0.10566000000E+00  0.10566000000E+00 0. -1.
     999900   -1    0    0    0    0 -0.00000000000E+00 -0.00000000000E+00 -0.74505805969E-08  0.93827000000E+00  0.93827000000E+00 0. -1.
     999902    2    1    2    0    0  0.17252435764E-01 -0.15989556549E-01  0.59738419795E-02  0.10196606933E+01  0.10193718312E+01 0.  0.
     999903    2    3    3    0    0  0.89692471267E-01 -0.19283744114E-01  0.93156842971E-01  0.13238436316E+00  0.20756204548E-01 0.  0.
         14    1    1    2    0    0 -0.17252435764E-01  0.15989556549E-01 -0.59738419795E-02  0.24269306674E-01  0.00000000000E+00 0.  1.
     999901    1    3    3    0    0 -0.72440035504E-01  0.32941875653E-02 -0.87183000992E-01  0.88727633017E+00  0.88000000000E+00 0. -1.
        -11    1    4    4    0    0  0.32045464224E-01 -0.10672876503E-01  0.21616485914E-01  0.40104309674E-01  0.51100000000E-03 0. -1.
         11    1    4    4    0    0  0.57647007043E-01 -0.86108676115E-02  0.71540357057E-01  0.92280053484E-01  0.51100000000E-03 0.  1.
</event>
<event>
 8    1  0.1065239E+005  0.1043930E+01  0.7957747E-01            NaN
         13   -1    0    0    0    0  0.00000000000E+00  0.00000000000E+00  0.74505805969E-08  0.10566000000E+00  0.10566000000E+00 0. -1.
     999900   -1    0    0    0    0 -0.00000000000E+00 -0.00000000000E+00 -0.74505805969E-08  0.93827000000E+00  0.93827000000E+00 0. -1.
     999902    2    1    2    0    0  0.54082634239E-02  0.14989299355E-01  0.16639901376E-01  0.10208905832E+01  0.10206305738E+01 0.  0.
     999903    2    3    3    0    0 -0.10807097359E+00 -0.64880073493E-01 -0.19629481448E-01  0.12927849150E+00  0.20948807925E-01 0.  0.
         14    1    1    2    0    0 -0.54082634239E-02 -0.14989299355E-01 -0.16639901376E-01  0.23039416794E-01  0.00000000000E+00 0. -1.
     999901    1    3    3    0    0  0.11347923701E+00  0.79869372848E-01  0.36269382824E-01  0.89161209171E+00  0.88000000000E+00 0.  1.
        -11    1    4    4    0    0 -0.63177902627E-01 -0.25756810565E-01 -0.10652730217E-01  0.69055068264E-01  0.51100000000E-03 0.  1.
         11    1    4    4    0    0 -0.44893070959E-01 -0.39123262928E-01 -0.89767512308E-02  0.60223423233E-01  0.51100000000E-03 0. -1.
</event>
<event>
 8    1  0.1065239E+005  0.1043930E+01  0.7957747E-01            NaN
         13   -1    0    0    0    0  0.00000000000E+00  0.00000000000E+00  0.74505805969E-08  0.10566000000E+00  0.10566000000E+00 0. -1.
     999900   -1    0    0    0    0 -0.00000000000E+00 -0.00000000000E+00 -0.74505805969E-08  0.93827000000E+00  0.93827000000E+00 0.  1.
     999902    2    1    2    0    0  0.16706499707E-01  0.17368542836E-01  0.30077094262E-03  0.10198288823E+01  0.10195440575E+01 0.  0.
     999903    2    3    3    0    0 -0.98120372072E-01  0.82139483590E-01  0.11272493747E-01  0.12994076349E+00  0.19571170640E-01 0.  0.
         14    1    1    2    0    0 -0.16706499707E-01 -0.17368542836E-01 -0.30077094262E-03  0.24101117731E-01  0.00000000000E+00 0.  1.
     999901    1    3    3    0    0  0.11482687178E+00 -0.64770940754E-01 -0.10971722805E-01  0.88988811878E+00  0.88000000000E+00 0.  1.
        -11    1    4    4    0    0 -0.53810338669E-01  0.56970233360E-01  0.95800771992E-02  0.78950611378E-01  0.51100000000E-03 0.  1.
         11    1    4    4    0    0 -0.44310033403E-01  0.25169250230E-01  0.16924165482E-02  0.50990152109E-01  0.51100000000E-03 0. -1.
</event>
<event>
 8    1  0.1065239E+005  0.1043930E+01  0.7957747E-01            NaN
         13   -1    0    0    0    0  0.00000000000E+00  0.00000000000E+00  0.74505805969E-08  0.10566000000E+00  0.10566000000E+00 0.  1.
     999900   -1    0    0    0    0 -0.00000000000E+00 -0.00000000000E+00 -0.74505805969E-08  0.93827000000E+00  0.93827000000E+00 0. -1.
     999902    2    1    2    0    0  0.18537291487E-01 -0.66375944125E-02  0.13020922508E-01  0.10203242113E+01  0.10200511080E+01 0.  0.
     999903    2    3    3    0    0 -0.26275598915E-01  0.74475113065E-01  0.10266372437E+00  0.13092930558E+00  0.19123106316E-01 0.  0.
         14    1    1    2    0    0 -0.18537291487E-01  0.66375944125E-02 -0.13020922508E-01  0.23605788659E-01  0.00000000000E+00 0. -1.
     999901    1    3    3    0    0  0.44812890402E-01 -0.81112707477E-01 -0.89642801860E-01  0.88939490576E+00  0.88000000000E+00 0. -1.
        -11    1    4    4    0    0 -0.16151121194E-01  0.20761130445E-01  0.28342250973E-01  0.38670758518E-01  0.51100000000E-03 0.  1.
         11    1    4    4    0    0 -0.10124477721E-01  0.53713982620E-01  0.74321473396E-01  0.92258547066E-01  0.51100000000E-03 0. -1.
</event>
<event>
 8    1  0.1065239E+005  0.1043930E+01  0.7957747E-01            NaN
         13   -1    0    0    0    0  0.00000000000E+00  0.00000000000E+00  0.74505805969E-08  0.10566000000E+00  0.10566000000E+00 0.  1.
     999900   -1    0    0    0    0 -0.00000000000E+00 -0.00000000000E+00 -0.74505805969E-08  0.93827000000E+00  0.93827000000E+00 0.  1.
     999902    2    1    2    0    0 -0.22343942934E-01 -0.53635070285E-02 -0.32041755940E-02  0.10207290144E+01  0.10204653032E+01 0.  0.
     999903    2    3    3    0    0 -0.78455457342E-01  0.75662068685E-01  0.72201504162E-01  0.13202227842E+00  0.18352584853E-01 0.  0.
         14    1    1    2    0    0  0.22343942934E-01  0.53635070285E-02  0.32041755940E-02  0.23200985641E-01  0.00000000000E+00 0. -1.
     999901    1    3    3    0    0  0.56111514409E-01 -0.81025575713E-01 -0.75405679756E-01  0.88870673594E+00  0.88000000000E+00 0. -1.
        -11    1    4    4    0    0 -0.28190582095E-01  0.37672470160E-01  0.36906943400E-01  0.59802236739E-01  0.51100000000E-03 0. -1.
         11    1    4    4    0    0 -0.50264875247E-01  0.37989598524E-01  0.35294560762E-01  0.72220041678E-01  0.51100000000E-03 0.  1.
</event>
<event>
 8    1  0.1065239E+005  0.1043930E+01  0.7957747E-01            NaN
         13   -1    0    0    0    0  0.00000000000E+00  0.00000000000E+00  0.74505805969E-08  0.10566000000E+00  0.10566000000E+00 0. -1.
     999900   -1    0    0    0    0 -0.00000000000E+00 -0.00000000000E+00 -0.74505805969E-08  0.93827000000E+00  0.93827000000E+00 0. -1.
     999902    2    1    2    0    0 -0.41705662986E-02  0.21316001751E-01 -0.95831628582E-02  0.10201896848E+01  0.10199134230E+01 0.  0.
     999903    2    3    3    0    0 -0.36202831787E-01  0.64597428692E-01  0.10603958584E+00  0.13099456116E+00  0.20777595245E-01 0.  0.
         14    1    1    2    0    0  0.41705662986E-02 -0.21316001751E-01  0.95831628582E-02  0.23740315168E-01  0.00000000000E+00 0. -1.
     999901    1    3    3    0    0  0.32032265489E-01 -0.43281426941E-01 -0.11562274870E+00  0.88919512368E+00  0.88000000000E+00 0. -1.
        -11    1    4    4    0    0 -0.19671043528E-02  0.22742398381E-01  0.31120249049E-01  0.38598150287E-01  0.51100000000E-03 0.  1.
         11    1    4    4    0    0 -0.34235727434E-01  0.41855030311E-01  0.74919336793E-01  0.92396410871E-01  0.51100000000E-03 0. -1.
</event>
<event>
 8    1  0.1065239E+005  0.1043930E+01  0.7957747E-01            NaN
         13   -1    0    0    0    0  0.00000000000E+00  0.00000000000E+00  0.74505805969E-08  0.10566000000E+00  0.10566000000E+00 0. -1.
     999900   -1    0    0    0    0 -0.00000000000E+00 -0.00000000000E+00 -0.74505805969E-08  0.93827000000E+00  0.93827000000E+00 0.  1.
     999902    2    1    2    0    0  0.15006501204E-01  0.56247629713E-03  0.17069154249E-01  0.10211952802E+01  0.10209421790E+01 0.  0.
     999903    2    3    3    0    0 -0.47970556994E-01 -0.11981441278E+00 -0.15966023126E-02  0.13057464504E+00  0.19761602736E-01 0.  0.
         14    1    1    2    0    0 -0.15006501204E-01 -0.56247629713E-03 -0.17069154249E-01  0.22734719808E-01  0.00000000000E+00 0.  1.
     999901    1    3    3    0    0  0.62977058198E-01  0.12037688907E+00  0.18665756562E-01  0.89062063515E+00  0.88000000000E+00 0.  1.
        -11    1    4    4    0    0 -0.13699435993E-01 -0.54538848952E-01 -0.69000411244E-02  0.56657146769E-01  0.51100000000E-03 0.  1.
         11    1    4    4    0    0 -0.34271121001E-01 -0.65275563824E-01  0.53034388118E-02  0.73917498276E-01  0.51100000000E-03 0. -1.
</event>
<event>
 8    1  0.1065239E+005  0.1043930E+01  0.7957747E-01            NaN
         13   -1    0    0    0    0  0.00000000000E+00  0.00000000000E+00  0.74505805969E-08  0.10566000000E+00  0.10566000000E+00 0. -1.
     999900   -1    0    0    0    0 -0.00000000000E+00 -0.00000000000E+00 -0.74505805969E-08  0.93827000000E+00  0.93827000000E+00 0. -1.
     999902    2    1    2    0    0  0.19454260614E-01 -0.13588145900E-01 -0.32978933263E-03  0.10201978546E+01  0.10199217851E+01 0.  0.
     999903    2    3    3    0    0 -0.92372980573E-01 -0.39417319336E-01  0.78981687695E-01  0.12920807436E+00  0.19238682014E-01 0.  0.
         14    1    1    2    0    0 -0.19454260614E-01  0.13588145900E-01  0.32978933263E-03  0.23732145416E-01  0.00000000000E+00 0.  1.
     999901    1    3    3    0    0  0.11182724119E+00  0.25829173435E-01 -0.79311477027E-01  0.89098978022E+00  0.88000000000E+00 0.  1.
        -11    1    4    4    0    0 -0.38933195447E-01 -0.18904160199E-01  0.22465766138E-01  0.48766102466E-01  0.51100000000E-03 0.  1.
         11    1    4    4    0    0 -0.53439785126E-01 -0.20513159136E-01  0.56515921557E-01  0.80441971896E-01  0.51100000000E-03 0. -1.
</event>
<event>
 8    1  0.1065239E+005  0.1043930E+01  0.7957747E-01            NaN
         13   -1    0    0    0    0  0.00000000000E+00  0.00000000000E+00  0.74505805969E-08  0.10566000000E+00  0.10566000000E+00 0.  1.
     999900   -1    0    0    0    0 -0.00000000000E+00 -0.00000000000E+00 -0.74505805969E-08  0.93827000000E+00  0.93827000000E+00 0.  1.
     999902    2    1    2    0    0 -0.11027672255E-01 -0.17810536073E-01 -0.10635615352E-01  0.10204365740E+01  0.10201660946E+01 0.  0.
     999903    2    3    3    0    0 -0.48814842416E-01 -0.39724106402E-01  0.11267921623E+00  0.13076549857E+00  0.21026563588E-01 0.  0.
         14    1    1    2    0    0  0.11027672255E-01  0.17810536073E-01  0.10635615352E-01  0.23493425984E-01  0.00000000000E+00 0.  1.
     999901    1    3    3    0    0  0.37787170162E-01  0.21913570329E-01 -0.12331483158E+00  0.88967107544E+00  0.88000000000E+00 0.  1.
        -11    1    4    4    0    0 -0.17407438409E-01 -0.27359407512E-02  0.25692727484E-01  0.31158973833E-01  0.51100000000E-03 0.  1.
         11    1    4    4    0    0 -0.31407404008E-01 -0.36988165651E-01  0.86986488749E-01  0.99606524739E-01  0.51100000000E-03 0. -1.
</event>
<event>
 8    1  0.1065239E+005  0.1043930E+01  0.7957747E-01            NaN
         13   -1    0    0    0    0  0.00000000000E+00  0.00000000000E+00  0.74505805969E-08  0.10566000000E+00  0.10566000000E+00 0.  1.
     999900   -1    0    0    0    0 -0.00000000000E+00 -0.00000000000E+00 -0.74505805969E-08  0.93827000000E+00  0.93827000000E+00 0. -1.
     999902    2    1    2    0    0  0.11889170861E-01  0.16925515912E-01 -0.10777031537E-01  0.10206068381E+01  0.10203403099E+01 0.  0.
     999903    2    3    3    0    0  0.45102195920E-01 -0.11952012576E+00 -0.72701256506E-02  0.12946553810E+00  0.19728210531E-01 0.  0.
         14    1    1    2    0    0 -0.11889170861E-01 -0.16925515912E-01  0.10777031537E-01  0.23323161908E-01  0.00000000000E+00 0. -1.
     999901    1    3    3    0    0 -0.33213025060E-01  0.13644564167E+00 -0.35069058865E-02  0.89114129999E+00  0.88000000000E+00 0. -1.
        -11    1    4    4    0    0  0.97881435759E-02 -0.17781907469E-01  0.54496133901E-02  0.21022925462E-01  0.51100000000E-03 0.  1.
         11    1    4    4    0    0  0.35314052344E-01 -0.10173821829E+00 -0.12719739041E-01  0.10844261264E+00  0.51100000000E-03 0. -1.
</event>
<event>
 8    1  0.1065239E+005  0.1043930E+01  0.7957747E-01            NaN
         13   -1    0    0    0    0  0.00000000000E+00  0.00000000000E+00  0.74505805969E-08  0.10566000000E+00  0.10566000000E+00 0. -1.
     999900   -1    0    0    0    0 -0.00000000000E+00 -0.00000000000E+00 -0.74505805969E-08  0.93827000000E+00  0.93827000000E+00 0.  1.
     999902    2    1    2    0    0  0.46665985170E-02 -0.16184437636E-01 -0.16454521866E-01  0.10203829311E+01  0.10201112006E+01 0.  0.
     999903    2    3    3    0    0 -0.47464308752E-01 -0.11006486828E+00  0.49385741583E-01  0.13141380508E+00  0.21529070079E-01 0.  0.
         14    1    1    2    0    0 -0.46665985170E-02  0.16184437636E-01  0.16454521866E-01  0.23547068886E-01  0.00000000000E+00 0. -1.
     999901    1    3    3    0    0  0.52130907269E-01  0.93880430647E-01 -0.65840263449E-01  0.88896912603E+00  0.88000000000E+00 0. -1.
        -11    1    4    4    0    0 -0.21102426091E-01 -0.62485340130E-01  0.17015200234E-01  0.68113936005E-01  0.51100000000E-03 0.  1.
         11    1    4    4    0    0 -0.26361882660E-01 -0.47579528152E-01  0.32370541350E-01  0.63299869075E-01  0.51100000000E-03 0. -1.
</event>
<event>
 8    1  0.1065239E+005  0.1043930E+01  0.7957747E-01            NaN
         13   -1    0    0    0    0  0.00000000000E+00  0.00000000000E+00  0.74505805969E-08  0.10566000000E+00  0.10566000000E+00 0.  1.
     999900   -1    0    0    0    0 -0.00000000000E+00 -0.00000000000E+00 -0.74505805969E-08  0.93827000000E+00  0.93827000000E+00 0. -1.
     999902    2    1    2    0    0 -0.67654845931E-02  0.22777852401E-01 -0.25958813436E-02  0.10200272608E+01  0.10197471607E+01 0.  0.
     999903    2    3    3    0    0 -0.56193810988E-01  0.11349532229E+00  0.35803092986E-01  0.13315224140E+00  0.20216956934E-01 0.  0.
         14    1    1    2    0    0  0.67654845931E-02 -0.22777852401E-01  0.25958813436E-02  0.23902739210E-01  0.00000000000E+00 0.  1.
     999901    1    3    3    0    0  0.49428326395E-01 -0.90717469885E-01 -0.38398974329E-01  0.88687501939E+00  0.88000000000E+00 0. -1.
        -11    1    4    4    0    0 -0.12857076340E-01  0.45902754090E-01  0.90863747409E-02  0.48530305707E-01  0.51100000000E-03 0. -1.
         11    1    4    4    0    0 -0.43336734648E-01  0.67592568196E-01  0.26716718245E-01  0.84621935691E-01  0.51100000000E-03 0.  1.
</event>
<event>
 8    1  0.1065239E+005  0.1043930E+01  0.7957747E-01            NaN
         13   -1    0    0    0    0  0.00000000000E+00  0.00000000000E+00  0.74505805969E-08  0.10566000000E+00  0.10566000000E+00 0.  1.
     999900   -1    0    0    0    0 -0.00000000000E+00 -0.00000000000E+00 -0.74505805969E-08  0.93827000000E+00  0.93827000000E+00 0. -1.
     999902    2    1    2    0    0  0.18194572411E-01 -0.11867017319E-01  0.91093012187E-02  0.10203747897E+01  0.10201028691E+01 0.  0.
     999903    2    3    3    0    0 -0.35063351648E-01 -0.11463438055E+00  0.51007536873E-01  0.13180684090E+00  0.20019856565E-01 0.  0.
         14    1    1    2    0    0 -0.18194572411E-01  0.11867017319E-01 -0.91093012187E-02  0.23555210336E-01  0.00000000000E+00 0.  1.
     999901    1    3    3    0    0  0.53257924059E-01  0.10276736323E+00 -0.41898235654E-01  0.88856794876E+00  0.88000000000E+00 0. -1.
        -11    1    4    4    0    0 -0.31807129504E-01 -0.10164054585E+00  0.51691621336E-01  0.11838403138E+00  0.51100000000E-03 0.  1.
         11    1    4    4    0    0 -0.32562221439E-02 -0.12993834701E-01 -0.68408446317E-03  0.13422809521E-01  0.51100000000E-03 0. -1.
</event>
<event>
 8    1  0.1065239E+005  0.1043930E+01  0.7957747E-01            NaN
         13   -1    0    0    0    0  0.00000000000E+00  0.00000000000E+00  0.74505805969E-08  0.10566000000E+00  0.10566000000E+00 0.  1.
     999900   -1    0    0    0    0 -0.00000000000E+00 -0.00000000000E+00 -0.74505805969E-08  0.93827000000E+00  0.93827000000E+00 0.  1.
     999902    2    1    2    0    0 -0.86999210368E-02  0.17100338051E-01  0.13981343571E-01  0.10201899883E+01  0.10199137336E+01 0.  0.
     999903    2    3    3    0    0  0.94852484959E-02 -0.12409788887E+00  0.25809739973E-01  0.12867019007E+00  0.19990477067E-01 0.  0.
         14    1    1    2    0    0  0.86999210368E-02 -0.17100338051E-01 -0.13981343571E-01  0.23740011701E-01  0.00000000000E+00 0. -1.
     999901    1    3    3    0    0 -0.18185169533E-01  0.14119822692E+00 -0.11828396402E-01  0.89151979823E+00  0.88000000000E+00 0.  1.
        -11    1    4    4    0    0  0.41562507761E-02 -0.39700577860E-02  0.18470025284E-02  0.60587390336E-02  0.51100000000E-03 0.  1.
         11    1    4    4    0    0  0.53289977198E-02 -0.12012783109E+00  0.23962737444E-01  0.12261145103E+00  0.51100000000E-03 0. -1.
</event>
<event>
 8    1  0.1065239E+005  0.1043930E+01  0.7957747E-01            NaN
         13   -1    0    0    0    0  0.00000000000E+00  0.00000000000E+00  0.74505805969E-08  0.10566000000E+00  0.10566000000E+00 0.  1.
     999900   -1    0    0    0    0 -0.00000000000E+00 -0.00000000000E+00 -0.74505805969E-08  0.93827000000E+00  0.93827000000E+00 0.  1.
     999902    2    1    2    0    0 -0.19662160976E-01 -0.89986990412E-02 -0.13293751064E-01  0.10185469156E+01  0.10182305820E+01 0.  0.
     999903    2    3    3    0    0  0.47549856819E-01 -0.98392816421E-01 -0.68237954853E-01  0.12976818657E+00  0.15531534287E-01 0.  0.
         14    1    1    2    0    0  0.19662160976E-01  0.89986990412E-02  0.13293751064E-01  0.25383084446E-01  0.00000000000E+00 0. -1.
     999901    1    3    3    0    0 -0.67212017795E-01  0.89394117379E-01  0.54944203789E-01  0.88877872898E+00  0.88000000000E+00 0. -1.
        -11    1    4    4    0    0  0.32453951791E-01 -0.69746894414E-01 -0.39530377607E-01  0.86491618912E-01  0.51100000000E-03 0. -1.
         11    1    4    4    0    0  0.15095905028E-01 -0.28645922007E-01 -0.28707577246E-01  0.43276567661E-01  0.51100000000E-03 0.  1.
</event>
<event>
 8    1  0.1065239E+005  0.1043930E+01  0.7957747E-01            NaN
         13   -1    0    0    0    0  0.00000000000E+00  0.00000000000E+00  0.74505805969E-08  0.10566000000E+00  0.10566000000E+00 0. -1.
     999900   -1    0    0    0    0 -0.00000000000E+00 -0.00000000000E+00 -0.74505805969E-08  0.93827000000E+00  0.93827000000E+00 0. -1.
     999902    2    1    2    0    0 -0.72561316951E-02  0.29521465661E-01 -0.38021080335E-02  0.10132930222E+01  0.10128297609E+01 0.  0.
     999903    2    3    3    0    0 -0.25763829372E-01 -0.75860415724E-01  0.89614271566E-01  0.12190394007E+00  0.20279925020E-01 0.  0.
         14    1    1    2    0    0  0.72561316951E-02 -0.29521465661E-01  0.38021080335E-02  0.30636977780E-01  0.00000000000E+00 0. -1.
     999901    1    3    3    0    0  0.18507697676E-01  0.10538188139E+00 -0.93416379600E-01  0.89138908215E+00  0.88000000000E+00 0. -1.
        -11    1    4    4    0    0 -0.15230745391E-01 -0.19152101212E-01  0.20858775402E-01  0.32157864020E-01  0.51100000000E-03 0. -1.
         11    1    4    4    0    0 -0.10533083980E-01 -0.56708314511E-01  0.68755496164E-01  0.89746076051E-01  0.51100000000E-03 0.  1.
</event>
<event>
 8    1  0.1065239E+005  0.1043930E+01  0.7957747E-01            NaN
         13   -1    0    0    0    0  0.00000000000E+00  0.00000000000E+00  0.74505805969E-08  0.10566000000E+00  0.10566000000E+00 0. -1.
     999900   -1    0    0    0    0 -0.00000000000E+00 -0.00000000000E+00 -0.74505805969E-08  0.93827000000E+00  0.93827000000E+00 0. -1.
     999902    2    1    2    0    0  0.23748083441E-01  0.11363207154E-02 -0.52092869453E-03  0.10201490400E+01  0.10198718203E+01 0.  0.
     999903    2    3    3    0    0  0.12375954431E+00 -0.42230295261E-01 -0.16959646358E-01  0.13327070160E+00  0.19329450444E-01 0.  0.
         14    1    1    2    0    0 -0.23748083441E-01 -0.11363207154E-02  0.52092869453E-03  0.23780960002E-01  0.00000000000E+00 0. -1.
     999901    1    3    3    0    0 -0.10001146087E+00  0.43366615976E-01  0.16438717663E-01  0.88687833840E+00  0.88000000000E+00 0. -1.
        -11    1    4    4    0    0  0.32638534998E-01 -0.37246403957E-02  0.28040299516E-03  0.32855542298E-01  0.51100000000E-03 0. -1.
         11    1    4    4    0    0  0.91121009311E-01 -0.38505654865E-01 -0.17240049353E-01  0.10041515930E+00  0.51100000000E-03 0.  1.
</event>
<event>
 8    1  0.1065239E+005  0.1043930E+01  0.7957747E-01            NaN
         13   -1    0    0    0    0  0.00000000000E+00  0.00000000000E+00  0.74505805969E-08  0.10566000000E+00  0.10566000000E+00 0. -1.
     999900   -1    0    0    0    0 -0.00000000000E+00 -0.00000000000E+00 -0.74505805969E-08  0.93827000000E+00  0.93827000000E+00 0. -1.
     999902    2    1    2    0    0 -0.10103846237E-01 -0.21626749739E-01  0.40617367060E-02  0.10197163320E+01  0.10194288087E+01 0.  0.
     999903    2    3    3    0    0 -0.42642879535E-01 -0.50444676198E-02 -0.12121286639E+00  0.13009422855E+00  0.19699936379E-01 0.  0.
         14    1    1    2    0    0  0.10103846237E-01  0.21626749739E-01 -0.40617367060E-02  0.24213668002E-01  0.00000000000E+00 0. -1.
     999901    1    3    3    0    0  0.32539033299E-01 -0.16582282120E-01  0.12527460310E+00  0.88962210345E+00  0.88000000000E+00 0.  1.
        -11    1    4    4    0    0 -0.27503815654E-01  0.59440683416E-02 -0.80740175957E-01  0.85504555192E-01  0.51100000000E-03 0.  1.
         11    1    4    4    0    0 -0.15139063882E-01 -0.10988535961E-01 -0.40472690435E-01  0.44589673354E-01  0.51100000000E-03 0. -1.
</event>
<event>
 8    1  0.1065239E+005  0.1043930E+01  0.7957747E-01            NaN
         13   -1    0    0    0    0  0.00000000000E+00  0.00000000000E+00  0.74505805969E-08  0.10566000000E+00  0.10566000000E+00 0. -1.
     999900   -1    0    0    0    0 -0.00000000000E+00 -0.00000000000E+00 -0.74505805969E-08  0.93827000000E+00  0.93827000000E+00 0.  1.
     999902    2    1    2    0    0 -0.26247576314E-03  0.19964062875E-01  0.11398347382E-01  0.10209396754E+01  0.10206807855E+01 0.  0.
     999903    2    3    3    0    0  0.10911173371E+00  0.72079511201E-01 -0.76695615091E-02  0.13243400703E+00  0.19470944415E-01 0.  0.
         14    1    1    2    0    0  0.26247576314E-03 -0.19964062875E-01 -0.11398347382E-01  0.22990324553E-01  0.00000000000E+00 0. -1.
     999901    1    3    3    0    0 -0.10937420948E+00 -0.52115448326E-01  0.19067908891E-01  0.88850566841E+00  0.88000000000E+00 0. -1.
        -11    1    4    4    0    0  0.68297354388E-01  0.45257961039E-01  0.46426152827E-02  0.82064771074E-01  0.51100000000E-03 0. -1.
         11    1    4    4    0    0  0.40814379326E-01  0.26821550162E-01 -0.12312176792E-01  0.50369235960E-01  0.51100000000E-03 0.  1.
</event>
<event>
 8    1  0.1065239E+005  0.1043930E+01  0.7957747E-01            NaN
         13   -1    0    0    0    0  0.00000000000E+00  0.00000000000E+00  0.74505805969E-08  0.10566000000E+00  0.10566000000E+00 0. -1.
     999900   -1    0    0    0    0 -0.00000000000E+00 -0.00000000000E+00 -0.74505805969E-08  0.93827000000E+00  0.93827000000E+00 0. -1.
     999902    2    1    2    0    0  0.34983031661E-02 -0.27265618814E-02  0.22844397514E-01  0.10206590146E+01  0.10203936913E+01 0.  0.
     999903    2    3    3    0    0  0.55950167785E-01 -0.39709621031E-01 -0.10717567900E+00  0.12879346133E+00  0.19845761120E-01 0.  0.
         14    1    1    2    0    0 -0.34983031661E-02  0.27265618814E-02 -0.22844397514E-01  0.23270985422E-01  0.00000000000E+00 0.  1.
     999901    1    3    3    0    0 -0.52451864619E-01  0.36983059150E-01  0.13002007652E+00  0.89186555324E+00  0.88000000000E+00 0.  1.
        -11    1    4    4    0    0  0.36388664079E-01 -0.15612529906E-01 -0.69365941809E-01  0.79873531083E-01  0.51100000000E-03 0. -1.
         11    1    4    4    0    0  0.19561503706E-01 -0.24097091125E-01 -0.37809737196E-01  0.48919930250E-01  0.51100000000E-03 0.  1.
</event>
<event>
 8    1  0.1065239E+005  0.1043930E+01  0.7957747E-01            NaN
         13   -1    0    0    0    0  0.00000000000E+00  0.00000000000E+00  0.74505805969E-08  0.10566000000E+00  0.10566000000E+00 0.  1.
     999900   -1    0    0    0    0 -0.00000000000E+00 -0.00000000000E+00 -0.74505805969E-08  0.93827000000E+00  0.93827000000E+00 0.  1.
     999902    2    1    2    0    0  0.12283806631E-01  0.18034279440E-02 -0.20093272858E-01  0.10203104346E+01  0.10200370086E+01 0.  0.
     999903    2    3    3    0    0  0.12871985642E+00 -0.21677414685E-01  0.10953076894E-02  0.13207754865E+00  0.20113861262E-01 0.  0.
         14    1    1    2    0    0 -0.12283806631E-01 -0.18034279440E-02  0.20093272858E-01  0.23619565445E-01  0.00000000000E+00 0.  1.
     999901    1    3    3    0    0 -0.11643604979E+00  0.23480842629E-01 -0.21188580547E-01  0.88823288591E+00  0.88000000000E+00 0.  1.
        -11    1    4    4    0    0  0.11310189386E+00 -0.17131327117E-01 -0.54822611677E-02  0.11452439510E+00  0.51100000000E-03 0.  1.
         11    1    4    4    0    0  0.15617962555E-01 -0.45460875682E-02  0.65775688570E-02  0.17553153552E-01  0.51100000000E-03 0. -1.
</event>
<event>
 7    1  0.1065239E+005  0.1043930E+01  0.7957747E-01            NaN
         13   -1    0    0    0    0  0.00000000000E+00  0.00000000000E+00  0.74505805969E-08  0.10566000000E+00  0.10566000000E+00 0.  1.
     999900   -1    0    0    0    0 -0.00000000000E+00 -0.00000000000E+00 -0.74505805969E-08  0.93827000000E+00  0.93827000000E+00 0.  1.
     999902    2    1    2    0    0 -0.12972281570E-01 -0.17333202302E-01 -0.74594427674E-03  0.10222672111E+01  0.10220376580E+01 0.  0.
         14    1    1    2    0    0  0.12972281570E-01  0.17333202302E-01  0.74594427674E-03  0.21662788926E-01  0.00000000000E+00 0. -1.
     999901    1    3    3    0    0 -0.11086213309E+00 -0.82636935118E-01  0.38354183980E-01  0.89162229617E+00  0.88000000000E+00 0. -1.
        -11    1    3    3    0    0  0.47995832177E-01  0.33738726624E-01  0.20028356663E-02  0.58704122958E-01  0.51100000000E-03 0.  1.
         11    1    3    3    0    0  0.49894019339E-01  0.31565006193E-01 -0.41102963923E-01  0.71940791947E-01  0.51100000000E-03 0. -1.
</event>
<event>
 8    1  0.1065239E+005  0.1043930E+01  0.7957747E-01            NaN
         13   -1    0    0    0    0  0.00000000000E+00  0.00000000000E+00  0.74505805969E-08  0.10566000000E+00  0.10566000000E+00 0.  1.
     999900   -1    0    0    0    0 -0.00000000000E+00 -0.00000000000E+00 -0.74505805969E-08  0.93827000000E+00  0.93827000000E+00 0. -1.
     999902    2    1    2    0    0  0.23832077618E-02  0.23015331312E-01  0.60025214870E-02  0.10200257029E+01  0.10197455659E+01 0.  0.
     999903    2    3    3    0    0  0.12535537873E+00  0.33081827529E-01  0.87146593909E-02  0.13141395144E+00  0.19629137927E-01 0.  0.
         14    1    1    2    0    0 -0.23832077618E-02 -0.23015331312E-01 -0.60025214870E-02  0.23904297079E-01  0.00000000000E+00 0. -1.
     999901    1    3    3    0    0 -0.12297217097E+00 -0.10066496217E-01 -0.27121379039E-02  0.88861175148E+00  0.88000000000E+00 0.  1.
        -11    1    4    4    0    0  0.67676976668E-01  0.77348012233E-02  0.42708171882E-02  0.68253214732E-01  0.51100000000E-03 0. -1.
         11    1    4    4    0    0  0.57678402061E-01  0.25347026306E-01  0.44438422028E-02  0.63160736707E-01  0.51100000000E-03 0.  1.
</event>
<event>
 8    1  0.1065239E+005  0.1043930E+01  0.7957747E-01            NaN
         13   -1    0    0    0    0  0.00000000000E+00  0.00000000000E+00  0.74505805969E-08  0.10566000000E+00  0.10566000000E+00 0.  1.
     999900   -1    0    0    0    0 -0.00000000000E+00 -0.00000000000E+00 -0.74505805969E-08  0.93827000000E+00  0.93827000000E+00 0. -1.
     999902    2    1    2    0    0  0.25163328295E-01  0.51294027373E-02 -0.22888571738E-02  0.10181473948E+01  0.10178208953E+01 0.  0.
     999903    2    3    3    0    0  0.62147984945E-02 -0.12208250538E+00  0.32997844697E-01  0.12809848173E+00  0.19431969157E-01 0.  0.
         14    1    1    2    0    0 -0.25163328295E-01 -0.51294027373E-02  0.22888571738E-02  0.25782605192E-01  0.00000000000E+00 0.  1.
     999901    1    3    3    0    0  0.18948529800E-01  0.12721190812E+00 -0.35286701871E-01  0.89004891308E+00  0.88000000000E+00 0.  1.
        -11    1    4    4    0    0  0.29553067041E-02 -0.91905589533E-01  0.33132422697E-01  0.97741443513E-01  0.51100000000E-03 0. -1.
         11    1    4    4    0    0  0.32594917904E-02 -0.30176915849E-01 -0.13457800049E-03  0.30357038214E-01  0.51100000000E-03 0.  1.
</event>
<event>
 8    1  0.1065239E+005  0.1043930E+01  0.7957747E-01            NaN
         13   -1    0    0    0    0  0.00000000000E+00  0.00000000000E+00  0.74505805969E-08  0.10566000000E+00  0.10566000000E+00 0. -1.
     999900   -1    0    0    0    0 -0.00000000000E+00 -0.00000000000E+00 -0.74505805969E-08  0.93827000000E+00  0.93827000000E+00 0.  1.
     999902    2    1    2    0    0 -0.11823639432E-01  0.65117989351E-02 -0.16813900945E-01  0.10223682459E+01  0.10221408518E+01 0.  0.
     999903    2    3    3    0    0 -0.57189829831E-01  0.11699174942E+00  0.22728720880E-01  0.13342081797E+00  0.18076887081E-01 0.  0.
         14    1    1    2    0    0  0.11823639432E-01 -0.65117989351E-02  0.16813900945E-01  0.21561754098E-01  0.00000000000E+00 0. -1.
     999901    1    3    3    0    0  0.45366190399E-01 -0.11047995048E+00 -0.39542621825E-01  0.88894742793E+00  0.88000000000E+00 0.  1.
        -11    1    4    4    0    0 -0.39705641712E-01  0.94598942426E-01  0.22361229654E-01  0.10500373138E+00  0.51100000000E-03 0. -1.
         11    1    4    4    0    0 -0.17484188119E-01  0.22392806991E-01  0.36749122649E-03  0.28417086584E-01  0.51100000000E-03 0.  1.
</event>
<event>
 8    1  0.1065239E+005  0.1043930E+01  0.7957747E-01            NaN
         13   -1    0    0    0    0  0.00000000000E+00  0.00000000000E+00  0.74505805969E-08  0.10566000000E+00  0.10566000000E+00 0.  1.
     999900   -1    0    0    0    0 -0.00000000000E+00 -0.00000000000E+00 -0.74505805969E-08  0.93827000000E+00  0.93827000000E+00 0.  1.
     999902    2    1    2    0    0  0.22997303825E-01 -0.78892108942E-03  0.57661191548E-02  0.10202077212E+01  0.10199318840E+01 0.  0.
     999903    2    3    3    0    0  0.30085860434E-03 -0.12203468690E+00  0.43188674995E-01  0.13081685551E+00  0.18847618239E-01 0.  0.
         14    1    1    2    0    0 -0.22997303825E-01  0.78892108942E-03 -0.57661191548E-02  0.23722278765E-01  0.00000000000E+00 0.  1.
     999901    1    3    3    0    0  0.22696445221E-01  0.12124576581E+00 -0.37422555840E-01  0.88939086573E+00  0.88000000000E+00 0. -1.
        -11    1    4    4    0    0 -0.15319585776E-02 -0.65196340413E-01  0.13254380096E-01  0.66549601148E-01  0.51100000000E-03 0.  1.
         11    1    4    4    0    0  0.18328171819E-02 -0.56838346492E-01  0.29934294899E-01  0.64267254359E-01  0.51100000000E-03 0. -1.
</event>
<event>
 8    1  0.1065239E+005  0.1043930E+01  0.7957747E-01            NaN
         13   -1    0    0    0    0  0.00000000000E+00  0.00000000000E+00  0.74505805969E-08  0.10566000000E+00  0.10566000000E+00 0. -1.
     999900   -1    0    0    0    0 -0.00000000000E+00 -0.00000000000E+00 -0.74505805969E-08  0.93827000000E+00  0.93827000000E+00 0.  1.
     999902    2    1    2    0    0  0.21887373229E-01 -0.45107382537E-02 -0.99091898851E-02  0.10194842251E+01  0.10191910956E+01 0.  0.
     999903    2    3    3    0    0 -0.10107666997E+00 -0.69034376368E-01  0.29927452230E-01  0.12770487243E+00  0.20751956827E-01 0.  0.
         14    1    1    2    0    0 -0.21887373229E-01  0.45107382537E-02  0.99091898851E-02  0.24445774904E-01  0.00000000000E+00 0.  1.
     999901    1    3    3    0    0  0.12296404320E+00  0.64523638114E-01 -0.39836642115E-01  0.89177935267E+00  0.88000000000E+00 0. -1.
        -11    1    4    4    0    0 -0.36589979702E-01 -0.19027847919E-01  0.14402072649E-02  0.41270097274E-01  0.51100000000E-03 0. -1.
         11    1    4    4    0    0 -0.64486690265E-01 -0.50006528449E-01  0.28487244965E-01  0.86434775152E-01  0.51100000000E-03 0.  1.
</event>
<event>
 8    1  0.1065239E+005  0.1043930E+01  0.7957747E-01            NaN
         13   -1    0    0    0    0  0.00000000000E+00  0.00000000000E+00  0.74505805969E-08  0.10566000000E+00  0.10566000000E+00 0. -1.
     999900   -1    0    0    0    0 -0.00000000000E+00 -0.00000000000E+00 -0.74505805969E-08  0.93827000000E+00  0.93827000000E+00 0.  1.
     999902    2    1    2    0    0 -0.22768419649E-01 -0.52047175313E-02  0.48296958728E-02  0.10200801367E+01  0.10198012891E+01 0.  0.
     999903    2    3    3    0    0 -0.26891797143E-01 -0.98561698619E-01  0.81063556401E-01  0.13185486703E+00  0.19412073446E-01 0.  0.
         14    1    1    2    0    0  0.22768419649E-01  0.52047175313E-02 -0.48296958728E-02  0.23849863314E-01  0.00000000000E+00 0. -1.
     999901    1    3    3    0    0  0.41233774940E-02  0.93356981088E-01 -0.76233860528E-01  0.88822526965E+00  0.88000000000E+00 0.  1.
        -11    1    4    4    0    0 -0.14520614698E-01 -0.21554104388E-01  0.20587675638E-01  0.33159330155E-01  0.51100000000E-03 0. -1.
         11    1    4    4    0    0 -0.12371182445E-01 -0.77007594231E-01  0.60475880763E-01  0.98695536877E-01  0.51100000000E-03 0.  1.
</event>
<event>
 8    1  0.1065239E+005  0.1043930E+01  0.7957747E-01            NaN
         13   -1    0    0    0    0  0.00000000000E+00  0.00000000000E+00  0.74505805969E-08  0.10566000000E+00  0.10566000000E+00 0. -1.
     999900   -1    0    0    0    0 -0.00000000000E+00 -0.00000000000E+00 -0.74505805969E-08  0.93827000000E+00  0.93827000000E+00 0. -1.
     999902    2    1    2    0    0 -0.23455340399E-01  0.27537695971E-03  0.33715765230E-02  0.10202319757E+01  0.10199567089E+01 0.  0.
     999903    2    3    3    0    0 -0.53174183048E-01  0.63272589231E-01  0.10117381375E+00  0.13207819628E+00  0.19431805207E-01 0.  0.
         14    1    1    2    0    0  0.23455340399E-01 -0.27537695971E-03 -0.33715765230E-02  0.23698024262E-01  0.00000000000E+00 0.  1.
     999901    1    3    3    0    0  0.29718842650E-01 -0.62997212271E-01 -0.97802237222E-01  0.88815377946E+00  0.88000000000E+00 0. -1.
        -11    1    4    4    0    0 -0.23014317945E-01  0.41769350180E-01  0.61014833708E-01  0.77442937046E-01  0.51100000000E-03 0. -1.
         11    1    4    4    0    0 -0.30159865104E-01  0.21503239051E-01  0.40158980037E-01  0.54635259232E-01  0.51100000000E-03 0.  1.
</event>
<event>
 8    1  0.1065239E+005  0.1043930E+01  0.7957747E-01            NaN
         13   -1    0    0    0    0  0.00000000000E+00  0.00000000000E+00  0.74505805969E-08  0.10566000000E+00  0.10566000000E+00 0. -1.
     999900   -1    0    0    0    0 -0.00000000000E+00 -0.00000000000E+00 -0.74505805969E-08  0.93827000000E+00  0.93827000000E+00 0.  1.
     999902    2    1    2    0    0  0.80824243298E-02 -0.23147630979E-01 -0.31917646944E-02  0.10192049972E+01  0.10189050498E+01 0.  0.
     999903    2    3    3    0    0 -0.68523191188E-01  0.58004846568E-01 -0.89031912804E-01  0.12801328044E+00  0.20018204611E-01 0.  0.
         14    1    1    2    0    0 -0.80824243298E-02  0.23147630979E-01  0.31917646944E-02  0.24725002829E-01  0.00000000000E+00 0.  1.
     999901    1    3    3    0    0  0.76605615518E-01 -0.81152477548E-01  0.85840148109E-01  0.89119171673E+00  0.88000000000E+00 0. -1.
        -11    1    4    4    0    0 -0.36975797170E-01  0.43960223735E-01 -0.55819292438E-01  0.80098472997E-01  0.51100000000E-03 0.  1.
         11    1    4    4    0    0 -0.31547394018E-01  0.14044622834E-01 -0.33212620365E-01  0.47914807444E-01  0.51100000000E-03 0. -1.
</event>
<event>
 8    1  0.1065239E+005  0.1043930E+01  0.7957747E-01            NaN
         13   -1    0    0    0    0  0.00000000000E+00  0.00000000000E+00  0.74505805969E-08  0.10566000000E+00  0.10566000000E+00 0. -1.
     999900   -1    0    0    0    0 -0.00000000000E+00 -0.00000000000E+00 -0.74505805969E-08  0.93827000000E+00  0.93827000000E+00 0. -1.
     999902    2    1    2    0    0 -0.80477383299E-02 -0.18151413935E-01 -0.13877827648E-01  0.10197053427E+01  0.10194175553E+01 0.  0.
     999903    2    3    3    0    0  0.98776589556E-02  0.49471153880E-01 -0.11896554876E+00  0.13069602856E+00  0.19587926807E-01 0.  0.
         14    1    1    2    0    0  0.80477383299E-02  0.18151413935E-01  0.13877827648E-01  0.24224657279E-01  0.00000000000E+00 0. -1.
     999901    1    3    3    0    0 -0.17925397286E-01 -0.67622567815E-01  0.10508772111E+00  0.88900931417E+00  0.88000000000E+00 0. -1.
        -11    1    4    4    0    0  0.13038644841E-01  0.42903067998E-01 -0.11181606601E+00  0.12047312249E+00  0.51100000000E-03 0. -1.
         11    1    4    4    0    0 -0.31609858855E-02  0.65680858824E-02 -0.71494827441E-02  0.10222906066E-01  0.51100000000E-03 0.  1.
</event>
<event>
 8    1  0.1065239E+005  0.1043930E+01  0.7957747E-01            NaN
         13   -1    0    0    0    0  0.00000000000E+00  0.00000000000E+00  0.74505805969E-08  0.10566000000E+00  0.10566000000E+00 0.  1.
     999900   -1    0    0    0    0 -0.00000000000E+00 -0.00000000000E+00 -0.74505805969E-08  0.93827000000E+00  0.93827000000E+00 0. -1.
     999902    2    1    2    0    0 -0.38036461316E-02 -0.17577299074E-01 -0.14739873572E-01  0.10206771929E+01  0.10204122887E+01 0.  0.
     999903    2    3    3    0    0 -0.11555259886E+00  0.42480948309E-01  0.36442408527E-01  0.13010746089E+00  0.21044433166E-01 0.  0.
         14    1    1    2    0    0  0.38036461316E-02  0.17577299074E-01  0.14739873572E-01  0.23252807132E-01  0.00000000000E+00 0.  1.
     999901    1    3    3    0    0  0.11174895273E+00 -0.60058247383E-01 -0.51182282099E-01  0.89056973198E+00  0.88000000000E+00 0.  1.
        -11    1    4    4    0    0 -0.99395621119E-01  0.31826607243E-01  0.23994740889E-01  0.10709076121E+00  0.51100000000E-03 0.  1.
         11    1    4    4    0    0 -0.16156977742E-01  0.10654341066E-01  0.12447667639E-01  0.23016699675E-01  0.51100000000E-03 0. -1.
</event>
<event>
 8    1  0.1065239E+005  0.1043930E+01  0.7957747E-01            NaN
         13   -1    0    0    0    0  0.00000000000E+00  0.00000000000E+00  0.74505805969E-08  0.10566000000E+00  0.10566000000E+00 0.  1.
     999900   -1    0    0    0    0 -0.00000000000E+00 -0.00000000000E+00 -0.74505805969E-08  0.93827000000E+00  0.93827000000E+00 0.  1.
     999902    2    1    2    0    0  0.19842066099E-01  0.12209435143E-01 -0.40790346797E-02  0.10202780145E+01  0.10200038287E+01 0.  0.
     999903    2    3    3    0    0 -0.90357865228E-02  0.83269493498E-01  0.98689306704E-01  0.13098346586E+00  0.20040835477E-01 0.  0.
         14    1    1    2    0    0 -0.19842066099E-01 -0.12209435143E-01  0.40790346797E-02  0.23651985488E-01  0.00000000000E+00 0.  1.
     999901    1    3    3    0    0  0.28877852622E-01 -0.71060058354E-01 -0.10276834138E+00  0.88929454865E+00  0.88000000000E+00 0.  1.
        -11    1    4    4    0    0 -0.93407086521E-02  0.50429442786E-01  0.46005096348E-01  0.68899256518E-01  0.51100000000E-03 0. -1.
         11    1    4    4    0    0  0.30492212927E-03  0.32840050712E-01  0.52684210355E-01  0.62084209345E-01  0.51100000000E-03 0.  1.
</event>
<event>
 8    1  0.1065239E+005  0.1043930E+01  0.7957747E-01            NaN
         13   -1    0    0    0    0  0.00000000000E+00  0.00000000000E+00  0.74505805969E-08  0.10566000000E+00  0.10566000000E+00 0. -1.
     999900   -1    0    0    0    0 -0.00000000000E+00 -0.00000000000E+00 -0.74505805969E-08  0.93827000000E+00  0.93827000000E+00 0. -1.
     999902    2    1    2    0    0  0.68812395132E-02 -0.21508503102E-01 -0.71220468667E-02  0.10202510914E+01  0.10199762736E+01 0.  0.
     999903    2    3    3    0    0  0.12268029809E+00 -0.11375195152E-01 -0.42662090490E-01  0.13189575671E+00  0.19914468804E-01 0.  0.
         14    1    1    2    0    0 -0.68812395132E-02  0.21508503102E-01  0.71220468667E-02  0.23678908643E-01  0.00000000000E+00 0. -1.
     999901    1    3    3    0    0 -0.11579905858E+00 -0.10133307950E-01  0.35540043624E-01  0.88835533465E+00  0.88000000000E+00 0.  1.
        -11    1    4    4    0    0  0.49962913327E-02 -0.46613886816E-02 -0.13095879723E-02  0.69762176843E-02  0.51100000000E-03 0.  1.
         11    1    4    4    0    0  0.11768400676E+00 -0.67138064701E-02 -0.41352502518E-01  0.12491953902E+00  0.51100000000E-03 0. -1.
</event>
<event>
 8    1  0.1065239E+005  0.1043930E+01  0.7957747E-01            NaN
         13   -1    0    0    0    0  0.00000000000E+00  0.00000000000E+00  0.74505805969E-08  0.10566000000E+00  0.10566000000E+00 0.  1.
     999900   -1    0    0    0    0 -0.00000000000E+00 -0.00000000000E+00 -0.74505805969E-08  0.93827000000E+00  0.93827000000E+00 0.  1.
     999902    2    1    2    0    0  0.13504954715E-02  0.17287426968E-01  0.15785132464E-01  0.10204811327E+01  0.10202116902E+01 0.  0.
     999903    2    3    3    0    0  0.49967357883E-01 -0.63978274867E-01  0.10107806019E+00  0.13130027536E+00  0.20809410063E-01 0.  0.
         14    1    1    2    0    0 -0.13504954715E-02 -0.17287426968E-01 -0.15785132464E-01  0.23448867267E-01  0.00000000000E+00 0. -1.
     999901    1    3    3    0    0 -0.48616862412E-01  0.81265701835E-01 -0.85292927730E-01  0.88918085738E+00  0.88000000000E+00 0.  1.
        -11    1    4    4    0    0  0.21298609474E-01 -0.43864901439E-01  0.57642772782E-01  0.75503051056E-01  0.51100000000E-03 0.  1.
         11    1    4    4    0    0  0.28668748409E-01 -0.20113373428E-01  0.43435287412E-01  0.55797224300E-01  0.51100000000E-03 0. -1.
</event>
<event>
 8    1  0.1065239E+005  0.1043930E+01  0.7957747E-01            NaN
         13   -1    0    0    0    0  0.00000000000E+00  0.00000000000E+00  0.74505805969E-08  0.10566000000E+00  0.10566000000E+00 0.  1.
     999900   -1    0    0    0    0 -0.00000000000E+00 -0.00000000000E+00 -0.74505805969E-08  0.93827000000E+00  0.93827000000E+00 0. -1.
     999902    2    1    2    0    0  0.76928500430E-02  0.21963590098E-01  0.31970581427E-02  0.10204395676E+01  0.10201691579E+01 0.  0.
     999903    2    3    3    0    0  0.10281820179E+00 -0.21755793488E-01 -0.75257632647E-01  0.13076808021E+00  0.19790966632E-01 0.  0.
         14    1    1    2    0    0 -0.76928500430E-02 -0.21963590098E-01 -0.31970581427E-02  0.23490432361E-01  0.00000000000E+00 0.  1.
     999901    1    3    3    0    0 -0.95125351743E-01  0.43719383585E-01  0.78454690789E-01  0.88967148743E+00  0.88000000000E+00 0.  1.
        -11    1    4    4    0    0  0.32590992257E-01 -0.15397345293E-01 -0.30735442788E-01  0.47372772589E-01  0.51100000000E-03 0.  1.
         11    1    4    4    0    0  0.70227209529E-01 -0.63584481952E-02 -0.44522189859E-01  0.83395307616E-01  0.51100000000E-03 0. -1.
</event>
<event>
 8    1  0.1065239E+005  0.1043930E+01  0.7957747E-01            NaN
         13   -1    0    0    0    0  0.00000000000E+00  0.00000000000E+00  0.74505805969E-08  0.10566000000E+00  0.10566000000E+00 0.  1.
     999900   -1    0    0    0    0 -0.00000000000E+00 -0.00000000000E+00 -0.74505805969E-08  0.93827000000E+00  0.93827000000E+00 0. -1.
     999902    2    1    2    0    0 -0.16480330711E-01 -0.10942246487E-01  0.13604658587E-01  0.10199212351E+01  0.10196386149E+01 0.  0.
     999903    2    3    3    0    0  0.92364911638E-01  0.17657686684E-01  0.86999398164E-01  0.12972348694E+00  0.20401396589E-01 0.  0.
         14    1    1    2    0    0  0.16480330711E-01  0.10942246487E-01 -0.13604658587E-01  0.24008764937E-01  0.00000000000E+00 0.  1.
     999901    1    3    3    0    0 -0.10884524235E+00 -0.28599933171E-01 -0.73394739577E-01  0.89019774812E+00  0.88000000000E+00 0.  1.
        -11    1    4    4    0    0  0.43875573204E-01 -0.17971597030E-02  0.37438758284E-01  0.57708036267E-01  0.51100000000E-03 0. -1.
         11    1    4    4    0    0  0.48489338435E-01  0.19454846387E-01  0.49560639880E-01  0.72015450676E-01  0.51100000000E-03 0.  1.
</event>
<event>
 8    1  0.1065239E+005  0.1043930E+01  0.7957747E-01            NaN
         13   -1    0    0    0    0  0.00000000000E+00  0.00000000000E+00  0.74505805969E-08  0.10566000000E+00  0.10566000000E+00 0.  1.
     999900   -1    0    0    0    0 -0.00000000000E+00 -0.00000000000E+00 -0.74505805969E-08  0.93827000000E+00  0.93827000000E+00 0. -1.
     999902    2    1    2    0    0  0.56435390837E-02 -0.22298414822E-01  0.31795788808E-02  0.10207097812E+01  0.10204456276E+01 0.  0.
     999903    2    3    3    0    0 -0.72908985337E-01  0.10361178158E+00  0.34643675351E-02  0.12828389763E+00  0.19840239982E-01 0.  0.
         14    1    1    2    0    0 -0.56435390837E-02  0.22298414822E-01 -0.31795788808E-02  0.23220218751E-01  0.00000000000E+00 0.  1.
     999901    1    3    3    0    0  0.78552524421E-01 -0.12591019641E+00 -0.28478865427E-03  0.89242588362E+00  0.88000000000E+00 0. -1.
        -11    1    4    4    0    0 -0.63646746661E-01  0.81367385441E-01  0.85304011507E-02  0.10365610758E+00  0.51100000000E-03 0. -1.
         11    1    4    4    0    0 -0.92622386765E-02  0.22244396142E-01 -0.50660336157E-02  0.24627790047E-01  0.51100000000E-03 0.  1.
</event>
<event>
 8    1  0.1065239E+005  0.1043930E+01  0.7957747E-01            NaN
         13   -1    0    0    0    0  0.00000000000E+00  0.00000000000E+00  0.74505805969E-08  0.10566000000E+00  0.10566000000E+00 0. -1.
     999900   -1    0    0    0    0 -0.00000000000E+00 -0.00000000000E+00 -0.74505805969E-08  0.93827000000E+00  0.93827000000E+00 0. -1.
     999902    2    1    2    0    0 -0.30113467645E-02  0.56684708291E-02 -0.20942111281E-01  0.10220263063E+01  0.10217915634E+01 0.  0.
     999903    2    3    3    0    0  0.14646044200E-01  0.52600496213E-01  0.11627954269E+00  0.12998136309E+00  0.19821803413E-01 0.  0.
         14    1    1    2    0    0  0.30113467645E-02 -0.56684708291E-02  0.20942111281E-01  0.21903693657E-01  0.00000000000E+00 0. -1.
     999901    1    3    3    0    0 -0.17657390965E-01 -0.46932025384E-01 -0.13722165397E+00  0.89204494325E+00  0.88000000000E+00 0. -1.
        -11    1    4    4    0    0  0.19239436527E-01  0.37022853050E-01  0.79954809478E-01  0.90188027174E-01  0.51100000000E-03 0.  1.
         11    1    4    4    0    0 -0.45933923271E-02  0.15577643162E-01  0.36324733212E-01  0.39793335918E-01  0.51100000000E-03 0. -1.
</event>
<event>
 8    1  0.1065239E+005  0.1043930E+01  0.7957747E-01            NaN
         13   -1    0    0    0    0  0.00000000000E+00  0.00000000000E+00  0.74505805969E-08  0.10566000000E+00  0.10566000000E+00 0.  1.
     999900   -1    0    0    0    0 -0.00000000000E+00 -0.00000000000E+00 -0.74505805969E-08  0.93827000000E+00  0.93827000000E+00 0. -1.
     999902    2    1    2    0    0  0.30799033883E-02 -0.94138750285E-03 -0.23475049157E-01  0.10202350649E+01  0.10199598707E+01 0.  0.
     999903    2    3    3    0    0  0.86745851681E-02  0.14353274592E-01 -0.13103875291E+00  0.13353603057E+00  0.19479522038E-01 0.  0.
         14    1    1    2    0    0 -0.30799033883E-02  0.94138750285E-03  0.23475049157E-01  0.23694935076E-01  0.00000000000E+00 0.  1.
     999901    1    3    3    0    0 -0.55946817798E-02 -0.15294662095E-01  0.10756370375E+00  0.88669903435E+00  0.88000000000E+00 0.  1.
        -11    1    4    4    0    0  0.60332826403E-02  0.17598214240E-01 -0.12353869201E+00  0.12493265061E+00  0.51100000000E-03 0.  1.
         11    1    4    4    0    0  0.26413025278E-02 -0.32449396484E-02 -0.75000609004E-02  0.86033799680E-02  0.51100000000E-03 0. -1.
</event>
<event>
 8    1  0.1065239E+005  0.1043930E+01  0.7957747E-01            NaN
         13   -1    0    0    0    0  0.00000000000E+00  0.00000000000E+00  0.74505805969E-08  0.10566000000E+00  0.10566000000E+00 0. -1.
     999900   -1    0    0    0    0 -0.00000000000E+00 -0.00000000000E+00 -0.74505805969E-08  0.93827000000E+00  0.93827000000E+00 0.  1.
     999902    2    1    2    0    0 -0.12224919916E-01 -0.14902437002E-01 -0.14328497079E-01  0.10199125662E+01  0.10196297395E+01 0.  0.
     999903    2    3    3    0    0 -0.84330515619E-02 -0.50459894815E-01  0.11730576544E+00  0.12940356004E+00  0.19165630763E-01 0.  0.
         14    1    1    2    0    0  0.12224919916E-01  0.14902437002E-01  0.14328497079E-01  0.24017433753E-01  0.00000000000E+00 0. -1.
     999901    1    3    3    0    0 -0.37918683536E-02  0.35557457814E-01 -0.13163426251E+00  0.89050900621E+00  0.88000000000E+00 0.  1.
        -11    1    4    4    0    0 -0.11112920438E-01 -0.15534213877E-01  0.50005491820E-01  0.53531477979E-01  0.51100000000E-03 0. -1.
         11    1    4    4    0    0  0.26798688760E-02 -0.34925680938E-01  0.67300273616E-01  0.75872082059E-01  0.51100000000E-03 0.  1.
</event>
<event>
 8    1  0.1065239E+005  0.1043930E+01  0.7957747E-01            NaN
         13   -1    0    0    0    0  0.00000000000E+00  0.00000000000E+00  0.74505805969E-08  0.10566000000E+00  0.10566000000E+00 0. -1.
     999900   -1    0    0    0    0 -0.00000000000E+00 -0.00000000000E+00 -0.74505805969E-08  0.93827000000E+00  0.93827000000E+00 0.  1.
     999902    2    1    2    0    0 -0.19741600944E-01  0.11127025144E-01  0.52519902464E-02  0.10206679086E+01  0.10204027904E+01 0.  0.
     999903    2    3    3    0    0 -0.27984933952E-01 -0.72447752100E-01 -0.10257080519E+00  0.13011838656E+00  0.19447136805E-01 0.  0.
         14    1    1    2    0    0  0.19741600944E-01 -0.11127025144E-01 -0.52519902464E-02  0.23262091435E-01  0.00000000000E+00 0.  1.
     999901    1    3    3    0    0  0.82433330077E-02  0.83574777243E-01  0.10782279544E+00  0.89054952201E+00  0.88000000000E+00 0. -1.
        -11    1    4    4    0    0 -0.32248488160E-02 -0.33821508398E-01 -0.48225805825E-01  0.58993928066E-01  0.51100000000E-03 0.  1.
         11    1    4    4    0    0 -0.24760085136E-01 -0.38626243702E-01 -0.54344999367E-01  0.71124458492E-01  0.51100000000E-03 0. -1.
</event>
<event>
 8    1  0.1065239E+005  0.1043930E+01  0.7957747E-01            NaN
         13   -1    0    0    0    0  0.00000000000E+00  0.00000000000E+00  0.74505805969E-08  0.10566000000E+00  0.10566000000E+00 0. -1.
     999900   -1    0    0    0    0 -0.00000000000E+00 -0.00000000000E+00 -0.74505805969E-08  0.93827000000E+00  0.93827000000E+00 0.  1.
     999902    2    1    2    0    0 -0.51581062850E-03  0.13621603483E-01 -0.17514185253E-01  0.10217362886E+01  0.10214952191E+01 0.  0.
     999903    2    3    3    0    0 -0.48220993983E-01  0.79215114321E-01  0.91098525776E-01  0.13135714788E+00  0.18853654866E-01 0.  0.
         14    1    1    2    0    0  0.51581062850E-03 -0.13621603483E-01  0.17514185253E-01  0.22193711432E-01  0.00000000000E+00 0. -1.
     999901    1    3    3    0    0  0.47705183355E-01 -0.65593510839E-01 -0.10861271103E+00  0.89037914069E+00  0.88000000000E+00 0.  1.
        -11    1    4    4    0    0 -0.29112517547E-01  0.57225848299E-01  0.72241550033E-01  0.96651120344E-01  0.51100000000E-03 0. -1.
         11    1    4    4    0    0 -0.19108476436E-01  0.21989266022E-01  0.18856975743E-01  0.34706027532E-01  0.51100000000E-03 0.  1.
</event>
<event>
 8    1  0.1065239E+005  0.1043930E+01  0.7957747E-01            NaN
         13   -1    0    0    0    0  0.00000000000E+00  0.00000000000E+00  0.74505805969E-08  0.10566000000E+00  0.10566000000E+00 0.  1.
     999900   -1    0    0    0    0 -0.00000000000E+00 -0.00000000000E+00 -0.74505805969E-08  0.93827000000E+00  0.93827000000E+00 0. -1.
     999902    2    1    2    0    0  0.97299949825E-02  0.16398615929E-01  0.14782280838E-01  0.10198031843E+01  0.10195177446E+01 0.  0.
     999903    2    3    3    0    0  0.74317994571E-01 -0.99135785732E-01  0.33448011443E-01  0.12970868534E+00  0.18828309919E-01 0.  0.
         14    1    1    2    0    0 -0.97299949825E-02 -0.16398615929E-01 -0.14782280838E-01  0.24126815652E-01  0.00000000000E+00 0. -1.
     999901    1    3    3    0    0 -0.64587999588E-01  0.11553440166E+00 -0.18665730606E-01  0.89009449900E+00  0.88000000000E+00 0. -1.
        -11    1    4    4    0    0  0.94070732067E-02 -0.52308765949E-02  0.58574571194E-02  0.12264828624E-01  0.51100000000E-03 0.  1.
         11    1    4    4    0    0  0.64910921364E-01 -0.93904909137E-01  0.27590554324E-01  0.11744385672E+00  0.51100000000E-03 0. -1.
</event>
<event>
 8    1  0.1065239E+005  0.1043930E+01  0.7957747E-01            NaN
         13   -1    0    0    0    0  0.00000000000E+00  0.00000000000E+00  0.74505805969E-08  0.10566000000E+00  0.10566000000E+00 0.  1.
     999900   -1    0    0    0    0 -0.00000000000E+00 -0.00000000000E+00 -0.74505805969E-08  0.93827000000E+00  0.93827000000E+00 0.  1.
     999902    2    1    2    0    0 -0.93883391933E-02  0.12277985767E-02 -0.24671078026E-01  0.10175044349E+01  0.10171612284E+01 0.  0.
     999903    2    3    3    0    0  0.54076357474E-01 -0.70969265360E-01  0.85814751836E-01  0.12540169281E+00  0.20013092318E-01 0.  0.
         14    1    1    2    0    0  0.93883391933E-02 -0.12277985767E-02  0.24671078026E-01  0.26425565143E-01  0.00000000000E+00 0.  1.
     999901    1    3    3    0    0 -0.63464696667E-01  0.72197063936E-01 -0.11048582986E+00  0.89210274205E+00  0.88000000000E+00 0.  1.
        -11    1    4    4    0    0  0.40094001932E-01 -0.36954254638E-01  0.54521677365E-01  0.77110442551E-01  0.51100000000E-03 0. -1.
         11    1    4    4    0    0  0.13982355542E-01 -0.34015010722E-01  0.31293074471E-01  0.48291250261E-01  0.51100000000E-03 0.  1.
</event>
<event>
 8    1  0.1065239E+005  0.1043930E+01  0.7957747E-01            NaN
         13   -1    0    0    0    0  0.00000000000E+00  0.00000000000E+00  0.74505805969E-08  0.10566000000E+00  0.10566000000E+00 0. -1.
     999900   -1    0    0    0    0 -0.00000000000E+00 -0.00000000000E+00 -0.74505805969E-08  0.93827000000E+00  0.93827000000E+00 0. -1.
     999902    2    1    2    0    0 -0.19256416033E-01 -0.37913464585E-02  0.13011534129E-01  0.10203825185E+01  0.10201107783E+01 0.  0.
     999903    2    3    3    0    0 -0.40789744798E-01  0.17854830732E-01 -0.12058577475E+00  0.12977571287E+00  0.17838394475E-01 0.  0.
         14    1    1    2    0    0  0.19256416033E-01  0.37913464585E-02 -0.13011534129E-01  0.23547481538E-01  0.00000000000E+00 0.  1.
     999901    1    3    3    0    0  0.21533328764E-01 -0.21646177190E-01  0.13359730888E+00  0.89060680560E+00  0.88000000000E+00 0.  1.
        -11    1    4    4    0    0 -0.11401917286E-01  0.13098932500E-01 -0.56501027071E-01  0.59111867941E-01  0.51100000000E-03 0. -1.
         11    1    4    4    0    0 -0.29387827512E-01  0.47558982315E-02 -0.64084747676E-01  0.70663844925E-01  0.51100000000E-03 0.  1.
</event>
<event>
 8    1  0.1108356E+005  0.1043930E+01  0.7957747E-01            NaN
         13   -1    0    0    0    0  0.00000000000E+00  0.00000000000E+00  0.74505805969E-08  0.10566000000E+00  0.10566000000E+00 0. -1.
     999900   -1    0    0    0    0 -0.00000000000E+00 -0.00000000000E+00 -0.74505805969E-08  0.93827000000E+00  0.93827000000E+00 0.  1.
     999902    2    1    2    0    0  0.15631820907E-02  0.27251095139E-02  0.24136603083E-01  0.10195897993E+01  0.10192992267E+01 0.  0.
     999903    2    3    3    0    0  0.47218400293E-01  0.71811407526E-01 -0.92840772702E-01  0.12799514818E+00  0.19413740089E-01 0.  0.
         14    1    1    2    0    0 -0.15631820907E-02 -0.27251095139E-02 -0.24136603083E-01  0.24340200667E-01  0.00000000000E+00 0.  1.
     999901    1    3    3    0    0 -0.45655218202E-01 -0.69086298012E-01  0.11697737578E+00  0.89159465115E+00  0.88000000000E+00 0. -1.
        -11    1    4    4    0    0  0.24768047078E-01  0.45941140123E-01 -0.43595484803E-01  0.68006410934E-01  0.51100000000E-03 0. -1.
         11    1    4    4    0    0  0.22450353215E-01  0.25870267403E-01 -0.49245287899E-01  0.59988737245E-01  0.51100000000E-03 0.  1.
</event>
<event>
 8    1  0.1065239E+005  0.1043930E+01  0.7957747E-01            NaN
         13   -1    0    0    0    0  0.00000000000E+00  0.00000000000E+00  0.74505805969E-08  0.10566000000E+00  0.10566000000E+00 0.  1.
     999900   -1    0    0    0    0 -0.00000000000E+00 -0.00000000000E+00 -0.74505805969E-08  0.93827000000E+00  0.93827000000E+00 0. -1.
     999902    2    1    2    0    0  0.53144762551E-02 -0.26410566629E-02  0.23400342798E-01  0.10197888550E+01  0.10195030721E+01 0.  0.
     999903    2    3    3    0    0  0.13377111116E-01 -0.76994360164E-01 -0.99536659290E-01  0.12810117073E+00  0.19881770566E-01 0.  0.
         14    1    1    2    0    0 -0.53144762551E-02  0.26410566629E-02 -0.23400342798E-01  0.24141144986E-01  0.00000000000E+00 0. -1.
     999901    1    3    3    0    0 -0.80626348605E-02  0.74353303502E-01  0.12293700209E+00  0.89168768428E+00  0.88000000000E+00 0.  1.
        -11    1    4    4    0    0  0.14344851683E-01 -0.28495171482E-01 -0.44168303396E-01  0.54487151820E-01  0.51100000000E-03 0. -1.
         11    1    4    4    0    0 -0.96774056717E-03 -0.48499188683E-01 -0.55368355894E-01  0.73614018910E-01  0.51100000000E-03 0.  1.
</event>
<event>
 8    1  0.1065239E+005  0.1043930E+01  0.7957747E-01            NaN
         13   -1    0    0    0    0  0.00000000000E+00  0.00000000000E+00  0.74505805969E-08  0.10566000000E+00  0.10566000000E+00 0.  1.
     999900   -1    0    0    0    0 -0.00000000000E+00 -0.00000000000E+00 -0.74505805969E-08  0.93827000000E+00  0.93827000000E+00 0.  1.
     999902    2    1    2    0    0 -0.20578420262E-01 -0.80692796023E-02 -0.88105746072E-02  0.10201348140E+01  0.10198572585E+01 0.  0.
     999903    2    3    3    0    0  0.71907469806E-01  0.88668554561E-01 -0.55924065636E-01  0.12876983290E+00  0.20527346798E-01 0.  0.
         14    1    1    2    0    0  0.20578420262E-01  0.80692796023E-02  0.88105746072E-02  0.23795186040E-01  0.00000000000E+00 0. -1.
     999901    1    3    3    0    0 -0.92485890067E-01 -0.96737834163E-01  0.47113491029E-01  0.89136498106E+00  0.88000000000E+00 0. -1.
        -11    1    4    4    0    0  0.41679644134E-01  0.55339046975E-01 -0.44509034795E-01  0.82346330547E-01  0.51100000000E-03 0. -1.
         11    1    4    4    0    0  0.30227825672E-01  0.33329507586E-01 -0.11415030841E-01  0.46423502355E-01  0.51100000000E-03 0.  1.
</event>
<event>
 8    1  0.1065239E+005  0.1043930E+01  0.7957747E-01            NaN
         13   -1    0    0    0    0  0.00000000000E+00  0.00000000000E+00  0.74505805969E-08  0.10566000000E+00  0.10566000000E+00 0. -1.
     999900   -1    0    0    0    0 -0.00000000000E+00 -0.00000000000E+00 -0.74505805969E-08  0.93827000000E+00  0.93827000000E+00 0. -1.
     999902    2    1    2    0    0 -0.11863336286E-01 -0.35737772250E-02  0.20069624215E-01  0.10203439777E+01  0.10200713369E+01 0.  0.
     999903    2    3    3    0    0 -0.98921558394E-01 -0.82609959809E-01 -0.17981349929E-01  0.13170809680E+00  0.20342409980E-01 0.  0.
         14    1    1    2    0    0  0.11863336286E-01  0.35737772250E-02 -0.20069624215E-01  0.23586022293E-01  0.00000000000E+00 0.  1.
     999901    1    3    3    0    0  0.87058222108E-01  0.79036182584E-01  0.38050974144E-01  0.88863588090E+00  0.88000000000E+00 0.  1.
        -11    1    4    4    0    0 -0.17183295335E-01 -0.13330830545E-01 -0.10881346275E-01  0.24323681862E-01  0.51100000000E-03 0.  1.
         11    1    4    4    0    0 -0.81738263059E-01 -0.69279129265E-01 -0.71000036537E-02  0.10738441494E+00  0.51100000000E-03 0. -1.
</event>
<event>
 8    1  0.1065239E+005  0.1043930E+01  0.7957747E-01            NaN
         13   -1    0    0    0    0  0.00000000000E+00  0.00000000000E+00  0.74505805969E-08  0.10566000000E+00  0.10566000000E+00 0. -1.
     999900   -1    0    0    0    0 -0.00000000000E+00 -0.00000000000E+00 -0.74505805969E-08  0.93827000000E+00  0.93827000000E+00 0. -1.
     999902    2    1    2    0    0  0.49162023250E-04 -0.17036113577E-01  0.17581004058E-01  0.10194489198E+01  0.10191549327E+01 0.  0.
     999903    2    3    3    0    0  0.29465557913E-01  0.81774106119E-01 -0.90110784437E-01  0.12690967409E+00  0.20757850858E-01 0.  0.
         14    1    1    2    0    0 -0.49162023250E-04  0.17036113577E-01 -0.17581004058E-01  0.24481080173E-01  0.00000000000E+00 0.  1.
     999901    1    3    3    0    0 -0.29416395890E-01 -0.98810219696E-01  0.10769178850E+00  0.89253924573E+00  0.88000000000E+00 0.  1.
        -11    1    4    4    0    0  0.30929688473E-01  0.59829090376E-01 -0.67010689114E-01  0.95009785079E-01  0.51100000000E-03 0. -1.
         11    1    4    4    0    0 -0.14641305601E-02  0.21945015743E-01 -0.23100095323E-01  0.31899889016E-01  0.51100000000E-03 0.  1.
</event>
<event>
 8    1  0.1065239E+005  0.1043930E+01  0.7957747E-01            NaN
         13   -1    0    0    0    0  0.00000000000E+00  0.00000000000E+00  0.74505805969E-08  0.10566000000E+00  0.10566000000E+00 0. -1.
     999900   -1    0    0    0    0 -0.00000000000E+00 -0.00000000000E+00 -0.74505805969E-08  0.93827000000E+00  0.93827000000E+00 0. -1.
     999902    2    1    2    0    0  0.18370928724E-01  0.14149886066E-01 -0.32830853413E-02  0.10205101591E+01  0.10202413910E+01 0.  0.
     999903    2    3    3    0    0 -0.95678898478E-01 -0.57891835389E-01 -0.60048391000E-01  0.12842290293E+00  0.19511958305E-01 0.  0.
         14    1    1    2    0    0 -0.18370928724E-01 -0.14149886066E-01  0.32830853413E-02  0.23419840888E-01  0.00000000000E+00 0.  1.
     999901    1    3    3    0    0  0.11404982720E+00  0.72041721454E-01  0.56765305659E-01  0.89208725618E+00  0.88000000000E+00 0. -1.
        -11    1    4    4    0    0 -0.18986826840E-01 -0.83482713132E-02 -0.19666133248E-01  0.28586905137E-01  0.51100000000E-03 0.  1.
         11    1    4    4    0    0 -0.76692071638E-01 -0.49543564076E-01 -0.40382257752E-01  0.99835997794E-01  0.51100000000E-03 0. -1.
</event>
<event>
 8    1  0.1065239E+005  0.1043930E+01  0.7957747E-01            NaN
         13   -1    0    0    0    0  0.00000000000E+00  0.00000000000E+00  0.74505805969E-08  0.10566000000E+00  0.10566000000E+00 0. -1.
     999900   -1    0    0    0    0 -0.00000000000E+00 -0.00000000000E+00 -0.74505805969E-08  0.93827000000E+00  0.93827000000E+00 0.  1.
     999902    2    1    2    0    0 -0.13608380051E-01 -0.17521446749E-01  0.10395190673E-01  0.10194300185E+01  0.10191355717E+01 0.  0.
     999903    2    3    3    0    0  0.30641065734E-02  0.88313950179E-01 -0.89450016261E-01  0.12732679108E+00  0.20051527912E-01 0.  0.
         14    1    1    2    0    0  0.13608380051E-01  0.17521446749E-01 -0.10395190673E-01  0.24499981488E-01  0.00000000000E+00 0.  1.
     999901    1    3    3    0    0 -0.16672486624E-01 -0.10583539693E+00  0.99845206933E-01  0.89210322744E+00  0.88000000000E+00 0.  1.
        -11    1    4    4    0    0  0.34961538456E-02  0.44097045969E-01 -0.58528843851E-01  0.73366608471E-01  0.51100000000E-03 0. -1.
         11    1    4    4    0    0 -0.43204727219E-03  0.44216904210E-01 -0.30921172410E-01  0.53960182606E-01  0.51100000000E-03 0.  1.
</event>
<event>
 8    1  0.1065239E+005  0.1043930E+01  0.7957747E-01            NaN
         13   -1    0    0    0    0  0.00000000000E+00  0.00000000000E+00  0.74505805969E-08  0.10566000000E+00  0.10566000000E+00 0. -1.
     999900   -1    0    0    0    0 -0.00000000000E+00 -0.00000000000E+00 -0.74505805969E-08  0.93827000000E+00  0.93827000000E+00 0.  1.
     999902    2    1    2    0    0 -0.27455032744E-02  0.18474312911E-01  0.12365893457E-01  0.10215301485E+01  0.10212845299E+01 0.  0.
     999903    2    3    3    0    0 -0.68552112463E-01  0.10382952917E+00  0.46525320768E-01  0.13429687071E+00  0.19775761960E-01 0.  0.
         14    1    1    2    0    0  0.27455032744E-02 -0.18474312911E-01 -0.12365893457E-01  0.22399851489E-01  0.00000000000E+00 0.  1.
     999901    1    3    3    0    0  0.65806609189E-01 -0.85355216255E-01 -0.34159427312E-01  0.88723327780E+00  0.88000000000E+00 0.  1.
        -11    1    4    4    0    0 -0.18601951713E-01  0.14773974003E-01  0.11016564793E-01  0.26190241240E-01  0.51100000000E-03 0.  1.
         11    1    4    4    0    0 -0.49950160750E-01  0.89055555163E-01  0.35508755975E-01  0.10810662947E+00  0.51100000000E-03 0. -1.
</event>
<event>
 8    1  0.1065239E+005  0.1043930E+01  0.7957747E-01            NaN
         13   -1    0    0    0    0  0.00000000000E+00  0.00000000000E+00  0.74505805969E-08  0.10566000000E+00  0.10566000000E+00 0.  1.
     999900   -1    0    0    0    0 -0.00000000000E+00 -0.00000000000E+00 -0.74505805969E-08  0.93827000000E+00  0.93827000000E+00 0.  1.
     999902    2    1    2    0    0  0.21822567539E-01 -0.47962671314E-02  0.80332395622E-02  0.10201863362E+01  0.10199099955E+01 0.  0.
     999903    2    3    3    0    0 -0.91466681610E-02 -0.35929573543E-01  0.12460883204E+00  0.13141288640E+00  0.19167417582E-01 0.  0.
         14    1    1    2    0    0 -0.21822567539E-01  0.47962671314E-02 -0.80332395622E-02  0.23743663791E-01  0.00000000000E+00 0.  1.
     999901    1    3    3    0    0  0.30969235700E-01  0.31133306411E-01 -0.11657559247E+00  0.88877344981E+00  0.88000000000E+00 0.  1.
        -11    1    4    4    0    0  0.36413122742E-02 -0.10673613915E-02  0.59248897677E-02  0.70543500890E-02  0.51100000000E-03 0.  1.
         11    1    4    4    0    0 -0.12787980435E-01 -0.34862212151E-01  0.11868394227E+00  0.12435853631E+00  0.51100000000E-03 0. -1.
</event>
<event>
 8    1  0.1065239E+005  0.1043930E+01  0.7957747E-01            NaN
         13   -1    0    0    0    0  0.00000000000E+00  0.00000000000E+00  0.74505805969E-08  0.10566000000E+00  0.10566000000E+00 0. -1.
     999900   -1    0    0    0    0 -0.00000000000E+00 -0.00000000000E+00 -0.74505805969E-08  0.93827000000E+00  0.93827000000E+00 0.  1.
     999902    2    1    2    0    0  0.22830740604E-01 -0.53683288472E-02  0.46767848876E-02  0.10200148586E+01  0.10197344644E+01 0.  0.
     999903    2    3    3    0    0  0.75989429226E-01  0.10660127352E-01  0.10618453947E+00  0.13244143526E+00  0.19430534792E-01 0.  0.
         14    1    1    2    0    0 -0.22830740604E-01  0.53683288472E-02 -0.46767848876E-02  0.23915141397E-01  0.00000000000E+00 0.  1.
     999901    1    3    3    0    0 -0.53158688622E-01 -0.16028456199E-01 -0.10150775458E+00  0.88757342334E+00  0.88000000000E+00 0.  1.
        -11    1    4    4    0    0  0.56189052900E-01 -0.69046209160E-03  0.71981784418E-01  0.91319903705E-01  0.51100000000E-03 0.  1.
         11    1    4    4    0    0  0.19800376326E-01  0.11350589443E-01  0.34202755051E-01  0.41121531555E-01  0.51100000000E-03 0. -1.
</event>
<event>
 8    1  0.1065239E+005  0.1043930E+01  0.7957747E-01            NaN
         13   -1    0    0    0    0  0.00000000000E+00  0.00000000000E+00  0.74505805969E-08  0.10566000000E+00  0.10566000000E+00 0. -1.
     999900   -1    0    0    0    0 -0.00000000000E+00 -0.00000000000E+00 -0.74505805969E-08  0.93827000000E+00  0.93827000000E+00 0. -1.
     999902    2    1    2    0    0 -0.13471134922E-01 -0.19133490501E-01 -0.66930119238E-02  0.10195915871E+01  0.10193010576E+01 0.  0.
     999903    2    3    3    0    0  0.62359589683E-01 -0.40193932700E-01 -0.10554127876E+00  0.13056694126E+00  0.20112035585E-01 0.  0.
         14    1    1    2    0    0  0.13471134922E-01  0.19133490501E-01  0.66930119238E-02  0.24338412919E-01  0.00000000000E+00 0. -1.
     999901    1    3    3    0    0 -0.75830724605E-01  0.21060442200E-01  0.98848266840E-01  0.88902464582E+00  0.88000000000E+00 0.  1.
        -11    1    4    4    0    0  0.33105153021E-01 -0.23854025118E-01 -0.74209629868E-01  0.84689408765E-01  0.51100000000E-03 0.  1.
         11    1    4    4    0    0  0.29254436662E-01 -0.16339907582E-01 -0.31331648896E-01  0.45877532494E-01  0.51100000000E-03 0. -1.
</event>
<event>
 8    1  0.1065239E+005  0.1043930E+01  0.7957747E-01            NaN
         13   -1    0    0    0    0  0.00000000000E+00  0.00000000000E+00  0.74505805969E-08  0.10566000000E+00  0.10566000000E+00 0. -1.
     999900   -1    0    0    0    0 -0.00000000000E+00 -0.00000000000E+00 -0.74505805969E-08  0.93827000000E+00  0.93827000000E+00 0.  1.
     999902    2    1    2    0    0 -0.44173949587E-02  0.22940550569E-01 -0.17085762157E-02  0.10205056223E+01  0.10202367488E+01 0.  0.
     999903    2    3    3    0    0 -0.96381918331E-01 -0.39472485019E-01 -0.76315473000E-01  0.13038256921E+00  0.18111092727E-01 0.  0.
         14    1    1    2    0    0  0.44173949587E-02 -0.22940550569E-01  0.17085762157E-02  0.23424377714E-01  0.00000000000E+00 0. -1.
     999901    1    3    3    0    0  0.91964523372E-01  0.62413035588E-01  0.74606896784E-01  0.89012305308E+00  0.88000000000E+00 0. -1.
        -11    1    4    4    0    0 -0.21209839882E-01 -0.49388044752E-02 -0.83918452291E-02  0.23343806134E-01  0.51100000000E-03 0.  1.
         11    1    4    4    0    0 -0.75172078448E-01 -0.34533680544E-01 -0.67923627770E-01  0.10703876308E+00  0.51100000000E-03 0. -1.
</event>
<event>
 7    1  0.1065239E+005  0.1043930E+01  0.7957747E-01            NaN
         13   -1    0    0    0    0  0.00000000000E+00  0.00000000000E+00  0.74505805969E-08  0.10566000000E+00  0.10566000000E+00 0.  1.
     999900   -1    0    0    0    0 -0.00000000000E+00 -0.00000000000E+00 -0.74505805969E-08  0.93827000000E+00  0.93827000000E+00 0.  1.
     999902    2    1    2    0    0  0.15450525065E-01  0.68533583817E-02 -0.12683038042E-01  0.10227983484E+01  0.10225800285E+01 0.  0.
         14    1    1    2    0    0 -0.15450525065E-01 -0.68533583817E-02  0.12683038042E-01  0.21131651612E-01  0.00000000000E+00 0.  1.
     999901    1    3    3    0    0  0.39003134842E-01 -0.45731250872E-01 -0.12456025540E+00  0.89080180122E+00  0.88000000000E+00 0.  1.
        -11    1    3    3    0    0 -0.80670910615E-02  0.40130344386E-01  0.39304830942E-01  0.56750800480E-01  0.51100000000E-03 0.  1.
         11    1    3    3    0    0 -0.15485518716E-01  0.12454264868E-01  0.72572386417E-01  0.75245746687E-01  0.51100000000E-03 0. -1.
</event>
<event>
 8    1  0.1065239E+005  0.1043930E+01  0.7957747E-01            NaN
         13   -1    0    0    0    0  0.00000000000E+00  0.00000000000E+00  0.74505805969E-08  0.10566000000E+00  0.10566000000E+00 0. -1.
     999900   -1    0    0    0    0 -0.00000000000E+00 -0.00000000000E+00 -0.74505805969E-08  0.93827000000E+00  0.93827000000E+00 0.  1.
     999902    2    1    2    0    0  0.21670244506E-01 -0.35883372502E-02  0.43041707277E-02  0.10215469362E+01  0.10213016896E+01 0.  0.
     999903    2    3    3    0    0 -0.57850722532E-01 -0.11276873076E+00 -0.25941322983E-01  0.13072780053E+00  0.18796618257E-01 0.  0.
         14    1    1    2    0    0 -0.21670244506E-01  0.35883372502E-02 -0.43041707277E-02  0.22383063839E-01  0.00000000000E+00 0.  1.
     999901    1    3    3    0    0  0.79520967037E-01  0.10918039351E+00  0.30245493711E-01  0.89081913564E+00  0.88000000000E+00 0. -1.
        -11    1    4    4    0    0 -0.42217848591E-01 -0.72386439188E-01 -0.24856747231E-01  0.87408594096E-01  0.51100000000E-03 0. -1.
         11    1    4    4    0    0 -0.15632873941E-01 -0.40382291570E-01 -0.10845757518E-02  0.43319206430E-01  0.51100000000E-03 0.  1.
</event>
<event>
 8    1  0.1065239E+005  0.1043930E+01  0.7957747E-01            NaN
         13   -1    0    0    0    0  0.00000000000E+00  0.00000000000E+00  0.74505805969E-08  0.10566000000E+00  0.10566000000E+00 0. -1.
     999900   -1    0    0    0    0 -0.00000000000E+00 -0.00000000000E+00 -0.74505805969E-08  0.93827000000E+00  0.93827000000E+00 0.  1.
     999902    2    1    2    0    0  0.85470446726E-02  0.23176589428E-02 -0.23342931115E-01  0.10189637037E+01  0.10186578001E+01 0.  0.
     999903    2    3    3    0    0 -0.10109945428E+00  0.71521039055E-01  0.26206046435E-01  0.12808404648E+00  0.19555239941E-01 0.  0.
         14    1    1    2    0    0 -0.85470446726E-02 -0.23176589428E-02  0.23342931115E-01  0.24966296254E-01  0.00000000000E+00 0. -1.
     999901    1    3    3    0    0  0.10964649896E+00 -0.69203380112E-01 -0.49548977550E-01  0.89087965727E+00  0.88000000000E+00 0. -1.
        -11    1    4    4    0    0 -0.40362124436E-01  0.38747132591E-01  0.66307748646E-02  0.56344207060E-01  0.51100000000E-03 0.  1.
         11    1    4    4    0    0 -0.60737329848E-01  0.32773906464E-01  0.19575271571E-01  0.71739839421E-01  0.51100000000E-03 0. -1.
</event>
<event>
 8    1  0.1065239E+005  0.1043930E+01  0.7957747E-01            NaN
         13   -1    0    0    0    0  0.00000000000E+00  0.00000000000E+00  0.74505805969E-08  0.10566000000E+00  0.10566000000E+00 0.  1.
     999900   -1    0    0    0    0 -0.00000000000E+00 -0.00000000000E+00 -0.74505805969E-08  0.93827000000E+00  0.93827000000E+00 0. -1.
     999902    2    1    2    0    0  0.16213474098E-01  0.84201836460E-02 -0.14048381009E-01  0.10208836718E+01  0.10206235046E+01 0.  0.
     999903    2    3    3    0    0 -0.41840559030E-01 -0.11861410196E+00 -0.25067650225E-01  0.12980039579E+00  0.19995451860E-01 0.  0.
         14    1    1    2    0    0 -0.16213474098E-01 -0.84201836460E-02  0.14048381009E-01  0.23046328209E-01  0.00000000000E+00 0.  1.
     999901    1    3    3    0    0  0.58054033128E-01  0.12703428560E+00  0.11019269216E-01  0.89108327600E+00  0.88000000000E+00 0.  1.
        -11    1    4    4    0    0 -0.14751425881E-01 -0.57602558433E-01 -0.20458242919E-01  0.62884498311E-01  0.51100000000E-03 0.  1.
         11    1    4    4    0    0 -0.27089133150E-01 -0.61011543525E-01 -0.46094073060E-02  0.66915897475E-01  0.51100000000E-03 0. -1.
</event>
<event>
 8    1  0.1065239E+005  0.1043930E+01  0.7957747E-01            NaN
         13   -1    0    0    0    0  0.00000000000E+00  0.00000000000E+00  0.74505805969E-08  0.10566000000E+00  0.10566000000E+00 0.  1.
     999900   -1    0    0    0    0 -0.00000000000E+00 -0.00000000000E+00 -0.74505805969E-08  0.93827000000E+00  0.93827000000E+00 0. -1.
     999902    2    1    2    0    0 -0.81670432164E-02 -0.16447752922E-01  0.13991151965E-01  0.10208436078E+01  0.10205825249E+01 0.  0.
     999903    2    3    3    0    0  0.62468314619E-01  0.55853104129E-01 -0.95174240337E-01  0.12835615659E+00  0.19882337352E-01 0.  0.
         14    1    1    2    0    0  0.81670432164E-02  0.16447752922E-01 -0.13991151965E-01  0.23086392191E-01  0.00000000000E+00 0. -1.
     999901    1    3    3    0    0 -0.70635357836E-01 -0.72300857051E-01  0.10916539230E+00  0.89248745122E+00  0.88000000000E+00 0.  1.
        -11    1    4    4    0    0  0.54795898612E-01  0.38012117049E-01 -0.73194525011E-01  0.99021266200E-01  0.51100000000E-03 0.  1.
         11    1    4    4    0    0  0.76724160075E-02  0.17840987081E-01 -0.21979715326E-01  0.29334890390E-01  0.51100000000E-03 0. -1.
</event>
<event>
 8    1  0.1065239E+005  0.1043930E+01  0.7957747E-01            NaN
         13   -1    0    0    0    0  0.00000000000E+00  0.00000000000E+00  0.74505805969E-08  0.10566000000E+00  0.10566000000E+00 0. -1.
     999900   -1    0    0    0    0 -0.00000000000E+00 -0.00000000000E+00 -0.74505805969E-08  0.93827000000E+00  0.93827000000E+00 0.  1.
     999902    2    1    2    0    0 -0.71042310511E-02  0.16127999915E-01 -0.17461123981E-01  0.10191212650E+01  0.10188192575E+01 0.  0.
     999903    2    3    3    0    0  0.98158853429E-01 -0.36652686262E-01 -0.73575941581E-01  0.12950618504E+00  0.19489814465E-01 0.  0.
         14    1    1    2    0    0  0.71042310511E-02 -0.16127999915E-01  0.17461123981E-01  0.24808734969E-01  0.00000000000E+00 0. -1.
     999901    1    3    3    0    0 -0.10526308448E+00  0.52780686178E-01  0.56114817600E-01  0.88961507999E+00  0.88000000000E+00 0. -1.
        -11    1    4    4    0    0  0.54117191480E-01 -0.18998979074E-01 -0.51844129003E-01  0.77315628773E-01  0.51100000000E-03 0. -1.
         11    1    4    4    0    0  0.44041661950E-01 -0.17653707189E-01 -0.21731812579E-01  0.52190556270E-01  0.51100000000E-03 0.  1.
</event>
<event>
 8    1  0.1065239E+005  0.1043930E+01  0.7957747E-01            NaN
         13   -1    0    0    0    0  0.00000000000E+00  0.00000000000E+00  0.74505805969E-08  0.10566000000E+00  0.10566000000E+00 0.  1.
     999900   -1    0    0    0    0 -0.00000000000E+00 -0.00000000000E+00 -0.74505805969E-08  0.93827000000E+00  0.93827000000E+00 0. -1.
     999902    2    1    2    0    0  0.73598936598E-02  0.53671715420E-02  0.20400564926E-01  0.10215881645E+01  0.10213438305E+01 0.  0.
     999903    2    3    3    0    0  0.60297519884E-01 -0.10778808229E+00  0.43512855798E-01  0.13246461754E+00  0.19986112482E-01 0.  0.
         14    1    1    2    0    0 -0.73598936598E-02 -0.53671715420E-02 -0.20400564926E-01  0.22341835519E-01  0.00000000000E+00 0. -1.
     999901    1    3    3    0    0 -0.52937626224E-01  0.11315525383E+00 -0.23112290872E-01  0.88912354694E+00  0.88000000000E+00 0.  1.
        -11    1    4    4    0    0  0.43097751863E-01 -0.88414379529E-01  0.28017769810E-01  0.10227304273E+00  0.51100000000E-03 0.  1.
         11    1    4    4    0    0  0.17199768021E-01 -0.19373702759E-01  0.15495085988E-01  0.30191574807E-01  0.51100000000E-03 0. -1.
</event>
<event>
 8    1  0.1065239E+005  0.1043930E+01  0.7957747E-01            NaN
         13   -1    0    0    0    0  0.00000000000E+00  0.00000000000E+00  0.74505805969E-08  0.10566000000E+00  0.10566000000E+00 0.  1.
     999900   -1    0    0    0    0 -0.00000000000E+00 -0.00000000000E+00 -0.74505805969E-08  0.93827000000E+00  0.93827000000E+00 0. -1.
     999902    2    1    2    0    0  0.18862576206E-01 -0.80248069221E-02 -0.90443126140E-02  0.10215247797E+01  0.10212790420E+01 0.  0.
     999903    2    3    3    0    0 -0.12772528322E+00 -0.13615195829E-02  0.22985864018E-02  0.12930223945E+00  0.19954546316E-01 0.  0.
         14    1    1    2    0    0 -0.18862576206E-01  0.80248069221E-02  0.90443126140E-02  0.22405220327E-01  0.00000000000E+00 0.  1.
     999901    1    3    3    0    0  0.14658785942E+00 -0.66632873391E-02 -0.11342899016E-01  0.89222254023E+00  0.88000000000E+00 0. -1.
        -11    1    4    4    0    0 -0.59986910212E-01  0.91236866361E-02  0.29769283376E-02  0.60751907608E-01  0.51100000000E-03 0.  1.
         11    1    4    4    0    0 -0.67738373003E-01 -0.10485206219E-01 -0.67834193582E-03  0.68550331839E-01  0.51100000000E-03 0. -1.
</event>
<event>
 8    1  0.1065239E+005  0.1043930E+01  0.7957747E-01            NaN
         13   -1    0    0    0    0  0.00000000000E+00  0.00000000000E+00  0.74505805969E-08  0.10566000000E+00  0.10566000000E+00 0.  1.
     999900   -1    0    0    0    0 -0.00000000000E+00 -0.00000000000E+00 -0.74505805969E-08  0.93827000000E+00  0.93827000000E+00 0. -1.
     999902    2    1    2    0    0 -0.66466115704E-02 -0.17423224644E-01 -0.14954109541E-01  0.10200266196E+01  0.10197465043E+01 0.  0.
     999903    2    3    3    0    0  0.71079193715E-01 -0.59726490676E-01 -0.92075242962E-01  0.13223242253E+00  0.19699181079E-01 0.  0.
         14    1    1    2    0    0  0.66466115704E-02  0.17423224644E-01  0.14954109541E-01  0.23903380399E-01  0.00000000000E+00 0.  1.
     999901    1    3    3    0    0 -0.77725805286E-01  0.42303266032E-01  0.77121133421E-01  0.88779419707E+00  0.88000000000E+00 0.  1.
        -11    1    4    4    0    0  0.56863853400E-01 -0.36276214906E-01 -0.63956200211E-01  0.92952236433E-01  0.51100000000E-03 0. -1.
         11    1    4    4    0    0  0.14215340315E-01 -0.23450275770E-01 -0.28119042751E-01  0.39280186102E-01  0.51100000000E-03 0.  1.
</event>
<event>
 8    1  0.1065239E+005  0.1043930E+01  0.7957747E-01            NaN
         13   -1    0    0    0    0  0.00000000000E+00  0.00000000000E+00  0.74505805969E-08  0.10566000000E+00  0.10566000000E+00 0. -1.
     999900   -1    0    0    0    0 -0.00000000000E+00 -0.00000000000E+00 -0.74505805969E-08  0.93827000000E+00  0.93827000000E+00 0. -1.
     999902    2    1    2    0    0 -0.95282044383E-02 -0.11789689625E-02 -0.21760724317E-01  0.10201454300E+01  0.10198681251E+01 0.  0.
     999903    2    3    3    0    0 -0.17894073702E-01 -0.12611251441E+00 -0.24549544397E-01  0.13127752301E+00  0.20162930177E-01 0.  0.
         14    1    1    2    0    0  0.95282044383E-02  0.11789689625E-02  0.21760724317E-01  0.23784570008E-01  0.00000000000E+00 0. -1.
     999901    1    3    3    0    0  0.83658692635E-02  0.12493354545E+00  0.27888200802E-02  0.88886790698E+00  0.88000000000E+00 0. -1.
        -11    1    4    4    0    0 -0.67329098514E-02 -0.99931116737E-01 -0.15139373073E-01  0.10129670234E+00  0.51100000000E-03 0. -1.
         11    1    4    4    0    0 -0.11161163850E-01 -0.26181397672E-01 -0.94101713250E-02  0.29980820668E-01  0.51100000000E-03 0.  1.
</event>
<event>
 8    1  0.1065239E+005  0.1043930E+01  0.7957747E-01            NaN
         13   -1    0    0    0    0  0.00000000000E+00  0.00000000000E+00  0.74505805969E-08  0.10566000000E+00  0.10566000000E+00 0.  1.
     999900   -1    0    0    0    0 -0.00000000000E+00 -0.00000000000E+00 -0.74505805969E-08  0.93827000000E+00  0.93827000000E+00 0. -1.
     999902    2    1    2    0    0 -0.12823927913E-02 -0.21843220150E-01 -0.80607633783E-02  0.10206116230E+01  0.10203452055E+01 0.  0.
     999903    2    3    3    0    0  0.30471052724E-02 -0.80320922780E-01 -0.10397192684E+00  0.13346037464E+00  0.23254559616E-01 0.  0.
         14    1    1    2    0    0  0.12823927913E-02  0.21843220150E-01  0.80607633783E-02  0.23318376960E-01  0.00000000000E+00 0.  1.
     999901    1    3    3    0    0 -0.43294980637E-02  0.58477702630E-01  0.95911163458E-01  0.88715124840E+00  0.88000000000E+00 0.  1.
        -11    1    4    4    0    0  0.12169796200E-01 -0.35881933949E-01 -0.53963445111E-01  0.65938847827E-01  0.51100000000E-03 0.  1.
         11    1    4    4    0    0 -0.91226909274E-02 -0.44438988831E-01 -0.50008481725E-01  0.67521526815E-01  0.51100000000E-03 0. -1.
</event>
<event>
 8    1  0.1065239E+005  0.1043930E+01  0.7957747E-01            NaN
         13   -1    0    0    0    0  0.00000000000E+00  0.00000000000E+00  0.74505805969E-08  0.10566000000E+00  0.10566000000E+00 0.  1.
     999900   -1    0    0    0    0 -0.00000000000E+00 -0.00000000000E+00 -0.74505805969E-08  0.93827000000E+00  0.93827000000E+00 0.  1.
     999902    2    1    2    0    0 -0.18629670015E-01  0.10857748606E-01  0.94138360482E-02  0.10204018123E+01  0.10201305224E+01 0.  0.
     999903    2    3    3    0    0  0.12430946358E+00 -0.23831466851E-01  0.34309325515E-02  0.12817385219E+00  0.19899335106E-01 0.  0.
         14    1    1    2    0    0  0.18629670015E-01 -0.10857748606E-01 -0.94138360482E-02  0.23528187750E-01  0.00000000000E+00 0. -1.
     999901    1    3    3    0    0 -0.14293913360E+00  0.34689215457E-01  0.59829034967E-02  0.89222796006E+00  0.88000000000E+00 0. -1.
        -11    1    4    4    0    0  0.19526883946E-01  0.33012014239E-02 -0.10823238479E-02  0.19840102656E-01  0.51100000000E-03 0.  1.
         11    1    4    4    0    0  0.10478257964E+00 -0.27132668275E-01  0.45132563994E-02  0.10833374953E+00  0.51100000000E-03 0. -1.
</event>
<event>
 8    1  0.1065239E+005  0.1043930E+01  0.7957747E-01            NaN
         13   -1    0    0    0    0  0.00000000000E+00  0.00000000000E+00  0.74505805969E-08  0.10566000000E+00  0.10566000000E+00 0. -1.
     999900   -1    0    0    0    0 -0.00000000000E+00 -0.00000000000E+00 -0.74505805969E-08  0.93827000000E+00  0.93827000000E+00 0. -1.
     999902    2    1    2    0    0  0.21970112501E-01  0.27888328247E-02 -0.57739909145E-02  0.10210432702E+01  0.10207867344E+01 0.  0.
     999903    2    3    3    0    0  0.36985569105E-01 -0.12029730006E+00  0.31920270864E-01  0.13155098946E+00  0.21151510906E-01 0.  0.
         14    1    1    2    0    0 -0.21970112501E-01 -0.27888328247E-02  0.57739909145E-02  0.22886729844E-01  0.00000000000E+00 0.  1.
     999901    1    3    3    0    0 -0.15015456603E-01  0.12308613288E+00 -0.37694261778E-01  0.88949228069E+00  0.88000000000E+00 0. -1.
        -11    1    4    4    0    0  0.28488774465E-01 -0.58546053365E-01  0.12885102294E-01  0.66374224043E-01  0.51100000000E-03 0.  1.
         11    1    4    4    0    0  0.84967946398E-02 -0.61751246691E-01  0.19035168569E-01  0.65176765419E-01  0.51100000000E-03 0. -1.
</event>
<event>
 7    1  0.1065239E+005  0.1043930E+01  0.7957747E-01            NaN
         13   -1    0    0    0    0  0.00000000000E+00  0.00000000000E+00  0.74505805969E-08  0.10566000000E+00  0.10566000000E+00 0.  1.
     999900   -1    0    0    0    0 -0.00000000000E+00 -0.00000000000E+00 -0.74505805969E-08  0.93827000000E+00  0.93827000000E+00 0. -1.
     999903    2    1    2    0    0 -0.75498015956E-01  0.80756386266E-01  0.79756704124E-02  0.11214646340E+00  0.17078454187E-01 0.  0.
         14    1    1    2    0    0 -0.34261377785E-01 -0.11402330486E-01  0.21026006947E-01  0.41784543989E-01  0.00000000000E+00 0.  1.
     999901    1    1    2    0    0  0.10975939374E+00 -0.69354055780E-01 -0.29001677360E-01  0.88999899262E+00  0.88000000000E+00 0. -1.
        -11    1    3    3    0    0 -0.21766727272E-01  0.13154509541E-01  0.34650774545E-02  0.25672931662E-01  0.51100000000E-03 0. -1.
         11    1    3    3    0    0 -0.53731288685E-01  0.67601876725E-01  0.45105929579E-02  0.86473531733E-01  0.51100000000E-03 0.  1.
</event>
<event>
 8    1  0.1065239E+005  0.1043930E+01  0.7957747E-01            NaN
         13   -1    0    0    0    0  0.00000000000E+00  0.00000000000E+00  0.74505805969E-08  0.10566000000E+00  0.10566000000E+00 0.  1.
     999900   -1    0    0    0    0 -0.00000000000E+00 -0.00000000000E+00 -0.74505805969E-08  0.93827000000E+00  0.93827000000E+00 0.  1.
     999902    2    1    2    0    0 -0.52103644175E-02  0.12805024895E-01  0.18612405728E-01  0.10207451298E+01  0.10204817890E+01 0.  0.
     999903    2    3    3    0    0  0.88114812195E-01  0.92236181685E-01  0.29663804534E-01  0.13218391598E+00  0.17914044902E-01 0.  0.
         14    1    1    2    0    0  0.52103644175E-02 -0.12805024895E-01 -0.18612405728E-01  0.23184870216E-01  0.00000000000E+00 0. -1.
     999901    1    3    3    0    0 -0.93325176612E-01 -0.79431156790E-01 -0.11051398806E-01  0.88856121380E+00  0.88000000000E+00 0. -1.
        -11    1    4    4    0    0  0.78782591156E-01  0.87988561618E-01  0.30193785912E-01  0.12190409949E+00  0.51100000000E-03 0.  1.
         11    1    4    4    0    0  0.93322210386E-02  0.42476200677E-02 -0.52998137720E-03  0.10279816487E-01  0.51100000000E-03 0. -1.
</event>
<event>
 8    1  0.1065239E+005  0.1043930E+01  0.7957747E-01            NaN
         13   -1    0    0    0    0  0.00000000000E+00  0.00000000000E+00  0.74505805969E-08  0.10566000000E+00  0.10566000000E+00 0. -1.
     999900   -1    0    0    0    0 -0.00000000000E+00 -0.00000000000E+00 -0.74505805969E-08  0.93827000000E+00  0.93827000000E+00 0.  1.
     999902    2    1    2    0    0  0.11755355949E-01 -0.75996191726E-02  0.19834065038E-01  0.10196538236E+01  0.10193647960E+01 0.  0.
     999903    2    3    3    0    0 -0.66303377242E-01 -0.11349991633E-01 -0.10610963463E+00  0.12725870561E+00  0.20262365300E-01 0.  0.
         14    1    1    2    0    0 -0.11755355949E-01  0.75996191726E-02 -0.19834065038E-01  0.24276176408E-01  0.00000000000E+00 0.  1.
     999901    1    3    3    0    0  0.78058733191E-01  0.37503724604E-02  0.12594369967E+00  0.89239511799E+00  0.88000000000E+00 0. -1.
        -11    1    4    4    0    0 -0.15212407562E-01  0.29375335262E-02 -0.13630064220E-01  0.20641855989E-01  0.51100000000E-03 0.  1.
         11    1    4    4    0    0 -0.51090969680E-01 -0.14287525159E-01 -0.92479570409E-01  0.10661684962E+00  0.51100000000E-03 0. -1.
</event>
<event>
 8    1  0.1065239E+005  0.1043930E+01  0.7957747E-01            NaN
         13   -1    0    0    0    0  0.00000000000E+00  0.00000000000E+00  0.74505805969E-08  0.10566000000E+00  0.10566000000E+00 0.  1.
     999900   -1    0    0    0    0 -0.00000000000E+00 -0.00000000000E+00 -0.74505805969E-08  0.93827000000E+00  0.93827000000E+00 0.  1.
     999902    2    1    2    0    0 -0.18934154573E-01 -0.74866766241E-02  0.11818174650E-01  0.10203880844E+01  0.10201164743E+01 0.  0.
     999903    2    3    3    0    0  0.70319992213E-01 -0.68586810743E-01  0.83828345801E-01  0.13084607090E+00  0.21082001712E-01 0.  0.
         14    1    1    2    0    0  0.18934154573E-01  0.74866766241E-02 -0.11818174650E-01  0.23541915562E-01  0.00000000000E+00 0. -1.
     999901    1    3    3    0    0 -0.89254146787E-01  0.61100134119E-01 -0.72010171151E-01  0.88954201354E+00  0.88000000000E+00 0. -1.
        -11    1    4    4    0    0  0.18975844336E-01 -0.20601854274E-01  0.12382353015E-01  0.30628464783E-01  0.51100000000E-03 0. -1.
         11    1    4    4    0    0  0.51344147878E-01 -0.47984956469E-01  0.71445992786E-01  0.10021760611E+00  0.51100000000E-03 0.  1.
</event>
<event>
 8    1  0.1065239E+005  0.1043930E+01  0.7957747E-01            NaN
         13   -1    0    0    0    0  0.00000000000E+00  0.00000000000E+00  0.74505805969E-08  0.10566000000E+00  0.10566000000E+00 0.  1.
     999900   -1    0    0    0    0 -0.00000000000E+00 -0.00000000000E+00 -0.74505805969E-08  0.93827000000E+00  0.93827000000E+00 0. -1.
     999902    2    1    2    0    0  0.12346485647E-01  0.20158444028E-01 -0.28869917667E-02  0.10201154394E+01  0.10198374265E+01 0.  0.
     999903    2    3    3    0    0  0.78131670514E-01 -0.28195939226E-01  0.98656407479E-01  0.13052176879E+00  0.20081744551E-01 0.  0.
         14    1    1    2    0    0 -0.12346485647E-01 -0.20158444028E-01  0.28869917667E-02  0.23814560565E-01  0.00000000000E+00 0. -1.
     999901    1    3    3    0    0 -0.65785184867E-01  0.48354383253E-01 -0.10154339925E+00  0.88959367065E+00  0.88000000000E+00 0. -1.
        -11    1    4    4    0    0  0.68218075386E-01 -0.17435862014E-01  0.76566957866E-01  0.10402151341E+00  0.51100000000E-03 0. -1.
         11    1    4    4    0    0  0.99135951278E-02 -0.10760077212E-01  0.22089449613E-01  0.26500255380E-01  0.51100000000E-03 0.  1.
</event>
<event>
 8    1  0.1065239E+005  0.1043930E+01  0.7957747E-01            NaN
         13   -1    0    0    0    0  0.00000000000E+00  0.00000000000E+00  0.74505805969E-08  0.10566000000E+00  0.10566000000E+00 0.  1.
     999900   -1    0    0    0    0 -0.00000000000E+00 -0.00000000000E+00 -0.74505805969E-08  0.93827000000E+00  0.93827000000E+00 0.  1.
     999902    2    1    2    0    0  0.86745071688E-03 -0.20955154709E-02  0.20832868458E-01  0.10229740447E+01  0.10227593774E+01 0.  0.
     999903    2    3    3    0    0  0.68395386578E-01 -0.52081039579E-01 -0.97395679449E-01  0.13110154016E+00  0.17644598870E-01 0.  0.
         14    1    1    2    0    0 -0.86745071688E-03  0.20955154709E-02 -0.20832868458E-01  0.20955955336E-01  0.00000000000E+00 0. -1.
     999901    1    3    3    0    0 -0.67527935861E-01  0.49985524108E-01  0.11822854791E+00  0.89187250450E+00  0.88000000000E+00 0. -1.
        -11    1    4    4    0    0  0.17306646676E-01 -0.19412766349E-01 -0.20197875747E-01  0.32933126517E-01  0.51100000000E-03 0. -1.
         11    1    4    4    0    0  0.51088739902E-01 -0.32668273230E-01 -0.77197803702E-01  0.98168413647E-01  0.51100000000E-03 0.  1.
</event>
<event>
 8    1  0.1065239E+005  0.1043930E+01  0.7957747E-01            NaN
         13   -1    0    0    0    0  0.00000000000E+00  0.00000000000E+00  0.74505805969E-08  0.10566000000E+00  0.10566000000E+00 0.  1.
     999900   -1    0    0    0    0 -0.00000000000E+00 -0.00000000000E+00 -0.74505805969E-08  0.93827000000E+00  0.93827000000E+00 0. -1.
     999902    2    1    2    0    0  0.16439750574E-01  0.96274281276E-02  0.14026460164E-01  0.10202721397E+01  0.10199978160E+01 0.  0.
     999903    2    3    3    0    0  0.10427340875E+00 -0.58640064224E-01  0.53061460609E-01  0.13241013840E+00  0.20132690939E-01 0.  0.
         14    1    1    2    0    0 -0.16439750574E-01 -0.96274281276E-02 -0.14026460164E-01  0.23657860343E-01  0.00000000000E+00 0. -1.
     999901    1    3    3    0    0 -0.87833658174E-01  0.68267492352E-01 -0.39035000445E-01  0.88786200126E+00  0.88000000000E+00 0. -1.
        -11    1    4    4    0    0  0.10177349471E+00 -0.55080341428E-01  0.46935387194E-01  0.12487946160E+00  0.51100000000E-03 0. -1.
         11    1    4    4    0    0  0.24999140414E-02 -0.35597227964E-02  0.61260734147E-02  0.75306768012E-02  0.51100000000E-03 0.  1.
</event>
<event>
 8    1  0.1065239E+005  0.1043930E+01  0.7957747E-01            NaN
         13   -1    0    0    0    0  0.00000000000E+00  0.00000000000E+00  0.74505805969E-08  0.10566000000E+00  0.10566000000E+00 0. -1.
     999900   -1    0    0    0    0 -0.00000000000E+00 -0.00000000000E+00 -0.74505805969E-08  0.93827000000E+00  0.93827000000E+00 0.  1.
     999902    2    1    2    0    0 -0.21187596785E-01 -0.25454229859E-02 -0.97884935910E-02  0.10204521798E+01  0.10201820637E+01 0.  0.
     999903    2    3    3    0    0  0.49833595818E-01 -0.98671302044E-01  0.64219515841E-01  0.12929485366E+00  0.19328731195E-01 0.  0.
         14    1    1    2    0    0  0.21187596785E-01  0.25454229859E-02  0.97884935910E-02  0.23477820225E-01  0.00000000000E+00 0. -1.
     999901    1    3    3    0    0 -0.71021192604E-01  0.96125879058E-01 -0.74008009432E-01  0.89115732611E+00  0.88000000000E+00 0.  1.
        -11    1    4    4    0    0  0.35061070387E-01 -0.48281071710E-01  0.35753330581E-01  0.69562218990E-01  0.51100000000E-03 0.  1.
         11    1    4    4    0    0  0.14772525432E-01 -0.50390230334E-01  0.28466185260E-01  0.59732634673E-01  0.51100000000E-03 0. -1.
</event>
<event>
 8    1  0.1065239E+005  0.1043930E+01  0.7957747E-01            NaN
         13   -1    0    0    0    0  0.00000000000E+00  0.00000000000E+00  0.74505805969E-08  0.10566000000E+00  0.10566000000E+00 0.  1.
     999900   -1    0    0    0    0 -0.00000000000E+00 -0.00000000000E+00 -0.74505805969E-08  0.93827000000E+00  0.93827000000E+00 0.  1.
     999902    2    1    2    0    0  0.62524962634E-02  0.22482122357E-01 -0.35738505847E-02  0.10203225448E+01  0.10200494024E+01 0.  0.
     999903    2    3    3    0    0  0.12915439351E+00  0.15620975817E-01  0.26723679475E-02  0.13173323190E+00  0.20533645226E-01 0.  0.
         14    1    1    2    0    0 -0.62524962634E-02 -0.22482122357E-01  0.35738505847E-02  0.23607455246E-01  0.00000000000E+00 0.  1.
     999901    1    3    3    0    0 -0.12290189725E+00  0.68611465398E-02 -0.62462185322E-02  0.88858931286E+00  0.88000000000E+00 0.  1.
        -11    1    4    4    0    0  0.91471281012E-01  0.14071348364E-01  0.10714957081E-01  0.93166890691E-01  0.51100000000E-03 0.  1.
         11    1    4    4    0    0  0.37683112501E-01  0.15496274528E-02 -0.80425891339E-02  0.38566341205E-01  0.51100000000E-03 0. -1.
</event>
<event>
 8    1  0.1065239E+005  0.1043930E+01  0.7957747E-01            NaN
         13   -1    0    0    0    0  0.00000000000E+00  0.00000000000E+00  0.74505805969E-08  0.10566000000E+00  0.10566000000E+00 0.  1.
     999900   -1    0    0    0    0 -0.00000000000E+00 -0.00000000000E+00 -0.74505805969E-08  0.93827000000E+00  0.93827000000E+00 0. -1.
     999902    2    1    2    0    0 -0.35908319728E-02  0.22645266624E-01 -0.65411842878E-02  0.10200869870E+01  0.10198083015E+01 0.  0.
     999903    2    3    3    0    0  0.39527707966E-01 -0.23215368269E-01  0.11888290076E+00  0.12896768671E+00  0.19953122641E-01 0.  0.
         14    1    1    2    0    0  0.35908319728E-02 -0.22645266624E-01  0.65411842878E-02  0.23843012952E-01  0.00000000000E+00 0.  1.
     999901    1    3    3    0    0 -0.43118539938E-01  0.45860634893E-01 -0.12542408504E+00  0.89111930033E+00  0.88000000000E+00 0. -1.
        -11    1    4    4    0    0  0.29590015335E-01 -0.25990272710E-01  0.88271070629E-01  0.96659745055E-01  0.51100000000E-03 0.  1.
         11    1    4    4    0    0  0.99376926311E-02  0.27749044409E-02  0.30611830128E-01  0.32307941659E-01  0.51100000000E-03 0. -1.
</event>
<event>
 8    1  0.1065239E+005  0.1043930E+01  0.7957747E-01            NaN
         13   -1    0    0    0    0  0.00000000000E+00  0.00000000000E+00  0.74505805969E-08  0.10566000000E+00  0.10566000000E+00 0. -1.
     999900   -1    0    0    0    0 -0.00000000000E+00 -0.00000000000E+00 -0.74505805969E-08  0.93827000000E+00  0.93827000000E+00 0. -1.
     999902    2    1    2    0    0  0.23409454012E-01  0.96786442004E-02  0.60567736536E-02  0.10178845935E+01  0.10175513169E+01 0.  0.
     999903    2    3    3    0    0  0.36652945629E-01  0.11970276102E+00 -0.23810989205E-01  0.13043162036E+00  0.27807462346E-01 0.  0.
         14    1    1    2    0    0 -0.23409454012E-01 -0.96786442004E-02 -0.60567736536E-02  0.26045406462E-01  0.00000000000E+00 0.  1.
     999901    1    3    3    0    0 -0.13243491617E-01 -0.11002411682E+00  0.29867762858E-01  0.88745297318E+00  0.88000000000E+00 0.  1.
        -11    1    4    4    0    0  0.36933224417E-01  0.77331125704E-01 -0.12814266110E-01  0.86652366415E-01  0.51100000000E-03 0. -1.
         11    1    4    4    0    0 -0.28027878815E-03  0.42371635318E-01 -0.10996723094E-01  0.43779253940E-01  0.51100000000E-03 0.  1.
</event>
<event>
 8    1  0.1065239E+005  0.1043930E+01  0.7957747E-01            NaN
         13   -1    0    0    0    0  0.00000000000E+00  0.00000000000E+00  0.74505805969E-08  0.10566000000E+00  0.10566000000E+00 0. -1.
     999900   -1    0    0    0    0 -0.00000000000E+00 -0.00000000000E+00 -0.74505805969E-08  0.93827000000E+00  0.93827000000E+00 0.  1.
     999902    2    1    2    0    0  0.10688847994E-01 -0.12180296334E-01  0.16524134946E-01  0.10207857107E+01  0.10205233016E+01 0.  0.
     999903    2    3    3    0    0  0.66323409453E-01  0.95327859130E-01  0.57529066027E-01  0.13155311332E+00  0.22592760308E-01 0.  0.
         14    1    1    2    0    0 -0.10688847994E-01  0.12180296334E-01 -0.16524134946E-01  0.23144289273E-01  0.00000000000E+00 0.  1.
     999901    1    3    3    0    0 -0.55634561459E-01 -0.10750815546E+00 -0.41004931080E-01  0.88923259741E+00  0.88000000000E+00 0. -1.
        -11    1    4    4    0    0  0.40186582101E-01  0.72640788497E-01  0.46874216686E-01  0.95336765444E-01  0.51100000000E-03 0. -1.
         11    1    4    4    0    0  0.26136827352E-01  0.22687070633E-01  0.10654849340E-01  0.36216347875E-01  0.51100000000E-03 0.  1.
</event>
<event>
 8    1  0.1065239E+005  0.1043930E+01  0.7957747E-01            NaN
         13   -1    0    0    0    0  0.00000000000E+00  0.00000000000E+00  0.74505805969E-08  0.10566000000E+00  0.10566000000E+00 0. -1.
     999900   -1    0    0    0    0 -0.00000000000E+00 -0.00000000000E+00 -0.74505805969E-08  0.93827000000E+00  0.93827000000E+00 0. -1.
     999902    2    1    2    0    0 -0.42965393038E-02  0.32368227332E-02 -0.22778319090E-01  0.10205251054E+01  0.10202566842E+01 0.  0.
     999903    2    3    3    0    0  0.10219097572E+00 -0.31567919846E-01  0.68072596186E-01  0.12878251373E+00  0.22616993834E-01 0.  0.
         14    1    1    2    0    0  0.42965393038E-02 -0.32368227332E-02  0.22778319090E-01  0.23404894616E-01  0.00000000000E+00 0. -1.
     999901    1    3    3    0    0 -0.10648751502E+00  0.34804742579E-01 -0.90850915276E-01  0.89174259165E+00  0.88000000000E+00 0. -1.
        -11    1    4    4    0    0  0.85705519685E-01 -0.32671540326E-01  0.50702380305E-01  0.10480390327E+00  0.51100000000E-03 0.  1.
         11    1    4    4    0    0  0.16485456032E-01  0.11036204803E-02  0.17370215880E-01  0.23978610458E-01  0.51100000000E-03 0. -1.
</event>
<event>
 8    1  0.1065239E+005  0.1043930E+01  0.7957747E-01            NaN
         13   -1    0    0    0    0  0.00000000000E+00  0.00000000000E+00  0.74505805969E-08  0.10566000000E+00  0.10566000000E+00 0. -1.
     999900   -1    0    0    0    0 -0.00000000000E+00 -0.00000000000E+00 -0.74505805969E-08  0.93827000000E+00  0.93827000000E+00 0.  1.
     999902    2    1    2    0    0 -0.45539039429E-02 -0.23366666653E-01 -0.32689934797E-02  0.10199003211E+01  0.10196172024E+01 0.  0.
     999903    2    3    3    0    0 -0.37468888511E-03 -0.11520240471E+00 -0.63719944251E-01  0.13304881936E+00  0.19235971369E-01 0.  0.
         14    1    1    2    0    0  0.45539039429E-02  0.23366666653E-01  0.32689934797E-02  0.24029678940E-01  0.00000000000E+00 0. -1.
     999901    1    3    3    0    0 -0.41792150578E-02  0.91835738056E-01  0.60450950771E-01  0.88685150170E+00  0.88000000000E+00 0. -1.
        -11    1    4    4    0    0 -0.64931235836E-03 -0.24828768488E-01 -0.23252460095E-01  0.34026862515E-01  0.51100000000E-03 0.  1.
         11    1    4    4    0    0  0.27462347324E-03 -0.90373636221E-01 -0.40467484156E-01  0.99021956842E-01  0.51100000000E-03 0. -1.
</event>
<event>
 8    1  0.1065239E+005  0.1043930E+01  0.7957747E-01            NaN
         13   -1    0    0    0    0  0.00000000000E+00  0.00000000000E+00  0.74505805969E-08  0.10566000000E+00  0.10566000000E+00 0.  1.
     999900   -1    0    0    0    0 -0.00000000000E+00 -0.00000000000E+00 -0.74505805969E-08  0.93827000000E+00  0.93827000000E+00 0.  1.
     999902    2    1    2    0    0  0.87254192202E-02 -0.21715669266E-01 -0.63899676392E-03  0.10205182177E+01  0.10202496367E+01 0.  0.
     999903    2    3    3    0    0 -0.71603944259E-01 -0.42971441707E-01 -0.99109687070E-01  0.13113579641E+00  0.20004934228E-01 0.  0.
         14    1    1    2    0    0 -0.87254192202E-02  0.21715669266E-01  0.63899676392E-03  0.23411782271E-01  0.00000000000E+00 0.  1.
     999901    1    3    3    0    0  0.80329363479E-01  0.21255772441E-01  0.98470690306E-01  0.88938242132E+00  0.88000000000E+00 0. -1.
        -11    1    4    4    0    0 -0.67130816109E-01 -0.44516406399E-01 -0.89493320761E-01  0.12040586569E+00  0.51100000000E-03 0. -1.
         11    1    4    4    0    0 -0.44731281499E-02  0.15449646921E-02 -0.96163663085E-02  0.10729930723E-01  0.51100000000E-03 0.  1.
</event>
<event>
 8    1  0.1065239E+005  0.1043930E+01  0.7957747E-01            NaN
         13   -1    0    0    0    0  0.00000000000E+00  0.00000000000E+00  0.74505805969E-08  0.10566000000E+00  0.10566000000E+00 0.  1.
     999900   -1    0    0    0    0 -0.00000000000E+00 -0.00000000000E+00 -0.74505805969E-08  0.93827000000E+00  0.93827000000E+00 0. -1.
     999902    2    1    2    0    0  0.21079352851E-01 -0.36236375502E-02 -0.17054803296E-01  0.10165742660E+01  0.10162061317E+01 0.  0.
     999903    2    3    3    0    0 -0.52180968605E-01  0.61035760071E-01 -0.96894314776E-01  0.12757355737E+00  0.20935300617E-01 0.  0.
         14    1    1    2    0    0 -0.21079352851E-01  0.36236375502E-02  0.17054803296E-01  0.27355733972E-01  0.00000000000E+00 0.  1.
     999901    1    3    3    0    0  0.73260321456E-01 -0.64659397622E-01  0.79839511480E-01  0.88900070866E+00  0.88000000000E+00 0.  1.
        -11    1    4    4    0    0 -0.41411409184E-02  0.15057356594E-01 -0.26296567122E-01  0.30588291863E-01  0.51100000000E-03 0.  1.
         11    1    4    4    0    0 -0.48039827687E-01  0.45978403478E-01 -0.70597747654E-01  0.96985265506E-01  0.51100000000E-03 0. -1.
</event>
<event>
 8    1  0.1065239E+005  0.1043930E+01  0.7957747E-01            NaN
         13   -1    0    0    0    0  0.00000000000E+00  0.00000000000E+00  0.74505805969E-08  0.10566000000E+00  0.10566000000E+00 0.  1.
     999900   -1    0    0    0    0 -0.00000000000E+00 -0.00000000000E+00 -0.74505805969E-08  0.93827000000E+00  0.93827000000E+00 0.  1.
     999902    2    1    2    0    0 -0.17000659270E-01 -0.11868132265E-01 -0.11019358887E-01  0.10204501949E+01  0.10201800326E+01 0.  0.
     999903    2    3    3    0    0  0.16276928916E-01  0.16623985521E-01  0.12524343043E+00  0.12888598158E+00  0.19605715294E-01 0.  0.
         14    1    1    2    0    0  0.17000659270E-01  0.11868132265E-01  0.11019358887E-01  0.23479805139E-01  0.00000000000E+00 0.  1.
     999901    1    3    3    0    0 -0.33277588186E-01 -0.28492117786E-01 -0.13626278932E+00  0.89156421328E+00  0.88000000000E+00 0.  1.
        -11    1    4    4    0    0  0.18140951517E-01  0.60667135973E-02  0.91396012063E-01  0.93377680833E-01  0.51100000000E-03 0. -1.
         11    1    4    4    0    0 -0.18640226012E-02  0.10557271924E-01  0.33847418367E-01  0.35508300746E-01  0.51100000000E-03 0.  1.
</event>
<event>
 8    1  0.1065239E+005  0.1043930E+01  0.7957747E-01            NaN
         13   -1    0    0    0    0  0.00000000000E+00  0.00000000000E+00  0.74505805969E-08  0.10566000000E+00  0.10566000000E+00 0. -1.
     999900   -1    0    0    0    0 -0.00000000000E+00 -0.00000000000E+00 -0.74505805969E-08  0.93827000000E+00  0.93827000000E+00 0.  1.
     999902    2    1    2    0    0  0.22081788611E-01  0.28841368622E-02  0.10865663846E-01  0.10191512534E+01  0.10188499845E+01 0.  0.
     999903    2    3    3    0    0  0.11870144589E+00  0.31210086445E-01  0.45995640755E-01  0.13271353256E+00  0.20812976808E-01 0.  0.
         14    1    1    2    0    0 -0.22081788611E-01 -0.28841368622E-02 -0.10865663846E-01  0.24778746629E-01  0.00000000000E+00 0. -1.
     999901    1    3    3    0    0 -0.96619657284E-01 -0.28325949583E-01 -0.35129976909E-01  0.88643772081E+00  0.88000000000E+00 0. -1.
        -11    1    4    4    0    0  0.41272729338E-01  0.12481674989E-01  0.58827407867E-02  0.43521238008E-01  0.51100000000E-03 0.  1.
         11    1    4    4    0    0  0.77428716556E-01  0.18728411457E-01  0.40112899969E-01  0.89192294555E-01  0.51100000000E-03 0. -1.
</event>
<event>
 8    1  0.1065239E+005  0.1043930E+01  0.7957747E-01            NaN
         13   -1    0    0    0    0  0.00000000000E+00  0.00000000000E+00  0.74505805969E-08  0.10566000000E+00  0.10566000000E+00 0.  1.
     999900   -1    0    0    0    0 -0.00000000000E+00 -0.00000000000E+00 -0.74505805969E-08  0.93827000000E+00  0.93827000000E+00 0.  1.
     999902    2    1    2    0    0  0.64608084382E-02  0.10263802688E-01 -0.18395572332E-01  0.10218962810E+01  0.10216587123E+01 0.  0.
     999903    2    3    3    0    0 -0.10388430075E+00 -0.66420483844E-01  0.36017701041E-01  0.13003456121E+00  0.20201081741E-01 0.  0.
         14    1    1    2    0    0 -0.64608084382E-02 -0.10263802688E-01  0.18395572332E-01  0.22033718995E-01  0.00000000000E+00 0.  1.
     999901    1    3    3    0    0  0.11034510919E+00  0.76684286533E-01 -0.54413273373E-01  0.89186171980E+00  0.88000000000E+00 0.  1.
        -11    1    4    4    0    0 -0.61109622091E-01 -0.47768067650E-01  0.15712814933E-01  0.79141189486E-01  0.51100000000E-03 0.  1.
         11    1    4    4    0    0 -0.42774678659E-01 -0.18652416194E-01  0.20304886108E-01  0.50893371721E-01  0.51100000000E-03 0. -1.
</event>
<event>
 8    1  0.1065239E+005  0.1043930E+01  0.7957747E-01            NaN
         13   -1    0    0    0    0  0.00000000000E+00  0.00000000000E+00  0.74505805969E-08  0.10566000000E+00  0.10566000000E+00 0. -1.
     999900   -1    0    0    0    0 -0.00000000000E+00 -0.00000000000E+00 -0.74505805969E-08  0.93827000000E+00  0.93827000000E+00 0. -1.
     999902    2    1    2    0    0 -0.61208323910E-02 -0.21351231901E-01  0.77605813459E-02  0.10204020100E+01  0.10201307248E+01 0.  0.
     999903    2    3    3    0    0 -0.87651646175E-01  0.40810625679E-01  0.85911320102E-01  0.13100957233E+00  0.20843101365E-01 0.  0.
         14    1    1    2    0    0  0.61208323910E-02  0.21351231901E-01 -0.77605813459E-02  0.23527990048E-01  0.00000000000E+00 0. -1.
     999901    1    3    3    0    0  0.81530813784E-01 -0.62161857581E-01 -0.78150738756E-01  0.88939243762E+00  0.88000000000E+00 0. -1.
        -11    1    4    4    0    0 -0.55050629060E-01  0.22599387996E-01  0.65314118999E-01  0.88360055225E-01  0.51100000000E-03 0. -1.
         11    1    4    4    0    0 -0.32601017116E-01  0.18211237683E-01  0.20597201102E-01  0.42649517104E-01  0.51100000000E-03 0.  1.
</event>
<event>
 8    1  0.1065239E+005  0.1043930E+01  0.7957747E-01            NaN
         13   -1    0    0    0    0  0.00000000000E+00  0.00000000000E+00  0.74505805969E-08  0.10566000000E+00  0.10566000000E+00 0. -1.
     999900   -1    0    0    0    0 -0.00000000000E+00 -0.00000000000E+00 -0.74505805969E-08  0.93827000000E+00  0.93827000000E+00 0. -1.
     999902    2    1    2    0    0 -0.12782027451E-01  0.18184031866E-01  0.83240164629E-02  0.10201954579E+01  0.10199193320E+01 0.  0.
     999903    2    3    3    0    0 -0.36561093906E-01  0.80556778221E-01 -0.95265706771E-01  0.13160858295E+00  0.20473302509E-01 0.  0.
         14    1    1    2    0    0  0.12782027451E-01 -0.18184031866E-01 -0.83240164629E-02  0.23734542143E-01  0.00000000000E+00 0. -1.
     999901    1    3    3    0    0  0.23779066454E-01 -0.62372746355E-01  0.10358972323E+00  0.88858687490E+00  0.88000000000E+00 0.  1.
        -11    1    4    4    0    0 -0.13446549060E-01  0.53376348170E-01 -0.60367118831E-01  0.81696354769E-01  0.51100000000E-03 0.  1.
         11    1    4    4    0    0 -0.23114544845E-01  0.27180430051E-01 -0.34898587941E-01  0.49912228185E-01  0.51100000000E-03 0. -1.
</event>
<event>
 8    1  0.1065239E+005  0.1043930E+01  0.7957747E-01            NaN
         13   -1    0    0    0    0  0.00000000000E+00  0.00000000000E+00  0.74505805969E-08  0.10566000000E+00  0.10566000000E+00 0. -1.
     999900   -1    0    0    0    0 -0.00000000000E+00 -0.00000000000E+00 -0.74505805969E-08  0.93827000000E+00  0.93827000000E+00 0. -1.
     999902    2    1    2    0    0 -0.81532194810E-02  0.30499028221E-02  0.22063818764E-01  0.10202110415E+01  0.10199352823E+01 0.  0.
     999903    2    3    3    0    0  0.97387069774E-01  0.22670127617E-01 -0.77581052627E-01  0.12810521464E+00  0.19848179908E-01 0.  0.
         14    1    1    2    0    0  0.81532194810E-02 -0.30499028221E-02 -0.22063818764E-01  0.23718958526E-01  0.00000000000E+00 0.  1.
     999901    1    3    3    0    0 -0.10554028926E+00 -0.19620224795E-01  0.99644871391E-01  0.89210582683E+00  0.88000000000E+00 0.  1.
        -11    1    4    4    0    0  0.50468205846E-01  0.68179704592E-02 -0.28422487404E-01  0.58323438116E-01  0.51100000000E-03 0. -1.
         11    1    4    4    0    0  0.46918863928E-01  0.15852157158E-01 -0.49158565223E-01  0.69781776523E-01  0.51100000000E-03 0.  1.
</event>
<event>
 8    1  0.1065239E+005  0.1043930E+01  0.7957747E-01            NaN
         13   -1    0    0    0    0  0.00000000000E+00  0.00000000000E+00  0.74505805969E-08  0.10566000000E+00  0.10566000000E+00 0. -1.
     999900   -1    0    0    0    0 -0.00000000000E+00 -0.00000000000E+00 -0.74505805969E-08  0.93827000000E+00  0.93827000000E+00 0.  1.
     999902    2    1    2    0    0  0.12406185754E-01  0.20041341958E-01 -0.25087076599E-02  0.10202263622E+01  0.10199509633E+01 0.  0.
     999903    2    3    3    0    0  0.61292905820E-01  0.10396334731E+00 -0.56112054107E-01  0.13326180079E+00  0.67042558338E-02 0.  0.
         14    1    1    2    0    0 -0.12406185754E-01 -0.20041341958E-01  0.25087076599E-02  0.23703637833E-01  0.00000000000E+00 0.  1.
     999901    1    3    3    0    0 -0.48886720066E-01 -0.83922005355E-01  0.53603346447E-01  0.88696456137E+00  0.88000000000E+00 0. -1.
        -11    1    4    4    0    0  0.48184164840E-01  0.82013794089E-01 -0.41210548740E-01  0.10366555171E+00  0.51100000000E-03 0.  1.
         11    1    4    4    0    0  0.13108740980E-01  0.21949553223E-01 -0.14901505367E-01  0.29596249087E-01  0.51100000000E-03 0. -1.
</event>
<event>
 8    1  0.1065239E+005  0.1043930E+01  0.7957747E-01            NaN
         13   -1    0    0    0    0  0.00000000000E+00  0.00000000000E+00  0.74505805969E-08  0.10566000000E+00  0.10566000000E+00 0.  1.
     999900   -1    0    0    0    0 -0.00000000000E+00 -0.00000000000E+00 -0.74505805969E-08  0.93827000000E+00  0.93827000000E+00 0.  1.
     999902    2    1    2    0    0 -0.22161392486E-01 -0.44181503424E-02 -0.65578477563E-02  0.10204001735E+01  0.10201288454E+01 0.  0.
     999903    2    3    3    0    0 -0.35782597931E-02 -0.77143215498E-01 -0.10477075321E+00  0.13176074000E+00  0.20496395688E-01 0.  0.
         14    1    1    2    0    0  0.22161392486E-01  0.44181503424E-02  0.65578477563E-02  0.23529826530E-01  0.00000000000E+00 0. -1.
     999901    1    3    3    0    0 -0.18583132693E-01  0.72725065156E-01  0.98212905454E-01  0.88863943347E+00  0.88000000000E+00 0. -1.
        -11    1    4    4    0    0 -0.10561047251E-01 -0.26252595809E-01 -0.32542862453E-01  0.43128105956E-01  0.51100000000E-03 0. -1.
         11    1    4    4    0    0  0.69827874576E-02 -0.50890619689E-01 -0.72227890757E-01  0.88632634042E-01  0.51100000000E-03 0.  1.
</event>
<event>
 8    1  0.1065239E+005  0.1043930E+01  0.7957747E-01            NaN
         13   -1    0    0    0    0  0.00000000000E+00  0.00000000000E+00  0.74505805969E-08  0.10566000000E+00  0.10566000000E+00 0. -1.
     999900   -1    0    0    0    0 -0.00000000000E+00 -0.00000000000E+00 -0.74505805969E-08  0.93827000000E+00  0.93827000000E+00 0.  1.
     999902    2    1    2    0    0 -0.98289721230E-02  0.10265601369E-01 -0.17363075062E-01  0.10214919154E+01  0.10212454483E+01 0.  0.
     999903    2    3    3    0    0 -0.11386912821E+00  0.50384275148E-01 -0.45597013379E-01  0.13400613111E+00  0.19333959852E-01 0.  0.
         14    1    1    2    0    0  0.98289721230E-02 -0.10265601369E-01  0.17363075062E-01  0.22438084590E-01  0.00000000000E+00 0. -1.
     999901    1    3    3    0    0  0.10404015609E+00 -0.40118673779E-01  0.28233938316E-01  0.88748578430E+00  0.88000000000E+00 0. -1.
        -11    1    4    4    0    0 -0.74904626144E-01  0.38951676367E-01 -0.22880783139E-01  0.87474153140E-01  0.51100000000E-03 0.  1.
         11    1    4    4    0    0 -0.38964502068E-01  0.11432598781E-01 -0.22716230239E-01  0.46531977967E-01  0.51100000000E-03 0. -1.
</event>
<event>
 8    1  0.1065239E+005  0.1043930E+01  0.7957747E-01            NaN
         13   -1    0    0    0    0  0.00000000000E+00  0.00000000000E+00  0.74505805969E-08  0.10566000000E+00  0.10566000000E+00 0.  1.
     999900   -1    0    0    0    0 -0.00000000000E+00 -0.00000000000E+00 -0.74505805969E-08  0.93827000000E+00  0.93827000000E+00 0.  1.
     999902    2    1    2    0    0  0.24904660607E-01  0.41561146078E-02  0.17742312474E-02  0.10186186724E+01  0.10183041473E+01 0.  0.
     999903    2    3    3    0    0  0.10157220195E+00  0.42230177483E-01  0.69052845522E-01  0.13190904794E+00  0.23052144256E-01 0.  0.
         14    1    1    2    0    0 -0.24904660607E-01 -0.41561146078E-02 -0.17742312474E-02  0.25311327604E-01  0.00000000000E+00 0.  1.
     999901    1    3    3    0    0 -0.76667541345E-01 -0.38074062875E-01 -0.67278614275E-01  0.88670962445E+00  0.88000000000E+00 0.  1.
        -11    1    4    4    0    0  0.30790237451E-01  0.15744226667E-01  0.10015858058E-01  0.36006915020E-01  0.51100000000E-03 0.  1.
         11    1    4    4    0    0  0.70781964501E-01  0.26485950815E-01  0.59036987464E-01  0.95902132922E-01  0.51100000000E-03 0. -1.
</event>
<event>
 8    1  0.1065239E+005  0.1043930E+01  0.7957747E-01            NaN
         13   -1    0    0    0    0  0.00000000000E+00  0.00000000000E+00  0.74505805969E-08  0.10566000000E+00  0.10566000000E+00 0.  1.
     999900   -1    0    0    0    0 -0.00000000000E+00 -0.00000000000E+00 -0.74505805969E-08  0.93827000000E+00  0.93827000000E+00 0. -1.
     999902    2    1    2    0    0 -0.41011793449E-03  0.17070529017E-01  0.15106491123E-01  0.10211313765E+01  0.10208768344E+01 0.  0.
     999903    2    3    3    0    0 -0.36078880331E-01  0.73419134078E-01 -0.10052167627E+00  0.13106548067E+00  0.19531972943E-01 0.  0.
         14    1    1    2    0    0  0.41011793449E-03 -0.17070529017E-01 -0.15106491123E-01  0.22798623460E-01  0.00000000000E+00 0.  1.
     999901    1    3    3    0    0  0.35668762397E-01 -0.56348605062E-01  0.11562816739E+00  0.89006589587E+00  0.88000000000E+00 0.  1.
        -11    1    4    4    0    0 -0.25811861944E-01  0.53526038490E-01 -0.58168436788E-01  0.83157183531E-01  0.51100000000E-03 0. -1.
         11    1    4    4    0    0 -0.10267018388E-01  0.19893095588E-01 -0.42353239483E-01  0.47908297135E-01  0.51100000000E-03 0.  1.
</event>
<event>
 8    1  0.1065239E+005  0.1043930E+01  0.7957747E-01            NaN
         13   -1    0    0    0    0  0.00000000000E+00  0.00000000000E+00  0.74505805969E-08  0.10566000000E+00  0.10566000000E+00 0. -1.
     999900   -1    0    0    0    0 -0.00000000000E+00 -0.00000000000E+00 -0.74505805969E-08  0.93827000000E+00  0.93827000000E+00 0.  1.
     999902    2    1    2    0    0  0.21873939026E-01  0.51350973420E-02  0.71818714179E-02  0.10203414920E+01  0.10200687931E+01 0.  0.
     999903    2    3    3    0    0  0.69211495247E-01 -0.49580769089E-01 -0.97803824641E-01  0.13115272314E+00  0.19671424312E-01 0.  0.
         14    1    1    2    0    0 -0.21873939026E-01 -0.51350973420E-02 -0.71818714179E-02  0.23588508014E-01  0.00000000000E+00 0. -1.
     999901    1    3    3    0    0 -0.47337556220E-01  0.54715866431E-01  0.10498569606E+00  0.88918876885E+00  0.88000000000E+00 0. -1.
        -11    1    4    4    0    0  0.35218487033E-01 -0.36724595738E-01 -0.53244599860E-01  0.73649754217E-01  0.51100000000E-03 0. -1.
         11    1    4    4    0    0  0.33993008214E-01 -0.12856173351E-01 -0.44559224781E-01  0.57502968921E-01  0.51100000000E-03 0.  1.
</event>
<event>
 8    1  0.1065239E+005  0.1043930E+01  0.7957747E-01            NaN
         13   -1    0    0    0    0  0.00000000000E+00  0.00000000000E+00  0.74505805969E-08  0.10566000000E+00  0.10566000000E+00 0.  1.
     999900   -1    0    0    0    0 -0.00000000000E+00 -0.00000000000E+00 -0.74505805969E-08  0.93827000000E+00  0.93827000000E+00 0.  1.
     999902    2    1    2    0    0  0.19962366869E-01 -0.66382856994E-02  0.65719961163E-02  0.10218901710E+01  0.10216524691E+01 0.  0.
     999903    2    3    3    0    0 -0.25998154392E-02 -0.46141402430E-01  0.12312081341E+00  0.13304081646E+00  0.20132960306E-01 0.  0.
         14    1    1    2    0    0 -0.19962366869E-01  0.66382856994E-02 -0.65719961163E-02  0.22039828969E-01  0.00000000000E+00 0.  1.
     999901    1    3    3    0    0  0.22562182309E-01  0.39503116731E-01 -0.11654881730E+00  0.88884935457E+00  0.88000000000E+00 0.  1.
        -11    1    4    4    0    0 -0.89582333049E-02 -0.12188321291E-01  0.48588572814E-01  0.50891213868E-01  0.51100000000E-03 0. -1.
         11    1    4    4    0    0  0.63584178657E-02 -0.33953081139E-01  0.74532240600E-01  0.82149602594E-01  0.51100000000E-03 0.  1.
</event>
<event>
 8    1  0.1517902E+005  0.1043930E+01  0.7957747E-01            NaN
         13   -1    0    0    0    0  0.00000000000E+00  0.00000000000E+00  0.74505805969E-08  0.10566000000E+00  0.10566000000E+00 0.  1.
     999900   -1    0    0    0    0 -0.00000000000E+00 -0.00000000000E+00 -0.74505805969E-08  0.93827000000E+00  0.93827000000E+00 0. -1.
     999902    2    1    2    0    0  0.68309346189E-02  0.21340277098E-02 -0.22218273166E-01  0.10205876050E+01  0.10203206320E+01 0.  0.
     999903    2    3    3    0    0 -0.11221721026E+00  0.72386551461E-02 -0.67016457155E-01  0.13142766702E+00  0.11701526414E-01 0.  0.
         14    1    1    2    0    0 -0.68309346189E-02 -0.21340277098E-02  0.22218273166E-01  0.23342395004E-01  0.00000000000E+00 0.  1.
     999901    1    3    3    0    0  0.11904814488E+00 -0.51046274363E-02  0.44798183990E-01  0.88915993798E+00  0.88000000000E+00 0.  1.
        -11    1    4    4    0    0 -0.48795292999E-01  0.85629687510E-02 -0.26998331850E-01  0.56422301410E-01  0.51100000000E-03 0. -1.
         11    1    4    4    0    0 -0.63421917262E-01 -0.13243136050E-02 -0.40018125305E-01  0.75005365606E-01  0.51100000000E-03 0.  1.
</event>
<event>
 8    1  0.1065239E+005  0.1043930E+01  0.7957747E-01            NaN
         13   -1    0    0    0    0  0.00000000000E+00  0.00000000000E+00  0.74505805969E-08  0.10566000000E+00  0.10566000000E+00 0. -1.
     999900   -1    0    0    0    0 -0.00000000000E+00 -0.00000000000E+00 -0.74505805969E-08  0.93827000000E+00  0.93827000000E+00 0.  1.
     999902    2    1    2    0    0  0.14976430704E-01  0.12420552962E-01  0.16401271986E-01  0.10184826949E+01  0.10181647384E+01 0.  0.
     999903    2    3    3    0    0  0.12059199697E+00  0.30789457309E-01  0.37185255383E-01  0.13173355428E+00  0.21921808520E-01 0.  0.
         14    1    1    2    0    0 -0.14976430704E-01 -0.12420552962E-01 -0.16401271986E-01  0.25447305069E-01  0.00000000000E+00 0.  1.
     999901    1    3    3    0    0 -0.10561556627E+00 -0.18368904347E-01 -0.20783983396E-01  0.88674914065E+00  0.88000000000E+00 0.  1.
        -11    1    4    4    0    0  0.36007490781E-01  0.14486185965E-01  0.25849516000E-02  0.38901569016E-01  0.51100000000E-03 0.  1.
         11    1    4    4    0    0  0.84584506193E-01  0.16303271344E-01  0.34600303783E-01  0.92831985260E-01  0.51100000000E-03 0. -1.
</event>
<event>
 8    1  0.1065239E+005  0.1043930E+01  0.7957747E-01            NaN
         13   -1    0    0    0    0  0.00000000000E+00  0.00000000000E+00  0.74505805969E-08  0.10566000000E+00  0.10566000000E+00 0.  1.
     999900   -1    0    0    0    0 -0.00000000000E+00 -0.00000000000E+00 -0.74505805969E-08  0.93827000000E+00  0.93827000000E+00 0. -1.
     999902    2    1    2    0    0 -0.20431241271E-02 -0.17807683838E-01  0.71567306894E-02  0.10246295660E+01  0.10244477735E+01 0.  0.
     999903    2    3    3    0    0  0.90880029987E-01 -0.34262334628E-01  0.92382753805E-01  0.13549012632E+00  0.19746232708E-01 0.  0.
         14    1    1    2    0    0  0.20431241271E-02  0.17807683838E-01 -0.71567306894E-02  0.19300434038E-01  0.00000000000E+00 0. -1.
     999901    1    3    3    0    0 -0.92923154114E-01  0.16454650789E-01 -0.85226023116E-01  0.88913943964E+00  0.88000000000E+00 0. -1.
        -11    1    4    4    0    0  0.77250207399E-01 -0.34195386310E-01  0.85556789475E-01  0.12023786564E+00  0.51100000000E-03 0.  1.
         11    1    4    4    0    0  0.13629822588E-01 -0.66948317520E-04  0.68259643308E-02  0.15252260682E-01  0.51100000000E-03 0. -1.
</event>
<event>
 8    1  0.1065239E+005  0.1043930E+01  0.7957747E-01            NaN
         13   -1    0    0    0    0  0.00000000000E+00  0.00000000000E+00  0.74505805969E-08  0.10566000000E+00  0.10566000000E+00 0.  1.
     999900   -1    0    0    0    0 -0.00000000000E+00 -0.00000000000E+00 -0.74505805969E-08  0.93827000000E+00  0.93827000000E+00 0. -1.
     999902    2    1    2    0    0  0.48629481899E-02  0.77756197117E-02  0.21994421531E-01  0.10201001216E+01  0.10198217467E+01 0.  0.
     999903    2    3    3    0    0  0.15771359062E-02 -0.22620910447E-01  0.12970071061E+00  0.13300633268E+00  0.18820660242E-01 0.  0.
         14    1    1    2    0    0 -0.48629481899E-02 -0.77756197117E-02 -0.21994421531E-01  0.23829878419E-01  0.00000000000E+00 0. -1.
     999901    1    3    3    0    0  0.32858122836E-02  0.30396530159E-01 -0.10770628908E+00  0.88709378891E+00  0.88000000000E+00 0. -1.
        -11    1    4    4    0    0  0.38926590079E-02 -0.16267449274E-02  0.60576656470E-01  0.60725542594E-01  0.51100000000E-03 0. -1.
         11    1    4    4    0    0 -0.23155231017E-02 -0.20994165520E-01  0.69124054139E-01  0.72280790081E-01  0.51100000000E-03 0.  1.
</event>
<event>
 8    1  0.1065239E+005  0.1043930E+01  0.7957747E-01            NaN
         13   -1    0    0    0    0  0.00000000000E+00  0.00000000000E+00  0.74505805969E-08  0.10566000000E+00  0.10566000000E+00 0. -1.
     999900   -1    0    0    0    0 -0.00000000000E+00 -0.00000000000E+00 -0.74505805969E-08  0.93827000000E+00  0.93827000000E+00 0.  1.
     999902    2    1    2    0    0 -0.82585470671E-02  0.18029423354E-02 -0.22315820709E-01  0.10200668473E+01  0.10197876853E+01 0.  0.
     999903    2    3    3    0    0  0.12482801423E+00  0.23283385752E-01  0.12296969202E-01  0.12912830431E+00  0.19968834036E-01 0.  0.
         14    1    1    2    0    0  0.82585470671E-02 -0.18029423354E-02  0.22315820709E-01  0.23863152656E-01  0.00000000000E+00 0. -1.
     999901    1    3    3    0    0 -0.13308656130E+00 -0.21480443417E-01 -0.34612789911E-01  0.89093854304E+00  0.88000000000E+00 0. -1.
        -11    1    4    4    0    0  0.11229872681E+00  0.14514920613E-01  0.10425450442E-01  0.11371296365E+00  0.51100000000E-03 0.  1.
         11    1    4    4    0    0  0.12529287416E-01  0.87684651387E-02  0.18715187593E-02  0.15415340655E-01  0.51100000000E-03 0. -1.
</event>
<event>
 8    1  0.1065239E+005  0.1043930E+01  0.7957747E-01            NaN
         13   -1    0    0    0    0  0.00000000000E+00  0.00000000000E+00  0.74505805969E-08  0.10566000000E+00  0.10566000000E+00 0.  1.
     999900   -1    0    0    0    0 -0.00000000000E+00 -0.00000000000E+00 -0.74505805969E-08  0.93827000000E+00  0.93827000000E+00 0. -1.
     999902    2    1    2    0    0  0.14966398095E-01  0.46321315922E-03 -0.15881881494E-01  0.10221024532E+01  0.10218693572E+01 0.  0.
     999903    2    3    3    0    0  0.65026072724E-01  0.95500703281E-01  0.61171416635E-01  0.13222869459E+00  0.19842152084E-01 0.  0.
         14    1    1    2    0    0 -0.14966398095E-01 -0.46321315922E-03  0.15881881494E-01  0.21827546774E-01  0.00000000000E+00 0.  1.
     999901    1    3    3    0    0 -0.50059674628E-01 -0.95037490122E-01 -0.77053298129E-01  0.88987375863E+00  0.88000000000E+00 0. -1.
        -11    1    4    4    0    0  0.14808037759E-01  0.33526644080E-01  0.12218434600E-01  0.38637612641E-01  0.51100000000E-03 0.  1.
         11    1    4    4    0    0  0.50218034965E-01  0.61974059201E-01  0.48952982035E-01  0.93591081951E-01  0.51100000000E-03 0. -1.
</event>
<event>
 8    1  0.1065239E+005  0.1043930E+01  0.7957747E-01            NaN
         13   -1    0    0    0    0  0.00000000000E+00  0.00000000000E+00  0.74505805969E-08  0.10566000000E+00  0.10566000000E+00 0. -1.
     999900   -1    0    0    0    0 -0.00000000000E+00 -0.00000000000E+00 -0.74505805969E-08  0.93827000000E+00  0.93827000000E+00 0. -1.
     999902    2    1    2    0    0 -0.44866363421E-02  0.89058218905E-05  0.23476317458E-01  0.10200287978E+01  0.10197487342E+01 0.  0.
     999903    2    3    3    0    0 -0.36204475327E-01 -0.43915546446E-02 -0.12082868308E+00  0.12770076477E+00  0.19438746948E-01 0.  0.
         14    1    1    2    0    0  0.44866363421E-02 -0.89058218905E-05 -0.23476317458E-01  0.23901202195E-01  0.00000000000E+00 0.  1.
     999901    1    3    3    0    0  0.31717838985E-01  0.44004604665E-02  0.14430500053E+00  0.89232803304E+00  0.88000000000E+00 0.  1.
        -11    1    4    4    0    0 -0.22533176943E-01 -0.12066352730E-01 -0.78556805998E-01  0.82612189300E-01  0.51100000000E-03 0.  1.
         11    1    4    4    0    0 -0.13671298384E-01  0.76747980851E-02 -0.42271877078E-01  0.45088575469E-01  0.51100000000E-03 0. -1.
</event>
<event>
 8    1  0.1065239E+005  0.1043930E+01  0.7957747E-01            NaN
         13   -1    0    0    0    0  0.00000000000E+00  0.00000000000E+00  0.74505805969E-08  0.10566000000E+00  0.10566000000E+00 0.  1.
     999900   -1    0    0    0    0 -0.00000000000E+00 -0.00000000000E+00 -0.74505805969E-08  0.93827000000E+00  0.93827000000E+00 0. -1.
     999902    2    1    2    0    0 -0.19885770503E-01  0.12599342754E-01 -0.21853863279E-02  0.10202875970E+01  0.10200136359E+01 0.  0.
     999903    2    3    3    0    0 -0.93837319979E-01  0.55898366039E-01  0.73153528754E-01  0.13292093703E+00  0.19658758519E-01 0.  0.
         14    1    1    2    0    0  0.19885770503E-01 -0.12599342754E-01  0.21853863279E-02  0.23642403003E-01  0.00000000000E+00 0.  1.
     999901    1    3    3    0    0  0.73951549475E-01 -0.43299023285E-01 -0.75338915082E-01  0.88736665996E+00  0.88000000000E+00 0. -1.
        -11    1    4    4    0    0 -0.42322902031E-01  0.14021638994E-01  0.29745999808E-01  0.53599627069E-01  0.51100000000E-03 0.  1.
         11    1    4    4    0    0 -0.51514417948E-01  0.41876727045E-01  0.43407528946E-01  0.79321309966E-01  0.51100000000E-03 0. -1.
</event>
<event>
 8    1  0.1065239E+005  0.1043930E+01  0.7957747E-01            NaN
         13   -1    0    0    0    0  0.00000000000E+00  0.00000000000E+00  0.74505805969E-08  0.10566000000E+00  0.10566000000E+00 0.  1.
     999900   -1    0    0    0    0 -0.00000000000E+00 -0.00000000000E+00 -0.74505805969E-08  0.93827000000E+00  0.93827000000E+00 0.  1.
     999902    2    1    2    0    0 -0.13839742323E-01 -0.15208689230E-01  0.26329173623E-02  0.10231989858E+01  0.10229889489E+01 0.  0.
     999903    2    3    3    0    0 -0.78723137595E-01 -0.77787566417E-01  0.75566915744E-01  0.13559246320E+00  0.20657188577E-01 0.  0.
         14    1    1    2    0    0  0.13839742323E-01  0.15208689230E-01 -0.26329173623E-02  0.20731014194E-01  0.00000000000E+00 0. -1.
     999901    1    3    3    0    0  0.64883395272E-01  0.62578877187E-01 -0.72933998382E-01  0.88760652261E+00  0.88000000000E+00 0.  1.
        -11    1    4    4    0    0 -0.34331799167E-01 -0.28419845078E-01  0.41803045715E-01  0.61107411829E-01  0.51100000000E-03 0.  1.
         11    1    4    4    0    0 -0.44391338428E-01 -0.49367721338E-01  0.33763870029E-01  0.74485051372E-01  0.51100000000E-03 0. -1.
</event>
<event>
 8    1  0.1065239E+005  0.1043930E+01  0.7957747E-01            NaN
         13   -1    0    0    0    0  0.00000000000E+00  0.00000000000E+00  0.74505805969E-08  0.10566000000E+00  0.10566000000E+00 0.  1.
     999900   -1    0    0    0    0 -0.00000000000E+00 -0.00000000000E+00 -0.74505805969E-08  0.93827000000E+00  0.93827000000E+00 0. -1.
     999902    2    1    2    0    0  0.21824289831E-01  0.93179540021E-02 -0.12142788081E-02  0.10201687213E+01  0.10198919656E+01 0.  0.
     999903    2    3    3    0    0  0.10545686141E+00  0.12823879152E-01 -0.74822809994E-01  0.13313720301E+00  0.29007937427E-01 0.  0.
         14    1    1    2    0    0 -0.21824289831E-01 -0.93179540021E-02  0.12142788081E-02  0.23761278721E-01  0.00000000000E+00 0.  1.
     999901    1    3    3    0    0 -0.83632571584E-01 -0.35059251495E-02  0.73608531186E-01  0.88703151827E+00  0.88000000000E+00 0.  1.
        -11    1    4    4    0    0  0.74068641060E-01  0.19741416660E-01 -0.61755447639E-01  0.98437206149E-01  0.51100000000E-03 0. -1.
         11    1    4    4    0    0  0.31388220355E-01 -0.69175375086E-02 -0.13067362355E-01  0.34699996861E-01  0.51100000000E-03 0.  1.
</event>
<event>
 8    1  0.1065239E+005  0.1043930E+01  0.7957747E-01            NaN
         13   -1    0    0    0    0  0.00000000000E+00  0.00000000000E+00  0.74505805969E-08  0.10566000000E+00  0.10566000000E+00 0.  1.
     999900   -1    0    0    0    0 -0.00000000000E+00 -0.00000000000E+00 -0.74505805969E-08  0.93827000000E+00  0.93827000000E+00 0. -1.
     999902    2    1    2    0    0 -0.18971045512E-01 -0.31146951470E-02 -0.11077585921E-01  0.10217418319E+01  0.10215008841E+01 0.  0.
     999903    2    3    3    0    0  0.94214886600E-01 -0.35659589963E-01  0.78724861994E-01  0.12936595535E+00  0.19745766471E-01 0.  0.
         14    1    1    2    0    0  0.18971045512E-01  0.31146951470E-02  0.11077585921E-01  0.22188168098E-01  0.00000000000E+00 0. -1.
     999901    1    3    3    0    0 -0.11318593211E+00  0.32544894816E-01 -0.89802447914E-01  0.89237587656E+00  0.88000000000E+00 0. -1.
        -11    1    4    4    0    0  0.94684895424E-01 -0.33952926098E-01  0.75982013497E-01  0.12606172341E+00  0.51100000000E-03 0.  1.
         11    1    4    4    0    0 -0.47000882363E-03 -0.17066638658E-02  0.27428484972E-02  0.33042319415E-02  0.51100000000E-03 0. -1.
</event>
<event>
 8    1  0.1065239E+005  0.1043930E+01  0.7957747E-01            NaN
         13   -1    0    0    0    0  0.00000000000E+00  0.00000000000E+00  0.74505805969E-08  0.10566000000E+00  0.10566000000E+00 0. -1.
     999900   -1    0    0    0    0 -0.00000000000E+00 -0.00000000000E+00 -0.74505805969E-08  0.93827000000E+00  0.93827000000E+00 0.  1.
     999902    2    1    2    0    0 -0.18652195453E-01  0.13568429346E-01 -0.76395843352E-02  0.10196324709E+01  0.10193429285E+01 0.  0.
     999903    2    3    3    0    0  0.86721579322E-01 -0.87123787309E-01 -0.26961805529E-01  0.12743523761E+00  0.20040314192E-01 0.  0.
         14    1    1    2    0    0  0.18652195453E-01 -0.13568429346E-01  0.76395843352E-02  0.24297529071E-01  0.00000000000E+00 0.  1.
     999901    1    3    3    0    0 -0.10537377478E+00  0.10069221665E+00  0.19322221194E-01  0.89219723332E+00  0.88000000000E+00 0.  1.
        -11    1    4    4    0    0  0.45013794423E-02 -0.13226312621E-01 -0.37501083470E-02  0.14474881556E-01  0.51100000000E-03 0. -1.
         11    1    4    4    0    0  0.82220199880E-01 -0.73897474687E-01 -0.23211697182E-01  0.11296035606E+00  0.51100000000E-03 0.  1.
</event>
<event>
 8    1  0.1065239E+005  0.1043930E+01  0.7957747E-01            NaN
         13   -1    0    0    0    0  0.00000000000E+00  0.00000000000E+00  0.74505805969E-08  0.10566000000E+00  0.10566000000E+00 0.  1.
     999900   -1    0    0    0    0 -0.00000000000E+00 -0.00000000000E+00 -0.74505805969E-08  0.93827000000E+00  0.93827000000E+00 0. -1.
     999902    2    1    2    0    0  0.70303885305E-02 -0.22662225213E-01  0.97964920232E-02  0.10182595097E+01  0.10179358797E+01 0.  0.
     999903    2    3    3    0    0 -0.82520638820E-01  0.68994160630E-01 -0.62695961302E-01  0.12602891434E+00  0.19561535071E-01 0.  0.
         14    1    1    2    0    0 -0.70303885305E-02  0.22662225213E-01 -0.97964920232E-02  0.25670490265E-01  0.00000000000E+00 0. -1.
     999901    1    3    3    0    0  0.89551027351E-01 -0.91656385843E-01  0.72492453325E-01  0.89223059539E+00  0.88000000000E+00 0.  1.
        -11    1    4    4    0    0 -0.22895933963E-01  0.10981303684E-01 -0.21090989679E-01  0.33013690937E-01  0.51100000000E-03 0.  1.
         11    1    4    4    0    0 -0.59624704858E-01  0.58012856946E-01 -0.41604971623E-01  0.93015223405E-01  0.51100000000E-03 0. -1.
</event>
<event>
 8    1  0.1065239E+005  0.1043930E+01  0.7957747E-01            NaN
         13   -1    0    0    0    0  0.00000000000E+00  0.00000000000E+00  0.74505805969E-08  0.10566000000E+00  0.10566000000E+00 0.  1.
     999900   -1    0    0    0    0 -0.00000000000E+00 -0.00000000000E+00 -0.74505805969E-08  0.93827000000E+00  0.93827000000E+00 0.  1.
     999902    2    1    2    0    0 -0.23426172609E-01  0.72262284529E-04  0.24639294112E-02  0.10203744968E+01  0.10201025693E+01 0.  0.
     999903    2    3    3    0    0 -0.54195172687E-01 -0.90181184349E-01  0.77406262729E-01  0.13205655293E+00  0.19427838521E-01 0.  0.
         14    1    1    2    0    0  0.23426172609E-01 -0.72262284529E-04 -0.24639294112E-02  0.23555503244E-01  0.00000000000E+00 0. -1.
     999901    1    3    3    0    0  0.30769000078E-01  0.90253446634E-01 -0.74942333318E-01  0.88831794382E+00  0.88000000000E+00 0.  1.
        -11    1    4    4    0    0 -0.43002227467E-01 -0.58448296703E-01  0.45293153743E-01  0.85540200208E-01  0.51100000000E-03 0. -1.
         11    1    4    4    0    0 -0.11192945219E-01 -0.31732887646E-01  0.32113108986E-01  0.46516352725E-01  0.51100000000E-03 0.  1.
</event>
<event>
 8    1  0.1065239E+005  0.1043930E+01  0.7957747E-01            NaN
         13   -1    0    0    0    0  0.00000000000E+00  0.00000000000E+00  0.74505805969E-08  0.10566000000E+00  0.10566000000E+00 0. -1.
     999900   -1    0    0    0    0 -0.00000000000E+00 -0.00000000000E+00 -0.74505805969E-08  0.93827000000E+00  0.93827000000E+00 0. -1.
     999902    2    1    2    0    0  0.16895443122E-01  0.71741658575E-02 -0.14510335619E-01  0.10205318271E+01  0.10202635619E+01 0.  0.
     999903    2    3    3    0    0  0.62454384276E-01  0.95163613757E-02  0.11216106853E+00  0.13029211355E+00  0.20120097166E-01 0.  0.
         14    1    1    2    0    0 -0.16895443122E-01 -0.71741658575E-02  0.14510335619E-01  0.23398172873E-01  0.00000000000E+00 0. -1.
     999901    1    3    3    0    0 -0.45558941154E-01 -0.23421955182E-02 -0.12667140415E+00  0.89023971358E+00  0.88000000000E+00 0. -1.
        -11    1    4    4    0    0  0.32266476456E-01  0.49775964075E-03  0.38923698261E-01  0.50563709069E-01  0.51100000000E-03 0.  1.
         11    1    4    4    0    0  0.30187907820E-01  0.90186017349E-02  0.73237370272E-01  0.79728404481E-01  0.51100000000E-03 0. -1.
</event>
<event>
 8    1  0.1065239E+005  0.1043930E+01  0.7957747E-01            NaN
         13   -1    0    0    0    0  0.00000000000E+00  0.00000000000E+00  0.74505805969E-08  0.10566000000E+00  0.10566000000E+00 0. -1.
     999900   -1    0    0    0    0 -0.00000000000E+00 -0.00000000000E+00 -0.74505805969E-08  0.93827000000E+00  0.93827000000E+00 0. -1.
     999902    2    1    2    0    0  0.21587130000E-01 -0.11053153672E-02 -0.93907164394E-02  0.10203628309E+01  0.10200906309E+01 0.  0.
     999903    2    3    3    0    0  0.11332228464E+00 -0.45485724794E-01 -0.49407540799E-01  0.13357858118E+00  0.22163955123E-01 0.  0.
         14    1    1    2    0    0 -0.21587130000E-01  0.11053153672E-02  0.93907164394E-02  0.23567169091E-01  0.00000000000E+00 0. -1.
     999901    1    3    3    0    0 -0.91735154637E-01  0.44380409427E-01  0.40016824360E-01  0.88678424973E+00  0.88000000000E+00 0.  1.
        -11    1    4    4    0    0  0.80392395459E-01 -0.24687284410E-01 -0.41708181920E-01  0.93873493699E-01  0.51100000000E-03 0. -1.
         11    1    4    4    0    0  0.32929889179E-01 -0.20798440383E-01 -0.76993588788E-02  0.39705087481E-01  0.51100000000E-03 0.  1.
</event>
<event>
 8    1  0.1065239E+005  0.1043930E+01  0.7957747E-01            NaN
         13   -1    0    0    0    0  0.00000000000E+00  0.00000000000E+00  0.74505805969E-08  0.10566000000E+00  0.10566000000E+00 0.  1.
     999900   -1    0    0    0    0 -0.00000000000E+00 -0.00000000000E+00 -0.74505805969E-08  0.93827000000E+00  0.93827000000E+00 0. -1.
     999902    2    1    2    0    0 -0.13755235673E-01 -0.12554404369E-01  0.15390925519E-01  0.10197701125E+01  0.10194838803E+01 0.  0.
     999903    2    3    3    0    0  0.83176097778E-01  0.45668382800E-01  0.87528079756E-01  0.12960757372E+00  0.11536636940E-01 0.  0.
         14    1    1    2    0    0  0.13755235673E-01  0.12554404369E-01 -0.15390925519E-01  0.24159887537E-01  0.00000000000E+00 0. -1.
     999901    1    3    3    0    0 -0.96931333451E-01 -0.58222787169E-01 -0.72137154237E-01  0.89016253874E+00  0.88000000000E+00 0. -1.
        -11    1    4    4    0    0  0.51618706945E-01  0.23809483737E-01  0.46762717563E-01  0.73609750016E-01  0.51100000000E-03 0. -1.
         11    1    4    4    0    0  0.31557390834E-01  0.21858899062E-01  0.40765362193E-01  0.55997823709E-01  0.51100000000E-03 0.  1.
</event>
<event>
 8    1  0.1065239E+005  0.1043930E+01  0.7957747E-01            NaN
         13   -1    0    0    0    0  0.00000000000E+00  0.00000000000E+00  0.74505805969E-08  0.10566000000E+00  0.10566000000E+00 0.  1.
     999900   -1    0    0    0    0 -0.00000000000E+00 -0.00000000000E+00 -0.74505805969E-08  0.93827000000E+00  0.93827000000E+00 0. -1.
     999902    2    1    2    0    0  0.96222575887E-02 -0.20079044133E-01 -0.82704551114E-02  0.10201780257E+01  0.10199014893E+01 0.  0.
     999903    2    3    3    0    0 -0.88272849859E-01  0.89945584863E-01  0.70814282126E-02  0.12780783832E+00  0.20059727087E-01 0.  0.
         14    1    1    2    0    0 -0.96222575887E-02  0.20079044133E-01  0.82704551114E-02  0.23751974279E-01  0.00000000000E+00 0.  1.
     999901    1    3    3    0    0  0.97895107448E-01 -0.11002462900E+00 -0.15351883324E-01  0.89237018741E+00  0.88000000000E+00 0.  1.
        -11    1    4    4    0    0 -0.20122253746E-01  0.32371138551E-01  0.59754911001E-02  0.38584495873E-01  0.51100000000E-03 0.  1.
         11    1    4    4    0    0 -0.68150596113E-01  0.57574446313E-01  0.11059371125E-02  0.89223342443E-01  0.51100000000E-03 0. -1.
</event>
<event>
 8    1  0.1065239E+005  0.1043930E+01  0.7957747E-01            NaN
         13   -1    0    0    0    0  0.00000000000E+00  0.00000000000E+00  0.74505805969E-08  0.10566000000E+00  0.10566000000E+00 0. -1.
     999900   -1    0    0    0    0 -0.00000000000E+00 -0.00000000000E+00 -0.74505805969E-08  0.93827000000E+00  0.93827000000E+00 0.  1.
     999902    2    1    2    0    0 -0.28014100896E-02 -0.23513322703E-01  0.53404639316E-02  0.10196556350E+01  0.10193666510E+01 0.  0.
     999903    2    3    3    0    0 -0.73231970699E-01  0.57577759222E-01  0.87480392094E-01  0.12932805747E+00  0.19869764962E-01 0.  0.
         14    1    1    2    0    0  0.28014100896E-02  0.23513322703E-01 -0.53404639316E-02  0.24274365039E-01  0.00000000000E+00 0.  1.
     999901    1    3    3    0    0  0.70430560610E-01 -0.81091081925E-01 -0.82139928162E-01  0.89032757749E+00  0.88000000000E+00 0.  1.
        -11    1    4    4    0    0 -0.55574503216E-01  0.52718522554E-01  0.66171653021E-01  0.10122606785E+00  0.51100000000E-03 0. -1.
         11    1    4    4    0    0 -0.17657467484E-01  0.48592366676E-02  0.21308739073E-01  0.28101989623E-01  0.51100000000E-03 0.  1.
</event>
<event>
 8    1  0.1065239E+005  0.1043930E+01  0.7957747E-01            NaN
         13   -1    0    0    0    0  0.00000000000E+00  0.00000000000E+00  0.74505805969E-08  0.10566000000E+00  0.10566000000E+00 0. -1.
     999900   -1    0    0    0    0 -0.00000000000E+00 -0.00000000000E+00 -0.74505805969E-08  0.93827000000E+00  0.93827000000E+00 0.  1.
     999902    2    1    2    0    0 -0.85156060166E-02  0.91333272552E-02 -0.21121589552E-01  0.10193931959E+01  0.10190978525E+01 0.  0.
     999903    2    3    3    0    0 -0.21980007757E-01  0.66056367177E-01 -0.11131065640E+00  0.13285183169E+00  0.20321972589E-01 0.  0.
         14    1    1    2    0    0  0.85156060166E-02 -0.91333272552E-02  0.21121589552E-01  0.24536804148E-01  0.00000000000E+00 0. -1.
     999901    1    3    3    0    0  0.13464401740E-01 -0.56923039922E-01  0.90189066849E-01  0.88654136416E+00  0.88000000000E+00 0. -1.
        -11    1    4    4    0    0 -0.14189785817E-01  0.51795523016E-01 -0.68404584926E-01  0.86968813870E-01  0.51100000000E-03 0.  1.
         11    1    4    4    0    0 -0.77902219398E-02  0.14260844161E-01 -0.42906071475E-01  0.45883017822E-01  0.51100000000E-03 0. -1.
</event>
<event>
 7    1  0.1065239E+005  0.1043930E+01  0.7957747E-01            NaN
         13   -1    0    0    0    0  0.00000000000E+00  0.00000000000E+00  0.74505805969E-08  0.10566000000E+00  0.10566000000E+00 0.  1.
     999900   -1    0    0    0    0 -0.00000000000E+00 -0.00000000000E+00 -0.74505805969E-08  0.93827000000E+00  0.93827000000E+00 0. -1.
     999902    2    1    2    0    0 -0.11401383799E-01 -0.13203583520E-01  0.16487854022E-01  0.10199263440E+01  0.10196438455E+01 0.  0.
         14    1    1    2    0    0  0.11401383799E-01  0.13203583520E-01 -0.16487854022E-01  0.24003655983E-01  0.00000000000E+00 0. -1.
     999901    1    3    3    0    0 -0.81804743321E-01 -0.66637230051E-01  0.46041185705E-01  0.88749778999E+00  0.88000000000E+00 0.  1.
        -11    1    3    3    0    0 -0.22711950683E-01  0.59545976419E-02  0.10783223387E-02  0.23509866800E-01  0.51100000000E-03 0. -1.
         11    1    3    3    0    0  0.93115310205E-01  0.47479048889E-01 -0.30631654022E-01  0.10891868723E+00  0.51100000000E-03 0.  1.
</event>
<event>
 8    1  0.1065239E+005  0.1043930E+01  0.7957747E-01            NaN
         13   -1    0    0    0    0  0.00000000000E+00  0.00000000000E+00  0.74505805969E-08  0.10566000000E+00  0.10566000000E+00 0. -1.
     999900   -1    0    0    0    0 -0.00000000000E+00 -0.00000000000E+00 -0.74505805969E-08  0.93827000000E+00  0.93827000000E+00 0.  1.
     999902    2    1    2    0    0  0.22661412181E-01 -0.43777121004E-03 -0.69926542211E-02  0.10202102096E+01  0.10199344308E+01 0.  0.
     999903    2    3    3    0    0 -0.42610176905E-01  0.10900977711E+00 -0.52679955371E-01  0.12985832650E+00  0.19729383734E-01 0.  0.
         14    1    1    2    0    0 -0.22661412181E-01  0.43777121004E-03  0.69926542211E-02  0.23719790445E-01  0.00000000000E+00 0. -1.
     999901    1    3    3    0    0  0.65271589086E-01 -0.10944754832E+00  0.45687301150E-01  0.89035188306E+00  0.88000000000E+00 0. -1.
        -11    1    4    4    0    0 -0.26013446203E-01  0.41990028979E-01 -0.17841241844E-01  0.52520785872E-01  0.51100000000E-03 0. -1.
         11    1    4    4    0    0 -0.16596730701E-01  0.67019748128E-01 -0.34838713527E-01  0.77337540628E-01  0.51100000000E-03 0.  1.
</event>
<event>
 8    1  0.1065239E+005  0.1043930E+01  0.7957747E-01            NaN
         13   -1    0    0    0    0  0.00000000000E+00  0.00000000000E+00  0.74505805969E-08  0.10566000000E+00  0.10566000000E+00 0. -1.
     999900   -1    0    0    0    0 -0.00000000000E+00 -0.00000000000E+00 -0.74505805969E-08  0.93827000000E+00  0.93827000000E+00 0.  1.
     999902    2    1    2    0    0 -0.16780624474E-01  0.15290658812E-01  0.46552485431E-02  0.10207553383E+01  0.10204922321E+01 0.  0.
     999903    2    3    3    0    0 -0.48526521161E-01 -0.24561138349E-01 -0.11736300503E+00  0.13087645786E+00  0.19912295188E-01 0.  0.
         14    1    1    2    0    0  0.16780624474E-01 -0.15290658812E-01 -0.46552485431E-02  0.23174661673E-01  0.00000000000E+00 0.  1.
     999901    1    3    3    0    0  0.31745896687E-01  0.39851797160E-01  0.12201825357E+00  0.88987888047E+00  0.88000000000E+00 0. -1.
        -11    1    4    4    0    0 -0.34530835973E-01 -0.25787256977E-01 -0.78577989571E-01  0.89622111230E-01  0.51100000000E-03 0.  1.
         11    1    4    4    0    0 -0.13995685188E-01  0.12261186283E-02 -0.38785015460E-01  0.41254346632E-01  0.51100000000E-03 0. -1.
</event>
<event>
 8    1  0.1065239E+005  0.1043930E+01  0.7957747E-01            NaN
         13   -1    0    0    0    0  0.00000000000E+00  0.00000000000E+00  0.74505805969E-08  0.10566000000E+00  0.10566000000E+00 0. -1.
     999900   -1    0    0    0    0 -0.00000000000E+00 -0.00000000000E+00 -0.74505805969E-08  0.93827000000E+00  0.93827000000E+00 0.  1.
     999902    2    1    2    0    0 -0.16239507415E-01  0.19394035302E-02  0.16225113237E-01  0.10208922660E+01  0.10206322950E+01 0.  0.
     999903    2    3    3    0    0  0.53892800771E-01 -0.30331737798E-01  0.11470707129E+00  0.13203982424E+00  0.21268631556E-01 0.  0.
         14    1    1    2    0    0  0.16239507415E-01 -0.19394035302E-02 -0.16225113237E-01  0.23037733975E-01  0.00000000000E+00 0.  1.
     999901    1    3    3    0    0 -0.70132308186E-01  0.32271141328E-01 -0.98481958049E-01  0.88885244179E+00  0.88000000000E+00 0.  1.
        -11    1    4    4    0    0  0.29878129243E-02 -0.49985430743E-02  0.26173808198E-01  0.26818684075E-01  0.51100000000E-03 0.  1.
         11    1    4    4    0    0  0.50904987846E-01 -0.25333194723E-01  0.88533263089E-01  0.10522114016E+00  0.51100000000E-03 0. -1.
</event>
<event>
 8    1  0.1065239E+005  0.1043930E+01  0.7957747E-01            NaN
         13   -1    0    0    0    0  0.00000000000E+00  0.00000000000E+00  0.74505805969E-08  0.10566000000E+00  0.10566000000E+00 0.  1.
     999900   -1    0    0    0    0 -0.00000000000E+00 -0.00000000000E+00 -0.74505805969E-08  0.93827000000E+00  0.93827000000E+00 0. -1.
     999902    2    1    2    0    0 -0.15947952259E-01 -0.20662073778E-01  0.10821156925E-02  0.10178066494E+01  0.10174713490E+01 0.  0.
     999903    2    3    3    0    0  0.93470747479E-01 -0.51143152676E-01  0.68078556825E-01  0.12798078373E+00  0.19798697066E-01 0.  0.
         14    1    1    2    0    0  0.15947952259E-01  0.20662073778E-01 -0.10821156925E-02  0.26123350636E-01  0.00000000000E+00 0. -1.
     999901    1    3    3    0    0 -0.10941869974E+00  0.30481078898E-01 -0.66996441133E-01  0.88982586563E+00  0.88000000000E+00 0.  1.
        -11    1    4    4    0    0  0.60723725749E-01 -0.43192133165E-01  0.43730045879E-01  0.86403178586E-01  0.51100000000E-03 0.  1.
         11    1    4    4    0    0  0.32747021730E-01 -0.79510195112E-02  0.24348510946E-01  0.41577605147E-01  0.51100000000E-03 0. -1.
</event>
<event>
 8    1  0.1065239E+005  0.1043930E+01  0.7957747E-01            NaN
         13   -1    0    0    0    0  0.00000000000E+00  0.00000000000E+00  0.74505805969E-08  0.10566000000E+00  0.10566000000E+00 0.  1.
     999900   -1    0    0    0    0 -0.00000000000E+00 -0.00000000000E+00 -0.74505805969E-08  0.93827000000E+00  0.93827000000E+00 0. -1.
     999902    2    1    2    0    0  0.18010713642E-01  0.15524763830E-01 -0.69153301291E-02  0.10191666018E+01  0.10188657107E+01 0.  0.
     999903    2    3    3    0    0  0.23719631449E-01  0.12795033261E+00  0.63280300601E-02  0.13189692082E+00  0.20563200773E-01 0.  0.
         14    1    1    2    0    0 -0.18010713642E-01 -0.15524763830E-01  0.69153301291E-02  0.24763398165E-01  0.00000000000E+00 0. -1.
     999901    1    3    3    0    0 -0.57089178070E-02 -0.11242556878E+00 -0.13243360189E-01  0.88726968101E+00  0.88000000000E+00 0.  1.
        -11    1    4    4    0    0 -0.18657837324E-02  0.26748984952E-01  0.61278141783E-02  0.27510008588E-01  0.51100000000E-03 0.  1.
         11    1    4    4    0    0  0.25585415181E-01  0.10120134766E+00  0.20021588175E-03  0.10438691223E+00  0.51100000000E-03 0. -1.
</event>
<event>
 8    1  0.1065239E+005  0.1043930E+01  0.7957747E-01            NaN
         13   -1    0    0    0    0  0.00000000000E+00  0.00000000000E+00  0.74505805969E-08  0.10566000000E+00  0.10566000000E+00 0. -1.
     999900   -1    0    0    0    0 -0.00000000000E+00 -0.00000000000E+00 -0.74505805969E-08  0.93827000000E+00  0.93827000000E+00 0.  1.
     999902    2    1    2    0    0 -0.98072857751E-02 -0.17764618957E-01  0.11986167843E-01  0.10203623790E+01  0.10200901684E+01 0.  0.
     999903    2    3    3    0    0  0.68419425225E-01 -0.33438510331E-01  0.10559716080E+00  0.13180843735E+00  0.20575521034E-01 0.  0.
         14    1    1    2    0    0  0.98072857751E-02  0.17764618957E-01 -0.11986167843E-01  0.23567621020E-01  0.00000000000E+00 0.  1.
     999901    1    3    3    0    0 -0.78226711000E-01  0.15673891374E-01 -0.93610992958E-01  0.88855394163E+00  0.88000000000E+00 0.  1.
        -11    1    4    4    0    0  0.14337354901E-01  0.44806299996E-03  0.13125759760E-01  0.19450120727E-01  0.51100000000E-03 0. -1.
         11    1    4    4    0    0  0.54082070324E-01 -0.33886573331E-01  0.92471401041E-01  0.11235831662E+00  0.51100000000E-03 0.  1.
</event>
<event>
 8    1  0.1065239E+005  0.1043930E+01  0.7957747E-01            NaN
         13   -1    0    0    0    0  0.00000000000E+00  0.00000000000E+00  0.74505805969E-08  0.10566000000E+00  0.10566000000E+00 0. -1.
     999900   -1    0    0    0    0 -0.00000000000E+00 -0.00000000000E+00 -0.74505805969E-08  0.93827000000E+00  0.93827000000E+00 0.  1.
     999902    2    1    2    0    0 -0.85592232763E-03 -0.26699009165E-01 -0.12106250483E-01  0.10146020101E+01  0.10141780454E+01 0.  0.
     999903    2    3    3    0    0  0.87884111708E-01 -0.82016310057E-01  0.36104956953E-01  0.12710039432E+00  0.20016246212E-01 0.  0.
         14    1    1    2    0    0  0.85592232763E-03  0.26699009165E-01  0.12106250483E-01  0.29327989944E-01  0.00000000000E+00 0. -1.
     999901    1    3    3    0    0 -0.88740034036E-01  0.55317300892E-01 -0.48211207435E-01  0.88750161574E+00  0.88000000000E+00 0.  1.
        -11    1    4    4    0    0  0.30608818379E-01 -0.34168391734E-01  0.46573632870E-02  0.46112155773E-01  0.51100000000E-03 0. -1.
         11    1    4    4    0    0  0.57275293330E-01 -0.47847918323E-01  0.31447593666E-01  0.80988238542E-01  0.51100000000E-03 0.  1.
</event>
<event>
 7    1  0.1065239E+005  0.1043930E+01  0.7957747E-01            NaN
         13   -1    0    0    0    0  0.00000000000E+00  0.00000000000E+00  0.74505805969E-08  0.10566000000E+00  0.10566000000E+00 0.  1.
     999900   -1    0    0    0    0 -0.00000000000E+00 -0.00000000000E+00 -0.74505805969E-08  0.93827000000E+00  0.93827000000E+00 0. -1.
     999903    2    1    2    0    0 -0.38619448679E-01  0.10719238023E+00 -0.22914977561E-01  0.11769328187E+00  0.18572673556E-01 0.  0.
         14    1    1    2    0    0 -0.32674491454E-01 -0.18644118199E-01 -0.76860150457E-02  0.38396619154E-01  0.00000000000E+00 0.  1.
     999901    1    1    2    0    0  0.71293940134E-01 -0.88548262035E-01  0.30600992607E-01  0.88784009898E+00  0.88000000000E+00 0.  1.
        -11    1    3    3    0    0 -0.21570655040E-01  0.79515360640E-01 -0.21509762472E-01  0.85152314937E-01  0.51100000000E-03 0. -1.
         11    1    3    3    0    0 -0.17048793639E-01  0.27677019594E-01 -0.14052150896E-02  0.32540966928E-01  0.51100000000E-03 0.  1.
</event>
<event>
 7    1  0.1065239E+005  0.1043930E+01  0.7957747E-01            NaN
         13   -1    0    0    0    0  0.00000000000E+00  0.00000000000E+00  0.74505805969E-08  0.10566000000E+00  0.10566000000E+00 0. -1.
     999900   -1    0    0    0    0 -0.00000000000E+00 -0.00000000000E+00 -0.74505805969E-08  0.93827000000E+00  0.93827000000E+00 0.  1.
     999903    2    1    2    0    0 -0.84074538638E-02  0.76214135270E-01  0.73219801538E-01  0.10794322681E+00  0.20281054722E-01 0.  0.
         14    1    1    2    0    0 -0.23457717361E-01 -0.10782447896E-01  0.38068367988E-01  0.45997025205E-01  0.00000000000E+00 0. -1.
     999901    1    1    2    0    0  0.31865171225E-01 -0.65431687374E-01 -0.11128816953E+00  0.88998974799E+00  0.88000000000E+00 0.  1.
        -11    1    3    3    0    0  0.17680200665E-02  0.44265181222E-01  0.31221312081E-01  0.54199295315E-01  0.51100000000E-03 0. -1.
         11    1    3    3    0    0 -0.10175473930E-01  0.31948954047E-01  0.41998489457E-01  0.53743931491E-01  0.51100000000E-03 0.  1.
</event>
<event>
 8    1  0.1065239E+005  0.1043930E+01  0.7957747E-01            NaN
         13   -1    0    0    0    0  0.00000000000E+00  0.00000000000E+00  0.74505805969E-08  0.10566000000E+00  0.10566000000E+00 0. -1.
     999900   -1    0    0    0    0 -0.00000000000E+00 -0.00000000000E+00 -0.74505805969E-08  0.93827000000E+00  0.93827000000E+00 0. -1.
     999902    2    1    2    0    0  0.12624343850E-01  0.12422781525E-01 -0.16064586501E-01  0.10200182770E+01  0.10197379638E+01 0.  0.
     999903    2    3    3    0    0 -0.31157601204E-01 -0.26461732140E-01 -0.12345972065E+00  0.13155748496E+00  0.19850688750E-01 0.  0.
         14    1    1    2    0    0 -0.12624343850E-01 -0.12422781525E-01  0.16064586501E-01  0.23911723023E-01  0.00000000000E+00 0.  1.
     999901    1    3    3    0    0  0.43781945054E-01  0.38884513664E-01  0.10739513415E+00  0.88846079202E+00  0.88000000000E+00 0.  1.
        -11    1    4    4    0    0 -0.87493982320E-02 -0.17049106888E-01 -0.36047681247E-01  0.40827937242E-01  0.51100000000E-03 0. -1.
         11    1    4    4    0    0 -0.22408202972E-01 -0.94126252517E-02 -0.87412039407E-01  0.90729547716E-01  0.51100000000E-03 0.  1.
</event>
<event>
 8    1  0.1065239E+005  0.1043930E+01  0.7957747E-01            NaN
         13   -1    0    0    0    0  0.00000000000E+00  0.00000000000E+00  0.74505805969E-08  0.10566000000E+00  0.10566000000E+00 0. -1.
     999900   -1    0    0    0    0 -0.00000000000E+00 -0.00000000000E+00 -0.74505805969E-08  0.93827000000E+00  0.93827000000E+00 0.  1.
     999902    2    1    2    0    0  0.21708681777E-02 -0.23408060488E-01 -0.23554424325E-02  0.10203037842E+01  0.10200302025E+01 0.  0.
     999903    2    3    3    0    0  0.77215783267E-01  0.50015945158E-01 -0.89350507063E-01  0.12980338264E+00  0.20038290282E-01 0.  0.
         14    1    1    2    0    0 -0.21708681777E-02  0.23408060488E-01  0.23554424325E-02  0.23626215811E-01  0.00000000000E+00 0.  1.
     999901    1    3    3    0    0 -0.75044915089E-01 -0.73424005646E-01  0.86995064630E-01  0.89050040155E+00  0.88000000000E+00 0. -1.
        -11    1    4    4    0    0  0.56227527760E-01  0.46155987485E-01 -0.67065116398E-01  0.98943928653E-01  0.51100000000E-03 0.  1.
         11    1    4    4    0    0  0.20988255506E-01  0.38599576727E-02 -0.22285390665E-01  0.30859453989E-01  0.51100000000E-03 0. -1.
</event>
<event>
 8    1  0.1065239E+005  0.1043930E+01  0.7957747E-01            NaN
         13   -1    0    0    0    0  0.00000000000E+00  0.00000000000E+00  0.74505805969E-08  0.10566000000E+00  0.10566000000E+00 0. -1.
     999900   -1    0    0    0    0 -0.00000000000E+00 -0.00000000000E+00 -0.74505805969E-08  0.93827000000E+00  0.93827000000E+00 0. -1.
     999902    2    1    2    0    0  0.86777046099E-02  0.17088904083E-01 -0.15589722571E-01  0.10192242790E+01  0.10189248050E+01 0.  0.
     999903    2    3    3    0    0  0.20642539435E-01  0.33295945102E-01 -0.12458630185E+00  0.13227102221E+00  0.20955722630E-01 0.  0.
         14    1    1    2    0    0 -0.86777046099E-02 -0.17088904083E-01  0.15589722571E-01  0.24705720995E-01  0.00000000000E+00 0. -1.
     999901    1    3    3    0    0 -0.11964834826E-01 -0.16207041019E-01  0.10899657928E+00  0.88695325680E+00  0.88000000000E+00 0.  1.
        -11    1    4    4    0    0 -0.18188571808E-02  0.10067235282E-01 -0.49117966629E-01  0.50174627397E-01  0.51100000000E-03 0. -1.
         11    1    4    4    0    0  0.22461396616E-01  0.23228709819E-01 -0.75468335226E-01  0.82096394808E-01  0.51100000000E-03 0.  1.
</event>
<event>
 8    1  0.1065239E+005  0.1043930E+01  0.7957747E-01            NaN
         13   -1    0    0    0    0  0.00000000000E+00  0.00000000000E+00  0.74505805969E-08  0.10566000000E+00  0.10566000000E+00 0.  1.
     999900   -1    0    0    0    0 -0.00000000000E+00 -0.00000000000E+00 -0.74505805969E-08  0.93827000000E+00  0.93827000000E+00 0.  1.
     999902    2    1    2    0    0 -0.18664736076E-01 -0.29937616397E-02 -0.15316374250E-01  0.10196004644E+01  0.10193101494E+01 0.  0.
     999903    2    3    3    0    0 -0.94505248415E-02 -0.70441994246E-01  0.10553685834E+00  0.12873590142E+00  0.19583586869E-01 0.  0.
         14    1    1    2    0    0  0.18664736076E-01  0.29937616397E-02  0.15316374250E-01  0.24329535584E-01  0.00000000000E+00 0.  1.
     999901    1    3    3    0    0 -0.92142112343E-02  0.67448232607E-01 -0.12085323259E+00  0.89086456299E+00  0.88000000000E+00 0.  1.
        -11    1    4    4    0    0 -0.11325809601E-01 -0.20202950822E-01  0.28238902952E-01  0.36525743606E-01  0.51100000000E-03 0.  1.
         11    1    4    4    0    0  0.18752847600E-02 -0.50239043424E-01  0.77297955384E-01  0.92210157817E-01  0.51100000000E-03 0. -1.
</event>
<event>
 8    1  0.1065239E+005  0.1043930E+01  0.7957747E-01            NaN
         13   -1    0    0    0    0  0.00000000000E+00  0.00000000000E+00  0.74505805969E-08  0.10566000000E+00  0.10566000000E+00 0. -1.
     999900   -1    0    0    0    0 -0.00000000000E+00 -0.00000000000E+00 -0.74505805969E-08  0.93827000000E+00  0.93827000000E+00 0.  1.
     999902    2    1    2    0    0  0.19197320759E-01 -0.10273712521E-01  0.94358427940E-02  0.10201998204E+01  0.10199237972E+01 0.  0.
     999903    2    3    3    0    0 -0.44643880981E-01  0.36994670644E-01  0.11471742087E+00  0.13037162928E+00  0.21794341070E-01 0.  0.
         14    1    1    2    0    0 -0.19197320759E-01  0.10273712521E-01 -0.94358427940E-02  0.23730179572E-01  0.00000000000E+00 0.  1.
     999901    1    3    3    0    0  0.63841201740E-01 -0.47268383165E-01 -0.10528157808E+00  0.88982819115E+00  0.88000000000E+00 0.  1.
        -11    1    4    4    0    0 -0.16057000577E-01  0.24068337837E-02  0.21815946951E-01  0.27199573136E-01  0.51100000000E-03 0. -1.
         11    1    4    4    0    0 -0.28586880404E-01  0.34587836860E-01  0.92901473924E-01  0.10317205614E+00  0.51100000000E-03 0.  1.
</event>
<event>
 8    1  0.1065239E+005  0.1043930E+01  0.7957747E-01            NaN
         13   -1    0    0    0    0  0.00000000000E+00  0.00000000000E+00  0.74505805969E-08  0.10566000000E+00  0.10566000000E+00 0.  1.
     999900   -1    0    0    0    0 -0.00000000000E+00 -0.00000000000E+00 -0.74505805969E-08  0.93827000000E+00  0.93827000000E+00 0.  1.
     999902    2    1    2    0    0 -0.62622573891E-03  0.13041894262E-01  0.16201941004E-01  0.10231216830E+01  0.10229100606E+01 0.  0.
     999903    2    3    3    0    0 -0.40568937421E-01 -0.93028991402E-01 -0.79847271562E-01  0.13066893677E+00  0.19963775565E-01 0.  0.
         14    1    1    2    0    0  0.62622573891E-03 -0.13041894262E-01 -0.16201941004E-01  0.20808317014E-01  0.00000000000E+00 0. -1.
     999901    1    3    3    0    0  0.39942711682E-01  0.10607088566E+00  0.96049212566E-01  0.89245274622E+00  0.88000000000E+00 0. -1.
        -11    1    4    4    0    0 -0.96778466030E-02 -0.12524786708E-01 -0.20877326956E-01  0.26204100801E-01  0.51100000000E-03 0.  1.
         11    1    4    4    0    0 -0.30891090818E-01 -0.80504204694E-01 -0.58969944606E-01  0.10446483596E+00  0.51100000000E-03 0. -1.
</event>
<event>
 8    1  0.1065239E+005  0.1043930E+01  0.7957747E-01            NaN
         13   -1    0    0    0    0  0.00000000000E+00  0.00000000000E+00  0.74505805969E-08  0.10566000000E+00  0.10566000000E+00 0. -1.
     999900   -1    0    0    0    0 -0.00000000000E+00 -0.00000000000E+00 -0.74505805969E-08  0.93827000000E+00  0.93827000000E+00 0.  1.
     999902    2    1    2    0    0 -0.65662993626E-02  0.17772251783E-02  0.19772137341E-01  0.10230203794E+01  0.10228066702E+01 0.  0.
     999903    2    3    3    0    0 -0.80255776597E-02  0.82166605494E-01 -0.10009774969E+00  0.13126179565E+00  0.19857959326E-01 0.  0.
         14    1    1    2    0    0  0.65662993626E-02 -0.17772251783E-02 -0.19772137341E-01  0.20909620553E-01  0.00000000000E+00 0.  1.
     999901    1    3    3    0    0  0.14592782971E-02 -0.80389380316E-01  0.11986988703E+00  0.89175858380E+00  0.88000000000E+00 0. -1.
        -11    1    4    4    0    0 -0.14403257765E-01  0.47067469925E-01 -0.57029440642E-01  0.75335375358E-01  0.51100000000E-03 0.  1.
         11    1    4    4    0    0  0.63776801056E-02  0.35099135569E-01 -0.43068309049E-01  0.55926420291E-01  0.51100000000E-03 0. -1.
</event>
<event>
 8    1  0.1065239E+005  0.1043930E+01  0.7957747E-01            NaN
         13   -1    0    0    0    0  0.00000000000E+00  0.00000000000E+00  0.74505805969E-08  0.10566000000E+00  0.10566000000E+00 0.  1.
     999900   -1    0    0    0    0 -0.00000000000E+00 -0.00000000000E+00 -0.74505805969E-08  0.93827000000E+00  0.93827000000E+00 0.  1.
     999902    2    1    2    0    0 -0.15669153987E-01 -0.15667424660E-01 -0.74398533330E-02  0.10205560401E+01  0.10202883362E+01 0.  0.
     999903    2    3    3    0    0 -0.10835906812E+00  0.39408838471E-01 -0.61762114624E-01  0.13231298612E+00  0.19935478399E-01 0.  0.
         14    1    1    2    0    0  0.15669153987E-01  0.15667424660E-01  0.74398533330E-02  0.23373959865E-01  0.00000000000E+00 0. -1.
     999901    1    3    3    0    0  0.92689914131E-01 -0.55076263131E-01  0.54322261291E-01  0.88824305402E+00  0.88000000000E+00 0.  1.
        -11    1    4    4    0    0 -0.21213401933E-01  0.51851586463E-02 -0.37293413851E-02  0.22159950359E-01  0.51100000000E-03 0.  1.
         11    1    4    4    0    0 -0.87145666185E-01  0.34223679824E-01 -0.58032773239E-01  0.11015303576E+00  0.51100000000E-03 0. -1.
</event>
<event>
 8    1  0.1065239E+005  0.1043930E+01  0.7957747E-01            NaN
         13   -1    0    0    0    0  0.00000000000E+00  0.00000000000E+00  0.74505805969E-08  0.10566000000E+00  0.10566000000E+00 0. -1.
     999900   -1    0    0    0    0 -0.00000000000E+00 -0.00000000000E+00 -0.74505805969E-08  0.93827000000E+00  0.93827000000E+00 0.  1.
     999902    2    1    2    0    0  0.93521565661E-02  0.13112017823E-01  0.17736596135E-01  0.10199722312E+01  0.10196908246E+01 0.  0.
     999903    2    3    3    0    0 -0.87741934390E-01  0.85489718037E-01  0.42821171329E-01  0.13132436511E+00  0.20131994825E-01 0.  0.
         14    1    1    2    0    0 -0.93521565661E-02 -0.13112017823E-01 -0.17736596135E-01  0.23957768809E-01  0.00000000000E+00 0.  1.
     999901    1    3    3    0    0  0.97094090956E-01 -0.72377700214E-01 -0.25084575194E-01  0.88864786609E+00  0.88000000000E+00 0.  1.
        -11    1    4    4    0    0 -0.25699541932E-01  0.37537008019E-01  0.11835020596E-01  0.47008746633E-01  0.51100000000E-03 0.  1.
         11    1    4    4    0    0 -0.62042392459E-01  0.47952710018E-01  0.30986150733E-01  0.84315618472E-01  0.51100000000E-03 0. -1.
</event>
<event>
 8    1  0.1065239E+005  0.1043930E+01  0.7957747E-01            NaN
         13   -1    0    0    0    0  0.00000000000E+00  0.00000000000E+00  0.74505805969E-08  0.10566000000E+00  0.10566000000E+00 0.  1.
     999900   -1    0    0    0    0 -0.00000000000E+00 -0.00000000000E+00 -0.74505805969E-08  0.93827000000E+00  0.93827000000E+00 0. -1.
     999902    2    1    2    0    0 -0.37481139558E-02  0.86966097118E-02  0.21698168629E-01  0.10202553321E+01  0.10199806139E+01 0.  0.
     999903    2    3    3    0    0  0.14420253214E-01 -0.10895639262E+00  0.68274206865E-01  0.13101877984E+00  0.20618296553E-01 0.  0.
         14    1    1    2    0    0  0.37481139558E-02 -0.86966097118E-02 -0.21698168629E-01  0.23674667908E-01  0.00000000000E+00 0. -1.
     999901    1    3    3    0    0 -0.18168367169E-01  0.11765300233E+00 -0.46576038237E-01  0.88923655225E+00  0.88000000000E+00 0. -1.
        -11    1    4    4    0    0  0.18781320414E-01 -0.97549741990E-01  0.57879950844E-01  0.11497408399E+00  0.51100000000E-03 0. -1.
         11    1    4    4    0    0 -0.43610672002E-02 -0.11406650628E-01  0.10394256021E-01  0.16044695849E-01  0.51100000000E-03 0.  1.
</event>
<event>
 8    1  0.1065239E+005  0.1043930E+01  0.7957747E-01            NaN
         13   -1    0    0    0    0  0.00000000000E+00  0.00000000000E+00  0.74505805969E-08  0.10566000000E+00  0.10566000000E+00 0. -1.
     999900   -1    0    0    0    0 -0.00000000000E+00 -0.00000000000E+00 -0.74505805969E-08  0.93827000000E+00  0.93827000000E+00 0.  1.
     999902    2    1    2    0    0 -0.78268606911E-03 -0.24034098938E-01  0.19132527895E-02  0.10198071675E+01  0.10195218232E+01 0.  0.
     999903    2    3    3    0    0  0.21707089338E-01 -0.72865759397E-01  0.10631228011E+00  0.13200680825E+00  0.18517016572E-01 0.  0.
         14    1    1    2    0    0  0.78268606911E-03  0.24034098938E-01 -0.19132527895E-02  0.24122832451E-01  0.00000000000E+00 0.  1.
     999901    1    3    3    0    0 -0.22489775407E-01  0.48831660459E-01 -0.10439902732E+00  0.88780035930E+00  0.88000000000E+00 0.  1.
        -11    1    4    4    0    0  0.82806397045E-02 -0.36683401309E-01  0.37509007787E-01  0.53117113172E-01  0.51100000000E-03 0. -1.
         11    1    4    4    0    0  0.13426449633E-01 -0.36182358088E-01  0.68803272323E-01  0.78889695081E-01  0.51100000000E-03 0.  1.
</event>
<event>
 8    1  0.1065239E+005  0.1043930E+01  0.7957747E-01            NaN
         13   -1    0    0    0    0  0.00000000000E+00  0.00000000000E+00  0.74505805969E-08  0.10566000000E+00  0.10566000000E+00 0. -1.
     999900   -1    0    0    0    0 -0.00000000000E+00 -0.00000000000E+00 -0.74505805969E-08  0.93827000000E+00  0.93827000000E+00 0. -1.
     999902    2    1    2    0    0 -0.11395758841E-01 -0.11228521144E-01  0.17382554104E-01  0.10203059404E+01  0.10200324092E+01 0.  0.
     999903    2    3    3    0    0 -0.89526801696E-01 -0.85714460885E-01 -0.40409342338E-01  0.13182829947E+00  0.19590011872E-01 0.  0.
         14    1    1    2    0    0  0.11395758841E-01  0.11228521144E-01 -0.17382554104E-01  0.23624059638E-01  0.00000000000E+00 0.  1.
     999901    1    3    3    0    0  0.78131042855E-01  0.74485939742E-01  0.57791896442E-01  0.88847764090E+00  0.88000000000E+00 0. -1.
        -11    1    4    4    0    0 -0.40210699452E-01 -0.29907139926E-01 -0.86244496807E-02  0.50852528179E-01  0.51100000000E-03 0. -1.
         11    1    4    4    0    0 -0.49316102244E-01 -0.55807320960E-01 -0.31784892658E-01  0.80975771287E-01  0.51100000000E-03 0.  1.
</event>
<event>
 8    1  0.1065239E+005  0.1043930E+01  0.7957747E-01            NaN
         13   -1    0    0    0    0  0.00000000000E+00  0.00000000000E+00  0.74505805969E-08  0.10566000000E+00  0.10566000000E+00 0.  1.
     999900   -1    0    0    0    0 -0.00000000000E+00 -0.00000000000E+00 -0.74505805969E-08  0.93827000000E+00  0.93827000000E+00 0. -1.
     999902    2    1    2    0    0  0.72507111756E-02  0.18087221821E-01  0.13258577508E-01  0.10203607343E+01  0.10200884853E+01 0.  0.
     999903    2    3    3    0    0 -0.72153577037E-01  0.78216362733E-01  0.76338212858E-01  0.13249836046E+00  0.20108572895E-01 0.  0.
         14    1    1    2    0    0 -0.72507111756E-02 -0.18087221821E-01 -0.13258577508E-01  0.23569265650E-01  0.00000000000E+00 0. -1.
     999901    1    3    3    0    0  0.79404288212E-01 -0.60129140912E-01 -0.63079635349E-01  0.88786237389E+00  0.88000000000E+00 0.  1.
        -11    1    4    4    0    0 -0.33018227672E-01  0.48738944199E-01  0.35780033379E-01  0.68892379476E-01  0.51100000000E-03 0. -1.
         11    1    4    4    0    0 -0.39135349365E-01  0.29477418534E-01  0.40558179479E-01  0.63605980984E-01  0.51100000000E-03 0.  1.
</event>
<event>
 8    1  0.1065239E+005  0.1043930E+01  0.7957747E-01            NaN
         13   -1    0    0    0    0  0.00000000000E+00  0.00000000000E+00  0.74505805969E-08  0.10566000000E+00  0.10566000000E+00 0. -1.
     999900   -1    0    0    0    0 -0.00000000000E+00 -0.00000000000E+00 -0.74505805969E-08  0.93827000000E+00  0.93827000000E+00 0. -1.
     999902    2    1    2    0    0  0.14475640106E-01  0.19450589251E-01  0.87194893260E-02  0.10181637610E+01  0.10178376811E+01 0.  0.
     999903    2    3    3    0    0 -0.20622531143E-01 -0.12097757074E+00 -0.19519564186E-01  0.12589172070E+00  0.20170536430E-01 0.  0.
         14    1    1    2    0    0 -0.14475640106E-01 -0.19450589251E-01 -0.87194893260E-02  0.25766239012E-01  0.00000000000E+00 0.  1.
     999901    1    3    3    0    0  0.35098171249E-01  0.14042815999E+00  0.28239053512E-01  0.89227204029E+00  0.88000000000E+00 0.  1.
        -11    1    4    4    0    0 -0.78321514244E-02 -0.86119397486E-01 -0.72355447902E-02  0.86778496465E-01  0.51100000000E-03 0.  1.
         11    1    4    4    0    0 -0.12790379719E-01 -0.34858173258E-01 -0.12284019395E-01  0.39113224231E-01  0.51100000000E-03 0. -1.
</event>
<event>
 8    1  0.1065239E+005  0.1043930E+01  0.7957747E-01            NaN
         13   -1    0    0    0    0  0.00000000000E+00  0.00000000000E+00  0.74505805969E-08  0.10566000000E+00  0.10566000000E+00 0.  1.
     999900   -1    0    0    0    0 -0.00000000000E+00 -0.00000000000E+00 -0.74505805969E-08  0.93827000000E+00  0.93827000000E+00 0.  1.
     999902    2    1    2    0    0  0.69516549125E-02 -0.18405433754E-01  0.12507765400E-01  0.10206162767E+01  0.10203499667E+01 0.  0.
     999903    2    3    3    0    0  0.11277185350E+00  0.58849863807E-01  0.22397839124E-01  0.13086119301E+00  0.21028343448E-01 0.  0.
         14    1    1    2    0    0 -0.69516549125E-02  0.18405433754E-01 -0.12507765400E-01  0.23313723276E-01  0.00000000000E+00 0. -1.
     999901    1    3    3    0    0 -0.10582019859E+00 -0.77255297561E-01 -0.98900737236E-02  0.88975508371E+00  0.88000000000E+00 0.  1.
        -11    1    4    4    0    0  0.40884285926E-01  0.23916222036E-01  0.18453977200E-01  0.50836216496E-01  0.51100000000E-03 0.  1.
         11    1    4    4    0    0  0.71887567572E-01  0.34933641771E-01  0.39438619238E-02  0.80024976518E-01  0.51100000000E-03 0. -1.
</event>
<event>
 8    1  0.1065239E+005  0.1043930E+01  0.7957747E-01            NaN
         13   -1    0    0    0    0  0.00000000000E+00  0.00000000000E+00  0.74505805969E-08  0.10566000000E+00  0.10566000000E+00 0. -1.
     999900   -1    0    0    0    0 -0.00000000000E+00 -0.00000000000E+00 -0.74505805969E-08  0.93827000000E+00  0.93827000000E+00 0. -1.
     999902    2    1    2    0    0  0.37306383122E-02 -0.26608319255E-02 -0.23373674318E-01  0.10201113867E+01  0.10198332780E+01 0.  0.
     999903    2    3    3    0    0  0.60273191895E-01 -0.10957161512E+00 -0.35445020345E-01  0.13175746323E+00  0.21561149050E-01 0.  0.
         14    1    1    2    0    0 -0.37306383122E-02  0.26608319255E-02  0.23373674318E-01  0.23818613307E-01  0.00000000000E+00 0. -1.
     999901    1    3    3    0    0 -0.56542553583E-01  0.10691078320E+00  0.12071346027E-01  0.88835392346E+00  0.88000000000E+00 0. -1.
        -11    1    4    4    0    0  0.35783093312E-01 -0.81387222053E-01 -0.18797088935E-01  0.90872995735E-01  0.51100000000E-03 0. -1.
         11    1    4    4    0    0  0.24490098583E-01 -0.28184393072E-01 -0.16647931410E-01  0.40884467499E-01  0.51100000000E-03 0.  1.
</event>
<event>
 8    1  0.1065239E+005  0.1043930E+01  0.7957747E-01            NaN
         13   -1    0    0    0    0  0.00000000000E+00  0.00000000000E+00  0.74505805969E-08  0.10566000000E+00  0.10566000000E+00 0.  1.
     999900   -1    0    0    0    0 -0.00000000000E+00 -0.00000000000E+00 -0.74505805969E-08  0.93827000000E+00  0.93827000000E+00 0.  1.
     999902    2    1    2    0    0 -0.82950166768E-02 -0.13153580457E-01  0.16510745022E-01  0.10212489797E+01  0.10209970861E+01 0.  0.
     999903    2    3    3    0    0 -0.12040873384E+00  0.47747491624E-01  0.14960441707E-01  0.13204662388E+00  0.20842502757E-01 0.  0.
         14    1    1    2    0    0  0.82950166768E-02  0.13153580457E-01 -0.16510745022E-01  0.22681020297E-01  0.00000000000E+00 0. -1.
     999901    1    3    3    0    0  0.11211371716E+00 -0.60901072080E-01  0.15503033151E-02  0.88920235582E+00  0.88000000000E+00 0.  1.
        -11    1    4    4    0    0 -0.49214216055E-01  0.30614951926E-01  0.59908418435E-02  0.58270624249E-01  0.51100000000E-03 0. -1.
         11    1    4    4    0    0 -0.71194517786E-01  0.17132539697E-01  0.89695998636E-02  0.73775999633E-01  0.51100000000E-03 0.  1.
</event>
<event>
 8    1  0.1065239E+005  0.1043930E+01  0.7957747E-01            NaN
         13   -1    0    0    0    0  0.00000000000E+00  0.00000000000E+00  0.74505805969E-08  0.10566000000E+00  0.10566000000E+00 0.  1.
     999900   -1    0    0    0    0 -0.00000000000E+00 -0.00000000000E+00 -0.74505805969E-08  0.93827000000E+00  0.93827000000E+00 0.  1.
     999902    2    1    2    0    0  0.21050569088E-02 -0.23524236791E-01 -0.79115309392E-03  0.10202985188E+01  0.10200248137E+01 0.  0.
     999903    2    3    3    0    0  0.75662267643E-01  0.10091147051E+00 -0.11155663481E-01  0.12844520597E+00  0.21582828428E-01 0.  0.
         14    1    1    2    0    0 -0.21050569088E-02  0.23524236791E-01  0.79115309392E-03  0.23631481215E-01  0.00000000000E+00 0. -1.
     999901    1    3    3    0    0 -0.73557210734E-01 -0.12443570730E+00  0.10364510387E-01  0.89185331281E+00  0.88000000000E+00 0.  1.
        -11    1    4    4    0    0  0.14223020004E-01  0.12907524901E-01  0.51301495179E-02  0.19886629986E-01  0.51100000000E-03 0.  1.
         11    1    4    4    0    0  0.61439247639E-01  0.88003945613E-01 -0.16285812999E-01  0.10855857598E+00  0.51100000000E-03 0. -1.
</event>
<event>
 8    1  0.1065239E+005  0.1043930E+01  0.7957747E-01            NaN
         13   -1    0    0    0    0  0.00000000000E+00  0.00000000000E+00  0.74505805969E-08  0.10566000000E+00  0.10566000000E+00 0. -1.
     999900   -1    0    0    0    0 -0.00000000000E+00 -0.00000000000E+00 -0.74505805969E-08  0.93827000000E+00  0.93827000000E+00 0.  1.
     999902    2    1    2    0    0 -0.12309593578E-01 -0.12102607266E-01 -0.14040810008E-01  0.10216781789E+01  0.10214358314E+01 0.  0.
     999903    2    3    3    0    0  0.13571634564E-01 -0.56796704312E-01  0.11503999432E+00  0.13076333767E+00  0.21325930211E-01 0.  0.
         14    1    1    2    0    0  0.12309593578E-01  0.12102607266E-01  0.14040810008E-01  0.22251821102E-01  0.00000000000E+00 0. -1.
     999901    1    3    3    0    0 -0.25881228142E-01  0.44694097046E-01 -0.12908080433E+00  0.89091484123E+00  0.88000000000E+00 0.  1.
        -11    1    4    4    0    0 -0.92819660455E-03 -0.32223734074E-01  0.47146045965E-01  0.57116034156E-01  0.51100000000E-03 0.  1.
         11    1    4    4    0    0  0.14499831169E-01 -0.24572970237E-01  0.67893948354E-01  0.73647303511E-01  0.51100000000E-03 0. -1.
</event>
<event>
 8    1  0.1065239E+005  0.1043930E+01  0.7957747E-01            NaN
         13   -1    0    0    0    0  0.00000000000E+00  0.00000000000E+00  0.74505805969E-08  0.10566000000E+00  0.10566000000E+00 0. -1.
     999900   -1    0    0    0    0 -0.00000000000E+00 -0.00000000000E+00 -0.74505805969E-08  0.93827000000E+00  0.93827000000E+00 0.  1.
     999902    2    1    2    0    0 -0.59938449921E-02 -0.20866610059E-01  0.91031998022E-02  0.10203883382E+01  0.10201167340E+01 0.  0.
     999903    2    3    3    0    0 -0.36765791960E-01 -0.11616861215E+00 -0.50404180732E-01  0.13271130648E+00  0.14994649854E-01 0.  0.
         14    1    1    2    0    0  0.59938449921E-02  0.20866610059E-01 -0.91031998022E-02  0.23541661789E-01  0.00000000000E+00 0.  1.
     999901    1    3    3    0    0  0.30771946968E-01  0.95302002095E-01  0.59507380534E-01  0.88767703173E+00  0.88000000000E+00 0. -1.
        -11    1    4    4    0    0 -0.31768918790E-01 -0.79521589695E-01 -0.38117011881E-01  0.93734279452E-01  0.51100000000E-03 0.  1.
         11    1    4    4    0    0 -0.49968731702E-02 -0.36647022459E-01 -0.12287168852E-01  0.38977027029E-01  0.51100000000E-03 0. -1.
</event>
<event>
 8    1  0.1065239E+005  0.1043930E+01  0.7957747E-01            NaN
         13   -1    0    0    0    0  0.00000000000E+00  0.00000000000E+00  0.74505805969E-08  0.10566000000E+00  0.10566000000E+00 0.  1.
     999900   -1    0    0    0    0 -0.00000000000E+00 -0.00000000000E+00 -0.74505805969E-08  0.93827000000E+00  0.93827000000E+00 0. -1.
     999902    2    1    2    0    0 -0.22348284371E-01 -0.64649147800E-02 -0.38452444903E-02  0.10203497786E+01  0.10200772734E+01 0.  0.
     999903    2    3    3    0    0 -0.37553474858E-01  0.91548568061E-02 -0.12432322812E+00  0.13187348760E+00  0.20982773969E-01 0.  0.
         14    1    1    2    0    0  0.22348284371E-01  0.64649147800E-02  0.38452444903E-02  0.23580221429E-01  0.00000000000E+00 0.  1.
     999901    1    3    3    0    0  0.15205190488E-01 -0.15619771586E-01  0.12047798363E+00  0.88847629097E+00  0.88000000000E+00 0.  1.
        -11    1    4    4    0    0 -0.14758092501E-01 -0.31580463105E-02 -0.24833169342E-01  0.29064101076E-01  0.51100000000E-03 0. -1.
         11    1    4    4    0    0 -0.22795382357E-01  0.12312903117E-01 -0.99490058780E-01  0.10280938652E+00  0.51100000000E-03 0.  1.
</event>
<event>
 8    1  0.1065239E+005  0.1043930E+01  0.7957747E-01            NaN
         13   -1    0    0    0    0  0.00000000000E+00  0.00000000000E+00  0.74505805969E-08  0.10566000000E+00  0.10566000000E+00 0.  1.
     999900   -1    0    0    0    0 -0.00000000000E+00 -0.00000000000E+00 -0.74505805969E-08  0.93827000000E+00  0.93827000000E+00 0.  1.
     999902    2    1    2    0    0 -0.10015806998E-01 -0.10877030689E-01 -0.18342998905E-01  0.10203696139E+01  0.10200975723E+01 0.  0.
     999903    2    3    3    0    0 -0.41341945309E-01  0.40201193629E-01  0.11292646026E+00  0.12861741574E+00  0.21558334627E-01 0.  0.
         14    1    1    2    0    0  0.10015806998E-01  0.10877030689E-01  0.18342998905E-01  0.23560386144E-01  0.00000000000E+00 0.  1.
     999901    1    3    3    0    0  0.31326138311E-01 -0.51078224318E-01 -0.13126945917E+00  0.89175219812E+00  0.88000000000E+00 0.  1.
        -11    1    4    4    0    0 -0.39925685705E-01  0.27900289247E-01  0.83188944451E-01  0.96400975715E-01  0.51100000000E-03 0. -1.
         11    1    4    4    0    0 -0.14162596040E-02  0.12300904383E-01  0.29737515813E-01  0.32216440021E-01  0.51100000000E-03 0.  1.
</event>
<event>
 8    1  0.1065239E+005  0.1043930E+01  0.7957747E-01            NaN
         13   -1    0    0    0    0  0.00000000000E+00  0.00000000000E+00  0.74505805969E-08  0.10566000000E+00  0.10566000000E+00 0.  1.
     999900   -1    0    0    0    0 -0.00000000000E+00 -0.00000000000E+00 -0.74505805969E-08  0.93827000000E+00  0.93827000000E+00 0. -1.
     999902    2    1    2    0    0  0.20629949749E-01  0.42228110602E-02  0.11457828469E-01  0.10199569152E+01  0.10196751444E+01 0.  0.
     999903    2    3    3    0    0  0.56184798586E-01 -0.17906198454E-01 -0.11406586538E+00  0.13006364183E+00  0.20692166273E-01 0.  0.
         14    1    1    2    0    0 -0.20629949749E-01 -0.42228110602E-02 -0.11457828469E-01  0.23973084765E-01  0.00000000000E+00 0. -1.
     999901    1    3    3    0    0 -0.35554848837E-01  0.22129009514E-01  0.12552369385E+00  0.88989327341E+00  0.88000000000E+00 0.  1.
        -11    1    4    4    0    0  0.25907408076E-01 -0.17624011088E-01 -0.68814796267E-01  0.75614395893E-01  0.51100000000E-03 0.  1.
         11    1    4    4    0    0  0.30277390511E-01 -0.28218736553E-03 -0.45251069115E-01  0.54449245935E-01  0.51100000000E-03 0. -1.
</event>
<event>
 8    1  0.1065239E+005  0.1043930E+01  0.7957747E-01            NaN
         13   -1    0    0    0    0  0.00000000000E+00  0.00000000000E+00  0.74505805969E-08  0.10566000000E+00  0.10566000000E+00 0. -1.
     999900   -1    0    0    0    0 -0.00000000000E+00 -0.00000000000E+00 -0.74505805969E-08  0.93827000000E+00  0.93827000000E+00 0.  1.
     999902    2    1    2    0    0 -0.18432978468E-01 -0.10289943417E-01  0.12001808551E-01  0.10196462392E+01  0.10193570287E+01 0.  0.
     999903    2    3    3    0    0  0.12449337538E+00  0.19168404414E-01 -0.29521318206E-02  0.12750311322E+00  0.19552507697E-01 0.  0.
         14    1    1    2    0    0  0.18432978468E-01  0.10289943417E-01 -0.12001808551E-01  0.24283760813E-01  0.00000000000E+00 0.  1.
     999901    1    3    3    0    0 -0.14292635385E+00 -0.29458347830E-01  0.14953940372E-01  0.89214312597E+00  0.88000000000E+00 0. -1.
        -11    1    4    4    0    0  0.17553105086E-01 -0.35195535050E-02  0.22914787843E-02  0.18055767805E-01  0.51100000000E-03 0. -1.
         11    1    4    4    0    0  0.10694027029E+00  0.22687957919E-01 -0.52436106049E-02  0.10944734541E+00  0.51100000000E-03 0.  1.
</event>
<event>
 8    1  0.1065239E+005  0.1043930E+01  0.7957747E-01            NaN
         13   -1    0    0    0    0  0.00000000000E+00  0.00000000000E+00  0.74505805969E-08  0.10566000000E+00  0.10566000000E+00 0. -1.
     999900   -1    0    0    0    0 -0.00000000000E+00 -0.00000000000E+00 -0.74505805969E-08  0.93827000000E+00  0.93827000000E+00 0. -1.
     999902    2    1    2    0    0 -0.19327833631E-01 -0.10751661055E-01 -0.46885345679E-02  0.10213214679E+01  0.10210711998E+01 0.  0.
     999903    2    3    3    0    0  0.30809506218E-01  0.83201999940E-01  0.93093357772E-01  0.12952421417E+00  0.15438598592E-01 0.  0.
         14    1    1    2    0    0  0.19327833631E-01  0.10751661055E-01  0.46885345679E-02  0.22608532122E-01  0.00000000000E+00 0.  1.
     999901    1    3    3    0    0 -0.50137339849E-01 -0.93953660994E-01 -0.97781892340E-01  0.89179725371E+00  0.88000000000E+00 0. -1.
        -11    1    4    4    0    0  0.30530055914E-02  0.28629900020E-01  0.31405390505E-01  0.42609291147E-01  0.51100000000E-03 0. -1.
         11    1    4    4    0    0  0.27756500627E-01  0.54572099919E-01  0.61687967267E-01  0.86914923018E-01  0.51100000000E-03 0.  1.
</event>
<event>
 8    1  0.1065239E+005  0.1043930E+01  0.7957747E-01            NaN
         13   -1    0    0    0    0  0.00000000000E+00  0.00000000000E+00  0.74505805969E-08  0.10566000000E+00  0.10566000000E+00 0.  1.
     999900   -1    0    0    0    0 -0.00000000000E+00 -0.00000000000E+00 -0.74505805969E-08  0.93827000000E+00  0.93827000000E+00 0.  1.
     999902    2    1    2    0    0  0.22019858891E-02 -0.22067899886E-01  0.68989730997E-02  0.10207042217E+01  0.10204399401E+01 0.  0.
     999903    2    3    3    0    0  0.62783262245E-01  0.84348284108E-01  0.73386847539E-01  0.12974118505E+00  0.19768021020E-01 0.  0.
         14    1    1    2    0    0 -0.22019858891E-02  0.22067899886E-01 -0.68989730997E-02  0.23225778287E-01  0.00000000000E+00 0.  1.
     999901    1    3    3    0    0 -0.60581276356E-01 -0.10641618399E+00 -0.66487874440E-01  0.89096303667E+00  0.88000000000E+00 0.  1.
        -11    1    4    4    0    0  0.25351305357E-01  0.50517375024E-01  0.39662127145E-01  0.69050990676E-01  0.51100000000E-03 0. -1.
         11    1    4    4    0    0  0.37431956888E-01  0.33830909084E-01  0.33724720394E-01  0.60690194369E-01  0.51100000000E-03 0.  1.
</event>
<event>
 8    1  0.1065239E+005  0.1043930E+01  0.7957747E-01            NaN
         13   -1    0    0    0    0  0.00000000000E+00  0.00000000000E+00  0.74505805969E-08  0.10566000000E+00  0.10566000000E+00 0.  1.
     999900   -1    0    0    0    0 -0.00000000000E+00 -0.00000000000E+00 -0.74505805969E-08  0.93827000000E+00  0.93827000000E+00 0.  1.
     999902    2    1    2    0    0  0.16316418565E-01  0.42137378129E-02  0.17337784060E-01  0.10197519137E+01  0.10194652449E+01 0.  0.
     999903    2    3    3    0    0 -0.32749303026E-01 -0.23968193554E-02  0.12599890748E+00  0.13168751049E+00  0.19687918686E-01 0.  0.
         14    1    1    2    0    0 -0.16316418565E-01 -0.42137378129E-02 -0.17337784060E-01  0.24178086303E-01  0.00000000000E+00 0. -1.
     999901    1    3    3    0    0  0.49065721592E-01  0.66105571684E-02 -0.10866112342E+00  0.88806440321E+00  0.88000000000E+00 0.  1.
        -11    1    4    4    0    0 -0.17028874610E-01 -0.10810839965E-01  0.59005054884E-01  0.62359557840E-01  0.51100000000E-03 0.  1.
         11    1    4    4    0    0 -0.15720428416E-01  0.84140206096E-02  0.66993852592E-01  0.69327952650E-01  0.51100000000E-03 0. -1.
</event>
<event>
 8    1  0.1065239E+005  0.1043930E+01  0.7957747E-01            NaN
         13   -1    0    0    0    0  0.00000000000E+00  0.00000000000E+00  0.74505805969E-08  0.10566000000E+00  0.10566000000E+00 0. -1.
     999900   -1    0    0    0    0 -0.00000000000E+00 -0.00000000000E+00 -0.74505805969E-08  0.93827000000E+00  0.93827000000E+00 0. -1.
     999902    2    1    2    0    0 -0.14782878894E-01 -0.59903850281E-02  0.17737104567E-01  0.10200757949E+01  0.10197968446E+01 0.  0.
     999903    2    3    3    0    0 -0.28898489493E-01 -0.98629099493E-01 -0.77295229093E-01  0.13001269249E+00  0.19129187285E-01 0.  0.
         14    1    1    2    0    0  0.14782878894E-01  0.59903850281E-02 -0.17737104567E-01  0.23854205072E-01  0.00000000000E+00 0.  1.
     999901    1    3    3    0    0  0.14115610598E-01  0.92638714465E-01  0.95032333660E-01  0.89006310244E+00  0.88000000000E+00 0. -1.
        -11    1    4    4    0    0 -0.10732363509E-01 -0.60859814480E-01 -0.37936710347E-01  0.72515900036E-01  0.51100000000E-03 0.  1.
         11    1    4    4    0    0 -0.18166125983E-01 -0.37769285013E-01 -0.39358518746E-01  0.57496792454E-01  0.51100000000E-03 0. -1.
</event>
<event>
 8    1  0.1065239E+005  0.1043930E+01  0.7957747E-01            NaN
         13   -1    0    0    0    0  0.00000000000E+00  0.00000000000E+00  0.74505805969E-08  0.10566000000E+00  0.10566000000E+00 0.  1.
     999900   -1    0    0    0    0 -0.00000000000E+00 -0.00000000000E+00 -0.74505805969E-08  0.93827000000E+00  0.93827000000E+00 0. -1.
     999902    2    1    2    0    0 -0.11100386947E-01 -0.20350630967E-01 -0.68492645774E-02  0.10197581321E+01  0.10194716126E+01 0.  0.
     999903    2    3    3    0    0  0.56239812113E-01 -0.56848456027E-01  0.10023755441E+00  0.12996356008E+00  0.21173006777E-01 0.  0.
         14    1    1    2    0    0  0.11100386947E-01  0.20350630967E-01  0.68492645774E-02  0.24171867871E-01  0.00000000000E+00 0.  1.
     999901    1    3    3    0    0 -0.67340199061E-01  0.36497825060E-01 -0.10708681899E+00  0.88979457205E+00  0.88000000000E+00 0. -1.
        -11    1    4    4    0    0  0.34591161658E-01 -0.41345578034E-01  0.80202014668E-01  0.96636585027E-01  0.51100000000E-03 0.  1.
         11    1    4    4    0    0  0.21648650455E-01 -0.15502877993E-01  0.20035539742E-01  0.33326975056E-01  0.51100000000E-03 0. -1.
</event>
<event>
 8    1  0.1065239E+005  0.1043930E+01  0.7957747E-01            NaN
         13   -1    0    0    0    0  0.00000000000E+00  0.00000000000E+00  0.74505805969E-08  0.10566000000E+00  0.10566000000E+00 0. -1.
     999900   -1    0    0    0    0 -0.00000000000E+00 -0.00000000000E+00 -0.74505805969E-08  0.93827000000E+00  0.93827000000E+00 0. -1.
     999902    2    1    2    0    0  0.65981228211E-02  0.19560960941E-01  0.17385959774E-01  0.10169404091E+01  0.10165821943E+01 0.  0.
     999903    2    3    3    0    0  0.11486438370E+00 -0.41109132580E-01 -0.29047021999E-01  0.12701992657E+00  0.20162956978E-01 0.  0.
         14    1    1    2    0    0 -0.65981228211E-02 -0.19560960941E-01 -0.17385959774E-01  0.26989590863E-01  0.00000000000E+00 0.  1.
     999901    1    3    3    0    0 -0.10826626088E+00  0.60670093521E-01  0.46432981773E-01  0.88992048257E+00  0.88000000000E+00 0.  1.
        -11    1    4    4    0    0  0.49360858093E-01 -0.10444671434E-01 -0.19375095554E-01  0.54048505269E-01  0.51100000000E-03 0. -1.
         11    1    4    4    0    0  0.65503525611E-01 -0.30664461146E-01 -0.96719264453E-02  0.72971421303E-01  0.51100000000E-03 0.  1.
</event>
<event>
 8    1  0.1065239E+005  0.1043930E+01  0.7957747E-01            NaN
         13   -1    0    0    0    0  0.00000000000E+00  0.00000000000E+00  0.74505805969E-08  0.10566000000E+00  0.10566000000E+00 0. -1.
     999900   -1    0    0    0    0 -0.00000000000E+00 -0.00000000000E+00 -0.74505805969E-08  0.93827000000E+00  0.93827000000E+00 0. -1.
     999902    2    1    2    0    0 -0.22884197836E-02 -0.19114255041E-02  0.23309149874E-01  0.10204309175E+01  0.10201603062E+01 0.  0.
     999903    2    3    3    0    0 -0.10921133776E+00 -0.65147885614E-01 -0.21868297333E-01  0.13055881316E+00  0.19900200225E-01 0.  0.
         14    1    1    2    0    0  0.22884197836E-02  0.19114255041E-02 -0.23309149874E-01  0.23499082545E-01  0.00000000000E+00 0.  1.
     999901    1    3    3    0    0  0.10692291798E+00  0.63236460110E-01  0.45177447207E-01  0.88987210430E+00  0.88000000000E+00 0.  1.
        -11    1    4    4    0    0 -0.71041347370E-01 -0.38247245357E-01 -0.47625596419E-02  0.80824921335E-01  0.51100000000E-03 0. -1.
         11    1    4    4    0    0 -0.38169990390E-01 -0.26900640257E-01 -0.17105737691E-01  0.49733891820E-01  0.51100000000E-03 0.  1.
</event>
<event>
 8    1  0.1065239E+005  0.1043930E+01  0.7957747E-01            NaN
         13   -1    0    0    0    0  0.00000000000E+00  0.00000000000E+00  0.74505805969E-08  0.10566000000E+00  0.10566000000E+00 0. -1.
     999900   -1    0    0    0    0 -0.00000000000E+00 -0.00000000000E+00 -0.74505805969E-08  0.93827000000E+00  0.93827000000E+00 0. -1.
     999902    2    1    2    0    0  0.20040357987E-01 -0.11619108366E-01 -0.15503284515E-02  0.10207131280E+01  0.10204490514E+01 0.  0.
     999903    2    3    3    0    0  0.10803142368E+00  0.73171865954E-01 -0.20085913861E-02  0.13226946238E+00  0.21593188016E-01 0.  0.
         14    1    1    2    0    0 -0.20040357987E-01  0.11619108366E-01  0.15503284515E-02  0.23216872007E-01  0.00000000000E+00 0. -1.
     999901    1    3    3    0    0 -0.87991065693E-01 -0.84790974320E-01  0.45826293464E-03  0.88844366562E+00  0.88000000000E+00 0.  1.
        -11    1    4    4    0    0  0.60742179951E-01  0.43135272376E-01 -0.11694085649E-01  0.75414036547E-01  0.51100000000E-03 0. -1.
         11    1    4    4    0    0  0.47289243729E-01  0.30036593578E-01  0.96854942627E-02  0.56855425830E-01  0.51100000000E-03 0.  1.
</event>
<event>
 8    1  0.1065239E+005  0.1043930E+01  0.7957747E-01            NaN
         13   -1    0    0    0    0  0.00000000000E+00  0.00000000000E+00  0.74505805969E-08  0.10566000000E+00  0.10566000000E+00 0. -1.
     999900   -1    0    0    0    0 -0.00000000000E+00 -0.00000000000E+00 -0.74505805969E-08  0.93827000000E+00  0.93827000000E+00 0.  1.
     999902    2    1    2    0    0 -0.17003876990E-01 -0.15252303052E-01  0.67121945024E-02  0.10201220573E+01  0.10198442007E+01 0.  0.
     999903    2    3    3    0    0 -0.12325226390E+00  0.38528724144E-01 -0.16096384491E-01  0.13180828959E+00  0.20946323553E-01 0.  0.
         14    1    1    2    0    0  0.17003876990E-01  0.15252303052E-01 -0.67121945024E-02  0.23807942711E-01  0.00000000000E+00 0.  1.
     999901    1    3    3    0    0  0.10624838691E+00 -0.53781027196E-01  0.22808578993E-01  0.88831376770E+00  0.88000000000E+00 0. -1.
        -11    1    4    4    0    0 -0.77146387852E-01  0.14359346433E-01 -0.53784920779E-02  0.78657137544E-01  0.51100000000E-03 0.  1.
         11    1    4    4    0    0 -0.46105876049E-01  0.24169377710E-01 -0.10717892413E-01  0.53151152047E-01  0.51100000000E-03 0. -1.
</event>
<event>
 8    1  0.1065239E+005  0.1043930E+01  0.7957747E-01            NaN
         13   -1    0    0    0    0  0.00000000000E+00  0.00000000000E+00  0.74505805969E-08  0.10566000000E+00  0.10566000000E+00 0.  1.
     999900   -1    0    0    0    0 -0.00000000000E+00 -0.00000000000E+00 -0.74505805969E-08  0.93827000000E+00  0.93827000000E+00 0. -1.
     999902    2    1    2    0    0 -0.14318872128E-01  0.18480972509E-01 -0.49284516736E-02  0.10200371961E+01  0.10197573316E+01 0.  0.
     999903    2    3    3    0    0  0.90481205049E-01 -0.16167236550E-01  0.87675058514E-01  0.12832033256E+00  0.18192412089E-01 0.  0.
         14    1    1    2    0    0  0.14318872128E-01 -0.18480972509E-01  0.49284516736E-02  0.23892803933E-01  0.00000000000E+00 0. -1.
     999901    1    3    3    0    0 -0.10480007718E+00  0.34648209059E-01 -0.92603510188E-01  0.89171686351E+00  0.88000000000E+00 0. -1.
        -11    1    4    4    0    0  0.54039716904E-01 -0.80403061848E-02  0.63808881531E-01  0.84004595171E-01  0.51100000000E-03 0. -1.
         11    1    4    4    0    0  0.36441488144E-01 -0.81269303654E-02  0.23866176983E-01  0.44315737387E-01  0.51100000000E-03 0.  1.
</event>
<event>
 8    1  0.1065239E+005  0.1043930E+01  0.7957747E-01            NaN
         13   -1    0    0    0    0  0.00000000000E+00  0.00000000000E+00  0.74505805969E-08  0.10566000000E+00  0.10566000000E+00 0. -1.
     999900   -1    0    0    0    0 -0.00000000000E+00 -0.00000000000E+00 -0.74505805969E-08  0.93827000000E+00  0.93827000000E+00 0. -1.
     999902    2    1    2    0    0 -0.22362287636E-01  0.43522214475E-02 -0.58365847566E-02  0.10204123585E+01  0.10201413147E+01 0.  0.
     999903    2    3    3    0    0 -0.94420531049E-01 -0.44188702545E-01 -0.79976737161E-01  0.13303116987E+00  0.20811908939E-01 0.  0.
         14    1    1    2    0    0  0.22362287636E-01 -0.43522214475E-02  0.58365847566E-02  0.23517641495E-01  0.00000000000E+00 0.  1.
     999901    1    3    3    0    0  0.72058243412E-01  0.48540923993E-01  0.74140152405E-01  0.88738118864E+00  0.88000000000E+00 0.  1.
        -11    1    4    4    0    0 -0.49029150215E-01 -0.24381259591E-01 -0.54807061632E-01  0.77475018656E-01  0.51100000000E-03 0. -1.
         11    1    4    4    0    0 -0.45391380833E-01 -0.19807442955E-01 -0.25169675530E-01  0.55556151213E-01  0.51100000000E-03 0.  1.
</event>
<event>
 7    1  0.1434901E+005  0.1043930E+01  0.7957747E-01            NaN
         13   -1    0    0    0    0  0.00000000000E+00  0.00000000000E+00  0.74505805969E-08  0.10566000000E+00  0.10566000000E+00 0. -1.
     999900   -1    0    0    0    0 -0.00000000000E+00 -0.00000000000E+00 -0.74505805969E-08  0.93827000000E+00  0.93827000000E+00 0.  1.
     999903    2    1    2    0    0 -0.36014088892E-01  0.57422002457E-01  0.59555136598E-01  0.92560217717E-01  0.20646516503E-01 0.  0.
         14    1    1    2    0    0 -0.18334733018E-01 -0.36078355712E-01  0.48131794927E-01  0.62884655272E-01  0.00000000000E+00 0. -1.
     999901    1    1    2    0    0  0.54348821910E-01 -0.21343646744E-01 -0.10768693152E+00  0.88848512701E+00  0.88000000000E+00 0.  1.
        -11    1    3    3    0    0 -0.28446827274E-01  0.26204645798E-01  0.34265200875E-01  0.51674660670E-01  0.51100000000E-03 0. -1.
         11    1    3    3    0    0 -0.75672616176E-02  0.31217356658E-01  0.25289935723E-01  0.40885557047E-01  0.51100000000E-03 0.  1.
</event>
<event>
 8    1  0.1065239E+005  0.1043930E+01  0.7957747E-01            NaN
         13   -1    0    0    0    0  0.00000000000E+00  0.00000000000E+00  0.74505805969E-08  0.10566000000E+00  0.10566000000E+00 0.  1.
     999900   -1    0    0    0    0 -0.00000000000E+00 -0.00000000000E+00 -0.74505805969E-08  0.93827000000E+00  0.93827000000E+00 0. -1.
     999902    2    1    2    0    0 -0.39203538885E-02 -0.22137784409E-01  0.59801718942E-02  0.10206660122E+01  0.10204008503E+01 0.  0.
     999903    2    3    3    0    0  0.73554242142E-01  0.10252223985E+00  0.14085441184E-01  0.12847313502E+00  0.19644606557E-01 0.  0.
         14    1    1    2    0    0  0.39203538885E-02  0.22137784409E-01 -0.59801718942E-02  0.23263987815E-01  0.00000000000E+00 0. -1.
     999901    1    3    3    0    0 -0.77474596030E-01 -0.12466002426E+00 -0.81052692893E-02  0.89219287717E+00  0.88000000000E+00 0.  1.
        -11    1    4    4    0    0  0.29952851573E-01  0.34991473136E-01 -0.34684909076E-02  0.46193809756E-01  0.51100000000E-03 0.  1.
         11    1    4    4    0    0  0.43601390569E-01  0.67530766715E-01  0.17553932091E-01  0.82279325262E-01  0.51100000000E-03 0. -1.
</event>
<event>
 8    1  0.1065239E+005  0.1043930E+01  0.7957747E-01            NaN
         13   -1    0    0    0    0  0.00000000000E+00  0.00000000000E+00  0.74505805969E-08  0.10566000000E+00  0.10566000000E+00 0.  1.
     999900   -1    0    0    0    0 -0.00000000000E+00 -0.00000000000E+00 -0.74505805969E-08  0.93827000000E+00  0.93827000000E+00 0.  1.
     999902    2    1    2    0    0 -0.15625463721E-01  0.48376160946E-02 -0.11471114066E-01  0.10239514089E+01  0.10237564865E+01 0.  0.
     999903    2    3    3    0    0  0.22821361100E-01 -0.10237175129E+00 -0.80789037116E-01  0.13390816202E+00  0.20093216580E-01 0.  0.
         14    1    1    2    0    0  0.15625463721E-01 -0.48376160946E-02  0.11471114066E-01  0.19978591139E-01  0.00000000000E+00 0.  1.
     999901    1    3    3    0    0 -0.38446824822E-01  0.10720936738E+00  0.69317923050E-01  0.89004324684E+00  0.88000000000E+00 0. -1.
        -11    1    4    4    0    0  0.20577568774E-01 -0.67463962048E-01 -0.63404912493E-01  0.94843379111E-01  0.51100000000E-03 0.  1.
         11    1    4    4    0    0  0.22437923258E-02 -0.34907789242E-01 -0.17384124623E-01  0.39064782908E-01  0.51100000000E-03 0. -1.
</event>
<event>
 8    1  0.1065239E+005  0.1043930E+01  0.7957747E-01            NaN
         13   -1    0    0    0    0  0.00000000000E+00  0.00000000000E+00  0.74505805969E-08  0.10566000000E+00  0.10566000000E+00 0. -1.
     999900   -1    0    0    0    0 -0.00000000000E+00 -0.00000000000E+00 -0.74505805969E-08  0.93827000000E+00  0.93827000000E+00 0.  1.
     999902    2    1    2    0    0 -0.35667569311E-02  0.22405357295E-01  0.91122841312E-02  0.10194809609E+01  0.10191877522E+01 0.  0.
     999903    2    3    3    0    0 -0.31644019829E-01  0.12423311115E+00  0.21081814975E-01  0.13308348019E+00  0.28836779976E-01 0.  0.
         14    1    1    2    0    0  0.35667569311E-02 -0.22405357295E-01 -0.91122841312E-02  0.24449039094E-01  0.00000000000E+00 0.  1.
     999901    1    3    3    0    0  0.28077262898E-01 -0.10182775386E+00 -0.11969530844E-01  0.88639748071E+00  0.88000000000E+00 0.  1.
        -11    1    4    4    0    0  0.15297357848E-02  0.50015992686E-01  0.10078723147E-01  0.51046854920E-01  0.51100000000E-03 0.  1.
         11    1    4    4    0    0 -0.33173755614E-01  0.74217118468E-01  0.11003091828E-01  0.82036625272E-01  0.51100000000E-03 0. -1.
</event>
<event>
 8    1  0.1065239E+005  0.1043930E+01  0.7957747E-01            NaN
         13   -1    0    0    0    0  0.00000000000E+00  0.00000000000E+00  0.74505805969E-08  0.10566000000E+00  0.10566000000E+00 0.  1.
     999900   -1    0    0    0    0 -0.00000000000E+00 -0.00000000000E+00 -0.74505805969E-08  0.93827000000E+00  0.93827000000E+00 0.  1.
     999902    2    1    2    0    0  0.41738004800E-02 -0.18949835186E-01 -0.15876875220E-01  0.10188582623E+01  0.10185497370E+01 0.  0.
     999903    2    3    3    0    0 -0.36522240120E-01 -0.53624365230E-01 -0.11269994277E+00  0.13193481738E+00  0.22272682107E-01 0.  0.
         14    1    1    2    0    0 -0.41738004800E-02  0.18949835186E-01  0.15876875220E-01  0.25071737690E-01  0.00000000000E+00 0.  1.
     999901    1    3    3    0    0  0.40696040600E-01  0.34674530044E-01  0.96823067547E-01  0.88692344493E+00  0.88000000000E+00 0. -1.
        -11    1    4    4    0    0 -0.14387539843E-01 -0.72285323417E-02 -0.37804334771E-01  0.41093574085E-01  0.51100000000E-03 0. -1.
         11    1    4    4    0    0 -0.22134700277E-01 -0.46395832888E-01 -0.74895607996E-01  0.90841243297E-01  0.51100000000E-03 0.  1.
</event>
<event>
 8    1  0.1065239E+005  0.1043930E+01  0.7957747E-01            NaN
         13   -1    0    0    0    0  0.00000000000E+00  0.00000000000E+00  0.74505805969E-08  0.10566000000E+00  0.10566000000E+00 0.  1.
     999900   -1    0    0    0    0 -0.00000000000E+00 -0.00000000000E+00 -0.74505805969E-08  0.93827000000E+00  0.93827000000E+00 0.  1.
     999902    2    1    2    0    0  0.63601236665E-02 -0.47536536910E-02  0.21750718032E-01  0.10207752568E+01  0.10205126079E+01 0.  0.
     999903    2    3    3    0    0 -0.12100685602E+00 -0.25672905044E-01  0.38438821398E-01  0.13120319376E+00  0.20856121522E-01 0.  0.
         14    1    1    2    0    0 -0.63601236665E-02  0.47536536910E-02 -0.21750718032E-01  0.23154743173E-01  0.00000000000E+00 0. -1.
     999901    1    3    3    0    0  0.12736697969E+00  0.20919251353E-01 -0.16688103366E-01  0.88957206307E+00  0.88000000000E+00 0. -1.
        -11    1    4    4    0    0 -0.79922645270E-01 -0.22651028586E-01  0.17127936855E-01  0.84819370811E-01  0.51100000000E-03 0. -1.
         11    1    4    4    0    0 -0.41084210753E-01 -0.30218764586E-02  0.21310884543E-01  0.46383822951E-01  0.51100000000E-03 0.  1.
</event>
<event>
 7    1  0.1169634E+005  0.1043930E+01  0.7957747E-01            NaN
         13   -1    0    0    0    0  0.00000000000E+00  0.00000000000E+00  0.74505805969E-08  0.10566000000E+00  0.10566000000E+00 0.  1.
     999900   -1    0    0    0    0 -0.00000000000E+00 -0.00000000000E+00 -0.74505805969E-08  0.93827000000E+00  0.93827000000E+00 0. -1.
     999903    2    1    2    0    0  0.23714637989E-01 -0.42131230285E-01  0.62825623131E-01  0.81706665425E-01  0.19786248576E-01 0.  0.
         14    1    1    2    0    0 -0.40482783718E-01 -0.61235462399E-01 -0.13536755346E-01  0.74645035857E-01  0.00000000000E+00 0.  1.
     999901    1    1    2    0    0  0.16768145728E-01  0.10336669268E+00 -0.49288867785E-01  0.88757829872E+00  0.88000000000E+00 0.  1.
        -11    1    3    3    0    0  0.73882049606E-03 -0.15176223905E-01  0.28922004836E-01  0.32674257642E-01  0.51100000000E-03 0. -1.
         11    1    3    3    0    0  0.22975817493E-01 -0.26955006380E-01  0.33903618295E-01  0.49032407782E-01  0.51100000000E-03 0.  1.
</event>
<event>
 8    1  0.1065239E+005  0.1043930E+01  0.7957747E-01            NaN
         13   -1    0    0    0    0  0.00000000000E+00  0.00000000000E+00  0.74505805969E-08  0.10566000000E+00  0.10566000000E+00 0. -1.
     999900   -1    0    0    0    0 -0.00000000000E+00 -0.00000000000E+00 -0.74505805969E-08  0.93827000000E+00  0.93827000000E+00 0.  1.
     999902    2    1    2    0    0  0.91903504522E-02 -0.10392189341E-01  0.19096255469E-01  0.10203264597E+01  0.10200534090E+01 0.  0.
     999903    2    3    3    0    0  0.11394392078E+00 -0.38285222486E-01  0.53129767917E-01  0.13302177036E+00  0.20568028782E-01 0.  0.
         14    1    1    2    0    0 -0.91903504522E-02  0.10392189341E-01 -0.19096255469E-01  0.23603540278E-01  0.00000000000E+00 0.  1.
     999901    1    3    3    0    0 -0.10475357032E+00  0.27893033145E-01 -0.34033512448E-01  0.88730468936E+00  0.88000000000E+00 0. -1.
        -11    1    4    4    0    0  0.85030879637E-01 -0.37731938389E-01  0.40490367501E-01  0.10145777766E+00  0.51100000000E-03 0. -1.
         11    1    4    4    0    0  0.28913041140E-01 -0.55328409645E-03  0.12639400415E-01  0.31563992699E-01  0.51100000000E-03 0.  1.
</event>
<event>
 8    1  0.1065239E+005  0.1043930E+01  0.7957747E-01            NaN
         13   -1    0    0    0    0  0.00000000000E+00  0.00000000000E+00  0.74505805969E-08  0.10566000000E+00  0.10566000000E+00 0.  1.
     999900   -1    0    0    0    0 -0.00000000000E+00 -0.00000000000E+00 -0.74505805969E-08  0.93827000000E+00  0.93827000000E+00 0. -1.
     999902    2    1    2    0    0 -0.21959907904E-01 -0.90997091339E-02 -0.11315730886E-02  0.10201324640E+01  0.10198548531E+01 0.  0.
     999903    2    3    3    0    0 -0.47972817041E-01 -0.79078207297E-02 -0.12061180638E+00  0.13167671487E+00  0.20679085971E-01 0.  0.
         14    1    1    2    0    0  0.21959907904E-01  0.90997091339E-02  0.11315730886E-02  0.23797535989E-01  0.00000000000E+00 0. -1.
     999901    1    3    3    0    0  0.26012909137E-01 -0.11918884043E-02  0.11948023329E+00  0.88845574914E+00  0.88000000000E+00 0.  1.
        -11    1    4    4    0    0 -0.30164043670E-01  0.40927565135E-02 -0.82348425722E-01  0.87796039354E-01  0.51100000000E-03 0. -1.
         11    1    4    4    0    0 -0.17808773371E-01 -0.12000577243E-01 -0.38263380658E-01  0.43880675513E-01  0.51100000000E-03 0.  1.
</event>
<event>
 8    1  0.1065239E+005  0.1043930E+01  0.7957747E-01            NaN
         13   -1    0    0    0    0  0.00000000000E+00  0.00000000000E+00  0.74505805969E-08  0.10566000000E+00  0.10566000000E+00 0.  1.
     999900   -1    0    0    0    0 -0.00000000000E+00 -0.00000000000E+00 -0.74505805969E-08  0.93827000000E+00  0.93827000000E+00 0. -1.
     999902    2    1    2    0    0 -0.12219132723E-01  0.20635515683E-01  0.11027350757E-01  0.10175342773E+01  0.10171918557E+01 0.  0.
     999903    2    3    3    0    0 -0.38370915798E-01  0.79198586516E-01 -0.92317330180E-01  0.12916854625E+00  0.20427447337E-01 0.  0.
         14    1    1    2    0    0  0.12219132723E-01 -0.20635515683E-01 -0.11027350757E-01  0.26395722697E-01  0.00000000000E+00 0. -1.
     999901    1    3    3    0    0  0.26151783074E-01 -0.58563070833E-01  0.10334468094E+00  0.88836573105E+00  0.88000000000E+00 0.  1.
        -11    1    4    4    0    0 -0.17779353372E-01  0.32917714296E-01 -0.53796045025E-01  0.65528290853E-01  0.51100000000E-03 0. -1.
         11    1    4    4    0    0 -0.20591562426E-01  0.46280872220E-01 -0.38521285155E-01  0.63640255402E-01  0.51100000000E-03 0.  1.
</event>
<event>
 8    1  0.1065239E+005  0.1043930E+01  0.7957747E-01            NaN
         13   -1    0    0    0    0  0.00000000000E+00  0.00000000000E+00  0.74505805969E-08  0.10566000000E+00  0.10566000000E+00 0.  1.
     999900   -1    0    0    0    0 -0.00000000000E+00 -0.00000000000E+00 -0.74505805969E-08  0.93827000000E+00  0.93827000000E+00 0.  1.
     999902    2    1    2    0    0  0.27455071144E-02 -0.11735790313E-01  0.19511532256E-01  0.10209960410E+01  0.10207384333E+01 0.  0.
     999903    2    3    3    0    0  0.86987467750E-01 -0.97425890074E-01  0.14510522008E-01  0.13281559132E+00  0.19256231344E-01 0.  0.
         14    1    1    2    0    0 -0.27455071144E-02  0.11735790313E-01 -0.19511532256E-01  0.22933958981E-01  0.00000000000E+00 0. -1.
     999901    1    3    3    0    0 -0.84241960636E-01  0.85690099761E-01  0.50010102484E-02  0.88818044970E+00  0.88000000000E+00 0. -1.
        -11    1    4    4    0    0  0.28871726027E-01 -0.24559900907E-01 -0.28211228119E-02  0.38012960307E-01  0.51100000000E-03 0. -1.
         11    1    4    4    0    0  0.58115741723E-01 -0.72865989167E-01  0.17331644819E-01  0.94802631010E-01  0.51100000000E-03 0.  1.
</event>
<event>
 8    1  0.1065239E+005  0.1043930E+01  0.7957747E-01            NaN
         13   -1    0    0    0    0  0.00000000000E+00  0.00000000000E+00  0.74505805969E-08  0.10566000000E+00  0.10566000000E+00 0.  1.
     999900   -1    0    0    0    0 -0.00000000000E+00 -0.00000000000E+00 -0.74505805969E-08  0.93827000000E+00  0.93827000000E+00 0. -1.
     999902    2    1    2    0    0  0.14000393818E-01 -0.13865040527E-01 -0.10926643995E-01  0.10213990896E+01  0.10211505561E+01 0.  0.
     999903    2    3    3    0    0  0.55893789158E-01  0.11562735156E+00  0.10003335432E-01  0.13069071966E+00  0.22049884134E-01 0.  0.
         14    1    1    2    0    0 -0.14000393818E-01  0.13865040527E-01  0.10926643995E-01  0.22530910431E-01  0.00000000000E+00 0.  1.
     999901    1    3    3    0    0 -0.41893395340E-01 -0.12949239209E+00 -0.20929979427E-01  0.89070836991E+00  0.88000000000E+00 0. -1.
        -11    1    4    4    0    0  0.32914533425E-01  0.75852294096E-01 -0.36443929106E-02  0.82767625016E-01  0.51100000000E-03 0. -1.
         11    1    4    4    0    0  0.22979255733E-01  0.39775057467E-01  0.13647728343E-01  0.47923094646E-01  0.51100000000E-03 0.  1.
</event>
<event>
 8    1  0.1065239E+005  0.1043930E+01  0.7957747E-01            NaN
         13   -1    0    0    0    0  0.00000000000E+00  0.00000000000E+00  0.74505805969E-08  0.10566000000E+00  0.10566000000E+00 0. -1.
     999900   -1    0    0    0    0 -0.00000000000E+00 -0.00000000000E+00 -0.74505805969E-08  0.93827000000E+00  0.93827000000E+00 0.  1.
     999902    2    1    2    0    0 -0.23083450609E-01 -0.20343203264E-02  0.57501598850E-02  0.10200543117E+01  0.10197748528E+01 0.  0.
     999903    2    3    3    0    0  0.83041817503E-01  0.92827314111E-01  0.23907017988E-01  0.12843164844E+00  0.20255594581E-01 0.  0.
         14    1    1    2    0    0  0.23083450609E-01  0.20343203264E-02 -0.57501598850E-02  0.23875688260E-01  0.00000000000E+00 0.  1.
     999901    1    3    3    0    0 -0.10612526811E+00 -0.94861634437E-01 -0.18156858103E-01  0.89162266330E+00  0.88000000000E+00 0.  1.
        -11    1    4    4    0    0  0.33301553173E-01  0.28339857989E-01  0.66132091049E-03  0.43736020177E-01  0.51100000000E-03 0. -1.
         11    1    4    4    0    0  0.49740264330E-01  0.64487456122E-01  0.23245697077E-01  0.84695628260E-01  0.51100000000E-03 0.  1.
</event>
<event>
 8    1  0.1065239E+005  0.1043930E+01  0.7957747E-01            NaN
         13   -1    0    0    0    0  0.00000000000E+00  0.00000000000E+00  0.74505805969E-08  0.10566000000E+00  0.10566000000E+00 0. -1.
     999900   -1    0    0    0    0 -0.00000000000E+00 -0.00000000000E+00 -0.74505805969E-08  0.93827000000E+00  0.93827000000E+00 0. -1.
     999902    2    1    2    0    0  0.15122250087E-01 -0.16380695752E-01  0.58299313143E-02  0.10208866118E+01  0.10206265117E+01 0.  0.
     999903    2    3    3    0    0  0.87876419660E-01 -0.97193750358E-01  0.21708114849E-01  0.13405177052E+00  0.18158873525E-01 0.  0.
         14    1    1    2    0    0 -0.15122250087E-01  0.16380695752E-01 -0.58299313143E-02  0.23043388209E-01  0.00000000000E+00 0.  1.
     999901    1    3    3    0    0 -0.72754169573E-01  0.80813054606E-01 -0.15878183534E-01  0.88683484127E+00  0.88000000000E+00 0.  1.
        -11    1    4    4    0    0  0.26083726982E-01 -0.19473171080E-01  0.10082661436E-01  0.34080586671E-01  0.51100000000E-03 0.  1.
         11    1    4    4    0    0  0.61792692678E-01 -0.77720579278E-01  0.11625453412E-01  0.99971183847E-01  0.51100000000E-03 0. -1.
</event>
<event>
 8    1  0.1065239E+005  0.1043930E+01  0.7957747E-01            NaN
         13   -1    0    0    0    0  0.00000000000E+00  0.00000000000E+00  0.74505805969E-08  0.10566000000E+00  0.10566000000E+00 0. -1.
     999900   -1    0    0    0    0 -0.00000000000E+00 -0.00000000000E+00 -0.74505805969E-08  0.93827000000E+00  0.93827000000E+00 0.  1.
     999902    2    1    2    0    0  0.44533995014E-02  0.22510068671E-02  0.16954093249E-01  0.10262568261E+01  0.10261046399E+01 0.  0.
     999903    2    3    3    0    0  0.18815119598E-01  0.44432028957E-01 -0.12342420653E+00  0.13401719195E+00  0.19971456093E-01 0.  0.
         14    1    1    2    0    0 -0.44533995014E-02 -0.22510068671E-02 -0.16954093249E-01  0.17673173935E-01  0.00000000000E+00 0.  1.
     999901    1    3    3    0    0 -0.14361720096E-01 -0.42181022090E-01  0.14037829978E+00  0.89223963411E+00  0.88000000000E+00 0. -1.
        -11    1    4    4    0    0  0.21225571423E-01  0.28467820793E-01 -0.93394593574E-01  0.99918731641E-01  0.51100000000E-03 0. -1.
         11    1    4    4    0    0 -0.24104518249E-02  0.15964208164E-01 -0.30029612958E-01  0.34098460313E-01  0.51100000000E-03 0.  1.
</event>
<event>
 8    1  0.1065239E+005  0.1043930E+01  0.7957747E-01            NaN
         13   -1    0    0    0    0  0.00000000000E+00  0.00000000000E+00  0.74505805969E-08  0.10566000000E+00  0.10566000000E+00 0. -1.
     999900   -1    0    0    0    0 -0.00000000000E+00 -0.00000000000E+00 -0.74505805969E-08  0.93827000000E+00  0.93827000000E+00 0. -1.
     999902    2    1    2    0    0 -0.78578089189E-02 -0.24565766028E-01 -0.10594040801E-01  0.10160471070E+01  0.10156644465E+01 0.  0.
     999903    2    3    3    0    0  0.99753661575E-01  0.66540730787E-01 -0.27669011827E-01  0.12465932552E+00  0.19897521736E-01 0.  0.
         14    1    1    2    0    0  0.78578089189E-02  0.24565766028E-01  0.10594040801E-01  0.27882893000E-01  0.00000000000E+00 0. -1.
     999901    1    3    3    0    0 -0.10761147049E+00 -0.91106496815E-01  0.17074971026E-01  0.89138778148E+00  0.88000000000E+00 0.  1.
        -11    1    4    4    0    0  0.90080642778E-01  0.65603343936E-01 -0.22679703789E-01  0.11372313320E+00  0.51100000000E-03 0.  1.
         11    1    4    4    0    0  0.96730187967E-02  0.93738685094E-03 -0.49893080387E-02  0.10936192320E-01  0.51100000000E-03 0. -1.
</event>
<event>
 8    1  0.1065239E+005  0.1043930E+01  0.7957747E-01            NaN
         13   -1    0    0    0    0  0.00000000000E+00  0.00000000000E+00  0.74505805969E-08  0.10566000000E+00  0.10566000000E+00 0.  1.
     999900   -1    0    0    0    0 -0.00000000000E+00 -0.00000000000E+00 -0.74505805969E-08  0.93827000000E+00  0.93827000000E+00 0. -1.
     999902    2    1    2    0    0 -0.90709245218E-02 -0.27902560658E-02  0.20405252601E-01  0.10214257441E+01  0.10211778049E+01 0.  0.
     999903    2    3    3    0    0  0.66460987523E-01 -0.53467171014E-01  0.10094057964E+00  0.13307943867E+00  0.15663177829E-01 0.  0.
         14    1    1    2    0    0  0.90709245218E-02  0.27902560658E-02 -0.20405252601E-01  0.22504255915E-01  0.00000000000E+00 0. -1.
     999901    1    3    3    0    0 -0.75531912045E-01  0.50676914948E-01 -0.80535327039E-01  0.88834630542E+00  0.88000000000E+00 0. -1.
        -11    1    4    4    0    0  0.33069191747E-01 -0.30627411816E-01  0.42154496564E-01  0.61716063540E-01  0.51100000000E-03 0. -1.
         11    1    4    4    0    0  0.33391795776E-01 -0.22839759198E-01  0.58786083076E-01  0.71363375128E-01  0.51100000000E-03 0.  1.
</event>
<event>
 8    1  0.1065239E+005  0.1043930E+01  0.7957747E-01            NaN
         13   -1    0    0    0    0  0.00000000000E+00  0.00000000000E+00  0.74505805969E-08  0.10566000000E+00  0.10566000000E+00 0.  1.
     999900   -1    0    0    0    0 -0.00000000000E+00 -0.00000000000E+00 -0.74505805969E-08  0.93827000000E+00  0.93827000000E+00 0. -1.
     999902    2    1    2    0    0 -0.39742643541E-03  0.18945549021E-01  0.14526423724E-01  0.10200530496E+01  0.10197735607E+01 0.  0.
     999903    2    3    3    0    0 -0.41218643664E-01  0.12040955531E+00 -0.28684645269E-01  0.13223070652E+00  0.21557209392E-01 0.  0.
         14    1    1    2    0    0  0.39742643541E-03 -0.18945549021E-01 -0.14526423724E-01  0.23876950427E-01  0.00000000000E+00 0. -1.
     999901    1    3    3    0    0  0.40821217228E-01 -0.10146400629E+00  0.43211068994E-01  0.88782234306E+00  0.88000000000E+00 0. -1.
        -11    1    4    4    0    0 -0.35311046945E-01  0.11019800625E+00 -0.31819429650E-01  0.12001336527E+00  0.51100000000E-03 0. -1.
         11    1    4    4    0    0 -0.59075967183E-02  0.10211549054E-01  0.31347843812E-02  0.12217341248E-01  0.51100000000E-03 0.  1.
</event>
<event>
 8    1  0.1065239E+005  0.1043930E+01  0.7957747E-01            NaN
         13   -1    0    0    0    0  0.00000000000E+00  0.00000000000E+00  0.74505805969E-08  0.10566000000E+00  0.10566000000E+00 0.  1.
     999900   -1    0    0    0    0 -0.00000000000E+00 -0.00000000000E+00 -0.74505805969E-08  0.93827000000E+00  0.93827000000E+00 0.  1.
     999902    2    1    2    0    0  0.10614522029E-01  0.91618502836E-02  0.19313672021E-01  0.10200631714E+01  0.10197839223E+01 0.  0.
     999903    2    3    3    0    0  0.12663268594E+00 -0.28874227506E-01  0.10246150912E-01  0.13158741065E+00  0.18458192489E-01 0.  0.
         14    1    1    2    0    0 -0.10614522029E-01 -0.91618502836E-02 -0.19313672021E-01  0.23866828559E-01  0.00000000000E+00 0. -1.
     999901    1    3    3    0    0 -0.11601816391E+00  0.38036077789E-01  0.90675211084E-02  0.88847576079E+00  0.88000000000E+00 0.  1.
        -11    1    4    4    0    0  0.39760755977E-01 -0.10686928070E-02  0.64135969695E-02  0.40292122894E-01  0.51100000000E-03 0. -1.
         11    1    4    4    0    0  0.86871929967E-01 -0.27805534699E-01  0.38325539429E-02  0.91295287758E-01  0.51100000000E-03 0.  1.
</event>
<event>
 7    1  0.1065239E+005  0.1043930E+01  0.7957747E-01            NaN
         13   -1    0    0    0    0  0.00000000000E+00  0.00000000000E+00  0.74505805969E-08  0.10566000000E+00  0.10566000000E+00 0.  1.
     999900   -1    0    0    0    0 -0.00000000000E+00 -0.00000000000E+00 -0.74505805969E-08  0.93827000000E+00  0.93827000000E+00 0. -1.
     999903    2    1    2    0    0  0.87706923936E-01  0.29968061338E-01 -0.13851534763E-01  0.95564114775E-01  0.18709511238E-01 0.  0.
         14    1    1    2    0    0  0.37417827475E-01 -0.32755245611E-01 -0.30617277228E-01  0.58398780748E-01  0.00000000000E+00 0.  1.
     999901    1    1    2    0    0 -0.12512475141E+00  0.27871842728E-02  0.44468811991E-01  0.88996710448E+00  0.88000000000E+00 0.  1.
        -11    1    3    3    0    0  0.22634698251E-01  0.12509781575E-01  0.32016018243E-02  0.26064066743E-01  0.51100000000E-03 0. -1.
         11    1    3    3    0    0  0.65072225686E-01  0.17458279762E-01 -0.17053136588E-01  0.69500048032E-01  0.51100000000E-03 0.  1.
</event>
<event>
 8    1  0.1065239E+005  0.1043930E+01  0.7957747E-01            NaN
         13   -1    0    0    0    0  0.00000000000E+00  0.00000000000E+00  0.74505805969E-08  0.10566000000E+00  0.10566000000E+00 0.  1.
     999900   -1    0    0    0    0 -0.00000000000E+00 -0.00000000000E+00 -0.74505805969E-08  0.93827000000E+00  0.93827000000E+00 0. -1.
     999902    2    1    2    0    0  0.94556557384E-02  0.12870258268E-01  0.17239383574E-01  0.10204300145E+01  0.10201593822E+01 0.  0.
     999903    2    3    3    0    0 -0.67140887954E-01 -0.51530143927E-01  0.97879372870E-01  0.13109472890E+00  0.21028593477E-01 0.  0.
         14    1    1    2    0    0 -0.94556557384E-02 -0.12870258268E-01 -0.17239383574E-01  0.23499985518E-01  0.00000000000E+00 0. -1.
     999901    1    3    3    0    0  0.76596543692E-01  0.64400402194E-01 -0.80639989296E-01  0.88933528558E+00  0.88000000000E+00 0. -1.
        -11    1    4    4    0    0 -0.20894127154E-01 -0.65500768676E-02  0.32929582582E-01  0.39548534568E-01  0.51100000000E-03 0. -1.
         11    1    4    4    0    0 -0.46246760800E-01 -0.44980067059E-01  0.64949790288E-01  0.91546194332E-01  0.51100000000E-03 0.  1.
</event>
<event>
 8    1  0.1065239E+005  0.1043930E+01  0.7957747E-01            NaN
         13   -1    0    0    0    0  0.00000000000E+00  0.00000000000E+00  0.74505805969E-08  0.10566000000E+00  0.10566000000E+00 0.  1.
     999900   -1    0    0    0    0 -0.00000000000E+00 -0.00000000000E+00 -0.74505805969E-08  0.93827000000E+00  0.93827000000E+00 0.  1.
     999902    2    1    2    0    0 -0.22708793174E-01 -0.10724982550E-01 -0.14521941844E-02  0.10187740185E+01  0.10184633903E+01 0.  0.
     999903    2    3    3    0    0 -0.12350335341E+00  0.16428545001E-01  0.35779650180E-01  0.13182245968E+00  0.23958341226E-01 0.  0.
         14    1    1    2    0    0  0.22708793174E-01  0.10724982550E-01  0.14521941844E-02  0.25155981517E-01  0.00000000000E+00 0.  1.
     999901    1    3    3    0    0  0.10079456024E+00 -0.27153527551E-01 -0.37231844364E-01  0.88695155880E+00  0.88000000000E+00 0. -1.
        -11    1    4    4    0    0 -0.77258396898E-01  0.21877290924E-01  0.21913862063E-01  0.83234333187E-01  0.51100000000E-03 0. -1.
         11    1    4    4    0    0 -0.46244956511E-01 -0.54487459230E-02  0.13865788117E-01  0.48588126492E-01  0.51100000000E-03 0.  1.
</event>
<event>
 8    1  0.1065239E+005  0.1043930E+01  0.7957747E-01            NaN
         13   -1    0    0    0    0  0.00000000000E+00  0.00000000000E+00  0.74505805969E-08  0.10566000000E+00  0.10566000000E+00 0.  1.
     999900   -1    0    0    0    0 -0.00000000000E+00 -0.00000000000E+00 -0.74505805969E-08  0.93827000000E+00  0.93827000000E+00 0.  1.
     999902    2    1    2    0    0  0.22640662185E-01  0.52902068475E-02  0.42530949061E-02  0.10202936998E+01  0.10200198817E+01 0.  0.
     999903    2    3    3    0    0  0.27019352687E-01 -0.37186358583E-01  0.12178772034E+00  0.13145298303E+00  0.18296645553E-01 0.  0.
         14    1    1    2    0    0 -0.22640662185E-01 -0.52902068475E-02 -0.42530949061E-02  0.23636300238E-01  0.00000000000E+00 0.  1.
     999901    1    3    3    0    0 -0.43786905019E-02  0.42476565430E-01 -0.11753462543E+00  0.88884071673E+00  0.88000000000E+00 0.  1.
        -11    1    4    4    0    0  0.29277431868E-01 -0.36913340764E-01  0.11509751093E+00  0.12436824710E+00  0.51100000000E-03 0.  1.
         11    1    4    4    0    0 -0.22580791808E-02 -0.27301781883E-03  0.66902094044E-02  0.70847359296E-02  0.51100000000E-03 0. -1.
</event>
<event>
 8    1  0.1065239E+005  0.1043930E+01  0.7957747E-01            NaN
         13   -1    0    0    0    0  0.00000000000E+00  0.00000000000E+00  0.74505805969E-08  0.10566000000E+00  0.10566000000E+00 0. -1.
     999900   -1    0    0    0    0 -0.00000000000E+00 -0.00000000000E+00 -0.74505805969E-08  0.93827000000E+00  0.93827000000E+00 0. -1.
     999902    2    1    2    0    0  0.13915120700E-01 -0.17286466246E-01  0.86344275922E-02  0.10201181156E+01  0.10198401659E+01 0.  0.
     999903    2    3    3    0    0 -0.72783609458E-01 -0.79908027018E-01 -0.69862743693E-01  0.13017433333E+00  0.19539895433E-01 0.  0.
         14    1    1    2    0    0 -0.13915120700E-01  0.17286466246E-01 -0.86344275922E-02  0.23811884411E-01  0.00000000000E+00 0.  1.
     999901    1    3    3    0    0  0.86698730158E-01  0.62621560772E-01  0.78497171285E-01  0.88994378226E+00  0.88000000000E+00 0.  1.
        -11    1    4    4    0    0 -0.55286214700E-01 -0.57110024748E-01 -0.60672589299E-01  0.99997723353E-01  0.51100000000E-03 0. -1.
         11    1    4    4    0    0 -0.17497394758E-01 -0.22798002270E-01 -0.91901543943E-02  0.30176609975E-01  0.51100000000E-03 0.  1.
</event>
<event>
 8    1  0.1065239E+005  0.1043930E+01  0.7957747E-01            NaN
         13   -1    0    0    0    0  0.00000000000E+00  0.00000000000E+00  0.74505805969E-08  0.10566000000E+00  0.10566000000E+00 0.  1.
     999900   -1    0    0    0    0 -0.00000000000E+00 -0.00000000000E+00 -0.74505805969E-08  0.93827000000E+00  0.93827000000E+00 0.  1.
     999902    2    1    2    0    0  0.11142913248E-01  0.19665557404E-01 -0.85284727502E-02  0.10197714920E+01  0.10194852928E+01 0.  0.
     999903    2    3    3    0    0  0.49404517837E-01 -0.66467188968E-01 -0.98413746293E-01  0.13018610382E+00  0.20111254945E-01 0.  0.
         14    1    1    2    0    0 -0.11142913248E-01 -0.19665557404E-01  0.85284727502E-02  0.24158508049E-01  0.00000000000E+00 0.  1.
     999901    1    3    3    0    0 -0.38261604589E-01  0.86132746373E-01  0.89885273543E-01  0.88958538813E+00  0.88000000000E+00 0. -1.
        -11    1    4    4    0    0  0.40700970855E-01 -0.40207458855E-01 -0.60743607193E-01  0.83446124607E-01  0.51100000000E-03 0. -1.
         11    1    4    4    0    0  0.87035469818E-02 -0.26259730113E-01 -0.37670139100E-01  0.46739979209E-01  0.51100000000E-03 0.  1.
</event>
<event>
 8    1  0.1065239E+005  0.1043930E+01  0.7957747E-01            NaN
         13   -1    0    0    0    0  0.00000000000E+00  0.00000000000E+00  0.74505805969E-08  0.10566000000E+00  0.10566000000E+00 0. -1.
     999900   -1    0    0    0    0 -0.00000000000E+00 -0.00000000000E+00 -0.74505805969E-08  0.93827000000E+00  0.93827000000E+00 0.  1.
     999902    2    1    2    0    0 -0.45809016615E-02  0.30020492334E-02  0.24124265942E-01  0.10191918277E+01  0.10188915568E+01 0.  0.
     999903    2    3    3    0    0 -0.93970847150E-01 -0.30075868108E-01 -0.79223726092E-01  0.12803217962E+00  0.19513131132E-01 0.  0.
         14    1    1    2    0    0  0.45809016615E-02 -0.30020492334E-02 -0.24124265942E-01  0.24738172263E-01  0.00000000000E+00 0.  1.
     999901    1    3    3    0    0  0.89389945489E-01  0.33077917341E-01  0.10334799203E+00  0.89115964811E+00  0.88000000000E+00 0. -1.
        -11    1    4    4    0    0 -0.35863792505E-01 -0.11532187228E-01 -0.42664780916E-01  0.56918780790E-01  0.51100000000E-03 0. -1.
         11    1    4    4    0    0 -0.58107054645E-01 -0.18543680880E-01 -0.36558945176E-01  0.71113398832E-01  0.51100000000E-03 0.  1.
</event>
<event>
 8    1  0.1065239E+005  0.1043930E+01  0.7957747E-01            NaN
         13   -1    0    0    0    0  0.00000000000E+00  0.00000000000E+00  0.74505805969E-08  0.10566000000E+00  0.10566000000E+00 0. -1.
     999900   -1    0    0    0    0 -0.00000000000E+00 -0.00000000000E+00 -0.74505805969E-08  0.93827000000E+00  0.93827000000E+00 0. -1.
     999902    2    1    2    0    0  0.20287350457E-01  0.11249524663E-01 -0.24924806301E-03  0.10207310664E+01  0.10204674025E+01 0.  0.
     999903    2    3    3    0    0 -0.69649732593E-01 -0.10042688614E+00 -0.33799822047E-01  0.12849458397E+00  0.20779447268E-01 0.  0.
         14    1    1    2    0    0 -0.20287350457E-01 -0.11249524663E-01  0.24924806301E-03  0.23198933560E-01  0.00000000000E+00 0. -1.
     999901    1    3    3    0    0  0.89937083050E-01  0.11167641080E+00  0.33550573984E-01  0.89223648247E+00  0.88000000000E+00 0.  1.
        -11    1    4    4    0    0 -0.30872686202E-01 -0.51119738360E-01 -0.64747022213E-02  0.60071068687E-01  0.51100000000E-03 0. -1.
         11    1    4    4    0    0 -0.38777046391E-01 -0.49307147781E-01 -0.27325119826E-01  0.68423515282E-01  0.51100000000E-03 0.  1.
</event>
<event>
 8    1  0.1065239E+005  0.1043930E+01  0.7957747E-01            NaN
         13   -1    0    0    0    0  0.00000000000E+00  0.00000000000E+00  0.74505805969E-08  0.10566000000E+00  0.10566000000E+00 0.  1.
     999900   -1    0    0    0    0 -0.00000000000E+00 -0.00000000000E+00 -0.74505805969E-08  0.93827000000E+00  0.93827000000E+00 0. -1.
     999902    2    1    2    0    0 -0.11684233561E-01  0.88880645378E-02 -0.19992854273E-01  0.10191261046E+01  0.10188242164E+01 0.  0.
     999903    2    3    3    0    0 -0.83190499261E-02  0.11861786351E+00  0.47667820962E-01  0.12972747619E+00  0.20435087150E-01 0.  0.
         14    1    1    2    0    0  0.11684233561E-01 -0.88880645378E-02  0.19992854273E-01  0.24803895401E-01  0.00000000000E+00 0.  1.
     999901    1    3    3    0    0 -0.33651836344E-02 -0.10972979898E+00 -0.67660675235E-01  0.88939862841E+00  0.88000000000E+00 0. -1.
        -11    1    4    4    0    0  0.28629292406E-02  0.50999981490E-01  0.12041046883E-01  0.52482782004E-01  0.51100000000E-03 0. -1.
         11    1    4    4    0    0 -0.11181979167E-01  0.67617882024E-01  0.35626774080E-01  0.77244694185E-01  0.51100000000E-03 0.  1.
</event>
<event>
 8    1  0.1452602E+005  0.1043930E+01  0.7957747E-01            NaN
         13   -1    0    0    0    0  0.00000000000E+00  0.00000000000E+00  0.74505805969E-08  0.10566000000E+00  0.10566000000E+00 0.  1.
     999900   -1    0    0    0    0 -0.00000000000E+00 -0.00000000000E+00 -0.74505805969E-08  0.93827000000E+00  0.93827000000E+00 0.  1.
     999902    2    1    2    0    0  0.76812822647E-02 -0.24017266570E-01  0.34877366480E-02  0.10184742443E+01  0.10181560739E+01 0.  0.
     999903    2    3    3    0    0  0.75884640347E-01  0.76535598761E-01  0.66164255083E-01  0.12791772014E+00  0.19210881216E-01 0.  0.
         14    1    1    2    0    0 -0.76812822647E-02  0.24017266570E-01 -0.34877366480E-02  0.25455755689E-01  0.00000000000E+00 0. -1.
     999901    1    3    3    0    0 -0.68203358082E-01 -0.10055286533E+00 -0.62676518435E-01  0.89055652417E+00  0.88000000000E+00 0.  1.
        -11    1    4    4    0    0  0.21300353006E-01  0.34462384020E-01  0.26191439607E-01  0.48245347757E-01  0.51100000000E-03 0. -1.
         11    1    4    4    0    0  0.54584287342E-01  0.42073214741E-01  0.39972815476E-01  0.79672372384E-01  0.51100000000E-03 0.  1.
</event>
<event>
 8    1  0.1065239E+005  0.1043930E+01  0.7957747E-01            NaN
         13   -1    0    0    0    0  0.00000000000E+00  0.00000000000E+00  0.74505805969E-08  0.10566000000E+00  0.10566000000E+00 0.  1.
     999900   -1    0    0    0    0 -0.00000000000E+00 -0.00000000000E+00 -0.74505805969E-08  0.93827000000E+00  0.93827000000E+00 0. -1.
     999902    2    1    2    0    0 -0.75448390065E-02 -0.20353313457E-01  0.48416548612E-02  0.10216898654E+01  0.10214477752E+01 0.  0.
     999903    2    3    3    0    0 -0.24012100762E-01 -0.18765017595E-01 -0.12673785790E+00  0.13175342861E+00  0.19177446553E-01 0.  0.
         14    1    1    2    0    0  0.75448390065E-02  0.20353313457E-01 -0.48416548612E-02  0.22240134579E-01  0.00000000000E+00 0. -1.
     999901    1    3    3    0    0  0.16467261755E-01 -0.15882958615E-02  0.13157951276E+00  0.88993643682E+00  0.88000000000E+00 0.  1.
        -11    1    4    4    0    0 -0.21372823856E-01 -0.73320650555E-02 -0.62739148402E-01  0.66685970344E-01  0.51100000000E-03 0. -1.
         11    1    4    4    0    0 -0.26392769057E-02 -0.11432952540E-01 -0.63998709496E-01  0.65067458261E-01  0.51100000000E-03 0.  1.
</event>
<event>
 8    1  0.1065239E+005  0.1043930E+01  0.7957747E-01            NaN
         13   -1    0    0    0    0  0.00000000000E+00  0.00000000000E+00  0.74505805969E-08  0.10566000000E+00  0.10566000000E+00 0.  1.
     999900   -1    0    0    0    0 -0.00000000000E+00 -0.00000000000E+00 -0.74505805969E-08  0.93827000000E+00  0.93827000000E+00 0. -1.
     999902    2    1    2    0    0  0.70346172738E-03 -0.83974021527E-02 -0.22618460802E-01  0.10197927675E+01  0.10195070783E+01 0.  0.
     999903    2    3    3    0    0 -0.37073156854E-02  0.12710214849E+00  0.57577424045E-02  0.12895900523E+00  0.20702006943E-01 0.  0.
         14    1    1    2    0    0 -0.70346172738E-03  0.83974021527E-02  0.22618460802E-01  0.24137232451E-01  0.00000000000E+00 0.  1.
     999901    1    3    3    0    0  0.44107774128E-02 -0.13549955064E+00 -0.28376203207E-01  0.89083376232E+00  0.88000000000E+00 0. -1.
        -11    1    4    4    0    0  0.24789563296E-02  0.95604910620E-01 -0.29910346937E-02  0.95685169011E-01  0.51100000000E-03 0. -1.
         11    1    4    4    0    0 -0.61862720150E-02  0.31497237871E-01  0.87487770982E-02  0.33273836218E-01  0.51100000000E-03 0.  1.
</event>
<event>
 8    1  0.1065239E+005  0.1043930E+01  0.7957747E-01            NaN
         13   -1    0    0    0    0  0.00000000000E+00  0.00000000000E+00  0.74505805969E-08  0.10566000000E+00  0.10566000000E+00 0. -1.
     999900   -1    0    0    0    0 -0.00000000000E+00 -0.00000000000E+00 -0.74505805969E-08  0.93827000000E+00  0.93827000000E+00 0.  1.
     999902    2    1    2    0    0  0.19185099739E-01 -0.58773014349E-02 -0.16106182133E-01  0.10182002540E+01  0.10178751090E+01 0.  0.
     999903    2    3    3    0    0  0.35861173588E-01 -0.29079905730E-01 -0.12143268112E+00  0.13145895937E+00  0.20097195486E-01 0.  0.
         14    1    1    2    0    0 -0.19185099739E-01  0.58773014349E-02  0.16106182133E-01  0.25729745957E-01  0.00000000000E+00 0. -1.
     999901    1    3    3    0    0 -0.16676073849E-01  0.23202604296E-01  0.10532649899E+00  0.88674129467E+00  0.88000000000E+00 0. -1.
        -11    1    4    4    0    0  0.15868816925E-01 -0.22141835711E-01 -0.49824471751E-01  0.56787492862E-01  0.51100000000E-03 0. -1.
         11    1    4    4    0    0  0.19992356663E-01 -0.69380700194E-02 -0.71608209370E-01  0.74671466510E-01  0.51100000000E-03 0.  1.
</event>
<event>
 8    1  0.1065239E+005  0.1043930E+01  0.7957747E-01            NaN
         13   -1    0    0    0    0  0.00000000000E+00  0.00000000000E+00  0.74505805969E-08  0.10566000000E+00  0.10566000000E+00 0.  1.
     999900   -1    0    0    0    0 -0.00000000000E+00 -0.00000000000E+00 -0.74505805969E-08  0.93827000000E+00  0.93827000000E+00 0.  1.
     999902    2    1    2    0    0  0.11269892114E-01 -0.17503728301E-01  0.10941325087E-01  0.10204118460E+01  0.10201407902E+01 0.  0.
     999903    2    3    3    0    0 -0.10833826990E+00  0.37047288427E-01  0.56845874025E-01  0.12946338876E+00  0.20484953819E-01 0.  0.
         14    1    1    2    0    0 -0.11269892114E-01  0.17503728301E-01 -0.10941325087E-01  0.23518153996E-01  0.00000000000E+00 0. -1.
     999901    1    3    3    0    0  0.11960816201E+00 -0.54551016729E-01 -0.45904548937E-01  0.89094845724E+00  0.88000000000E+00 0.  1.
        -11    1    4    4    0    0 -0.84680186896E-01  0.37463361929E-01  0.46784477038E-01  0.10374625753E+00  0.51100000000E-03 0.  1.
         11    1    4    4    0    0 -0.23658082999E-01 -0.41607350130E-03  0.10061396987E-01  0.25717131229E-01  0.51100000000E-03 0. -1.
</event>
<event>
 8    1  0.1065239E+005  0.1043930E+01  0.7957747E-01            NaN
         13   -1    0    0    0    0  0.00000000000E+00  0.00000000000E+00  0.74505805969E-08  0.10566000000E+00  0.10566000000E+00 0. -1.
     999900   -1    0    0    0    0 -0.00000000000E+00 -0.00000000000E+00 -0.74505805969E-08  0.93827000000E+00  0.93827000000E+00 0. -1.
     999902    2    1    2    0    0  0.22996590249E-01 -0.46541942604E-02 -0.15536614723E-02  0.10204157798E+01  0.10201448158E+01 0.  0.
     999903    2    3    3    0    0  0.69884263110E-01  0.89179710660E-01 -0.64926411547E-01  0.13192303306E+00  0.18746111877E-01 0.  0.
         14    1    1    2    0    0 -0.22996590249E-01  0.46541942604E-02  0.15536614723E-02  0.23514220192E-01  0.00000000000E+00 0.  1.
     999901    1    3    3    0    0 -0.46887672861E-01 -0.93833904921E-01  0.63372750074E-01  0.88849274675E+00  0.88000000000E+00 0. -1.
        -11    1    4    4    0    0  0.44858751409E-01  0.50606987050E-01 -0.29065230576E-01  0.73609941351E-01  0.51100000000E-03 0. -1.
         11    1    4    4    0    0  0.25025511701E-01  0.38572723611E-01 -0.35861180970E-01  0.58313091705E-01  0.51100000000E-03 0.  1.
</event>
<event>
 8    1  0.1065239E+005  0.1043930E+01  0.7957747E-01            NaN
         13   -1    0    0    0    0  0.00000000000E+00  0.00000000000E+00  0.74505805969E-08  0.10566000000E+00  0.10566000000E+00 0. -1.
     999900   -1    0    0    0    0 -0.00000000000E+00 -0.00000000000E+00 -0.74505805969E-08  0.93827000000E+00  0.93827000000E+00 0. -1.
     999902    2    1    2    0    0 -0.84386937443E-02  0.15102650362E-01  0.13057689956E-01  0.10222550175E+01  0.10220252032E+01 0.  0.
     999903    2    3    3    0    0  0.24689148697E-01 -0.98401801938E-01  0.82633548072E-01  0.13162517593E+00  0.14297376795E-01 0.  0.
         14    1    1    2    0    0  0.84386937443E-02 -0.15102650362E-01 -0.13057689956E-01  0.21674982515E-01  0.00000000000E+00 0. -1.
     999901    1    3    3    0    0 -0.33127842441E-01  0.11350445230E+00 -0.69575858117E-01  0.89062984156E+00  0.88000000000E+00 0. -1.
        -11    1    4    4    0    0  0.14621133049E-01 -0.71903314481E-01  0.52318256368E-01  0.90118395654E-01  0.51100000000E-03 0. -1.
         11    1    4    4    0    0  0.10068015648E-01 -0.26498487458E-01  0.30315291705E-01  0.41506780275E-01  0.51100000000E-03 0.  1.
</event>
<event>
 8    1  0.1065239E+005  0.1043930E+01  0.7957747E-01            NaN
         13   -1    0    0    0    0  0.00000000000E+00  0.00000000000E+00  0.74505805969E-08  0.10566000000E+00  0.10566000000E+00 0. -1.
     999900   -1    0    0    0    0 -0.00000000000E+00 -0.00000000000E+00 -0.74505805969E-08  0.93827000000E+00  0.93827000000E+00 0. -1.
     999902    2    1    2    0    0  0.23393047057E-01  0.13116837472E-02  0.80277410626E-02  0.10191630908E+01  0.10188621133E+01 0.  0.
     999903    2    3    3    0    0  0.67351204095E-01  0.95982137172E-01 -0.54433539786E-01  0.13079592238E+00  0.19894916630E-01 0.  0.
         14    1    1    2    0    0 -0.23393047057E-01 -0.13116837472E-02 -0.80277410626E-02  0.24766909202E-01  0.00000000000E+00 0.  1.
     999901    1    3    3    0    0 -0.43958157038E-01 -0.94670453425E-01  0.62461280849E-01  0.88836716842E+00  0.88000000000E+00 0.  1.
        -11    1    4    4    0    0  0.47548484730E-01  0.50777621973E-01 -0.31002009846E-01  0.76161742554E-01  0.51100000000E-03 0. -1.
         11    1    4    4    0    0  0.19802719365E-01  0.45204515199E-01 -0.23431529941E-01  0.54634179823E-01  0.51100000000E-03 0.  1.
</event>
<event>
 8    1  0.1065239E+005  0.1043930E+01  0.7957747E-01            NaN
         13   -1    0    0    0    0  0.00000000000E+00  0.00000000000E+00  0.74505805969E-08  0.10566000000E+00  0.10566000000E+00 0. -1.
     999900   -1    0    0    0    0 -0.00000000000E+00 -0.00000000000E+00 -0.74505805969E-08  0.93827000000E+00  0.93827000000E+00 0. -1.
     999902    2    1    2    0    0  0.21467853507E-01  0.32127922757E-02 -0.10158318465E-01  0.10199637278E+01  0.10196821190E+01 0.  0.
     999903    2    3    3    0    0 -0.29510303797E-01  0.12431573462E+00 -0.13779618922E-01  0.13020094539E+00  0.20908093598E-01 0.  0.
         14    1    1    2    0    0 -0.21467853507E-01 -0.32127922757E-02  0.10158318465E-01  0.23966272185E-01  0.00000000000E+00 0. -1.
     999901    1    3    3    0    0  0.50978157304E-01 -0.12110294235E+00  0.36213004569E-02  0.88976278242E+00  0.88000000000E+00 0. -1.
        -11    1    4    4    0    0 -0.15421883552E-01  0.90130721021E-01 -0.22586165240E-02  0.91469906711E-01  0.51100000000E-03 0.  1.
         11    1    4    4    0    0 -0.14088420245E-01  0.34185013604E-01 -0.11521002398E-01  0.38731038682E-01  0.51100000000E-03 0. -1.
</event>
<event>
 8    1  0.1065239E+005  0.1043930E+01  0.7957747E-01            NaN
         13   -1    0    0    0    0  0.00000000000E+00  0.00000000000E+00  0.74505805969E-08  0.10566000000E+00  0.10566000000E+00 0.  1.
     999900   -1    0    0    0    0 -0.00000000000E+00 -0.00000000000E+00 -0.74505805969E-08  0.93827000000E+00  0.93827000000E+00 0. -1.
     999902    2    1    2    0    0 -0.35134843168E-03 -0.18300401089E-01  0.15282413519E-01  0.10200850783E+01  0.10198063477E+01 0.  0.
     999903    2    3    3    0    0 -0.11406723885E+00 -0.39942360946E-01 -0.44446408039E-01  0.13049685322E+00  0.21147537322E-01 0.  0.
         14    1    1    2    0    0  0.35134843168E-03  0.18300401089E-01 -0.15282413519E-01  0.23844921654E-01  0.00000000000E+00 0. -1.
     999901    1    3    3    0    0  0.11371589042E+00  0.21641959857E-01  0.59728821558E-01  0.88958822513E+00  0.88000000000E+00 0.  1.
        -11    1    4    4    0    0 -0.61292215221E-01 -0.18579309240E-01 -0.34327448026E-01  0.72667469940E-01  0.51100000000E-03 0.  1.
         11    1    4    4    0    0 -0.52775023632E-01 -0.21363051706E-01 -0.10118960013E-01  0.57829383278E-01  0.51100000000E-03 0. -1.
</event>
<event>
 8    1  0.1065239E+005  0.1043930E+01  0.7957747E-01            NaN
         13   -1    0    0    0    0  0.00000000000E+00  0.00000000000E+00  0.74505805969E-08  0.10566000000E+00  0.10566000000E+00 0.  1.
     999900   -1    0    0    0    0 -0.00000000000E+00 -0.00000000000E+00 -0.74505805969E-08  0.93827000000E+00  0.93827000000E+00 0. -1.
     999902    2    1    2    0    0 -0.40518366604E-02  0.17046008484E-01  0.16775130516E-01  0.10196732733E+01  0.10193847142E+01 0.  0.
     999903    2    3    3    0    0 -0.18945790475E-02  0.12423586514E+00 -0.36113228198E-01  0.13159022674E+00  0.23951678544E-01 0.  0.
         14    1    1    2    0    0  0.40518366604E-02 -0.17046008484E-01 -0.16775130516E-01  0.24256726683E-01  0.00000000000E+00 0.  1.
     999901    1    3    3    0    0 -0.21572576129E-02 -0.10718985666E+00  0.52888358714E-01  0.88808304658E+00  0.88000000000E+00 0. -1.
        -11    1    4    4    0    0 -0.95381917820E-02  0.49058029898E-01 -0.22484095769E-01  0.54803860115E-01  0.51100000000E-03 0. -1.
         11    1    4    4    0    0  0.76436127345E-02  0.75177835244E-01 -0.13629132429E-01  0.76786366625E-01  0.51100000000E-03 0.  1.
</event>
<event>
 8    1  0.1065239E+005  0.1043930E+01  0.7957747E-01            NaN
         13   -1    0    0    0    0  0.00000000000E+00  0.00000000000E+00  0.74505805969E-08  0.10566000000E+00  0.10566000000E+00 0.  1.
     999900   -1    0    0    0    0 -0.00000000000E+00 -0.00000000000E+00 -0.74505805969E-08  0.93827000000E+00  0.93827000000E+00 0.  1.
     999902    2    1    2    0    0  0.10196524661E-02 -0.23276830082E-01 -0.39137136915E-02  0.10203044277E+01  0.10200308611E+01 0.  0.
     999903    2    3    3    0    0 -0.12515909353E+00 -0.32541293457E-01 -0.96597723128E-02  0.13123754420E+00  0.20155578218E-01 0.  0.
         14    1    1    2    0    0 -0.10196524661E-02  0.23276830082E-01  0.39137136915E-02  0.23625572262E-01  0.00000000000E+00 0.  1.
     999901    1    3    3    0    0  0.12617874599E+00  0.92644633752E-02  0.57460586213E-02  0.88906688354E+00  0.88000000000E+00 0.  1.
        -11    1    4    4    0    0 -0.88810175208E-01 -0.14782207432E-01 -0.11336256247E-01  0.90744326014E-01  0.51100000000E-03 0. -1.
         11    1    4    4    0    0 -0.36348918319E-01 -0.17759086025E-01  0.16764839345E-02  0.40493218182E-01  0.51100000000E-03 0.  1.
</event>
<event>
 8    1  0.1065239E+005  0.1043930E+01  0.7957747E-01            NaN
         13   -1    0    0    0    0  0.00000000000E+00  0.00000000000E+00  0.74505805969E-08  0.10566000000E+00  0.10566000000E+00 0. -1.
     999900   -1    0    0    0    0 -0.00000000000E+00 -0.00000000000E+00 -0.74505805969E-08  0.93827000000E+00  0.93827000000E+00 0.  1.
     999902    2    1    2    0    0  0.67584774748E-02 -0.20621412817E-01  0.13158460296E-01  0.10185515690E+01  0.10182353529E+01 0.  0.
     999903    2    3    3    0    0 -0.11211002159E+00 -0.60442431535E-01  0.10141835876E-01  0.12966207436E+00  0.22078320196E-01 0.  0.
         14    1    1    2    0    0 -0.67584774748E-02  0.20621412817E-01 -0.13158460296E-01  0.25378431033E-01  0.00000000000E+00 0.  1.
     999901    1    3    3    0    0  0.11886849906E+00  0.39821018718E-01  0.30166244203E-02  0.88888949461E+00  0.88000000000E+00 0.  1.
        -11    1    4    4    0    0 -0.65761861279E-01 -0.23345972268E-01  0.27894721108E-02  0.69840526170E-01  0.51100000000E-03 0.  1.
         11    1    4    4    0    0 -0.46348160306E-01 -0.37096459267E-01  0.73523637648E-02  0.59821548190E-01  0.51100000000E-03 0. -1.
</event>
<event>
 8    1  0.1065239E+005  0.1043930E+01  0.7957747E-01            NaN
         13   -1    0    0    0    0  0.00000000000E+00  0.00000000000E+00  0.74505805969E-08  0.10566000000E+00  0.10566000000E+00 0.  1.
     999900   -1    0    0    0    0 -0.00000000000E+00 -0.00000000000E+00 -0.74505805969E-08  0.93827000000E+00  0.93827000000E+00 0.  1.
     999902    2    1    2    0    0 -0.69813474812E-02 -0.15092508748E-01 -0.14829714260E-01  0.10216489888E+01  0.10214059981E+01 0.  0.
     999903    2    3    3    0    0  0.27392723355E-01 -0.11410814022E+00 -0.60544839077E-01  0.13425080051E+00  0.24219226700E-01 0.  0.
         14    1    1    2    0    0  0.69813474812E-02  0.15092508748E-01  0.14829714260E-01  0.22281011153E-01  0.00000000000E+00 0.  1.
     999901    1    3    3    0    0 -0.34374070836E-01  0.99015631473E-01  0.45715124817E-01  0.88739818833E+00  0.88000000000E+00 0. -1.
        -11    1    4    4    0    0 -0.26261113942E-02 -0.13334904168E-02 -0.58487038894E-03  0.30459566836E-02  0.51100000000E-03 0. -1.
         11    1    4    4    0    0  0.30018834749E-01 -0.11277464980E+00 -0.59959968688E-01  0.13120484383E+00  0.51100000000E-03 0.  1.
</event>
<event>
 8    1  0.1065239E+005  0.1043930E+01  0.7957747E-01            NaN
         13   -1    0    0    0    0  0.00000000000E+00  0.00000000000E+00  0.74505805969E-08  0.10566000000E+00  0.10566000000E+00 0. -1.
     999900   -1    0    0    0    0 -0.00000000000E+00 -0.00000000000E+00 -0.74505805969E-08  0.93827000000E+00  0.93827000000E+00 0. -1.
     999902    2    1    2    0    0 -0.20915421860E-01 -0.11152844314E-01  0.28843253915E-02  0.10200519737E+01  0.10197724594E+01 0.  0.
     999903    2    3    3    0    0 -0.12449592567E+00  0.17406456737E-01  0.37969429271E-01  0.13282284941E+00  0.19950226098E-01 0.  0.
         14    1    1    2    0    0  0.20915421860E-01  0.11152844314E-01 -0.28843253915E-02  0.23878026318E-01  0.00000000000E+00 0.  1.
     999901    1    3    3    0    0  0.10358050381E+00 -0.28559301052E-01 -0.35085103879E-01  0.88722912427E+00  0.88000000000E+00 0. -1.
        -11    1    4    4    0    0 -0.35872317066E-01 -0.30672313814E-02  0.66026794940E-02  0.36607206088E-01  0.51100000000E-03 0.  1.
         11    1    4    4    0    0 -0.88623608603E-01  0.20473688119E-01  0.31366749777E-01  0.96215643320E-01  0.51100000000E-03 0. -1.
</event>
<event>
 8    1  0.1065239E+005  0.1043930E+01  0.7957747E-01            NaN
         13   -1    0    0    0    0  0.00000000000E+00  0.00000000000E+00  0.74505805969E-08  0.10566000000E+00  0.10566000000E+00 0.  1.
     999900   -1    0    0    0    0 -0.00000000000E+00 -0.00000000000E+00 -0.74505805969E-08  0.93827000000E+00  0.93827000000E+00 0.  1.
     999902    2    1    2    0    0  0.52022992850E-02 -0.20611497900E-02 -0.22938884651E-01  0.10203184629E+01  0.10200452250E+01 0.  0.
     999903    2    3    3    0    0 -0.33805260698E-01  0.10861330513E+00  0.54889846801E-01  0.12912390716E+00  0.26841058372E-01 0.  0.
         14    1    1    2    0    0 -0.52022992850E-02  0.20611497900E-02  0.22938884651E-01  0.23611537123E-01  0.00000000000E+00 0.  1.
     999901    1    3    3    0    0  0.39007559983E-01 -0.11067445492E+00 -0.77828731451E-01  0.89119455572E+00  0.88000000000E+00 0.  1.
        -11    1    4    4    0    0 -0.30764303081E-01  0.79098510541E-01  0.51451700338E-01  0.99249963741E-01  0.51100000000E-03 0.  1.
         11    1    4    4    0    0 -0.30409576167E-02  0.29514794592E-01  0.34381464621E-02  0.29873943415E-01  0.51100000000E-03 0. -1.
</event>
<event>
 8    1  0.1065239E+005  0.1043930E+01  0.7957747E-01            NaN
         13   -1    0    0    0    0  0.00000000000E+00  0.00000000000E+00  0.74505805969E-08  0.10566000000E+00  0.10566000000E+00 0. -1.
     999900   -1    0    0    0    0 -0.00000000000E+00 -0.00000000000E+00 -0.74505805969E-08  0.93827000000E+00  0.93827000000E+00 0. -1.
     999902    2    1    2    0    0 -0.23984800697E-01 -0.16785877989E-02 -0.40536128186E-02  0.10195472172E+01  0.10192556146E+01 0.  0.
     999903    2    3    3    0    0  0.71773553348E-01 -0.10098885489E+00  0.26083935430E-01  0.12828941870E+00  0.20678769089E-01 0.  0.
         14    1    1    2    0    0  0.23984800697E-01  0.16785877989E-02  0.40536128186E-02  0.24382782827E-01  0.00000000000E+00 0. -1.
     999901    1    3    3    0    0 -0.95758354045E-01  0.99310267093E-01 -0.30137548249E-01  0.89125779847E+00  0.88000000000E+00 0.  1.
        -11    1    4    4    0    0  0.65896507482E-02 -0.15317299595E-01  0.99811496675E-02  0.19440360942E-01  0.51100000000E-03 0. -1.
         11    1    4    4    0    0  0.65183902600E-01 -0.85671555297E-01  0.16102785763E-01  0.10884905776E+00  0.51100000000E-03 0.  1.
</event>
<event>
 8    1  0.1065239E+005  0.1043930E+01  0.7957747E-01            NaN
         13   -1    0    0    0    0  0.00000000000E+00  0.00000000000E+00  0.74505805969E-08  0.10566000000E+00  0.10566000000E+00 0.  1.
     999900   -1    0    0    0    0 -0.00000000000E+00 -0.00000000000E+00 -0.74505805969E-08  0.93827000000E+00  0.93827000000E+00 0.  1.
     999902    2    1    2    0    0  0.63996511302E-02  0.17398646665E-01  0.14866238823E-01  0.10201671404E+01  0.10198903475E+01 0.  0.
     999903    2    3    3    0    0  0.10681274470E+00 -0.15887644077E-01  0.73133417548E-01  0.13191839672E+00  0.19813807430E-01 0.  0.
         14    1    1    2    0    0 -0.63996511302E-02 -0.17398646665E-01 -0.14866238823E-01  0.23762859615E-01  0.00000000000E+00 0.  1.
     999901    1    3    3    0    0 -0.10041309357E+00  0.33286290741E-01 -0.58267178725E-01  0.88824874367E+00  0.88000000000E+00 0.  1.
        -11    1    4    4    0    0  0.31545827039E-01 -0.13839075460E-01  0.21268394587E-01  0.40487836970E-01  0.51100000000E-03 0. -1.
         11    1    4    4    0    0  0.75266917663E-01 -0.20485686166E-02  0.51865022961E-01  0.91430559746E-01  0.51100000000E-03 0.  1.
</event>
<event>
 8    1  0.1065239E+005  0.1043930E+01  0.7957747E-01            NaN
         13   -1    0    0    0    0  0.00000000000E+00  0.00000000000E+00  0.74505805969E-08  0.10566000000E+00  0.10566000000E+00 0.  1.
     999900   -1    0    0    0    0 -0.00000000000E+00 -0.00000000000E+00 -0.74505805969E-08  0.93827000000E+00  0.93827000000E+00 0.  1.
     999902    2    1    2    0    0  0.48529363826E-02 -0.40738412023E-02 -0.21923671651E-01  0.10211090764E+01  0.10208540304E+01 0.  0.
     999903    2    3    3    0    0 -0.62223835806E-01 -0.83808213380E-01 -0.79907836395E-01  0.13306683260E+00  0.20637278130E-01 0.  0.
         14    1    1    2    0    0 -0.48529363826E-02  0.40738412023E-02  0.21923671651E-01  0.22820923565E-01  0.00000000000E+00 0.  1.
     999901    1    3    3    0    0  0.67076772189E-01  0.79734372178E-01  0.57984164744E-01  0.88804224383E+00  0.88000000000E+00 0. -1.
        -11    1    4    4    0    0 -0.45908093160E-01 -0.69642044944E-01 -0.54179211935E-01  0.99464644817E-01  0.51100000000E-03 0.  1.
         11    1    4    4    0    0 -0.16315742646E-01 -0.14166168435E-01 -0.25728624461E-01  0.33602187784E-01  0.51100000000E-03 0. -1.
</event>
<event>
 8    1  0.1065239E+005  0.1043930E+01  0.7957747E-01            NaN
         13   -1    0    0    0    0  0.00000000000E+00  0.00000000000E+00  0.74505805969E-08  0.10566000000E+00  0.10566000000E+00 0. -1.
     999900   -1    0    0    0    0 -0.00000000000E+00 -0.00000000000E+00 -0.74505805969E-08  0.93827000000E+00  0.93827000000E+00 0. -1.
     999902    2    1    2    0    0 -0.14306274796E-01 -0.64617839910E-02 -0.12239201328E-01  0.10240246691E+01  0.10238311876E+01 0.  0.
     999903    2    3    3    0    0 -0.50773357775E-01  0.63934144465E-01  0.10299549007E+00  0.13297783023E+00  0.20236691135E-01 0.  0.
         14    1    1    2    0    0  0.14306274796E-01  0.64617839910E-02  0.12239201328E-01  0.19905330945E-01  0.00000000000E+00 0. -1.
     999901    1    3    3    0    0  0.36467082979E-01 -0.70395928456E-01 -0.11523469140E+00  0.89104683883E+00  0.88000000000E+00 0. -1.
        -11    1    4    4    0    0 -0.36910713903E-01  0.58232193189E-01  0.81236078490E-01  0.10655022616E+00  0.51100000000E-03 0. -1.
         11    1    4    4    0    0 -0.13862643872E-01  0.57019512767E-02  0.21759411583E-01  0.26427604071E-01  0.51100000000E-03 0.  1.
</event>
<event>
 8    1  0.1065239E+005  0.1043930E+01  0.7957747E-01            NaN
         13   -1    0    0    0    0  0.00000000000E+00  0.00000000000E+00  0.74505805969E-08  0.10566000000E+00  0.10566000000E+00 0.  1.
     999900   -1    0    0    0    0 -0.00000000000E+00 -0.00000000000E+00 -0.74505805969E-08  0.93827000000E+00  0.93827000000E+00 0. -1.
     999902    2    1    2    0    0 -0.94380453473E-02 -0.17277840136E-01 -0.62394152009E-02  0.10232773788E+01  0.10230689435E+01 0.  0.
     999903    2    3    3    0    0  0.38318703853E-01  0.11054060334E+00 -0.56041998329E-01  0.13137011969E+00  0.20732938047E-01 0.  0.
         14    1    1    2    0    0  0.94380453473E-02  0.17277840136E-01  0.62394152009E-02  0.20652621184E-01  0.00000000000E+00 0. -1.
     999901    1    3    3    0    0 -0.47756749200E-01 -0.12781844348E+00  0.49802583128E-01  0.89190725912E+00  0.88000000000E+00 0. -1.
        -11    1    4    4    0    0 -0.60891869939E-03  0.22804894834E-01 -0.10012674890E-01  0.24918844071E-01  0.51100000000E-03 0. -1.
         11    1    4    4    0    0  0.38927622553E-01  0.87735708506E-01 -0.46029323439E-01  0.10645127562E+00  0.51100000000E-03 0.  1.
</event>
<event>
 8    1  0.1065239E+005  0.1043930E+01  0.7957747E-01            NaN
         13   -1    0    0    0    0  0.00000000000E+00  0.00000000000E+00  0.74505805969E-08  0.10566000000E+00  0.10566000000E+00 0. -1.
     999900   -1    0    0    0    0 -0.00000000000E+00 -0.00000000000E+00 -0.74505805969E-08  0.93827000000E+00  0.93827000000E+00 0. -1.
     999902    2    1    2    0    0 -0.85601469450E-02 -0.50271017850E-02  0.21690221386E-01  0.10200759946E+01  0.10197970491E+01 0.  0.
     999903    2    3    3    0    0  0.10660818885E+00  0.55037729658E-01  0.46743785768E-01  0.13018880480E+00  0.19227214376E-01 0.  0.
         14    1    1    2    0    0  0.85601469450E-02  0.50271017850E-02 -0.21690221386E-01  0.23854005363E-01  0.00000000000E+00 0.  1.
     999901    1    3    3    0    0 -0.11516833579E+00 -0.60064831443E-01 -0.25053564381E-01  0.88988718984E+00  0.88000000000E+00 0. -1.
        -11    1    4    4    0    0  0.41970971897E-01  0.13100709833E-01  0.22626106045E-01  0.49450913802E-01  0.51100000000E-03 0.  1.
         11    1    4    4    0    0  0.64637216950E-01  0.41937019826E-01  0.24117679723E-01  0.80737891000E-01  0.51100000000E-03 0. -1.
</event>
<event>
 8    1  0.1065239E+005  0.1043930E+01  0.7957747E-01            NaN
         13   -1    0    0    0    0  0.00000000000E+00  0.00000000000E+00  0.74505805969E-08  0.10566000000E+00  0.10566000000E+00 0.  1.
     999900   -1    0    0    0    0 -0.00000000000E+00 -0.00000000000E+00 -0.74505805969E-08  0.93827000000E+00  0.93827000000E+00 0.  1.
     999902    2    1    2    0    0 -0.18005836143E-01 -0.61912549968E-02  0.14228430591E-01  0.10201604815E+01  0.10198835316E+01 0.  0.
     999903    2    3    3    0    0 -0.66558099035E-01  0.10381278837E+00  0.41421971109E-01  0.13156737975E+00  0.19675369086E-01 0.  0.
         14    1    1    2    0    0  0.18005836143E-01  0.61912549968E-02 -0.14228430591E-01  0.23769518521E-01  0.00000000000E+00 0. -1.
     999901    1    3    3    0    0  0.48552262891E-01 -0.11000404336E+00 -0.27193540519E-01  0.88859310173E+00  0.88000000000E+00 0.  1.
        -11    1    4    4    0    0 -0.27008925133E-01  0.30766408663E-01  0.64898926609E-02  0.41453995785E-01  0.51100000000E-03 0.  1.
         11    1    4    4    0    0 -0.39549173902E-01  0.73046379705E-01  0.34932078448E-01  0.90113383968E-01  0.51100000000E-03 0. -1.
</event>
<event>
 8    1  0.1065239E+005  0.1043930E+01  0.7957747E-01            NaN
         13   -1    0    0    0    0  0.00000000000E+00  0.00000000000E+00  0.74505805969E-08  0.10566000000E+00  0.10566000000E+00 0. -1.
     999900   -1    0    0    0    0 -0.00000000000E+00 -0.00000000000E+00 -0.74505805969E-08  0.93827000000E+00  0.93827000000E+00 0. -1.
     999902    2    1    2    0    0 -0.25124795789E-01 -0.49191397679E-02 -0.32744079553E-02  0.10181196330E+01  0.10177924209E+01 0.  0.
     999903    2    3    3    0    0  0.77870262037E-01 -0.98813530479E-01  0.39271231996E-02  0.12712243846E+00  0.17798891781E-01 0.  0.
         14    1    1    2    0    0  0.25124795789E-01  0.49191397679E-02  0.32744079553E-02  0.25810367044E-01  0.00000000000E+00 0.  1.
     999901    1    3    3    0    0 -0.10299505783E+00  0.93894390711E-01 -0.72015311549E-02  0.89099719449E+00  0.88000000000E+00 0.  1.
        -11    1    4    4    0    0  0.36415973996E-01 -0.56826166961E-01  0.80472178216E-02  0.67973195079E-01  0.51100000000E-03 0. -1.
         11    1    4    4    0    0  0.41454288041E-01 -0.41987363518E-01 -0.41200946220E-02  0.59149243384E-01  0.51100000000E-03 0.  1.
</event>
<event>
 8    1  0.1065239E+005  0.1043930E+01  0.7957747E-01            NaN
         13   -1    0    0    0    0  0.00000000000E+00  0.00000000000E+00  0.74505805969E-08  0.10566000000E+00  0.10566000000E+00 0.  1.
     999900   -1    0    0    0    0 -0.00000000000E+00 -0.00000000000E+00 -0.74505805969E-08  0.93827000000E+00  0.93827000000E+00 0. -1.
     999902    2    1    2    0    0 -0.14367074601E-01 -0.19283438444E-01  0.14497154034E-02  0.10198392236E+01  0.10195546462E+01 0.  0.
     999903    2    3    3    0    0 -0.31671036171E-01 -0.99118086304E-01  0.79767512603E-01  0.13259254123E+00  0.19760474669E-01 0.  0.
         14    1    1    2    0    0  0.14367074601E-01  0.19283438444E-01 -0.14497154034E-02  0.24090776359E-01  0.00000000000E+00 0. -1.
     999901    1    3    3    0    0  0.17303961570E-01  0.79834647860E-01 -0.78317797200E-01  0.88724668241E+00  0.88000000000E+00 0. -1.
        -11    1    4    4    0    0 -0.21984716798E-01 -0.80603790182E-01  0.54292922978E-01  0.99640761594E-01  0.51100000000E-03 0.  1.
         11    1    4    4    0    0 -0.96863193737E-02 -0.18514296122E-01  0.25474589625E-01  0.32951779640E-01  0.51100000000E-03 0. -1.
</event>
<event>
 8    1  0.1065239E+005  0.1043930E+01  0.7957747E-01            NaN
         13   -1    0    0    0    0  0.00000000000E+00  0.00000000000E+00  0.74505805969E-08  0.10566000000E+00  0.10566000000E+00 0. -1.
     999900   -1    0    0    0    0 -0.00000000000E+00 -0.00000000000E+00 -0.74505805969E-08  0.93827000000E+00  0.93827000000E+00 0.  1.
     999902    2    1    2    0    0  0.90788711852E-02  0.15145177431E-02  0.21640239595E-01  0.10204136305E+01  0.10201426163E+01 0.  0.
     999903    2    3    3    0    0  0.68619940419E-01  0.60490735819E-01 -0.89396722746E-01  0.12948572080E+00  0.20173064001E-01 0.  0.
         14    1    1    2    0    0 -0.90788711852E-02 -0.15145177431E-02 -0.21640239595E-01  0.23516369526E-01  0.00000000000E+00 0.  1.
     999901    1    3    3    0    0 -0.59541069234E-01 -0.58976218076E-01  0.11103696234E+00  0.89092790967E+00  0.88000000000E+00 0. -1.
        -11    1    4    4    0    0  0.34555849848E-01  0.19447624379E-01 -0.45907890320E-01  0.60663929706E-01  0.51100000000E-03 0. -1.
         11    1    4    4    0    0  0.34064090571E-01  0.41043111439E-01 -0.43488832426E-01  0.68821791097E-01  0.51100000000E-03 0.  1.
</event>
<event>
 8    1  0.1065239E+005  0.1043930E+01  0.7957747E-01            NaN
         13   -1    0    0    0    0  0.00000000000E+00  0.00000000000E+00  0.74505805969E-08  0.10566000000E+00  0.10566000000E+00 0. -1.
     999900   -1    0    0    0    0 -0.00000000000E+00 -0.00000000000E+00 -0.74505805969E-08  0.93827000000E+00  0.93827000000E+00 0. -1.
     999902    2    1    2    0    0  0.27813432958E-02  0.19424097340E-01  0.14045189338E-01  0.10197991324E+01  0.10195135956E+01 0.  0.
     999903    2    3    3    0    0 -0.10376248286E+00 -0.72700444607E-01 -0.75397677539E-03  0.12847565944E+00  0.21293639701E-01 0.  0.
         14    1    1    2    0    0 -0.27813432958E-02 -0.19424097340E-01 -0.14045189338E-01  0.24130867609E-01  0.00000000000E+00 0.  1.
     999901    1    3    3    0    0  0.10654382616E+00  0.92124541947E-01  0.14799166113E-01  0.89132347295E+00  0.88000000000E+00 0.  1.
        -11    1    4    4    0    0 -0.24031465733E-01 -0.73377023592E-02  0.29812458481E-02  0.25308144322E-01  0.51100000000E-03 0. -1.
         11    1    4    4    0    0 -0.79731017126E-01 -0.65362742248E-01 -0.37352226235E-02  0.10316751512E+00  0.51100000000E-03 0.  1.
</event>
<event>
 8    1  0.1065239E+005  0.1043930E+01  0.7957747E-01            NaN
         13   -1    0    0    0    0  0.00000000000E+00  0.00000000000E+00  0.74505805969E-08  0.10566000000E+00  0.10566000000E+00 0. -1.
     999900   -1    0    0    0    0 -0.00000000000E+00 -0.00000000000E+00 -0.74505805969E-08  0.93827000000E+00  0.93827000000E+00 0.  1.
     999902    2    1    2    0    0 -0.12845904808E-01  0.14332365935E-01 -0.13214540325E-01  0.10205835215E+01  0.10203164540E+01 0.  0.
     999903    2    3    3    0    0 -0.54280543012E-01  0.76869047503E-01  0.89633509579E-01  0.13142358808E+00  0.19564397514E-01 0.  0.
         14    1    1    2    0    0  0.12845904808E-01 -0.14332365935E-01  0.13214540325E-01  0.23346478527E-01  0.00000000000E+00 0. -1.
     999901    1    3    3    0    0  0.41434638204E-01 -0.62536681568E-01 -0.10284804990E+00  0.88915993339E+00  0.88000000000E+00 0.  1.
        -11    1    4    4    0    0 -0.31951408053E-01  0.42716231860E-01  0.37452494628E-01  0.65180667500E-01  0.51100000000E-03 0. -1.
         11    1    4    4    0    0 -0.22329134960E-01  0.34152815643E-01  0.52181014951E-01  0.66242920579E-01  0.51100000000E-03 0.  1.
</event>
<event>
 8    1  0.1065239E+005  0.1043930E+01  0.7957747E-01            NaN
         13   -1    0    0    0    0  0.00000000000E+00  0.00000000000E+00  0.74505805969E-08  0.10566000000E+00  0.10566000000E+00 0. -1.
     999900   -1    0    0    0    0 -0.00000000000E+00 -0.00000000000E+00 -0.74505805969E-08  0.93827000000E+00  0.93827000000E+00 0. -1.
     999902    2    1    2    0    0 -0.15591508829E-02  0.18436288167E-01 -0.14400742678E-01  0.10204841248E+01  0.10202147519E+01 0.  0.
     999903    2    3    3    0    0  0.52169712545E-01 -0.78688646097E-01 -0.87797676039E-01  0.13048010605E+00  0.20075961360E-01 0.  0.
         14    1    1    2    0    0  0.15591508829E-02 -0.18436288167E-01  0.14400742678E-01  0.23445875171E-01  0.00000000000E+00 0. -1.
     999901    1    3    3    0    0 -0.53728863428E-01  0.97124934264E-01  0.73396933361E-01  0.89000401878E+00  0.88000000000E+00 0.  1.
        -11    1    4    4    0    0 -0.11243778802E-02 -0.67930104636E-02 -0.80839128556E-02  0.10631085779E-01  0.51100000000E-03 0. -1.
         11    1    4    4    0    0  0.53294090425E-01 -0.71895635634E-01 -0.79713763184E-01  0.11984902027E+00  0.51100000000E-03 0.  1.
</event>
<event>
 8    1  0.1065239E+005  0.1043930E+01  0.7957747E-01            NaN
         13   -1    0    0    0    0  0.00000000000E+00  0.00000000000E+00  0.74505805969E-08  0.10566000000E+00  0.10566000000E+00 0. -1.
     999900   -1    0    0    0    0 -0.00000000000E+00 -0.00000000000E+00 -0.74505805969E-08  0.93827000000E+00  0.93827000000E+00 0. -1.
     999902    2    1    2    0    0 -0.21179851377E-01  0.10238571732E-01 -0.87974131483E-05  0.10204052358E+01  0.10201340258E+01 0.  0.
     999903    2    3    3    0    0 -0.71972704633E-02  0.73239222931E-01 -0.10711417058E+00  0.13156545515E+00  0.20499731046E-01 0.  0.
         14    1    1    2    0    0  0.21179851377E-01 -0.10238571732E-01  0.87974131483E-05  0.23524764247E-01  0.00000000000E+00 0.  1.
     999901    1    3    3    0    0 -0.13982580914E-01 -0.63000651199E-01  0.10710537316E+00  0.88883978060E+00  0.88000000000E+00 0.  1.
        -11    1    4    4    0    0 -0.11324784055E-01  0.36936322980E-01 -0.43314150628E-01  0.58042393600E-01  0.51100000000E-03 0. -1.
         11    1    4    4    0    0  0.41275135921E-02  0.36302899951E-01 -0.63800019949E-01  0.73523061551E-01  0.51100000000E-03 0.  1.
</event>
<event>
 8    1  0.1065239E+005  0.1043930E+01  0.7957747E-01            NaN
         13   -1    0    0    0    0  0.00000000000E+00  0.00000000000E+00  0.74505805969E-08  0.10566000000E+00  0.10566000000E+00 0.  1.
     999900   -1    0    0    0    0 -0.00000000000E+00 -0.00000000000E+00 -0.74505805969E-08  0.93827000000E+00  0.93827000000E+00 0.  1.
     999902    2    1    2    0    0  0.39010949017E-02 -0.16544584347E-01 -0.17398125279E-01  0.10196064193E+01  0.10193162482E+01 0.  0.
     999903    2    3    3    0    0  0.12267548732E+00 -0.16411851503E-01  0.34472873609E-01  0.13011331963E+00  0.20554144914E-01 0.  0.
         14    1    1    2    0    0 -0.39010949017E-02  0.16544584347E-01  0.17398125279E-01  0.24323580654E-01  0.00000000000E+00 0.  1.
     999901    1    3    3    0    0 -0.11877439241E+00 -0.13273284352E-03 -0.51870998887E-01  0.88949309971E+00  0.88000000000E+00 0.  1.
        -11    1    4    4    0    0  0.63159505982E-01 -0.12430627029E-01  0.27696292098E-01  0.70078451761E-01  0.51100000000E-03 0. -1.
         11    1    4    4    0    0  0.59515981333E-01 -0.39812244739E-02  0.67765815101E-02  0.60034867871E-01  0.51100000000E-03 0.  1.
</event>
<event>
 8    1  0.1065239E+005  0.1043930E+01  0.7957747E-01            NaN
         13   -1    0    0    0    0  0.00000000000E+00  0.00000000000E+00  0.74505805969E-08  0.10566000000E+00  0.10566000000E+00 0.  1.
     999900   -1    0    0    0    0 -0.00000000000E+00 -0.00000000000E+00 -0.74505805969E-08  0.93827000000E+00  0.93827000000E+00 0. -1.
     999902    2    1    2    0    0 -0.21779159250E-01 -0.24999616432E-02  0.99126310720E-02  0.10198708678E+01  0.10195870464E+01 0.  0.
     999903    2    3    3    0    0  0.62762512867E-01 -0.10531013939E+00  0.37087828998E-01  0.12944640818E+00  0.18748521259E-01 0.  0.
         14    1    1    2    0    0  0.21779159250E-01  0.24999616432E-02 -0.99126310720E-02  0.24059132167E-01  0.00000000000E+00 0. -1.
     999901    1    3    3    0    0 -0.84541672117E-01  0.10281017775E+00 -0.27175197926E-01  0.89042445966E+00  0.88000000000E+00 0.  1.
        -11    1    4    4    0    0  0.19189125656E-01 -0.26465120569E-01  0.19548119886E-02  0.32752214598E-01  0.51100000000E-03 0.  1.
         11    1    4    4    0    0  0.43573387211E-01 -0.78845018825E-01  0.35133017009E-01  0.96694193578E-01  0.51100000000E-03 0. -1.
</event>
<event>
 8    1  0.1065239E+005  0.1043930E+01  0.7957747E-01            NaN
         13   -1    0    0    0    0  0.00000000000E+00  0.00000000000E+00  0.74505805969E-08  0.10566000000E+00  0.10566000000E+00 0.  1.
     999900   -1    0    0    0    0 -0.00000000000E+00 -0.00000000000E+00 -0.74505805969E-08  0.93827000000E+00  0.93827000000E+00 0.  1.
     999902    2    1    2    0    0  0.19368504986E-01 -0.70118894331E-02 -0.12776303574E-01  0.10196907857E+01  0.10194026480E+01 0.  0.
     999903    2    3    3    0    0 -0.51035481964E-01 -0.36501336284E-01  0.10972794420E+00  0.12793205171E+00  0.19733731175E-01 0.  0.
         14    1    1    2    0    0 -0.19368504986E-01  0.70118894331E-02  0.12776303574E-01  0.24239214340E-01  0.00000000000E+00 0.  1.
     999901    1    3    3    0    0  0.70403986950E-01  0.29489446851E-01 -0.12250424778E+00  0.89175873395E+00  0.88000000000E+00 0.  1.
        -11    1    4    4    0    0 -0.13879559172E-01 -0.19326829993E-01  0.51729973460E-01  0.56942249654E-01  0.51100000000E-03 0. -1.
         11    1    4    4    0    0 -0.37155922791E-01 -0.17174506291E-01  0.57997970741E-01  0.70989802056E-01  0.51100000000E-03 0.  1.
</event>
<event>
 8    1  0.1065239E+005  0.1043930E+01  0.7957747E-01            NaN
         13   -1    0    0    0    0  0.00000000000E+00  0.00000000000E+00  0.74505805969E-08  0.10566000000E+00  0.10566000000E+00 0. -1.
     999900   -1    0    0    0    0 -0.00000000000E+00 -0.00000000000E+00 -0.74505805969E-08  0.93827000000E+00  0.93827000000E+00 0. -1.
     999902    2    1    2    0    0 -0.22449029478E-01  0.41699594059E-02 -0.72147933574E-02  0.10199842127E+01  0.10197030908E+01 0.  0.
     999903    2    3    3    0    0  0.62790714237E-01  0.11068310824E+00  0.12240376441E-01  0.12926014297E+00  0.19103232712E-01 0.  0.
         14    1    1    2    0    0  0.22449029478E-01 -0.41699594059E-02  0.72147933574E-02  0.23945787294E-01  0.00000000000E+00 0.  1.
     999901    1    3    3    0    0 -0.85239743715E-01 -0.10651314883E+00 -0.19455169798E-01  0.89072406974E+00  0.88000000000E+00 0. -1.
        -11    1    4    4    0    0  0.53231061372E-01  0.92112740922E-01  0.30421618865E-02  0.10643222635E+00  0.51100000000E-03 0.  1.
         11    1    4    4    0    0  0.95596528647E-02  0.18570367317E-01  0.91982145541E-02  0.22827916619E-01  0.51100000000E-03 0. -1.
</event>
<event>
 8    1  0.1065239E+005  0.1043930E+01  0.7957747E-01            NaN
         13   -1    0    0    0    0  0.00000000000E+00  0.00000000000E+00  0.74505805969E-08  0.10566000000E+00  0.10566000000E+00 0.  1.
     999900   -1    0    0    0    0 -0.00000000000E+00 -0.00000000000E+00 -0.74505805969E-08  0.93827000000E+00  0.93827000000E+00 0. -1.
     999902    2    1    2    0    0 -0.79893446317E-02  0.19056247194E-01  0.10568078529E-01  0.10207210692E+01  0.10204571753E+01 0.  0.
     999903    2    3    3    0    0 -0.90344826879E-01  0.47866246016E-01 -0.80733200811E-01  0.13170567840E+00  0.19369325167E-01 0.  0.
         14    1    1    2    0    0  0.79893446317E-02 -0.19056247194E-01 -0.10568078529E-01  0.23208930793E-01  0.00000000000E+00 0.  1.
     999901    1    3    3    0    0  0.82355482248E-01 -0.28809998822E-01  0.91301279339E-01  0.88901539081E+00  0.88000000000E+00 0.  1.
        -11    1    4    4    0    0 -0.48059043920E-01  0.25129800044E-01 -0.54950880950E-01  0.77207765095E-01  0.51100000000E-03 0. -1.
         11    1    4    4    0    0 -0.42285782959E-01  0.22736445972E-01 -0.25782319860E-01  0.54497913302E-01  0.51100000000E-03 0.  1.
</event>
<event>
 8    1  0.1065239E+005  0.1043930E+01  0.7957747E-01            NaN
         13   -1    0    0    0    0  0.00000000000E+00  0.00000000000E+00  0.74505805969E-08  0.10566000000E+00  0.10566000000E+00 0.  1.
     999900   -1    0    0    0    0 -0.00000000000E+00 -0.00000000000E+00 -0.74505805969E-08  0.93827000000E+00  0.93827000000E+00 0.  1.
     999902    2    1    2    0    0 -0.11416200919E-01 -0.12395252784E-01 -0.16775672366E-01  0.10201519614E+01  0.10198748106E+01 0.  0.
     999903    2    3    3    0    0  0.70044458107E-01 -0.58241614378E-01  0.89154489192E-01  0.12888380483E+00  0.19084036452E-01 0.  0.
         14    1    1    2    0    0  0.11416200919E-01  0.12395252784E-01  0.16775672366E-01  0.23778038572E-01  0.00000000000E+00 0.  1.
     999901    1    3    3    0    0 -0.81460659026E-01  0.45846361594E-01 -0.10593016156E+00  0.89126815660E+00  0.88000000000E+00 0.  1.
        -11    1    4    4    0    0  0.44432103469E-01 -0.41167992806E-01  0.46925068881E-01  0.76624008384E-01  0.51100000000E-03 0. -1.
         11    1    4    4    0    0  0.25612354638E-01 -0.17073621572E-01  0.42229420310E-01  0.52259796445E-01  0.51100000000E-03 0.  1.
</event>
<event>
 8    1  0.1065239E+005  0.1043930E+01  0.7957747E-01            NaN
         13   -1    0    0    0    0  0.00000000000E+00  0.00000000000E+00  0.74505805969E-08  0.10566000000E+00  0.10566000000E+00 0. -1.
     999900   -1    0    0    0    0 -0.00000000000E+00 -0.00000000000E+00 -0.74505805969E-08  0.93827000000E+00  0.93827000000E+00 0.  1.
     999902    2    1    2    0    0  0.23926460336E-01  0.49245274411E-02 -0.23373310151E-02  0.10193904484E+01  0.10190950381E+01 0.  0.
     999903    2    3    3    0    0 -0.73843521448E-01  0.35612204418E-01  0.96300244451E-01  0.12797019168E+00  0.19533000647E-01 0.  0.
         14    1    1    2    0    0 -0.23926460336E-01 -0.49245274411E-02  0.23373310151E-02  0.24539551565E-01  0.00000000000E+00 0.  1.
     999901    1    3    3    0    0  0.97769981784E-01 -0.30687676977E-01 -0.98637575466E-01  0.89142025675E+00  0.88000000000E+00 0.  1.
        -11    1    4    4    0    0 -0.16246984124E-01  0.49297785944E-03  0.13274802939E-01  0.20992594751E-01  0.51100000000E-03 0. -1.
         11    1    4    4    0    0 -0.57596537325E-01  0.35119226559E-01  0.83025441512E-01  0.10697759693E+00  0.51100000000E-03 0.  1.
</event>
<event>
 8    1  0.1065239E+005  0.1043930E+01  0.7957747E-01            NaN
         13   -1    0    0    0    0  0.00000000000E+00  0.00000000000E+00  0.74505805969E-08  0.10566000000E+00  0.10566000000E+00 0.  1.
     999900   -1    0    0    0    0 -0.00000000000E+00 -0.00000000000E+00 -0.74505805969E-08  0.93827000000E+00  0.93827000000E+00 0.  1.
     999902    2    1    2    0    0  0.25586640148E-03  0.23141719338E-01  0.54765718741E-02  0.10201477066E+01  0.10198704554E+01 0.  0.
     999903    2    3    3    0    0 -0.34498761407E-01  0.12645012853E+00  0.10878375908E-01  0.13340665584E+00  0.22342721766E-01 0.  0.
         14    1    1    2    0    0 -0.25586640148E-03 -0.23141719338E-01 -0.54765718741E-02  0.23782293435E-01  0.00000000000E+00 0.  1.
     999901    1    3    3    0    0  0.34754627808E-01 -0.10330840919E+00 -0.54018040339E-02  0.88674105073E+00  0.88000000000E+00 0. -1.
        -11    1    4    4    0    0 -0.11991400943E-01  0.14807336090E-01  0.94426239723E-03  0.19084120392E-01  0.51100000000E-03 0.  1.
         11    1    4    4    0    0 -0.22507360464E-01  0.11164279244E+00  0.99341135108E-02  0.11432253544E+00  0.51100000000E-03 0. -1.
</event>
<event>
 8    1  0.1065239E+005  0.1043930E+01  0.7957747E-01            NaN
         13   -1    0    0    0    0  0.00000000000E+00  0.00000000000E+00  0.74505805969E-08  0.10566000000E+00  0.10566000000E+00 0.  1.
     999900   -1    0    0    0    0 -0.00000000000E+00 -0.00000000000E+00 -0.74505805969E-08  0.93827000000E+00  0.93827000000E+00 0. -1.
     999902    2    1    2    0    0  0.21299416544E-01 -0.76358407953E-02  0.64253593512E-02  0.10204085959E+01  0.10201374643E+01 0.  0.
     999903    2    3    3    0    0  0.22704735586E-01 -0.19730452166E-01  0.12700524947E+00  0.13210247495E+00  0.20394478059E-01 0.  0.
         14    1    1    2    0    0 -0.21299416544E-01  0.76358407953E-02 -0.64253593512E-02  0.23521404136E-01  0.00000000000E+00 0. -1.
     999901    1    3    3    0    0 -0.14053190424E-02  0.12094611371E-01 -0.12057989012E+00  0.88830612091E+00  0.88000000000E+00 0. -1.
        -11    1    4    4    0    0  0.20514639385E-02 -0.31957464700E-02  0.59091842600E-01  0.59215946185E-01  0.51100000000E-03 0. -1.
         11    1    4    4    0    0  0.20653271647E-01 -0.16534705696E-01  0.67913406870E-01  0.72886528768E-01  0.51100000000E-03 0.  1.
</event>
<event>
 8    1  0.1065239E+005  0.1043930E+01  0.7957747E-01            NaN
         13   -1    0    0    0    0  0.00000000000E+00  0.00000000000E+00  0.74505805969E-08  0.10566000000E+00  0.10566000000E+00 0. -1.
     999900   -1    0    0    0    0 -0.00000000000E+00 -0.00000000000E+00 -0.74505805969E-08  0.93827000000E+00  0.93827000000E+00 0.  1.
     999902    2    1    2    0    0  0.11158320358E-01 -0.18679639309E-01 -0.97777340371E-02  0.10200754172E+01  0.10197964579E+01 0.  0.
     999903    2    3    3    0    0  0.13226926682E-01  0.10558639934E-01  0.12618994754E+00  0.12915097228E+00  0.21671047851E-01 0.  0.
         14    1    1    2    0    0 -0.11158320358E-01  0.18679639309E-01  0.97777340371E-02  0.23854582806E-01  0.00000000000E+00 0.  1.
     999901    1    3    3    0    0 -0.20686063247E-02 -0.29238279243E-01 -0.13596768158E+00  0.89092444491E+00  0.88000000000E+00 0.  1.
        -11    1    4    4    0    0  0.25653878104E-03  0.13681096955E-01  0.52195378439E-01  0.53961624118E-01  0.51100000000E-03 0. -1.
         11    1    4    4    0    0  0.12970387901E-01 -0.31224570214E-02  0.73994569101E-01  0.75189348166E-01  0.51100000000E-03 0.  1.
</event>
<event>
 8    1  0.1065239E+005  0.1043930E+01  0.7957747E-01            NaN
         13   -1    0    0    0    0  0.00000000000E+00  0.00000000000E+00  0.74505805969E-08  0.10566000000E+00  0.10566000000E+00 0.  1.
     999900   -1    0    0    0    0 -0.00000000000E+00 -0.00000000000E+00 -0.74505805969E-08  0.93827000000E+00  0.93827000000E+00 0. -1.
     999902    2    1    2    0    0 -0.22689676222E-01 -0.20622630209E-03 -0.67321082944E-02  0.10202617677E+01  0.10199872006E+01 0.  0.
     999903    2    3    3    0    0  0.24266976068E-01  0.11646747944E+00 -0.49365136252E-01  0.13029814158E+00  0.19675597305E-01 0.  0.
         14    1    1    2    0    0  0.22689676222E-01  0.20622630209E-03  0.67321082944E-02  0.23668232263E-01  0.00000000000E+00 0.  1.
     999901    1    3    3    0    0 -0.46956652290E-01 -0.11667370574E+00  0.42633027958E-01  0.88996362615E+00  0.88000000000E+00 0.  1.
        -11    1    4    4    0    0  0.16167759279E-01  0.45096218265E-01 -0.12278384579E-01  0.49457913328E-01  0.51100000000E-03 0. -1.
         11    1    4    4    0    0  0.80992167899E-02  0.71371261171E-01 -0.37086751674E-01  0.80840228256E-01  0.51100000000E-03 0.  1.
</event>
<event>
 8    1  0.1065239E+005  0.1043930E+01  0.7957747E-01            NaN
         13   -1    0    0    0    0  0.00000000000E+00  0.00000000000E+00  0.74505805969E-08  0.10566000000E+00  0.10566000000E+00 0.  1.
     999900   -1    0    0    0    0 -0.00000000000E+00 -0.00000000000E+00 -0.74505805969E-08  0.93827000000E+00  0.93827000000E+00 0. -1.
     999902    2    1    2    0    0  0.17368872778E-01 -0.16654181832E-02 -0.17450417220E-01  0.10192527145E+01  0.10189539379E+01 0.  0.
     999903    2    3    3    0    0 -0.28227069098E-01 -0.79802892562E-01  0.93537073923E-01  0.12767956661E+00  0.19688027853E-01 0.  0.
         14    1    1    2    0    0 -0.17368872778E-01  0.16654181832E-02  0.17450417220E-01  0.24677285516E-01  0.00000000000E+00 0.  1.
     999901    1    3    3    0    0  0.45595941876E-01  0.78137474379E-01 -0.11098749114E+00  0.89157314787E+00  0.88000000000E+00 0. -1.
        -11    1    4    4    0    0 -0.12866791920E-01 -0.27010852614E-01  0.46632968268E-01  0.55407899650E-01  0.51100000000E-03 0.  1.
         11    1    4    4    0    0 -0.15360277178E-01 -0.52792039949E-01  0.46904105655E-01  0.72271666960E-01  0.51100000000E-03 0. -1.
</event>
<event>
 8    1  0.1065239E+005  0.1043930E+01  0.7957747E-01            NaN
         13   -1    0    0    0    0  0.00000000000E+00  0.00000000000E+00  0.74505805969E-08  0.10566000000E+00  0.10566000000E+00 0. -1.
     999900   -1    0    0    0    0 -0.00000000000E+00 -0.00000000000E+00 -0.74505805969E-08  0.93827000000E+00  0.93827000000E+00 0. -1.
     999902    2    1    2    0    0 -0.15318180799E-01  0.17004499532E-01 -0.29709530087E-02  0.10208513036E+01  0.10205903967E+01 0.  0.
     999903    2    3    3    0    0  0.11964390713E+00 -0.16706797780E-01 -0.41033249432E-01  0.12911145633E+00  0.19805529262E-01 0.  0.
         14    1    1    2    0    0  0.15318180799E-01 -0.17004499532E-01  0.29709530087E-02  0.23078696434E-01  0.00000000000E+00 0. -1.
     999901    1    3    3    0    0 -0.13496208793E+00  0.33711297312E-01  0.38062296424E-01  0.89173984724E+00  0.88000000000E+00 0.  1.
        -11    1    4    4    0    0  0.76428223260E-01 -0.18782229830E-01 -0.21169566600E-01  0.81501270782E-01  0.51100000000E-03 0. -1.
         11    1    4    4    0    0  0.43215683874E-01  0.20754320494E-02 -0.19863682832E-01  0.47610185544E-01  0.51100000000E-03 0.  1.
</event>
<event>
 8    1  0.1065239E+005  0.1043930E+01  0.7957747E-01            NaN
         13   -1    0    0    0    0  0.00000000000E+00  0.00000000000E+00  0.74505805969E-08  0.10566000000E+00  0.10566000000E+00 0. -1.
     999900   -1    0    0    0    0 -0.00000000000E+00 -0.00000000000E+00 -0.74505805969E-08  0.93827000000E+00  0.93827000000E+00 0. -1.
     999902    2    1    2    0    0 -0.22183378654E-01 -0.46032587041E-02  0.71515743164E-02  0.10201721109E+01  0.10198954351E+01 0.  0.
     999903    2    3    3    0    0 -0.39758008415E-01 -0.86421889171E-01 -0.88073431692E-01  0.13108777425E+00  0.19432782298E-01 0.  0.
         14    1    1    2    0    0  0.22183378654E-01  0.46032587041E-02 -0.71515743164E-02  0.23757889098E-01  0.00000000000E+00 0.  1.
     999901    1    3    3    0    0  0.17574629761E-01  0.81818630467E-01  0.95225006008E-01  0.88908433665E+00  0.88000000000E+00 0.  1.
        -11    1    4    4    0    0 -0.30609998623E-01 -0.43747693900E-01 -0.46346916401E-01  0.70704529686E-01  0.51100000000E-03 0. -1.
         11    1    4    4    0    0 -0.91480097919E-02 -0.42674195271E-01 -0.41726515291E-01  0.60383244568E-01  0.51100000000E-03 0.  1.
</event>
<event>
 8    1  0.1065239E+005  0.1043930E+01  0.7957747E-01            NaN
         13   -1    0    0    0    0  0.00000000000E+00  0.00000000000E+00  0.74505805969E-08  0.10566000000E+00  0.10566000000E+00 0.  1.
     999900   -1    0    0    0    0 -0.00000000000E+00 -0.00000000000E+00 -0.74505805969E-08  0.93827000000E+00  0.93827000000E+00 0. -1.
     999902    2    1    2    0    0  0.58400544349E-02  0.21592984060E-01 -0.16704019660E-01  0.10160124881E+01  0.10156288636E+01 0.  0.
     999903    2    3    3    0    0  0.60182629605E-04 -0.84216558927E-01 -0.92047233691E-01  0.12645885500E+00  0.20657113997E-01 0.  0.
         14    1    1    2    0    0 -0.58400544349E-02 -0.21592984060E-01  0.16704019660E-01  0.27917511874E-01  0.00000000000E+00 0.  1.
     999901    1    3    3    0    0  0.57798718053E-02  0.10580954299E+00  0.75343214032E-01  0.88955363312E+00  0.88000000000E+00 0.  1.
        -11    1    4    4    0    0  0.18357807808E-02 -0.50899976252E-01 -0.40593509826E-01  0.65132724759E-01  0.51100000000E-03 0. -1.
         11    1    4    4    0    0 -0.17755981512E-02 -0.33316582675E-01 -0.51453723866E-01  0.61326130243E-01  0.51100000000E-03 0.  1.
</event>
<event>
 8    1  0.1065239E+005  0.1043930E+01  0.7957747E-01            NaN
         13   -1    0    0    0    0  0.00000000000E+00  0.00000000000E+00  0.74505805969E-08  0.10566000000E+00  0.10566000000E+00 0.  1.
     999900   -1    0    0    0    0 -0.00000000000E+00 -0.00000000000E+00 -0.74505805969E-08  0.93827000000E+00  0.93827000000E+00 0. -1.
     999902    2    1    2    0    0  0.20980337211E-01  0.55146399536E-02 -0.19832784092E-02  0.10221465385E+01  0.10219143931E+01 0.  0.
     999903    2    3    3    0    0 -0.56696063933E-01 -0.11562556768E+00 -0.69632422683E-02  0.13044402459E+00  0.19581655786E-01 0.  0.
         14    1    1    2    0    0 -0.20980337211E-01 -0.55146399536E-02  0.19832784092E-02  0.21783461537E-01  0.00000000000E+00 0.  1.
     999901    1    3    3    0    0  0.77676401144E-01  0.12114020763E+00  0.49799638591E-02  0.89170251387E+00  0.88000000000E+00 0.  1.
        -11    1    4    4    0    0 -0.23070465094E-01 -0.66374539985E-01  0.99175534663E-03  0.70278521737E-01  0.51100000000E-03 0. -1.
         11    1    4    4    0    0 -0.33625598839E-01 -0.49251027692E-01 -0.79549976149E-02  0.60165502857E-01  0.51100000000E-03 0.  1.
</event>
<event>
 8    1  0.1065239E+005  0.1043930E+01  0.7957747E-01            NaN
         13   -1    0    0    0    0  0.00000000000E+00  0.00000000000E+00  0.74505805969E-08  0.10566000000E+00  0.10566000000E+00 0.  1.
     999900   -1    0    0    0    0 -0.00000000000E+00 -0.00000000000E+00 -0.74505805969E-08  0.93827000000E+00  0.93827000000E+00 0. -1.
     999902    2    1    2    0    0 -0.10910670317E-01 -0.17723800999E-01 -0.10175954308E-01  0.10207626546E+01  0.10204997163E+01 0.  0.
     999903    2    3    3    0    0  0.19472047970E-01 -0.65465318007E-01 -0.11247029469E+00  0.13303156122E+00  0.19569378606E-01 0.  0.
         14    1    1    2    0    0  0.10910670317E-01  0.17723800999E-01  0.10175954308E-01  0.23167345439E-01  0.00000000000E+00 0. -1.
     999901    1    3    3    0    0 -0.30382718287E-01  0.47741517008E-01  0.10229434038E+00  0.88773109334E+00  0.88000000000E+00 0.  1.
        -11    1    4    4    0    0  0.86039639357E-02 -0.13238507365E-01 -0.40290423565E-01  0.43276617528E-01  0.51100000000E-03 0. -1.
         11    1    4    4    0    0  0.10868084035E-01 -0.52226810642E-01 -0.72179871122E-01  0.89754943689E-01  0.51100000000E-03 0.  1.
</event>
<event>
 8    1  0.1065239E+005  0.1043930E+01  0.7957747E-01            NaN
         13   -1    0    0    0    0  0.00000000000E+00  0.00000000000E+00  0.74505805969E-08  0.10566000000E+00  0.10566000000E+00 0. -1.
     999900   -1    0    0    0    0 -0.00000000000E+00 -0.00000000000E+00 -0.74505805969E-08  0.93827000000E+00  0.93827000000E+00 0. -1.
     999902    2    1    2    0    0 -0.10046703351E-01  0.71226570091E-02 -0.20673198668E-01  0.10198665498E+01  0.10195826253E+01 0.  0.
     999903    2    3    3    0    0 -0.51043941990E-01  0.10071927859E+00 -0.68771645881E-01  0.13264923610E+00  0.10789970712E-01 0.  0.
         14    1    1    2    0    0  0.10046703351E-01 -0.71226570091E-02  0.20673198668E-01  0.24063450174E-01  0.00000000000E+00 0. -1.
     999901    1    3    3    0    0  0.40997238638E-01 -0.93596621580E-01  0.48098447213E-01  0.88721731372E+00  0.88000000000E+00 0.  1.
        -11    1    4    4    0    0 -0.45782981089E-01  0.84853372602E-01 -0.61846929934E-01  0.11454902908E+00  0.51100000000E-03 0. -1.
         11    1    4    4    0    0 -0.52609609008E-02  0.15865905988E-01 -0.69247159469E-02  0.18100207025E-01  0.51100000000E-03 0.  1.
</event>
<event>
 8    1  0.1065239E+005  0.1043930E+01  0.7957747E-01            NaN
         13   -1    0    0    0    0  0.00000000000E+00  0.00000000000E+00  0.74505805969E-08  0.10566000000E+00  0.10566000000E+00 0.  1.
     999900   -1    0    0    0    0 -0.00000000000E+00 -0.00000000000E+00 -0.74505805969E-08  0.93827000000E+00  0.93827000000E+00 0. -1.
     999902    2    1    2    0    0 -0.28341030025E-02 -0.17397138591E-01  0.16535898892E-01  0.10197612490E+01  0.10194748043E+01 0.  0.
     999903    2    3    3    0    0 -0.47951822835E-01 -0.11487814904E+00 -0.37833725270E-01  0.13156407944E+00  0.19528179470E-01 0.  0.
         14    1    1    2    0    0  0.28341030025E-02  0.17397138591E-01 -0.16535898892E-01  0.24168750963E-01  0.00000000000E+00 0. -1.
     999901    1    3    3    0    0  0.45117719832E-01  0.97481010444E-01  0.54369624161E-01  0.88819716959E+00  0.88000000000E+00 0.  1.
        -11    1    4    4    0    0 -0.38648559451E-01 -0.80765089954E-01 -0.34832651974E-01  0.96074375707E-01  0.51100000000E-03 0.  1.
         11    1    4    4    0    0 -0.93032633838E-02 -0.34113059081E-01 -0.30010732955E-02  0.35489703738E-01  0.51100000000E-03 0. -1.
</event>
<event>
 8    1  0.1065239E+005  0.1043930E+01  0.7957747E-01            NaN
         13   -1    0    0    0    0  0.00000000000E+00  0.00000000000E+00  0.74505805969E-08  0.10566000000E+00  0.10566000000E+00 0. -1.
     999900   -1    0    0    0    0 -0.00000000000E+00 -0.00000000000E+00 -0.74505805969E-08  0.93827000000E+00  0.93827000000E+00 0.  1.
     999902    2    1    2    0    0 -0.28236026581E-01  0.13359808104E-01  0.30348744493E-02  0.10125457980E+01  0.10120592992E+01 0.  0.
     999903    2    3    3    0    0  0.19276974719E-01  0.35004350133E-02 -0.11948831129E+00  0.12273310788E+00  0.20052541897E-01 0.  0.
         14    1    1    2    0    0  0.28236026581E-01 -0.13359808104E-01 -0.30348744493E-02  0.31384201958E-01  0.00000000000E+00 0. -1.
     999901    1    3    3    0    0 -0.47513001299E-01  0.98593730906E-02  0.12252318573E+00  0.88981269016E+00  0.88000000000E+00 0. -1.
        -11    1    4    4    0    0  0.21622668079E-01  0.37578095257E-02 -0.74171215287E-01  0.77351736926E-01  0.51100000000E-03 0. -1.
         11    1    4    4    0    0 -0.23456933602E-02 -0.25737451243E-03 -0.45317095998E-01  0.45381370954E-01  0.51100000000E-03 0.  1.
</event>
<event>
 8    1  0.1065239E+005  0.1043930E+01  0.7957747E-01            NaN
         13   -1    0    0    0    0  0.00000000000E+00  0.00000000000E+00  0.74505805969E-08  0.10566000000E+00  0.10566000000E+00 0.  1.
     999900   -1    0    0    0    0 -0.00000000000E+00 -0.00000000000E+00 -0.74505805969E-08  0.93827000000E+00  0.93827000000E+00 0. -1.
     999902    2    1    2    0    0  0.14398948572E-02  0.11471987676E-01  0.20409676223E-01  0.10204729183E+01  0.10202032848E+01 0.  0.
     999903    2    3    3    0    0 -0.80060464837E-01  0.94429363373E-01 -0.37446240319E-01  0.13093846596E+00  0.20397996416E-01 0.  0.
         14    1    1    2    0    0 -0.14398948572E-02 -0.11471987676E-01 -0.20409676223E-01  0.23457081702E-01  0.00000000000E+00 0. -1.
     999901    1    3    3    0    0  0.81500359694E-01 -0.82957375697E-01  0.57855916542E-01  0.88953445234E+00  0.88000000000E+00 0.  1.
        -11    1    4    4    0    0 -0.36631924177E-01  0.50565359220E-01 -0.28227088155E-01  0.68525783823E-01  0.51100000000E-03 0.  1.
         11    1    4    4    0    0 -0.43428540661E-01  0.43864004153E-01 -0.92191521646E-02  0.62412682140E-01  0.51100000000E-03 0. -1.
</event>
<event>
 8    1  0.1065239E+005  0.1043930E+01  0.7957747E-01            NaN
         13   -1    0    0    0    0  0.00000000000E+00  0.00000000000E+00  0.74505805969E-08  0.10566000000E+00  0.10566000000E+00 0.  1.
     999900   -1    0    0    0    0 -0.00000000000E+00 -0.00000000000E+00 -0.74505805969E-08  0.93827000000E+00  0.93827000000E+00 0. -1.
     999902    2    1    2    0    0 -0.30467967973E-01  0.37025434081E-02 -0.19616565995E-01  0.10075045204E+01  0.10068458388E+01 0.  0.
     999903    2    3    3    0    0  0.10739407255E+00 -0.18008036922E-01  0.31276409903E-01  0.11505430529E+00  0.20037543169E-01 0.  0.
         14    1    1    2    0    0  0.30467967973E-01 -0.37025434081E-02  0.19616565995E-01  0.36425479565E-01  0.00000000000E+00 0.  1.
     999901    1    3    3    0    0 -0.13786204053E+00  0.21710580331E-01 -0.50892975899E-01  0.89245021514E+00  0.88000000000E+00 0. -1.
        -11    1    4    4    0    0  0.66594676327E-01 -0.10568539740E-01  0.29332015415E-01  0.73533483506E-01  0.51100000000E-03 0. -1.
         11    1    4    4    0    0  0.40799396225E-01 -0.74394971824E-02  0.19443944887E-02  0.41520821784E-01  0.51100000000E-03 0.  1.
</event>
<event>
 8    1  0.1065239E+005  0.1043930E+01  0.7957747E-01            NaN
         13   -1    0    0    0    0  0.00000000000E+00  0.00000000000E+00  0.74505805969E-08  0.10566000000E+00  0.10566000000E+00 0.  1.
     999900   -1    0    0    0    0 -0.00000000000E+00 -0.00000000000E+00 -0.74505805969E-08  0.93827000000E+00  0.93827000000E+00 0.  1.
     999902    2    1    2    0    0 -0.96714056071E-02 -0.46260654001E-02  0.20622977145E-01  0.10206868558E+01  0.10204221743E+01 0.  0.
     999903    2    3    3    0    0 -0.23447974967E-01  0.22910043084E-01  0.12802280933E+00  0.13362273459E+00  0.19761525373E-01 0.  0.
         14    1    1    2    0    0  0.96714056071E-02  0.46260654001E-02 -0.20622977145E-01  0.23243144232E-01  0.00000000000E+00 0. -1.
     999901    1    3    3    0    0  0.13776569359E-01 -0.27536108484E-01 -0.10739983219E+00  0.88706412118E+00  0.88000000000E+00 0.  1.
        -11    1    4    4    0    0 -0.14087988759E-01  0.96131278505E-02  0.98009006193E-01  0.99483215018E-01  0.51100000000E-03 0. -1.
         11    1    4    4    0    0 -0.93599862074E-02  0.13296915234E-01  0.30013803138E-01  0.34139519568E-01  0.51100000000E-03 0.  1.
</event>
<event>
 8    1  0.1065239E+005  0.1043930E+01  0.7957747E-01            NaN
         13   -1    0    0    0    0  0.00000000000E+00  0.00000000000E+00  0.74505805969E-08  0.10566000000E+00  0.10566000000E+00 0.  1.
     999900   -1    0    0    0    0 -0.00000000000E+00 -0.00000000000E+00 -0.74505805969E-08  0.93827000000E+00  0.93827000000E+00 0.  1.
     999902    2    1    2    0    0  0.13798804282E-02  0.17510566458E-01  0.15979566855E-01  0.10201840411E+01  0.10199076464E+01 0.  0.
     999903    2    3    3    0    0  0.35069755763E-01  0.58722162595E-01 -0.10849455921E+00  0.12983174485E+00  0.20175045052E-01 0.  0.
         14    1    1    2    0    0 -0.13798804282E-02 -0.17510566458E-01 -0.15979566855E-01  0.23745958910E-01  0.00000000000E+00 0. -1.
     999901    1    3    3    0    0 -0.33689875335E-01 -0.41211596136E-01  0.12447412607E+00  0.89035229624E+00  0.88000000000E+00 0. -1.
        -11    1    4    4    0    0  0.22929810576E-01  0.30723106039E-01 -0.76754665215E-01  0.85797582780E-01  0.51100000000E-03 0.  1.
         11    1    4    4    0    0  0.12139945188E-01  0.27999056556E-01 -0.31739894000E-01  0.44034162071E-01  0.51100000000E-03 0. -1.
</event>
<event>
 8    1  0.1065239E+005  0.1043930E+01  0.7957747E-01            NaN
         13   -1    0    0    0    0  0.00000000000E+00  0.00000000000E+00  0.74505805969E-08  0.10566000000E+00  0.10566000000E+00 0. -1.
     999900   -1    0    0    0    0 -0.00000000000E+00 -0.00000000000E+00 -0.74505805969E-08  0.93827000000E+00  0.93827000000E+00 0.  1.
     999902    2    1    2    0    0  0.19070388652E-01  0.11872504368E-01  0.97746051194E-02  0.10194314493E+01  0.10191370373E+01 0.  0.
     999903    2    3    3    0    0  0.76057370752E-01 -0.10142366436E+00  0.22662871608E-01  0.13024662854E+00  0.19470366188E-01 0.  0.
         14    1    1    2    0    0 -0.19070388652E-01 -0.11872504368E-01 -0.97746051194E-02  0.24498550743E-01  0.00000000000E+00 0. -1.
     999901    1    3    3    0    0 -0.56986982101E-01  0.11329616873E+00 -0.12888266489E-01  0.88918482071E+00  0.88000000000E+00 0. -1.
        -11    1    4    4    0    0  0.40859837651E-01 -0.69818353388E-01  0.12463101629E-01  0.81851810156E-01  0.51100000000E-03 0. -1.
         11    1    4    4    0    0  0.35197533102E-01 -0.31605310969E-01  0.10199769979E-01  0.48394818385E-01  0.51100000000E-03 0.  1.
</event>
<event>
 8    1  0.1065239E+005  0.1043930E+01  0.7957747E-01            NaN
         13   -1    0    0    0    0  0.00000000000E+00  0.00000000000E+00  0.74505805969E-08  0.10566000000E+00  0.10566000000E+00 0. -1.
     999900   -1    0    0    0    0 -0.00000000000E+00 -0.00000000000E+00 -0.74505805969E-08  0.93827000000E+00  0.93827000000E+00 0. -1.
     999902    2    1    2    0    0 -0.11105414514E-01  0.13039558887E-01  0.12099086296E-01  0.10229598255E+01  0.10227448638E+01 0.  0.
     999903    2    3    3    0    0 -0.12815519651E+00  0.36985639604E-01  0.27072647542E-03  0.13480782485E+00  0.19529065969E-01 0.  0.
         14    1    1    2    0    0  0.11105414514E-01 -0.13039558887E-01 -0.12099086296E-01  0.20970174455E-01  0.00000000000E+00 0.  1.
     999901    1    3    3    0    0  0.11704978200E+00 -0.23946080717E-01  0.11828359820E-01  0.88815200070E+00  0.88000000000E+00 0. -1.
        -11    1    4    4    0    0 -0.54108431232E-01  0.65730641523E-02  0.41246280003E-02  0.54664441641E-01  0.51100000000E-03 0.  1.
         11    1    4    4    0    0 -0.74046765278E-01  0.30412575452E-01 -0.38539015249E-02  0.80143383206E-01  0.51100000000E-03 0. -1.
</event>
<event>
 8    1  0.1065239E+005  0.1043930E+01  0.7957747E-01            NaN
         13   -1    0    0    0    0  0.00000000000E+00  0.00000000000E+00  0.74505805969E-08  0.10566000000E+00  0.10566000000E+00 0.  1.
     999900   -1    0    0    0    0 -0.00000000000E+00 -0.00000000000E+00 -0.74505805969E-08  0.93827000000E+00  0.93827000000E+00 0.  1.
     999902    2    1    2    0    0 -0.16160982161E-01 -0.16291452632E-01 -0.30248988484E-02  0.10207839682E+01  0.10205215191E+01 0.  0.
     999903    2    3    3    0    0 -0.39357141216E-02  0.98916912210E-01  0.80729654547E-01  0.12924751373E+00  0.19687491318E-01 0.  0.
         14    1    1    2    0    0  0.16160982161E-01  0.16291452632E-01  0.30248988484E-02  0.23146031762E-01  0.00000000000E+00 0.  1.
     999901    1    3    3    0    0 -0.12225268040E-01 -0.11520836484E+00 -0.83754553396E-01  0.89153645451E+00  0.88000000000E+00 0.  1.
        -11    1    4    4    0    0 -0.65723309331E-02  0.35418720066E-01  0.19361516194E-01  0.40900008501E-01  0.51100000000E-03 0.  1.
         11    1    4    4    0    0  0.26366168115E-02  0.63498192144E-01  0.61368138353E-01  0.88347505226E-01  0.51100000000E-03 0. -1.
</event>
<event>
 8    1  0.1065239E+005  0.1043930E+01  0.7957747E-01            NaN
         13   -1    0    0    0    0  0.00000000000E+00  0.00000000000E+00  0.74505805969E-08  0.10566000000E+00  0.10566000000E+00 0. -1.
     999900   -1    0    0    0    0 -0.00000000000E+00 -0.00000000000E+00 -0.74505805969E-08  0.93827000000E+00  0.93827000000E+00 0.  1.
     999902    2    1    2    0    0 -0.21315415364E-02  0.25395895280E-01 -0.13714912639E-01  0.10149887873E+01  0.10145760910E+01 0.  0.
     999903    2    3    3    0    0 -0.76184312590E-01 -0.94591394832E-01  0.11938021348E-01  0.12339536214E+00  0.18229579885E-01 0.  0.
         14    1    1    2    0    0  0.21315415364E-02 -0.25395895280E-01  0.13714912639E-01  0.28941212744E-01  0.00000000000E+00 0.  1.
     999901    1    3    3    0    0  0.74052771053E-01  0.11998729011E+00 -0.25652933987E-01  0.89159342512E+00  0.88000000000E+00 0.  1.
        -11    1    4    4    0    0 -0.53931510075E-01 -0.66414976921E-01  0.22198749576E-05  0.85555935296E-01  0.51100000000E-03 0. -1.
         11    1    4    4    0    0 -0.22252802515E-01 -0.28176417911E-01  0.11935801473E-01  0.37839426844E-01  0.51100000000E-03 0.  1.
</event>
<event>
 8    1  0.1065239E+005  0.1043930E+01  0.7957747E-01            NaN
         13   -1    0    0    0    0  0.00000000000E+00  0.00000000000E+00  0.74505805969E-08  0.10566000000E+00  0.10566000000E+00 0. -1.
     999900   -1    0    0    0    0 -0.00000000000E+00 -0.00000000000E+00 -0.74505805969E-08  0.93827000000E+00  0.93827000000E+00 0. -1.
     999902    2    1    2    0    0 -0.14383070356E-01  0.55891974009E-02 -0.18222612114E-01  0.10200516535E+01  0.10197721316E+01 0.  0.
     999903    2    3    3    0    0  0.10826778069E+00  0.63031798193E-01  0.22977100050E-01  0.12873784795E+00  0.18723419786E-01 0.  0.
         14    1    1    2    0    0  0.14383070356E-01 -0.55891974009E-02  0.18222612114E-01  0.23878346524E-01  0.00000000000E+00 0.  1.
     999901    1    3    3    0    0 -0.12265085104E+00 -0.57442600792E-01 -0.41199712164E-01  0.89131380553E+00  0.88000000000E+00 0. -1.
        -11    1    4    4    0    0  0.93284376738E-01  0.56243609660E-01  0.13542045206E-01  0.10976778526E+00  0.51100000000E-03 0. -1.
         11    1    4    4    0    0  0.14983403949E-01  0.67881885330E-02  0.94350548442E-02  0.18970062688E-01  0.51100000000E-03 0.  1.
</event>
<event>
 8    1  0.1065239E+005  0.1043930E+01  0.7957747E-01            NaN
         13   -1    0    0    0    0  0.00000000000E+00  0.00000000000E+00  0.74505805969E-08  0.10566000000E+00  0.10566000000E+00 0.  1.
     999900   -1    0    0    0    0 -0.00000000000E+00 -0.00000000000E+00 -0.74505805969E-08  0.93827000000E+00  0.93827000000E+00 0. -1.
     999902    2    1    2    0    0 -0.20796129719E-02  0.23537064624E-01 -0.63774778364E-02  0.10194557191E+01  0.10191618973E+01 0.  0.
     999903    2    3    3    0    0  0.10832620304E+00 -0.16610569432E-01  0.64722022905E-01  0.12880628430E+00  0.19789930407E-01 0.  0.
         14    1    1    2    0    0  0.20796129719E-02 -0.23537064624E-01  0.63774778364E-02  0.24474280883E-01  0.00000000000E+00 0. -1.
     999901    1    3    3    0    0 -0.11040581601E+00  0.40147634056E-01 -0.71099500741E-01  0.89064943481E+00  0.88000000000E+00 0. -1.
        -11    1    4    4    0    0  0.93082290359E-01 -0.19501092631E-01  0.50160796451E-01  0.10752196061E+00  0.51100000000E-03 0. -1.
         11    1    4    4    0    0  0.15243912679E-01  0.28905231990E-02  0.14561226454E-01  0.21284323690E-01  0.51100000000E-03 0.  1.
</event>
<event>
 8    1  0.1065239E+005  0.1043930E+01  0.7957747E-01            NaN
         13   -1    0    0    0    0  0.00000000000E+00  0.00000000000E+00  0.74505805969E-08  0.10566000000E+00  0.10566000000E+00 0. -1.
     999900   -1    0    0    0    0 -0.00000000000E+00 -0.00000000000E+00 -0.74505805969E-08  0.93827000000E+00  0.93827000000E+00 0. -1.
     999902    2    1    2    0    0  0.16383323883E-01  0.83177137006E-02 -0.13964424793E-01  0.10208518107E+01  0.10205909154E+01 0.  0.
     999903    2    3    3    0    0  0.12734255977E+00 -0.87418648333E-02 -0.32177615155E-01  0.13353298322E+00  0.22430135164E-01 0.  0.
         14    1    1    2    0    0 -0.16383323883E-01 -0.83177137006E-02  0.13964424793E-01  0.23078189324E-01  0.00000000000E+00 0. -1.
     999901    1    3    3    0    0 -0.11095923588E+00  0.17059578534E-01  0.18213190361E-01  0.88731882745E+00  0.88000000000E+00 0. -1.
        -11    1    4    4    0    0  0.87359068485E-01  0.14771784893E-02 -0.14216030285E-01  0.88522005970E-01  0.51100000000E-03 0. -1.
         11    1    4    4    0    0  0.39983491280E-01 -0.10219043323E-01 -0.17961584870E-01  0.45010977254E-01  0.51100000000E-03 0.  1.
</event>
<event>
 8    1  0.1065239E+005  0.1043930E+01  0.7957747E-01            NaN
         13   -1    0    0    0    0  0.00000000000E+00  0.00000000000E+00  0.74505805969E-08  0.10566000000E+00  0.10566000000E+00 0. -1.
     999900   -1    0    0    0    0 -0.00000000000E+00 -0.00000000000E+00 -0.74505805969E-08  0.93827000000E+00  0.93827000000E+00 0. -1.
     999902    2    1    2    0    0  0.17593082993E-01  0.44119780622E-02 -0.18766491752E-01  0.10178308940E+01  0.10174962238E+01 0.  0.
     999903    2    3    3    0    0  0.18354915094E-01 -0.42541377662E-01  0.11577667590E+00  0.12636745565E+00  0.20440730044E-01 0.  0.
         14    1    1    2    0    0 -0.17593082993E-01 -0.44119780622E-02  0.18766491752E-01  0.26099105968E-01  0.00000000000E+00 0. -1.
     999901    1    3    3    0    0 -0.76183210036E-03  0.46953355724E-01 -0.13454316765E+00  0.89146343838E+00  0.88000000000E+00 0. -1.
        -11    1    4    4    0    0  0.13045476456E-02 -0.73496425130E-02  0.43967255613E-01  0.44599324847E-01  0.51100000000E-03 0.  1.
         11    1    4    4    0    0  0.17050367448E-01 -0.35191735149E-01  0.71809420287E-01  0.81768130808E-01  0.51100000000E-03 0. -1.
</event>
<event>
 8    1  0.1065239E+005  0.1043930E+01  0.7957747E-01            NaN
         13   -1    0    0    0    0  0.00000000000E+00  0.00000000000E+00  0.74505805969E-08  0.10566000000E+00  0.10566000000E+00 0. -1.
     999900   -1    0    0    0    0 -0.00000000000E+00 -0.00000000000E+00 -0.74505805969E-08  0.93827000000E+00  0.93827000000E+00 0.  1.
     999902    2    1    2    0    0 -0.19502050306E-01  0.20131522854E-02 -0.25408500209E-01  0.10118367822E+01  0.10113276913E+01 0.  0.
     999903    2    3    3    0    0  0.76671163638E-01 -0.59854372226E-01  0.65347315102E-01  0.11980903838E+00  0.24958382918E-01 0.  0.
         14    1    1    2    0    0  0.19502050306E-01 -0.20131522854E-02  0.25408500209E-01  0.32093217837E-01  0.00000000000E+00 0.  1.
     999901    1    3    3    0    0 -0.96173213944E-01  0.61867524511E-01 -0.90755815311E-01  0.89202774379E+00  0.88000000000E+00 0. -1.
        -11    1    4    4    0    0  0.34696512984E-01 -0.12790912439E-01  0.29192707891E-01  0.47116141282E-01  0.51100000000E-03 0.  1.
         11    1    4    4    0    0  0.41974650654E-01 -0.47063459787E-01  0.36154607211E-01  0.72692897096E-01  0.51100000000E-03 0. -1.
</event>
<event>
 8    1  0.1065239E+005  0.1043930E+01  0.7957747E-01            NaN
         13   -1    0    0    0    0  0.00000000000E+00  0.00000000000E+00  0.74505805969E-08  0.10566000000E+00  0.10566000000E+00 0. -1.
     999900   -1    0    0    0    0 -0.00000000000E+00 -0.00000000000E+00 -0.74505805969E-08  0.93827000000E+00  0.93827000000E+00 0. -1.
     999902    2    1    2    0    0 -0.15081366391E-01 -0.11656055614E-01 -0.13232087637E-01  0.10207265652E+01  0.10204627977E+01 0.  0.
     999903    2    3    3    0    0  0.59688249704E-01 -0.29878519222E-01 -0.11187587357E+00  0.13187722463E+00  0.20493370285E-01 0.  0.
         14    1    1    2    0    0  0.15081366391E-01  0.11656055614E-01  0.13232087637E-01  0.23203434830E-01  0.00000000000E+00 0. -1.
     999901    1    3    3    0    0 -0.74769616094E-01  0.18222463608E-01  0.98643785934E-01  0.88884934054E+00  0.88000000000E+00 0.  1.
        -11    1    4    4    0    0  0.42904941617E-01 -0.12179662902E-01 -0.62264797052E-01  0.76592064057E-01  0.51100000000E-03 0.  1.
         11    1    4    4    0    0  0.16783308086E-01 -0.17698856320E-01 -0.49611076519E-01  0.55285160575E-01  0.51100000000E-03 0. -1.
</event>
<event>
 8    1  0.1065239E+005  0.1043930E+01  0.7957747E-01            NaN
         13   -1    0    0    0    0  0.00000000000E+00  0.00000000000E+00  0.74505805969E-08  0.10566000000E+00  0.10566000000E+00 0.  1.
     999900   -1    0    0    0    0 -0.00000000000E+00 -0.00000000000E+00 -0.74505805969E-08  0.93827000000E+00  0.93827000000E+00 0. -1.
     999902    2    1    2    0    0 -0.51246217433E-03 -0.10276855393E-01 -0.21485974743E-01  0.10201072486E+01  0.10198290421E+01 0.  0.
     999903    2    3    3    0    0 -0.17397596045E-02 -0.12438687180E+00 -0.41300095577E-01  0.13251770297E+00  0.19496745010E-01 0.  0.
         14    1    1    2    0    0  0.51246217433E-03  0.10276855393E-01  0.21485974743E-01  0.23822751414E-01  0.00000000000E+00 0.  1.
     999901    1    3    3    0    0  0.12272974302E-02  0.11411001641E+00  0.19814120834E-01  0.88758954562E+00  0.88000000000E+00 0. -1.
        -11    1    4    4    0    0 -0.46251150340E-02 -0.61773918443E-01 -0.11081446698E-01  0.62932251436E-01  0.51100000000E-03 0.  1.
         11    1    4    4    0    0  0.28853554295E-02 -0.62612953357E-01 -0.30218648879E-01  0.69585451534E-01  0.51100000000E-03 0. -1.
</event>
<event>
 8    1  0.1065239E+005  0.1043930E+01  0.7957747E-01            NaN
         13   -1    0    0    0    0  0.00000000000E+00  0.00000000000E+00  0.74505805969E-08  0.10566000000E+00  0.10566000000E+00 0.  1.
     999900   -1    0    0    0    0 -0.00000000000E+00 -0.00000000000E+00 -0.74505805969E-08  0.93827000000E+00  0.93827000000E+00 0.  1.
     999902    2    1    2    0    0  0.41080531420E-02 -0.80024667168E-03 -0.22899231838E-01  0.10206514409E+01  0.10203859429E+01 0.  0.
     999903    2    3    3    0    0  0.53088219695E-01 -0.20496727675E-01  0.11312909362E+00  0.12863646713E+00  0.22598095887E-01 0.  0.
         14    1    1    2    0    0 -0.41080531420E-02  0.80024667168E-03  0.22899231838E-01  0.23278559108E-01  0.00000000000E+00 0.  1.
     999901    1    3    3    0    0 -0.48980166553E-01  0.19696481003E-01 -0.13602832546E+00  0.89201497376E+00  0.88000000000E+00 0.  1.
        -11    1    4    4    0    0  0.12381202815E-01  0.29442854922E-02  0.37512853008E-01  0.39616136384E-01  0.51100000000E-03 0.  1.
         11    1    4    4    0    0  0.40707016880E-01 -0.23441013167E-01  0.75616240612E-01  0.89020330751E-01  0.51100000000E-03 0. -1.
</event>
<event>
 8    1  0.1065239E+005  0.1043930E+01  0.7957747E-01            NaN
         13   -1    0    0    0    0  0.00000000000E+00  0.00000000000E+00  0.74505805969E-08  0.10566000000E+00  0.10566000000E+00 0. -1.
     999900   -1    0    0    0    0 -0.00000000000E+00 -0.00000000000E+00 -0.74505805969E-08  0.93827000000E+00  0.93827000000E+00 0. -1.
     999902    2    1    2    0    0 -0.60680659814E-02  0.19725400210E-01  0.12144115089E-01  0.10199843873E+01  0.10197032695E+01 0.  0.
     999903    2    3    3    0    0  0.96730292135E-01  0.84911665999E-01 -0.15887780210E-01  0.13116351732E+00  0.19613930703E-01 0.  0.
         14    1    1    2    0    0  0.60680659814E-02 -0.19725400210E-01 -0.12144115089E-01  0.23945612740E-01  0.00000000000E+00 0.  1.
     999901    1    3    3    0    0 -0.10279835812E+00 -0.65186265789E-01  0.28031895300E-01  0.88882086994E+00  0.88000000000E+00 0.  1.
        -11    1    4    4    0    0  0.29452696763E-01  0.38104723202E-01 -0.37388712676E-02  0.48308089967E-01  0.51100000000E-03 0.  1.
         11    1    4    4    0    0  0.67277595372E-01  0.46806942797E-01 -0.12148908943E-01  0.82855427357E-01  0.51100000000E-03 0. -1.
</event>
<event>
 8    1  0.1065239E+005  0.1043930E+01  0.7957747E-01            NaN
         13   -1    0    0    0    0  0.00000000000E+00  0.00000000000E+00  0.74505805969E-08  0.10566000000E+00  0.10566000000E+00 0. -1.
     999900   -1    0    0    0    0 -0.00000000000E+00 -0.00000000000E+00 -0.74505805969E-08  0.93827000000E+00  0.93827000000E+00 0.  1.
     999902    2    1    2    0    0  0.21557163467E-01 -0.66775554316E-02 -0.62621865850E-02  0.10205095810E+01  0.10202407995E+01 0.  0.
     999903    2    3    3    0    0  0.11676923947E+00 -0.59044349481E-01 -0.25328188713E-01  0.13362112528E+00  0.95811004212E-02 0.  0.
         14    1    1    2    0    0 -0.21557163467E-01  0.66775554316E-02  0.62621865850E-02  0.23420418957E-01  0.00000000000E+00 0. -1.
     999901    1    3    3    0    0 -0.95212076000E-01  0.52366794049E-01  0.19066002128E-01  0.88688845577E+00  0.88000000000E+00 0.  1.
        -11    1    4    4    0    0  0.64271984219E-01 -0.37307610081E-01 -0.12349861292E-01  0.75336086442E-01  0.51100000000E-03 0.  1.
         11    1    4    4    0    0  0.52497255248E-01 -0.21736739400E-01 -0.12978327421E-01  0.58285038834E-01  0.51100000000E-03 0. -1.
</event>
<event>
 8    1  0.1065239E+005  0.1043930E+01  0.7957747E-01            NaN
         13   -1    0    0    0    0  0.00000000000E+00  0.00000000000E+00  0.74505805969E-08  0.10566000000E+00  0.10566000000E+00 0.  1.
     999900   -1    0    0    0    0 -0.00000000000E+00 -0.00000000000E+00 -0.74505805969E-08  0.93827000000E+00  0.93827000000E+00 0. -1.
     999902    2    1    2    0    0  0.15147578853E-01 -0.19152077021E-01 -0.71109983218E-02  0.10184973930E+01  0.10181798084E+01 0.  0.
     999903    2    3    3    0    0 -0.28151580144E-01 -0.15701870631E-01 -0.12407215396E+00  0.12969672190E+00  0.19704823753E-01 0.  0.
         14    1    1    2    0    0 -0.15147578853E-01  0.19152077021E-01  0.71109983218E-02  0.25432606954E-01  0.00000000000E+00 0.  1.
     999901    1    3    3    0    0  0.43299158997E-01 -0.34502063901E-02  0.11696115564E+00  0.88880067114E+00  0.88000000000E+00 0.  1.
        -11    1    4    4    0    0 -0.22961360474E-01 -0.17993794674E-01 -0.78080839976E-01  0.83353940603E-01  0.51100000000E-03 0. -1.
         11    1    4    4    0    0 -0.51902196702E-02  0.22919240431E-02 -0.45991313982E-01  0.46342781302E-01  0.51100000000E-03 0.  1.
</event>
<event>
 7    1  0.1065239E+005  0.1043930E+01  0.7957747E-01            NaN
         13   -1    0    0    0    0  0.00000000000E+00  0.00000000000E+00  0.74505805969E-08  0.10566000000E+00  0.10566000000E+00 0.  1.
     999900   -1    0    0    0    0 -0.00000000000E+00 -0.00000000000E+00 -0.74505805969E-08  0.93827000000E+00  0.93827000000E+00 0. -1.
     999903    2    1    2    0    0 -0.13663107526E-01 -0.11176823601E+00 -0.22684111387E-01  0.11539001745E+00  0.11021258070E-01 0.  0.
         14    1    1    2    0    0 -0.64851015947E-02  0.42697962658E-01  0.14528664736E-01  0.45565937463E-01  0.00000000000E+00 0.  1.
     999901    1    1    2    0    0  0.20148209120E-01  0.69070273351E-01  0.81554466513E-02  0.88297404509E+00  0.88000000000E+00 0.  1.
        -11    1    3    3    0    0 -0.14621876039E-01 -0.81399856651E-01 -0.15121670627E-01  0.84075335058E-01  0.51100000000E-03 0.  1.
         11    1    3    3    0    0  0.95876851337E-03 -0.30368379358E-01 -0.75624407599E-02  0.31314682390E-01  0.51100000000E-03 0. -1.
</event>
<event>
 8    1  0.1065239E+005  0.1043930E+01  0.7957747E-01            NaN
         13   -1    0    0    0    0  0.00000000000E+00  0.00000000000E+00  0.74505805969E-08  0.10566000000E+00  0.10566000000E+00 0.  1.
     999900   -1    0    0    0    0 -0.00000000000E+00 -0.00000000000E+00 -0.74505805969E-08  0.93827000000E+00  0.93827000000E+00 0.  1.
     999902    2    1    2    0    0 -0.21854954336E-01 -0.82479743415E-02  0.10737781542E-02  0.10205457936E+01  0.10202778522E+01 0.  0.
     999903    2    3    3    0    0  0.10514938874E+00 -0.66591215354E-01  0.27547094338E-01  0.12912284493E+00  0.20568975710E-01 0.  0.
         14    1    1    2    0    0  0.21854954336E-01  0.82479743415E-02 -0.10737781542E-02  0.23384206407E-01  0.00000000000E+00 0. -1.
     999901    1    3    3    0    0 -0.12700434308E+00  0.58343241012E-01 -0.26473316184E-01  0.89142294866E+00  0.88000000000E+00 0.  1.
        -11    1    4    4    0    0  0.49879843908E-01 -0.21592137924E-01  0.17746057748E-01  0.57178693016E-01  0.51100000000E-03 0. -1.
         11    1    4    4    0    0  0.55269544833E-01 -0.44999077430E-01  0.98010365901E-02  0.71944151915E-01  0.51100000000E-03 0.  1.
</event>
<event>
 8    1  0.1065239E+005  0.1043930E+01  0.7957747E-01            NaN
         13   -1    0    0    0    0  0.00000000000E+00  0.00000000000E+00  0.74505805969E-08  0.10566000000E+00  0.10566000000E+00 0. -1.
     999900   -1    0    0    0    0 -0.00000000000E+00 -0.00000000000E+00 -0.74505805969E-08  0.93827000000E+00  0.93827000000E+00 0.  1.
     999902    2    1    2    0    0  0.18434446499E-01  0.20313892746E-02 -0.13762344410E-01  0.10208354664E+01  0.10205741972E+01 0.  0.
     999903    2    3    3    0    0 -0.98956208717E-01  0.70451395376E-01 -0.38796572799E-01  0.13005570921E+00  0.25565271035E-01 0.  0.
         14    1    1    2    0    0 -0.18434446499E-01 -0.20313892746E-02  0.13762344410E-01  0.23094533634E-01  0.00000000000E+00 0.  1.
     999901    1    3    3    0    0  0.11739065522E+00 -0.68420006101E-01  0.25034228389E-01  0.89077975716E+00  0.88000000000E+00 0. -1.
        -11    1    4    4    0    0 -0.82845706101E-01  0.47473579357E-01 -0.24605199115E-01  0.98604405078E-01  0.51100000000E-03 0. -1.
         11    1    4    4    0    0 -0.16110502616E-01  0.22977816019E-01 -0.14191373684E-01  0.31451304132E-01  0.51100000000E-03 0.  1.
</event>
<event>
 8    1  0.1065239E+005  0.1043930E+01  0.7957747E-01            NaN
         13   -1    0    0    0    0  0.00000000000E+00  0.00000000000E+00  0.74505805969E-08  0.10566000000E+00  0.10566000000E+00 0. -1.
     999900   -1    0    0    0    0 -0.00000000000E+00 -0.00000000000E+00 -0.74505805969E-08  0.93827000000E+00  0.93827000000E+00 0. -1.
     999902    2    1    2    0    0  0.17179313887E-01  0.16430835219E-01  0.78091063410E-02  0.10189083431E+01  0.10186010644E+01 0.  0.
     999903    2    3    3    0    0  0.11511353441E+00  0.38488711816E-01 -0.46988606314E-01  0.13150739045E+00  0.18808452349E-01 0.  0.
         14    1    1    2    0    0 -0.17179313887E-01 -0.16430835219E-01 -0.78091063410E-02  0.25021656888E-01  0.00000000000E+00 0.  1.
     999901    1    3    3    0    0 -0.97934220518E-01 -0.22057876597E-01  0.54797712655E-01  0.88740095266E+00  0.88000000000E+00 0.  1.
        -11    1    4    4    0    0  0.42715476803E-01  0.23678282587E-01 -0.21099686753E-01  0.53204613774E-01  0.51100000000E-03 0. -1.
         11    1    4    4    0    0  0.72398057602E-01  0.14810429229E-01 -0.25888919561E-01  0.78302776678E-01  0.51100000000E-03 0.  1.
</event>
<event>
 8    1  0.1065239E+005  0.1043930E+01  0.7957747E-01            NaN
         13   -1    0    0    0    0  0.00000000000E+00  0.00000000000E+00  0.74505805969E-08  0.10566000000E+00  0.10566000000E+00 0.  1.
     999900   -1    0    0    0    0 -0.00000000000E+00 -0.00000000000E+00 -0.74505805969E-08  0.93827000000E+00  0.93827000000E+00 0.  1.
     999902    2    1    2    0    0 -0.11245706609E-01  0.12779803512E-01 -0.13526639794E-01  0.10221869717E+01  0.10219556966E+01 0.  0.
     999903    2    3    3    0    0  0.40983415452E-01 -0.39730630634E-01  0.11410552680E+00  0.12990047241E+00  0.24411024861E-01 0.  0.
         14    1    1    2    0    0  0.11245706609E-01 -0.12779803512E-01  0.13526639794E-01  0.21743028287E-01  0.00000000000E+00 0. -1.
     999901    1    3    3    0    0 -0.52229122060E-01  0.52510434146E-01 -0.12763216659E+00  0.89228649930E+00  0.88000000000E+00 0.  1.
        -11    1    4    4    0    0  0.28373546971E-01 -0.10545015935E-01  0.56802895958E-01  0.64366805412E-01  0.51100000000E-03 0. -1.
         11    1    4    4    0    0  0.12609868481E-01 -0.29185614698E-01  0.57302630839E-01  0.65533667001E-01  0.51100000000E-03 0.  1.
</event>
<event>
 8    1  0.1065239E+005  0.1043930E+01  0.7957747E-01            NaN
         13   -1    0    0    0    0  0.00000000000E+00  0.00000000000E+00  0.74505805969E-08  0.10566000000E+00  0.10566000000E+00 0. -1.
     999900   -1    0    0    0    0 -0.00000000000E+00 -0.00000000000E+00 -0.74505805969E-08  0.93827000000E+00  0.93827000000E+00 0. -1.
     999902    2    1    2    0    0 -0.19402548788E-01  0.12777127734E-01 -0.11766790316E-02  0.10206684767E+01  0.10204033716E+01 0.  0.
     999903    2    3    3    0    0  0.63557751117E-01  0.23985573890E-02  0.11113471472E+00  0.12959946969E+00  0.19993922161E-01 0.  0.
         14    1    1    2    0    0  0.19402548788E-01 -0.12777127734E-01  0.11766790316E-02  0.23261523298E-01  0.00000000000E+00 0.  1.
     999901    1    3    3    0    0 -0.82960299905E-01  0.10378570345E-01 -0.11231139376E+00  0.89106900701E+00  0.88000000000E+00 0. -1.
        -11    1    4    4    0    0  0.13129333085E-01 -0.64997574990E-02  0.33853844802E-01  0.36891329113E-01  0.51100000000E-03 0. -1.
         11    1    4    4    0    0  0.50428418032E-01  0.88983148880E-02  0.77280869922E-01  0.92708140581E-01  0.51100000000E-03 0.  1.
</event>
<event>
 8    1  0.1065239E+005  0.1043930E+01  0.7957747E-01            NaN
         13   -1    0    0    0    0  0.00000000000E+00  0.00000000000E+00  0.74505805969E-08  0.10566000000E+00  0.10566000000E+00 0. -1.
     999900   -1    0    0    0    0 -0.00000000000E+00 -0.00000000000E+00 -0.74505805969E-08  0.93827000000E+00  0.93827000000E+00 0. -1.
     999902    2    1    2    0    0 -0.19670377187E-01  0.12352031010E-01 -0.15764386620E-02  0.10206495024E+01  0.10203839597E+01 0.  0.
     999903    2    3    3    0    0 -0.17980022687E-01  0.10808631263E+00 -0.72237285989E-01  0.13264000623E+00  0.19214930982E-01 0.  0.
         14    1    1    2    0    0  0.19670377187E-01 -0.12352031010E-01  0.15764386620E-02  0.23280497581E-01  0.00000000000E+00 0.  1.
     999901    1    3    3    0    0 -0.16903545000E-02 -0.95734281618E-01  0.70660847327E-01  0.88800949619E+00  0.88000000000E+00 0.  1.
        -11    1    4    4    0    0 -0.44441009680E-02  0.45101730748E-01 -0.40678649115E-01  0.60900983282E-01  0.51100000000E-03 0. -1.
         11    1    4    4    0    0 -0.13535921719E-01  0.62984581880E-01 -0.31558636874E-01  0.71739022949E-01  0.51100000000E-03 0.  1.
</event>
<event>
 8    1  0.1065239E+005  0.1043930E+01  0.7957747E-01            NaN
         13   -1    0    0    0    0  0.00000000000E+00  0.00000000000E+00  0.74505805969E-08  0.10566000000E+00  0.10566000000E+00 0.  1.
     999900   -1    0    0    0    0 -0.00000000000E+00 -0.00000000000E+00 -0.74505805969E-08  0.93827000000E+00  0.93827000000E+00 0.  1.
     999902    2    1    2    0    0 -0.11568252229E-01  0.14532352543E-01  0.15647256630E-01  0.10196431647E+01  0.10193538801E+01 0.  0.
     999903    2    3    3    0    0  0.18335526368E-01  0.72067763434E-01  0.10748027949E+00  0.13249161980E+00  0.21727051905E-01 0.  0.
         14    1    1    2    0    0  0.11568252229E-01 -0.14532352543E-01 -0.15647256630E-01  0.24286835325E-01  0.00000000000E+00 0. -1.
     999901    1    3    3    0    0 -0.29903778597E-01 -0.57535410891E-01 -0.91833022863E-01  0.88715154487E+00  0.88000000000E+00 0.  1.
        -11    1    4    4    0    0 -0.20422454800E-02  0.34273380911E-01  0.43134623268E-01  0.55133404131E-01  0.51100000000E-03 0.  1.
         11    1    4    4    0    0  0.20377771848E-01  0.37794382523E-01  0.64345656226E-01  0.77358215672E-01  0.51100000000E-03 0. -1.
</event>
<event>
 7    1  0.1065239E+005  0.1043930E+01  0.7957747E-01            NaN
         13   -1    0    0    0    0  0.00000000000E+00  0.00000000000E+00  0.74505805969E-08  0.10566000000E+00  0.10566000000E+00 0. -1.
     999900   -1    0    0    0    0 -0.00000000000E+00 -0.00000000000E+00 -0.74505805969E-08  0.93827000000E+00  0.93827000000E+00 0.  1.
     999903    2    1    2    0    0  0.10075135377E+00  0.20915859223E-01 -0.82372230640E-03  0.10504761540E+00  0.21119056071E-01 0.  0.
         14    1    1    2    0    0  0.25469251005E-01 -0.35014127056E-01 -0.23831596024E-01  0.49422836921E-01  0.00000000000E+00 0. -1.
     999901    1    1    2    0    0 -0.12622060478E+00  0.14098267833E-01  0.24655318330E-01  0.88945954767E+00  0.88000000000E+00 0. -1.
        -11    1    3    3    0    0  0.55538219111E-01  0.11158249908E-02  0.21855323752E-02  0.55594752632E-01  0.51100000000E-03 0.  1.
         11    1    3    3    0    0  0.45213134664E-01  0.19800034232E-01 -0.30092546816E-02  0.49452862773E-01  0.51100000000E-03 0. -1.
</event>
<event>
 8    1  0.1065239E+005  0.1043930E+01  0.7957747E-01            NaN
         13   -1    0    0    0    0  0.00000000000E+00  0.00000000000E+00  0.74505805969E-08  0.10566000000E+00  0.10566000000E+00 0. -1.
     999900   -1    0    0    0    0 -0.00000000000E+00 -0.00000000000E+00 -0.74505805969E-08  0.93827000000E+00  0.93827000000E+00 0.  1.
     999902    2    1    2    0    0 -0.20969728971E-01  0.11045827453E-01  0.91845152639E-03  0.10202111596E+01  0.10199354032E+01 0.  0.
     999903    2    3    3    0    0 -0.12797823308E+00  0.30927037601E-01 -0.81874639299E-02  0.13345922124E+00  0.20234114045E-01 0.  0.
         14    1    1    2    0    0  0.20969728971E-01 -0.11045827453E-01 -0.91845152639E-03  0.23718840411E-01  0.00000000000E+00 0. -1.
     999901    1    3    3    0    0  0.10700850411E+00 -0.19881210148E-01  0.91059154563E-02  0.88675193835E+00  0.88000000000E+00 0. -1.
        -11    1    4    4    0    0 -0.11603889134E+00  0.29659844213E-01 -0.13083071265E-01  0.12048302178E+00  0.51100000000E-03 0.  1.
         11    1    4    4    0    0 -0.11939341740E-01  0.12671933876E-02  0.48956073354E-02  0.12976199461E-01  0.51100000000E-03 0. -1.
</event>
<event>
 8    1  0.1065239E+005  0.1043930E+01  0.7957747E-01            NaN
         13   -1    0    0    0    0  0.00000000000E+00  0.00000000000E+00  0.74505805969E-08  0.10566000000E+00  0.10566000000E+00 0.  1.
     999900   -1    0    0    0    0 -0.00000000000E+00 -0.00000000000E+00 -0.74505805969E-08  0.93827000000E+00  0.93827000000E+00 0.  1.
     999902    2    1    2    0    0  0.18225901016E-01  0.15310312538E-01  0.64742200006E-02  0.10192621127E+01  0.10189635665E+01 0.  0.
     999903    2    3    3    0    0  0.86347241081E-01 -0.48444673728E-01 -0.81339472949E-01  0.12998349502E+00  0.21837276905E-01 0.  0.
         14    1    1    2    0    0 -0.18225901016E-01 -0.15310312538E-01 -0.64742200006E-02  0.24667887272E-01  0.00000000000E+00 0. -1.
     999901    1    3    3    0    0 -0.68121340065E-01  0.63754986266E-01  0.87813692949E-01  0.88927861771E+00  0.88000000000E+00 0. -1.
        -11    1    4    4    0    0  0.56062584394E-01 -0.20173849138E-01 -0.42453884448E-01  0.73161403648E-01  0.51100000000E-03 0.  1.
         11    1    4    4    0    0  0.30284656687E-01 -0.28270824590E-01 -0.38885588500E-01  0.56822091371E-01  0.51100000000E-03 0. -1.
</event>
<event>
 8    1  0.1065239E+005  0.1043930E+01  0.7957747E-01            NaN
         13   -1    0    0    0    0  0.00000000000E+00  0.00000000000E+00  0.74505805969E-08  0.10566000000E+00  0.10566000000E+00 0. -1.
     999900   -1    0    0    0    0 -0.00000000000E+00 -0.00000000000E+00 -0.74505805969E-08  0.93827000000E+00  0.93827000000E+00 0. -1.
     999902    2    1    2    0    0 -0.24759640698E-01 -0.63873106992E-03  0.62277133379E-02  0.10183911629E+01  0.10180708858E+01 0.  0.
     999903    2    3    3    0    0  0.73003970694E-01  0.38976546302E-01  0.94510614361E-01  0.12770549194E+00  0.22971407145E-01 0.  0.
         14    1    1    2    0    0  0.24759640698E-01  0.63873106992E-03 -0.62277133379E-02  0.25538837058E-01  0.00000000000E+00 0.  1.
     999901    1    3    3    0    0 -0.97763611391E-01 -0.39615277372E-01 -0.88282901024E-01  0.89068567100E+00  0.88000000000E+00 0. -1.
        -11    1    4    4    0    0  0.45875544909E-01  0.13755655334E-01  0.43788122016E-01  0.64895642573E-01  0.51100000000E-03 0.  1.
         11    1    4    4    0    0  0.27128425785E-01  0.25220890968E-01  0.50722492346E-01  0.62809849367E-01  0.51100000000E-03 0. -1.
</event>
<event>
 8    1  0.1065239E+005  0.1043930E+01  0.7957747E-01            NaN
         13   -1    0    0    0    0  0.00000000000E+00  0.00000000000E+00  0.74505805969E-08  0.10566000000E+00  0.10566000000E+00 0. -1.
     999900   -1    0    0    0    0 -0.00000000000E+00 -0.00000000000E+00 -0.74505805969E-08  0.93827000000E+00  0.93827000000E+00 0. -1.
     999902    2    1    2    0    0  0.43413529532E-02  0.12419433088E-01 -0.19412730012E-01  0.10204791205E+01  0.10202096312E+01 0.  0.
     999903    2    3    3    0    0  0.10271683519E+00  0.65526743575E-01 -0.49133655771E-01  0.13290858505E+00  0.20151265370E-01 0.  0.
         14    1    1    2    0    0 -0.43413529532E-02 -0.12419433088E-01  0.19412730012E-01  0.23450879519E-01  0.00000000000E+00 0. -1.
     999901    1    3    3    0    0 -0.98375482238E-01 -0.53107310487E-01  0.29720925759E-01  0.88757053543E+00  0.88000000000E+00 0. -1.
        -11    1    4    4    0    0  0.11590443828E-01  0.50316292231E-02  0.79776918324E-03  0.12670960399E-01  0.51100000000E-03 0. -1.
         11    1    4    4    0    0  0.91126391363E-01  0.60495114352E-01 -0.49931424955E-01  0.12023762465E+00  0.51100000000E-03 0.  1.
</event>
<event>
 8    1  0.1065239E+005  0.1043930E+01  0.7957747E-01            NaN
         13   -1    0    0    0    0  0.00000000000E+00  0.00000000000E+00  0.74505805969E-08  0.10566000000E+00  0.10566000000E+00 0. -1.
     999900   -1    0    0    0    0 -0.00000000000E+00 -0.00000000000E+00 -0.74505805969E-08  0.93827000000E+00  0.93827000000E+00 0. -1.
     999902    2    1    2    0    0  0.65432417388E-02  0.20367693806E-01  0.93115279257E-02  0.10205984438E+01  0.10203317215E+01 0.  0.
     999903    2    3    3    0    0 -0.93457250117E-01  0.77529640762E-01 -0.46189924004E-01  0.13135832001E+00  0.19400937104E-01 0.  0.
         14    1    1    2    0    0 -0.65432417388E-02 -0.20367693806E-01 -0.93115279257E-02  0.23331556222E-01  0.00000000000E+00 0.  1.
     999901    1    3    3    0    0  0.10000049186E+00 -0.57161946957E-01  0.55501451930E-01  0.88924012377E+00  0.88000000000E+00 0.  1.
        -11    1    4    4    0    0 -0.69866115459E-01  0.53590410804E-01 -0.41758038437E-01  0.97453584411E-01  0.51100000000E-03 0. -1.
         11    1    4    4    0    0 -0.23591134658E-01  0.23939229958E-01 -0.44318855676E-02  0.33904735600E-01  0.51100000000E-03 0.  1.
</event>
<event>
 8    1  0.1065239E+005  0.1043930E+01  0.7957747E-01            NaN
         13   -1    0    0    0    0  0.00000000000E+00  0.00000000000E+00  0.74505805969E-08  0.10566000000E+00  0.10566000000E+00 0. -1.
     999900   -1    0    0    0    0 -0.00000000000E+00 -0.00000000000E+00 -0.74505805969E-08  0.93827000000E+00  0.93827000000E+00 0. -1.
     999902    2    1    2    0    0  0.16366672576E-01 -0.15446628707E-01 -0.68886743382E-02  0.10203944919E+01  0.10201230312E+01 0.  0.
     999903    2    3    3    0    0  0.26387556021E-01 -0.10465878922E+00 -0.75456908491E-01  0.13317364538E+00  0.19791652546E-01 0.  0.
         14    1    1    2    0    0 -0.16366672576E-01  0.15446628707E-01  0.68886743382E-02  0.23535508147E-01  0.00000000000E+00 0.  1.
     999901    1    3    3    0    0 -0.10020883445E-01  0.89212160510E-01  0.68568234153E-01  0.88722084648E+00  0.88000000000E+00 0.  1.
        -11    1    4    4    0    0  0.28996828593E-01 -0.87950373262E-01 -0.66659022154E-01  0.11410420930E+00  0.51100000000E-03 0. -1.
         11    1    4    4    0    0 -0.26092725724E-02 -0.16708415955E-01 -0.87978863368E-02  0.19069436072E-01  0.51100000000E-03 0.  1.
</event>
<event>
 8    1  0.1065239E+005  0.1043930E+01  0.7957747E-01            NaN
         13   -1    0    0    0    0  0.00000000000E+00  0.00000000000E+00  0.74505805969E-08  0.10566000000E+00  0.10566000000E+00 0.  1.
     999900   -1    0    0    0    0 -0.00000000000E+00 -0.00000000000E+00 -0.74505805969E-08  0.93827000000E+00  0.93827000000E+00 0. -1.
     999902    2    1    2    0    0  0.10702130449E-01 -0.15087491031E-01 -0.14407173351E-01  0.10204835797E+01  0.10202141941E+01 0.  0.
     999903    2    3    3    0    0  0.29603518575E-01 -0.32752369165E-01  0.12034523164E+00  0.12985036615E+00  0.20713686621E-01 0.  0.
         14    1    1    2    0    0 -0.10702130449E-01  0.15087491031E-01  0.14407173351E-01  0.23446420318E-01  0.00000000000E+00 0.  1.
     999901    1    3    3    0    0 -0.18901388127E-01  0.17664878134E-01 -0.13475240499E+00  0.89063321353E+00  0.88000000000E+00 0. -1.
        -11    1    4    4    0    0 -0.25323651034E-02 -0.45172938608E-03  0.12530028376E-01  0.12801549303E-01  0.51100000000E-03 0.  1.
         11    1    4    4    0    0  0.32135883678E-01 -0.32300639779E-01  0.10781520326E+00  0.11704881685E+00  0.51100000000E-03 0. -1.
</event>
<event>
 8    1  0.1065239E+005  0.1043930E+01  0.7957747E-01            NaN
         13   -1    0    0    0    0  0.00000000000E+00  0.00000000000E+00  0.74505805969E-08  0.10566000000E+00  0.10566000000E+00 0.  1.
     999900   -1    0    0    0    0 -0.00000000000E+00 -0.00000000000E+00 -0.74505805969E-08  0.93827000000E+00  0.93827000000E+00 0. -1.
     999902    2    1    2    0    0 -0.50561676860E-02 -0.18328903884E-01 -0.13940992590E-01  0.10203532143E+01  0.10200807895E+01 0.  0.
     999903    2    3    3    0    0  0.98861235047E-01 -0.44688096137E-01  0.69348623689E-01  0.12994275065E+00  0.17473325608E-01 0.  0.
         14    1    1    2    0    0  0.50561676860E-02  0.18328903884E-01  0.13940992590E-01  0.23576785694E-01  0.00000000000E+00 0.  1.
     999901    1    3    3    0    0 -0.10391740273E+00  0.26359192252E-01 -0.83289616279E-01  0.89041046366E+00  0.88000000000E+00 0. -1.
        -11    1    4    4    0    0  0.38670456842E-01 -0.26746802300E-01  0.31794542046E-01  0.56762220628E-01  0.51100000000E-03 0.  1.
         11    1    4    4    0    0  0.60190778204E-01 -0.17941293836E-01  0.37554081643E-01  0.73180530023E-01  0.51100000000E-03 0. -1.
</event>
<event>
 8    1  0.1065239E+005  0.1043930E+01  0.7957747E-01            NaN
         13   -1    0    0    0    0  0.00000000000E+00  0.00000000000E+00  0.74505805969E-08  0.10566000000E+00  0.10566000000E+00 0. -1.
     999900   -1    0    0    0    0 -0.00000000000E+00 -0.00000000000E+00 -0.74505805969E-08  0.93827000000E+00  0.93827000000E+00 0. -1.
     999902    2    1    2    0    0  0.75869306795E-04  0.66281103822E-02  0.23302526969E-01  0.10197030446E+01  0.10194152019E+01 0.  0.
     999903    2    3    3    0    0  0.36786926400E-01  0.99966469826E-01  0.76063588546E-01  0.13243562120E+00  0.20173031933E-01 0.  0.
         14    1    1    2    0    0 -0.75869306795E-04 -0.66281103822E-02 -0.23302526969E-01  0.24226955370E-01  0.00000000000E+00 0.  1.
     999901    1    3    3    0    0 -0.36711057093E-01 -0.93338359444E-01 -0.52761061577E-01  0.88726742343E+00  0.88000000000E+00 0.  1.
        -11    1    4    4    0    0  0.16876409852E-01  0.32936866965E-01  0.37015656764E-01  0.52345681595E-01  0.51100000000E-03 0. -1.
         11    1    4    4    0    0  0.19910516548E-01  0.67029602861E-01  0.39047931782E-01  0.80089939608E-01  0.51100000000E-03 0.  1.
</event>
<event>
 8    1  0.1065239E+005  0.1043930E+01  0.7957747E-01            NaN
         13   -1    0    0    0    0  0.00000000000E+00  0.00000000000E+00  0.74505805969E-08  0.10566000000E+00  0.10566000000E+00 0. -1.
     999900   -1    0    0    0    0 -0.00000000000E+00 -0.00000000000E+00 -0.74505805969E-08  0.93827000000E+00  0.93827000000E+00 0. -1.
     999902    2    1    2    0    0  0.18054705990E-01  0.75074630733E-02  0.12664501158E-01  0.10206335625E+01  0.10203676518E+01 0.  0.
     999903    2    3    3    0    0 -0.11567082393E+00  0.52839653990E-01  0.12540007361E-01  0.12937740383E+00  0.20235915926E-01 0.  0.
         14    1    1    2    0    0 -0.18054705990E-01 -0.75074630733E-02 -0.12664501158E-01  0.23296437491E-01  0.00000000000E+00 0.  1.
     999901    1    3    3    0    0  0.13372552992E+00 -0.45332190917E-01  0.12449379726E-03  0.89125615868E+00  0.88000000000E+00 0.  1.
        -11    1    4    4    0    0 -0.76004195581E-01  0.24008710319E-01  0.66418975330E-02  0.79983947396E-01  0.51100000000E-03 0.  1.
         11    1    4    4    0    0 -0.39666628353E-01  0.28830943671E-01  0.58981098277E-02  0.49393456433E-01  0.51100000000E-03 0. -1.
</event>
<event>
 8    1  0.1065239E+005  0.1043930E+01  0.7957747E-01            NaN
         13   -1    0    0    0    0  0.00000000000E+00  0.00000000000E+00  0.74505805969E-08  0.10566000000E+00  0.10566000000E+00 0. -1.
     999900   -1    0    0    0    0 -0.00000000000E+00 -0.00000000000E+00 -0.74505805969E-08  0.93827000000E+00  0.93827000000E+00 0.  1.
     999902    2    1    2    0    0  0.13226090906E-01  0.14402857388E-01 -0.13225657790E-01  0.10203230136E+01  0.10200498823E+01 0.  0.
     999903    2    3    3    0    0  0.21293814567E-01  0.51691177367E-01 -0.11994480800E+00  0.13305502480E+00  0.13837568548E-01 0.  0.
         14    1    1    2    0    0 -0.13226090906E-01 -0.14402857388E-01  0.13225657790E-01  0.23606986372E-01  0.00000000000E+00 0. -1.
     999901    1    3    3    0    0 -0.80677236608E-02 -0.37288319978E-01  0.10671915021E+00  0.88726798882E+00  0.88000000000E+00 0. -1.
        -11    1    4    4    0    0  0.80189536180E-03  0.18302977978E-01 -0.41685382758E-01  0.45536516069E-01  0.51100000000E-03 0. -1.
         11    1    4    4    0    0  0.20491919205E-01  0.33388199388E-01 -0.78259425240E-01  0.87518508734E-01  0.51100000000E-03 0.  1.
</event>
<event>
 8    1  0.1065239E+005  0.1043930E+01  0.7957747E-01            NaN
         13   -1    0    0    0    0  0.00000000000E+00  0.00000000000E+00  0.74505805969E-08  0.10566000000E+00  0.10566000000E+00 0. -1.
     999900   -1    0    0    0    0 -0.00000000000E+00 -0.00000000000E+00 -0.74505805969E-08  0.93827000000E+00  0.93827000000E+00 0.  1.
     999902    2    1    2    0    0  0.24933865954E-02  0.13181152905E-01 -0.19666614208E-01  0.10201237932E+01  0.10198459776E+01 0.  0.
     999903    2    3    3    0    0  0.52030818986E-01  0.10396564805E+00  0.56467996937E-01  0.13080255719E+00  0.20114974329E-01 0.  0.
         14    1    1    2    0    0 -0.24933865954E-02 -0.13181152905E-01  0.19666614208E-01  0.23806206817E-01  0.00000000000E+00 0. -1.
     999901    1    3    3    0    0 -0.49537432391E-01 -0.90784495142E-01 -0.76134611144E-01  0.88932123599E+00  0.88000000000E+00 0.  1.
        -11    1    4    4    0    0  0.62404035639E-02  0.27424042845E-01  0.77844943585E-02  0.29186987444E-01  0.51100000000E-03 0.  1.
         11    1    4    4    0    0  0.45790415422E-01  0.76541605202E-01  0.48683502578E-01  0.10161556975E+00  0.51100000000E-03 0. -1.
</event>
<event>
 8    1  0.1065239E+005  0.1043930E+01  0.7957747E-01            NaN
         13   -1    0    0    0    0  0.00000000000E+00  0.00000000000E+00  0.74505805969E-08  0.10566000000E+00  0.10566000000E+00 0. -1.
     999900   -1    0    0    0    0 -0.00000000000E+00 -0.00000000000E+00 -0.74505805969E-08  0.93827000000E+00  0.93827000000E+00 0.  1.
     999902    2    1    2    0    0 -0.10836495054E-01  0.15393616154E-01 -0.15182758814E-01  0.10197451037E+01  0.10194582715E+01 0.  0.
     999903    2    3    3    0    0  0.11262551692E+00 -0.11453639269E-01 -0.59883657152E-01  0.12959802944E+00  0.19847013038E-01 0.  0.
         14    1    1    2    0    0  0.10836495054E-01 -0.15393616154E-01  0.15182758814E-01  0.24184896290E-01  0.00000000000E+00 0. -1.
     999901    1    3    3    0    0 -0.12346201197E+00  0.26847255423E-01  0.44700898338E-01  0.89014707427E+00  0.88000000000E+00 0.  1.
        -11    1    4    4    0    0  0.60300227579E-01 -0.13346143429E-01 -0.40024311379E-01  0.73596491852E-01  0.51100000000E-03 0.  1.
         11    1    4    4    0    0  0.52325289339E-01  0.18925041598E-02 -0.19859345773E-01  0.56001537586E-01  0.51100000000E-03 0. -1.
</event>
<event>
 8    1  0.1065239E+005  0.1043930E+01  0.7957747E-01            NaN
         13   -1    0    0    0    0  0.00000000000E+00  0.00000000000E+00  0.74505805969E-08  0.10566000000E+00  0.10566000000E+00 0.  1.
     999900   -1    0    0    0    0 -0.00000000000E+00 -0.00000000000E+00 -0.74505805969E-08  0.93827000000E+00  0.93827000000E+00 0.  1.
     999902    2    1    2    0    0  0.93636449764E-02  0.20298231485E-01 -0.57284868276E-02  0.10208537869E+01  0.10205929368E+01 0.  0.
     999903    2    3    3    0    0  0.63318545901E-01 -0.68626281173E-01  0.88366775763E-01  0.12974626326E+00  0.17510027086E-01 0.  0.
         14    1    1    2    0    0 -0.93636449764E-02 -0.20298231485E-01  0.57284868276E-02  0.23076213078E-01  0.00000000000E+00 0. -1.
     999901    1    3    3    0    0 -0.53954900924E-01  0.88924512659E-01 -0.94095262590E-01  0.89110752366E+00  0.88000000000E+00 0.  1.
        -11    1    4    4    0    0  0.32262604577E-01 -0.30477770532E-01  0.30807793011E-01  0.54029171582E-01  0.51100000000E-03 0. -1.
         11    1    4    4    0    0  0.31055941324E-01 -0.38148510642E-01  0.57558982752E-01  0.75717091678E-01  0.51100000000E-03 0.  1.
</event>
<event>
 8    1  0.1065239E+005  0.1043930E+01  0.7957747E-01            NaN
         13   -1    0    0    0    0  0.00000000000E+00  0.00000000000E+00  0.74505805969E-08  0.10566000000E+00  0.10566000000E+00 0.  1.
     999900   -1    0    0    0    0 -0.00000000000E+00 -0.00000000000E+00 -0.74505805969E-08  0.93827000000E+00  0.93827000000E+00 0.  1.
     999902    2    1    2    0    0 -0.14743719579E-01 -0.55873136529E-02 -0.16705229587E-01  0.10209591481E+01  0.10207007015E+01 0.  0.
     999903    2    3    3    0    0  0.28930521681E-01 -0.11071196499E+00 -0.63474188205E-01  0.13239515652E+00  0.20134314602E-01 0.  0.
         14    1    1    2    0    0  0.14743719579E-01  0.55873136529E-02  0.16705229587E-01  0.22970851887E-01  0.00000000000E+00 0.  1.
     999901    1    3    3    0    0 -0.43674241260E-01  0.10512465134E+00  0.46768958618E-01  0.88856399159E+00  0.88000000000E+00 0. -1.
        -11    1    4    4    0    0 -0.17466115817E-02 -0.24721581208E-01 -0.11345833106E-01  0.27261626498E-01  0.51100000000E-03 0.  1.
         11    1    4    4    0    0  0.30677133263E-01 -0.85990383782E-01 -0.52128355099E-01  0.10513353002E+00  0.51100000000E-03 0. -1.
</event>
<event>
 7    1  0.1065239E+005  0.1043930E+01  0.7957747E-01            NaN
         13   -1    0    0    0    0  0.00000000000E+00  0.00000000000E+00  0.74505805969E-08  0.10566000000E+00  0.10566000000E+00 0.  1.
     999900   -1    0    0    0    0 -0.00000000000E+00 -0.00000000000E+00 -0.74505805969E-08  0.93827000000E+00  0.93827000000E+00 0.  1.
     999902    2    1    2    0    0  0.19482674386E-01 -0.59143044250E-02 -0.11455493859E-01  0.10205680237E+01  0.10203005974E+01 0.  0.
         14    1    1    2    0    0 -0.19482674386E-01  0.59143044250E-02  0.11455493859E-01  0.23361976321E-01  0.00000000000E+00 0.  1.
     999901    1    3    3    0    0 -0.84590963782E-01 -0.38591161492E-03 -0.83439552220E-01  0.88798532587E+00  0.88000000000E+00 0.  1.
        -11    1    3    3    0    0  0.38336397605E-01  0.52240343214E-02  0.48292839338E-01  0.61882383344E-01  0.51100000000E-03 0.  1.
         11    1    3    3    0    0  0.65737240563E-01 -0.10752427131E-01  0.23691219023E-01  0.70700314467E-01  0.51100000000E-03 0. -1.
</event>
<event>
 8    1  0.1065239E+005  0.1043930E+01  0.7957747E-01            NaN
         13   -1    0    0    0    0  0.00000000000E+00  0.00000000000E+00  0.74505805969E-08  0.10566000000E+00  0.10566000000E+00 0.  1.
     999900   -1    0    0    0    0 -0.00000000000E+00 -0.00000000000E+00 -0.74505805969E-08  0.93827000000E+00  0.93827000000E+00 0. -1.
     999902    2    1    2    0    0  0.78097224939E-02 -0.19353989691E-01  0.86768495052E-02  0.10213278674E+01  0.10210777425E+01 0.  0.
     999903    2    3    3    0    0 -0.90327817604E-01  0.34123432560E-02  0.93496448227E-01  0.13152808819E+00  0.19679772147E-01 0.  0.
         14    1    1    2    0    0 -0.78097224939E-02  0.19353989691E-01 -0.86768495052E-02  0.22602132637E-01  0.00000000000E+00 0. -1.
     999901    1    3    3    0    0  0.98137540098E-01 -0.22766332947E-01 -0.84819598722E-01  0.88979977917E+00  0.88000000000E+00 0.  1.
        -11    1    4    4    0    0 -0.87134313157E-01  0.90299777376E-03  0.83340459820E-01  0.12057817920E+00  0.51100000000E-03 0. -1.
         11    1    4    4    0    0 -0.31935044471E-02  0.25093454823E-02  0.10155988407E-01  0.10949908992E-01  0.51100000000E-03 0.  1.
</event>
<event>
 8    1  0.1065239E+005  0.1043930E+01  0.7957747E-01            NaN
         13   -1    0    0    0    0  0.00000000000E+00  0.00000000000E+00  0.74505805969E-08  0.10566000000E+00  0.10566000000E+00 0. -1.
     999900   -1    0    0    0    0 -0.00000000000E+00 -0.00000000000E+00 -0.74505805969E-08  0.93827000000E+00  0.93827000000E+00 0.  1.
     999902    2    1    2    0    0  0.27809144796E-02 -0.25352423507E-01 -0.35187958907E-02  0.10181839170E+01  0.10178583537E+01 0.  0.
     999903    2    3    3    0    0  0.41383519262E-01 -0.63960341512E-01  0.10348874819E+00  0.13002213734E+00  0.19806924138E-01 0.  0.
         14    1    1    2    0    0 -0.27809144796E-02  0.25352423507E-01  0.35187958907E-02  0.25746082956E-01  0.00000000000E+00 0.  1.
     999901    1    3    3    0    0 -0.38602604783E-01  0.38607918005E-01 -0.10700754409E+00  0.88816177970E+00  0.88000000000E+00 0.  1.
        -11    1    4    4    0    0  0.15482222270E-01 -0.29240018399E-01  0.29735774138E-01  0.44487697929E-01  0.51100000000E-03 0.  1.
         11    1    4    4    0    0  0.25901296992E-01 -0.34720323113E-01  0.73752974056E-01  0.85534439415E-01  0.51100000000E-03 0. -1.
</event>
<event>
 8    1  0.1065239E+005  0.1043930E+01  0.7957747E-01            NaN
         13   -1    0    0    0    0  0.00000000000E+00  0.00000000000E+00  0.74505805969E-08  0.10566000000E+00  0.10566000000E+00 0.  1.
     999900   -1    0    0    0    0 -0.00000000000E+00 -0.00000000000E+00 -0.74505805969E-08  0.93827000000E+00  0.93827000000E+00 0. -1.
     999902    2    1    2    0    0 -0.68576048097E-02 -0.57470602036E-03  0.21400353645E-01  0.10214504055E+01  0.10212030155E+01 0.  0.
     999903    2    3    3    0    0  0.59047355837E-01 -0.65011906686E-02 -0.11272476145E+00  0.12883171116E+00  0.19023202836E-01 0.  0.
         14    1    1    2    0    0  0.68576048097E-02  0.57470602036E-03 -0.21400353645E-01  0.22479594455E-01  0.00000000000E+00 0. -1.
     999901    1    3    3    0    0 -0.65904960647E-01  0.59264846482E-02  0.13412511509E+00  0.89261869438E+00  0.88000000000E+00 0.  1.
        -11    1    4    4    0    0  0.30426170847E-01  0.39286824457E-02 -0.69263343724E-01  0.75755252775E-01  0.51100000000E-03 0. -1.
         11    1    4    4    0    0  0.28621184991E-01 -0.10429873114E-01 -0.43461417726E-01  0.53076458390E-01  0.51100000000E-03 0.  1.
</event>
<event>
 8    1  0.1065239E+005  0.1043930E+01  0.7957747E-01            NaN
         13   -1    0    0    0    0  0.00000000000E+00  0.00000000000E+00  0.74505805969E-08  0.10566000000E+00  0.10566000000E+00 0. -1.
     999900   -1    0    0    0    0 -0.00000000000E+00 -0.00000000000E+00 -0.74505805969E-08  0.93827000000E+00  0.93827000000E+00 0.  1.
     999902    2    1    2    0    0  0.41881354741E-02 -0.18166274069E-01  0.15613376213E-01  0.10196126912E+01  0.10193226714E+01 0.  0.
     999903    2    3    3    0    0 -0.12125100865E+00 -0.15827582080E-01 -0.36188275061E-01  0.12920612142E+00  0.20792092470E-01 0.  0.
         14    1    1    2    0    0 -0.41881354741E-02  0.18166274069E-01 -0.15613376213E-01  0.24317308837E-01  0.00000000000E+00 0. -1.
     999901    1    3    3    0    0  0.12543914412E+00 -0.23386919898E-02  0.51801651274E-01  0.89040656974E+00  0.88000000000E+00 0.  1.
        -11    1    4    4    0    0 -0.66019326573E-02 -0.12283823655E-02 -0.75848763849E-02  0.10143269139E-01  0.51100000000E-03 0.  1.
         11    1    4    4    0    0 -0.11464907599E+00 -0.14599199714E-01 -0.28603398676E-01  0.11906285229E+00  0.51100000000E-03 0. -1.
</event>
<event>
 8    1  0.1065239E+005  0.1043930E+01  0.7957747E-01            NaN
         13   -1    0    0    0    0  0.00000000000E+00  0.00000000000E+00  0.74505805969E-08  0.10566000000E+00  0.10566000000E+00 0.  1.
     999900   -1    0    0    0    0 -0.00000000000E+00 -0.00000000000E+00 -0.74505805969E-08  0.93827000000E+00  0.93827000000E+00 0.  1.
     999902    2    1    2    0    0 -0.97932062682E-02  0.16614815580E-01 -0.15509525632E-01  0.10191811743E+01  0.10188806416E+01 0.  0.
     999903    2    3    3    0    0  0.96419328253E-02  0.57071667469E-01  0.11316877244E+00  0.12869109249E+00  0.20101844052E-01 0.  0.
         14    1    1    2    0    0  0.97932062682E-02 -0.16614815580E-01  0.15509525632E-01  0.24748825651E-01  0.00000000000E+00 0. -1.
     999901    1    3    3    0    0 -0.19435139093E-01 -0.40456851888E-01 -0.12867829807E+00  0.89049008186E+00  0.88000000000E+00 0.  1.
        -11    1    4    4    0    0  0.19817349417E-02  0.34763359892E-01  0.47386425347E-01  0.58806061699E-01  0.51100000000E-03 0.  1.
         11    1    4    4    0    0  0.76601978836E-02  0.22308307577E-01  0.65782347093E-01  0.69885030790E-01  0.51100000000E-03 0. -1.
</event>
<event>
 8    1  0.1065239E+005  0.1043930E+01  0.7957747E-01            NaN
         13   -1    0    0    0    0  0.00000000000E+00  0.00000000000E+00  0.74505805969E-08  0.10566000000E+00  0.10566000000E+00 0. -1.
     999900   -1    0    0    0    0 -0.00000000000E+00 -0.00000000000E+00 -0.74505805969E-08  0.93827000000E+00  0.93827000000E+00 0. -1.
     999902    2    1    2    0    0 -0.82480466700E-02  0.21812352338E-01  0.40316252736E-02  0.10202643500E+01  0.10199898435E+01 0.  0.
     999903    2    3    3    0    0  0.81490059072E-01 -0.11131995651E-01 -0.97732113995E-01  0.12925698957E+00  0.19780095826E-01 0.  0.
         14    1    1    2    0    0  0.82480466700E-02 -0.21812352338E-01 -0.40316252736E-02  0.23665650017E-01  0.00000000000E+00 0.  1.
     999901    1    3    3    0    0 -0.89738105742E-01  0.32944347989E-01  0.10176373927E+00  0.89100736042E+00  0.88000000000E+00 0.  1.
        -11    1    4    4    0    0  0.34657201359E-01  0.50072305372E-02 -0.38709865471E-01  0.52200658707E-01  0.51100000000E-03 0.  1.
         11    1    4    4    0    0  0.46832857714E-01 -0.16139226188E-01 -0.59022248524E-01  0.77056330859E-01  0.51100000000E-03 0. -1.
</event>
<event>
 8    1  0.1065239E+005  0.1043930E+01  0.7957747E-01            NaN
         13   -1    0    0    0    0  0.00000000000E+00  0.00000000000E+00  0.74505805969E-08  0.10566000000E+00  0.10566000000E+00 0.  1.
     999900   -1    0    0    0    0 -0.00000000000E+00 -0.00000000000E+00 -0.74505805969E-08  0.93827000000E+00  0.93827000000E+00 0. -1.
     999902    2    1    2    0    0  0.10984178298E-01  0.21253980410E-02 -0.20457966918E-01  0.10206126695E+01  0.10203462762E+01 0.  0.
     999903    2    3    3    0    0  0.86837189985E-01  0.44584438048E-01 -0.88708126535E-01  0.13369974610E+00  0.21863684822E-01 0.  0.
         14    1    1    2    0    0 -0.10984178298E-01 -0.21253980410E-02  0.20457966918E-01  0.23317330467E-01  0.00000000000E+00 0.  1.
     999901    1    3    3    0    0 -0.75853011687E-01 -0.42459040007E-01  0.68250159618E-01  0.88691292343E+00  0.88000000000E+00 0.  1.
        -11    1    4    4    0    0  0.16826633613E-01  0.17952393809E-01 -0.16311008460E-01  0.29525144542E-01  0.51100000000E-03 0.  1.
         11    1    4    4    0    0  0.70010556371E-01  0.26632044239E-01 -0.72397118075E-01  0.10417460156E+00  0.51100000000E-03 0. -1.
</event>
<event>
 8    1  0.1065239E+005  0.1043930E+01  0.7957747E-01            NaN
         13   -1    0    0    0    0  0.00000000000E+00  0.00000000000E+00  0.74505805969E-08  0.10566000000E+00  0.10566000000E+00 0. -1.
     999900   -1    0    0    0    0 -0.00000000000E+00 -0.00000000000E+00 -0.74505805969E-08  0.93827000000E+00  0.93827000000E+00 0. -1.
     999902    2    1    2    0    0 -0.13024823671E-01 -0.18299025919E-01 -0.64425629208E-02  0.10205632074E+01  0.10202956695E+01 0.  0.
     999903    2    3    3    0    0 -0.34383643485E-01 -0.12586244642E+00 -0.20252867259E-01  0.13364899893E+00  0.20695070019E-01 0.  0.
         14    1    1    2    0    0  0.13024823671E-01  0.18299025919E-01  0.64425629208E-02  0.23366792639E-01  0.00000000000E+00 0. -1.
     999901    1    3    3    0    0  0.21358819814E-01  0.10756342050E+00  0.13810304338E-01  0.88691420843E+00  0.88000000000E+00 0.  1.
        -11    1    4    4    0    0 -0.30668222510E-01 -0.80116961365E-01 -0.18243551161E-01  0.87706075333E-01  0.51100000000E-03 0. -1.
         11    1    4    4    0    0 -0.37154209747E-02 -0.45745485059E-01 -0.20093160977E-02  0.45942923595E-01  0.51100000000E-03 0.  1.
</event>
<event>
 8    1  0.1065239E+005  0.1043930E+01  0.7957747E-01            NaN
         13   -1    0    0    0    0  0.00000000000E+00  0.00000000000E+00  0.74505805969E-08  0.10566000000E+00  0.10566000000E+00 0.  1.
     999900   -1    0    0    0    0 -0.00000000000E+00 -0.00000000000E+00 -0.74505805969E-08  0.93827000000E+00  0.93827000000E+00 0.  1.
     999902    2    1    2    0    0 -0.29629719919E-02  0.16106285589E-02  0.23282877864E-01  0.10204041476E+01  0.10201329123E+01 0.  0.
     999903    2    3    3    0    0  0.31831543901E-01  0.94010240564E-01  0.85852299225E-01  0.13267486508E+00  0.19514866738E-01 0.  0.
         14    1    1    2    0    0  0.29629719919E-02 -0.16106285589E-02 -0.23282877864E-01  0.23525852354E-01  0.00000000000E+00 0. -1.
     999901    1    3    3    0    0 -0.34794515893E-01 -0.92399612005E-01 -0.62569421361E-01  0.88772928257E+00  0.88000000000E+00 0.  1.
        -11    1    4    4    0    0  0.81858919222E-02  0.75929934498E-02  0.61392234501E-02  0.12752002261E-01  0.51100000000E-03 0.  1.
         11    1    4    4    0    0  0.23645651979E-01  0.86417247115E-01  0.79713075775E-01  0.11992286282E+00  0.51100000000E-03 0. -1.
</event>
<event>
 8    1  0.1065239E+005  0.1043930E+01  0.7957747E-01            NaN
         13   -1    0    0    0    0  0.00000000000E+00  0.00000000000E+00  0.74505805969E-08  0.10566000000E+00  0.10566000000E+00 0.  1.
     999900   -1    0    0    0    0 -0.00000000000E+00 -0.00000000000E+00 -0.74505805969E-08  0.93827000000E+00  0.93827000000E+00 0.  1.
     999902    2    1    2    0    0  0.27274515988E-01 -0.21668223523E-02  0.24545718185E-01  0.10071728698E+01  0.10065019140E+01 0.  0.
     999903    2    3    3    0    0  0.93487417765E-02 -0.68081511322E-01  0.98159095082E-01  0.12146128643E+00  0.19878254393E-01 0.  0.
         14    1    1    2    0    0 -0.27274515988E-01  0.21668223523E-02 -0.24545718185E-01  0.36757130229E-01  0.00000000000E+00 0. -1.
     999901    1    3    3    0    0  0.17925774211E-01  0.65914688970E-01 -0.73613376897E-01  0.88571158334E+00  0.88000000000E+00 0.  1.
        -11    1    4    4    0    0  0.11723145601E-01 -0.27707940838E-01  0.52090328099E-01  0.60156674864E-01  0.51100000000E-03 0.  1.
         11    1    4    4    0    0 -0.23744038246E-02 -0.40373570484E-01  0.46068766983E-01  0.61304611567E-01  0.51100000000E-03 0. -1.
</event>
<event>
 8    1  0.1065239E+005  0.1043930E+01  0.7957747E-01            NaN
         13   -1    0    0    0    0  0.00000000000E+00  0.00000000000E+00  0.74505805969E-08  0.10566000000E+00  0.10566000000E+00 0.  1.
     999900   -1    0    0    0    0 -0.00000000000E+00 -0.00000000000E+00 -0.74505805969E-08  0.93827000000E+00  0.93827000000E+00 0.  1.
     999902    2    1    2    0    0 -0.21556797708E-01 -0.40001909282E-02 -0.65465327738E-02  0.10210486944E+01  0.10207922816E+01 0.  0.
     999903    2    3    3    0    0 -0.52135854523E-01 -0.11858501781E+00 -0.21972519522E-01  0.13295932821E+00  0.20367561655E-01 0.  0.
         14    1    1    2    0    0  0.21556797708E-01  0.40001909282E-02  0.65465327738E-02  0.22881305607E-01  0.00000000000E+00 0.  1.
     999901    1    3    3    0    0  0.30579056814E-01  0.11458482688E+00  0.15425986749E-01  0.88808936619E+00  0.88000000000E+00 0.  1.
        -11    1    4    4    0    0 -0.45536977927E-01 -0.91998631329E-01 -0.24213463056E-01  0.10546998359E+00  0.51100000000E-03 0.  1.
         11    1    4    4    0    0 -0.65988765957E-02 -0.26586386479E-01  0.22409435337E-02  0.27489344613E-01  0.51100000000E-03 0. -1.
</event>
<event>
 8    1  0.1065239E+005  0.1043930E+01  0.7957747E-01            NaN
         13   -1    0    0    0    0  0.00000000000E+00  0.00000000000E+00  0.74505805969E-08  0.10566000000E+00  0.10566000000E+00 0.  1.
     999900   -1    0    0    0    0 -0.00000000000E+00 -0.00000000000E+00 -0.74505805969E-08  0.93827000000E+00  0.93827000000E+00 0. -1.
     999902    2    1    2    0    0 -0.13631349652E-01 -0.34289333467E-02 -0.19072637331E-01  0.10202374532E+01  0.10199623151E+01 0.  0.
     999903    2    3    3    0    0  0.12470258741E+00 -0.13682201633E-01  0.19550498074E-01  0.12853506217E+00  0.20027538106E-01 0.  0.
         14    1    1    2    0    0  0.13631349652E-01  0.34289333467E-02  0.19072637331E-01  0.23692546760E-01  0.00000000000E+00 0.  1.
     999901    1    3    3    0    0 -0.13833393707E+00  0.10253268286E-01 -0.38623135405E-01  0.89170239107E+00  0.88000000000E+00 0.  1.
        -11    1    4    4    0    0  0.98347231843E-01 -0.40892671198E-02  0.20160355983E-01  0.10047686894E+00  0.51100000000E-03 0. -1.
         11    1    4    4    0    0  0.26355355570E-01 -0.95929345131E-02 -0.60985790942E-03  0.28058193232E-01  0.51100000000E-03 0.  1.
</event>
<event>
 8    1  0.1065239E+005  0.1043930E+01  0.7957747E-01            NaN
         13   -1    0    0    0    0  0.00000000000E+00  0.00000000000E+00  0.74505805969E-08  0.10566000000E+00  0.10566000000E+00 0.  1.
     999900   -1    0    0    0    0 -0.00000000000E+00 -0.00000000000E+00 -0.74505805969E-08  0.93827000000E+00  0.93827000000E+00 0.  1.
     999902    2    1    2    0    0  0.10636024759E-01 -0.19095461209E-01 -0.48293200600E-02  0.10215450945E+01  0.10212998072E+01 0.  0.
     999903    2    3    3    0    0 -0.72290466657E-01  0.34656605875E-01 -0.10123024298E+00  0.13078181191E+00  0.20720239686E-01 0.  0.
         14    1    1    2    0    0 -0.10636024759E-01  0.19095461209E-01  0.48293200600E-02  0.22384905487E-01  0.00000000000E+00 0. -1.
     999901    1    3    3    0    0  0.82926491416E-01 -0.53752067083E-01  0.96400922918E-01  0.89076328260E+00  0.88000000000E+00 0. -1.
        -11    1    4    4    0    0 -0.48592038991E-01  0.22411556623E-01 -0.81908167731E-01  0.97840038765E-01  0.51100000000E-03 0. -1.
         11    1    4    4    0    0 -0.23698427667E-01  0.12245049251E-01 -0.19322075247E-01  0.32941773144E-01  0.51100000000E-03 0.  1.
</event>
<event>
 8    1  0.1065239E+005  0.1043930E+01  0.7957747E-01            NaN
         13   -1    0    0    0    0  0.00000000000E+00  0.00000000000E+00  0.74505805969E-08  0.10566000000E+00  0.10566000000E+00 0.  1.
     999900   -1    0    0    0    0 -0.00000000000E+00 -0.00000000000E+00 -0.74505805969E-08  0.93827000000E+00  0.93827000000E+00 0.  1.
     999902    2    1    2    0    0 -0.59180694645E-02  0.84349028367E-02  0.22811725734E-01  0.10188990998E+01  0.10185915912E+01 0.  0.
     999903    2    3    3    0    0 -0.67523084341E-01  0.35736287029E-01 -0.10061451029E+00  0.12773436805E+00  0.18876969335E-01 0.  0.
         14    1    1    2    0    0  0.59180694645E-02 -0.84349028367E-02 -0.22811725734E-01  0.25030900164E-01  0.00000000000E+00 0. -1.
     999901    1    3    3    0    0  0.61605014877E-01 -0.27301384192E-01  0.12342623602E+00  0.89116473178E+00  0.88000000000E+00 0. -1.
        -11    1    4    4    0    0 -0.41979009558E-01  0.31336473891E-01 -0.61228238012E-01  0.80581450040E-01  0.51100000000E-03 0.  1.
         11    1    4    4    0    0 -0.25544074783E-01  0.43998131376E-02 -0.39386272278E-01  0.47152918013E-01  0.51100000000E-03 0. -1.
</event>
<event>
 8    1  0.1065239E+005  0.1043930E+01  0.7957747E-01            NaN
         13   -1    0    0    0    0  0.00000000000E+00  0.00000000000E+00  0.74505805969E-08  0.10566000000E+00  0.10566000000E+00 0. -1.
     999900   -1    0    0    0    0 -0.00000000000E+00 -0.00000000000E+00 -0.74505805969E-08  0.93827000000E+00  0.93827000000E+00 0.  1.
     999902    2    1    2    0    0  0.12597984035E-01 -0.91947411847E-02 -0.17594156094E-01  0.10204181563E+01  0.10201472476E+01 0.  0.
     999903    2    3    3    0    0  0.12166141080E+00 -0.49006078520E-01 -0.26761102101E-02  0.13266688382E+00  0.19754642159E-01 0.  0.
         14    1    1    2    0    0 -0.12597984035E-01  0.91947411847E-02  0.17594156094E-01  0.23511843735E-01  0.00000000000E+00 0. -1.
     999901    1    3    3    0    0 -0.10906342676E+00  0.39811337335E-01 -0.14918045884E-01  0.88775127245E+00  0.88000000000E+00 0.  1.
        -11    1    4    4    0    0  0.19482096508E-01 -0.43777707665E-02  0.59238175449E-02  0.20834339359E-01  0.51100000000E-03 0. -1.
         11    1    4    4    0    0  0.10217931429E+00 -0.44628307753E-01 -0.85999277549E-02  0.11183254446E+00  0.51100000000E-03 0.  1.
</event>
<event>
 8    1  0.1065239E+005  0.1043930E+01  0.7957747E-01            NaN
         13   -1    0    0    0    0  0.00000000000E+00  0.00000000000E+00  0.74505805969E-08  0.10566000000E+00  0.10566000000E+00 0.  1.
     999900   -1    0    0    0    0 -0.00000000000E+00 -0.00000000000E+00 -0.74505805969E-08  0.93827000000E+00  0.93827000000E+00 0.  1.
     999902    2    1    2    0    0 -0.59217485595E-02 -0.17470779720E-03 -0.15939204552E-01  0.10269254162E+01  0.10267846194E+01 0.  0.
     999903    2    3    3    0    0 -0.11475437537E+00  0.61995208201E-01 -0.39306850647E-01  0.13773719877E+00  0.20360130443E-01 0.  0.
         14    1    1    2    0    0  0.59217485595E-02  0.17470779720E-03  0.15939204552E-01  0.17004583811E-01  0.00000000000E+00 0.  1.
     999901    1    3    3    0    0  0.10883262681E+00 -0.62169915998E-01  0.23367646095E-01  0.88918821742E+00  0.88000000000E+00 0. -1.
        -11    1    4    4    0    0 -0.73093308739E-02  0.26188734217E-02 -0.77564776728E-02  0.10986759427E-01  0.51100000000E-03 0.  1.
         11    1    4    4    0    0 -0.10744504449E+00  0.59376334779E-01 -0.31550372974E-01  0.12675043934E+00  0.51100000000E-03 0. -1.
</event>
<event>
 8    1  0.1065239E+005  0.1043930E+01  0.7957747E-01            NaN
         13   -1    0    0    0    0  0.00000000000E+00  0.00000000000E+00  0.74505805969E-08  0.10566000000E+00  0.10566000000E+00 0. -1.
     999900   -1    0    0    0    0 -0.00000000000E+00 -0.00000000000E+00 -0.74505805969E-08  0.93827000000E+00  0.93827000000E+00 0.  1.
     999902    2    1    2    0    0 -0.17725583934E-02 -0.18473118218E-01  0.14802726228E-01  0.10201914498E+01  0.10199152296E+01 0.  0.
     999903    2    3    3    0    0  0.12165535816E+00  0.13224660758E-01 -0.35658186362E-01  0.12958182521E+00  0.23345777992E-01 0.  0.
         14    1    1    2    0    0  0.17725583934E-02  0.18473118218E-01 -0.14802726228E-01  0.23738550161E-01  0.00000000000E+00 0.  1.
     999901    1    3    3    0    0 -0.12342791655E+00 -0.31697778976E-01  0.50460912590E-01  0.89060962463E+00  0.88000000000E+00 0. -1.
        -11    1    4    4    0    0  0.32730578517E-01  0.82015767890E-02 -0.19760380200E-01  0.39106142466E-01  0.51100000000E-03 0. -1.
         11    1    4    4    0    0  0.88924779642E-01  0.50230839688E-02 -0.15897806162E-01  0.90475682748E-01  0.51100000000E-03 0.  1.
</event>
<event>
 7    1  0.1065239E+005  0.1043930E+01  0.7957747E-01            NaN
         13   -1    0    0    0    0  0.00000000000E+00  0.00000000000E+00  0.74505805969E-08  0.10566000000E+00  0.10566000000E+00 0. -1.
     999900   -1    0    0    0    0 -0.00000000000E+00 -0.00000000000E+00 -0.74505805969E-08  0.93827000000E+00  0.93827000000E+00 0.  1.
     999903    2    1    2    0    0 -0.11075273524E+00 -0.35167771175E-01  0.20247738268E-01  0.11967070040E+00  0.20203097180E-01 0.  0.
         14    1    1    2    0    0  0.35110124405E-01  0.20133466625E-01  0.29624985952E-02  0.40581445416E-01  0.00000000000E+00 0. -1.
     999901    1    1    2    0    0  0.75642610835E-01  0.15034304550E-01 -0.23210236863E-01  0.88367785419E+00  0.88000000000E+00 0.  1.
        -11    1    3    3    0    0 -0.55794379437E-02 -0.57832116269E-02 -0.18337092643E-02  0.82582852430E-02  0.51100000000E-03 0.  1.
         11    1    3    3    0    0 -0.10517329730E+00 -0.29384559548E-01  0.22081447532E-01  0.11141241515E+00  0.51100000000E-03 0. -1.
</event>
<event>
 8    1  0.1065239E+005  0.1043930E+01  0.7957747E-01            NaN
         13   -1    0    0    0    0  0.00000000000E+00  0.00000000000E+00  0.74505805969E-08  0.10566000000E+00  0.10566000000E+00 0.  1.
     999900   -1    0    0    0    0 -0.00000000000E+00 -0.00000000000E+00 -0.74505805969E-08  0.93827000000E+00  0.93827000000E+00 0.  1.
     999902    2    1    2    0    0  0.91231582944E-02  0.33572166835E-02  0.21142339326E-01  0.10206598166E+01  0.10203945119E+01 0.  0.
     999903    2    3    3    0    0 -0.77788705205E-01 -0.90622287690E-01 -0.44200114009E-01  0.12900099430E+00  0.20594289703E-01 0.  0.
         14    1    1    2    0    0 -0.91231582944E-02 -0.33572166835E-02 -0.21142339326E-01  0.23270183354E-01  0.00000000000E+00 0. -1.
     999901    1    3    3    0    0  0.86911863500E-01  0.93979504374E-01  0.65342453335E-01  0.89165882235E+00  0.88000000000E+00 0.  1.
        -11    1    4    4    0    0 -0.32302859653E-01 -0.34984393792E-01 -0.28307517207E-01  0.55398187716E-01  0.51100000000E-03 0.  1.
         11    1    4    4    0    0 -0.45485845552E-01 -0.55637893898E-01 -0.15892596802E-01  0.73602806585E-01  0.51100000000E-03 0. -1.
</event>
<event>
 8    1  0.1065239E+005  0.1043930E+01  0.7957747E-01            NaN
         13   -1    0    0    0    0  0.00000000000E+00  0.00000000000E+00  0.74505805969E-08  0.10566000000E+00  0.10566000000E+00 0.  1.
     999900   -1    0    0    0    0 -0.00000000000E+00 -0.00000000000E+00 -0.74505805969E-08  0.93827000000E+00  0.93827000000E+00 0.  1.
     999902    2    1    2    0    0  0.21796945691E-01 -0.27251028480E-04 -0.13001240930E-01  0.10185500896E+01  0.10182338362E+01 0.  0.
     999903    2    3    3    0    0 -0.53800649248E-01 -0.50685345955E-02 -0.11577352792E+00  0.12933551831E+00  0.20098921015E-01 0.  0.
         14    1    1    2    0    0 -0.21796945691E-01  0.27251028480E-04  0.13001240930E-01  0.25379910359E-01  0.00000000000E+00 0.  1.
     999901    1    3    3    0    0  0.75597594939E-01  0.50412835671E-02  0.10277228699E+00  0.88921457133E+00  0.88000000000E+00 0. -1.
        -11    1    4    4    0    0 -0.19491901579E-01  0.31273424151E-02 -0.24410890157E-01  0.31398521892E-01  0.51100000000E-03 0.  1.
         11    1    4    4    0    0 -0.34308747669E-01 -0.81958770106E-02 -0.91362637764E-01  0.97936996415E-01  0.51100000000E-03 0. -1.
</event>
<event>
 8    1  0.1065239E+005  0.1043930E+01  0.7957747E-01            NaN
         13   -1    0    0    0    0  0.00000000000E+00  0.00000000000E+00  0.74505805969E-08  0.10566000000E+00  0.10566000000E+00 0. -1.
     999900   -1    0    0    0    0 -0.00000000000E+00 -0.00000000000E+00 -0.74505805969E-08  0.93827000000E+00  0.93827000000E+00 0. -1.
     999902    2    1    2    0    0  0.18234762638E-01 -0.18350479190E-01  0.89387615465E-02  0.10165594298E+01  0.10161908906E+01 0.  0.
     999903    2    3    3    0    0  0.82852257593E-01  0.33164300029E-01 -0.88762615880E-01  0.12730426266E+00  0.19057962370E-01 0.  0.
         14    1    1    2    0    0 -0.18234762638E-01  0.18350479190E-01 -0.89387615465E-02  0.27370570198E-01  0.00000000000E+00 0.  1.
     999901    1    3    3    0    0 -0.64617494954E-01 -0.51514779219E-01  0.97701377427E-01  0.88925516714E+00  0.88000000000E+00 0.  1.
        -11    1    4    4    0    0  0.16980261946E-01  0.47308086169E-02 -0.28933437004E-01  0.33883841928E-01  0.51100000000E-03 0. -1.
         11    1    4    4    0    0  0.65871995647E-01  0.28433491412E-01 -0.59829178876E-01  0.93420420735E-01  0.51100000000E-03 0.  1.
</event>
<event>
 8    1  0.1065239E+005  0.1043930E+01  0.7957747E-01            NaN
         13   -1    0    0    0    0  0.00000000000E+00  0.00000000000E+00  0.74505805969E-08  0.10566000000E+00  0.10566000000E+00 0.  1.
     999900   -1    0    0    0    0 -0.00000000000E+00 -0.00000000000E+00 -0.74505805969E-08  0.93827000000E+00  0.93827000000E+00 0.  1.
     999902    2    1    2    0    0  0.20490100827E-01  0.66187339365E-02 -0.89157928263E-02  0.10206245665E+01  0.10203584480E+01 0.  0.
     999903    2    3    3    0    0 -0.82385790046E-01  0.96461221275E-01  0.20735055670E-01  0.12959465996E+00  0.16512048507E-01 0.  0.
         14    1    1    2    0    0 -0.20490100827E-01 -0.66187339365E-02  0.89157928263E-02  0.23305433541E-01  0.00000000000E+00 0. -1.
     999901    1    3    3    0    0  0.10287589087E+00 -0.89842487338E-01 -0.29650848496E-01  0.89102990650E+00  0.88000000000E+00 0.  1.
        -11    1    4    4    0    0 -0.45731486589E-01  0.64441179345E-01  0.16604025802E-01  0.80746450416E-01  0.51100000000E-03 0. -1.
         11    1    4    4    0    0 -0.36654303457E-01  0.32020041930E-01  0.41310298681E-02  0.48848209546E-01  0.51100000000E-03 0.  1.
</event>
<event>
 8    1  0.1065239E+005  0.1043930E+01  0.7957747E-01            NaN
         13   -1    0    0    0    0  0.00000000000E+00  0.00000000000E+00  0.74505805969E-08  0.10566000000E+00  0.10566000000E+00 0.  1.
     999900   -1    0    0    0    0 -0.00000000000E+00 -0.00000000000E+00 -0.74505805969E-08  0.93827000000E+00  0.93827000000E+00 0. -1.
     999902    2    1    2    0    0 -0.30844908843E-02 -0.21475755338E-01  0.74311844726E-02  0.10209965167E+01  0.10207389199E+01 0.  0.
     999903    2    3    3    0    0 -0.58771571783E-02  0.12255430421E+00 -0.32027706153E-01  0.12841068833E+00  0.20234437447E-01 0.  0.
         14    1    1    2    0    0  0.30844908843E-02  0.21475755338E-01 -0.74311844726E-02  0.22933483251E-01  0.00000000000E+00 0. -1.
     999901    1    3    3    0    0  0.27926662940E-02 -0.14403005955E+00  0.39458890625E-01  0.89258582842E+00  0.88000000000E+00 0. -1.
        -11    1    4    4    0    0  0.28220420048E-02  0.12458671912E-01 -0.88938055813E-02  0.15573802542E-01  0.51100000000E-03 0.  1.
         11    1    4    4    0    0 -0.86991991830E-02  0.11009563230E+00 -0.23133900571E-01  0.11283688579E+00  0.51100000000E-03 0. -1.
</event>
<event>
 8    1  0.1065239E+005  0.1043930E+01  0.7957747E-01            NaN
         13   -1    0    0    0    0  0.00000000000E+00  0.00000000000E+00  0.74505805969E-08  0.10566000000E+00  0.10566000000E+00 0.  1.
     999900   -1    0    0    0    0 -0.00000000000E+00 -0.00000000000E+00 -0.74505805969E-08  0.93827000000E+00  0.93827000000E+00 0.  1.
     999902    2    1    2    0    0 -0.20646555418E-02  0.22160182226E-01  0.76210796591E-02  0.10204051762E+01  0.10201339649E+01 0.  0.
     999903    2    3    3    0    0  0.15342651586E-01 -0.11079766013E+00  0.60483023799E-01  0.12867921645E+00  0.19713602653E-01 0.  0.
         14    1    1    2    0    0  0.20646555418E-02 -0.22160182226E-01 -0.76210796591E-02  0.23524823782E-01  0.00000000000E+00 0. -1.
     999901    1    3    3    0    0 -0.17407307128E-01  0.13295784236E+00 -0.52861944140E-01  0.89172595977E+00  0.88000000000E+00 0.  1.
        -11    1    4    4    0    0  0.13304471642E-01 -0.10353235306E+00  0.49971780955E-01  0.11572984536E+00  0.51100000000E-03 0.  1.
         11    1    4    4    0    0  0.20381799441E-02 -0.72653070772E-02  0.10511242844E-01  0.12949371086E-01  0.51100000000E-03 0. -1.
</event>
<event>
 8    1  0.1065239E+005  0.1043930E+01  0.7957747E-01            NaN
         13   -1    0    0    0    0  0.00000000000E+00  0.00000000000E+00  0.74505805969E-08  0.10566000000E+00  0.10566000000E+00 0. -1.
     999900   -1    0    0    0    0 -0.00000000000E+00 -0.00000000000E+00 -0.74505805969E-08  0.93827000000E+00  0.93827000000E+00 0. -1.
     999902    2    1    2    0    0 -0.20319153524E-01  0.67429240718E-02 -0.96227798219E-02  0.10204580398E+01  0.10201880601E+01 0.  0.
     999903    2    3    3    0    0  0.10426465181E+00  0.31661692351E-01  0.62718786976E-01  0.12839561380E+00  0.26042408164E-01 0.  0.
         14    1    1    2    0    0  0.20319153524E-01 -0.67429240718E-02  0.96227798219E-02  0.23471960218E-01  0.00000000000E+00 0. -1.
     999901    1    3    3    0    0 -0.12458380534E+00 -0.24918768280E-01 -0.72341566798E-01  0.89206242598E+00  0.88000000000E+00 0. -1.
        -11    1    4    4    0    0  0.51993558984E-01  0.17101655326E-01  0.46329587094E-01  0.71711146637E-01  0.51100000000E-03 0. -1.
         11    1    4    4    0    0  0.52271092828E-01  0.14560037026E-01  0.16389199882E-01  0.56684467161E-01  0.51100000000E-03 0.  1.
</event>
<event>
 8    1  0.1065239E+005  0.1043930E+01  0.7957747E-01            NaN
         13   -1    0    0    0    0  0.00000000000E+00  0.00000000000E+00  0.74505805969E-08  0.10566000000E+00  0.10566000000E+00 0. -1.
     999900   -1    0    0    0    0 -0.00000000000E+00 -0.00000000000E+00 -0.74505805969E-08  0.93827000000E+00  0.93827000000E+00 0. -1.
     999902    2    1    2    0    0  0.17484950876E-01  0.33265654484E-02  0.13530427432E-01  0.10215724060E+01  0.10213277234E+01 0.  0.
     999903    2    3    3    0    0 -0.10163700096E+00 -0.31781746098E-01  0.73888453200E-01  0.13080547560E+00  0.17618444354E-01 0.  0.
         14    1    1    2    0    0 -0.17484950876E-01 -0.33265654484E-02 -0.13530427432E-01  0.22357594041E-01  0.00000000000E+00 0.  1.
     999901    1    3    3    0    0  0.11912195183E+00  0.35108311547E-01 -0.60358025768E-01  0.89076693036E+00  0.88000000000E+00 0. -1.
        -11    1    4    4    0    0 -0.45350066732E-01 -0.23172389221E-01  0.32636636553E-01  0.60489663095E-01  0.51100000000E-03 0. -1.
         11    1    4    4    0    0 -0.56286934227E-01 -0.86093568773E-02  0.41251816646E-01  0.70315812504E-01  0.51100000000E-03 0.  1.
</event>
<event>
 8    1  0.1065239E+005  0.1043930E+01  0.7957747E-01            NaN
         13   -1    0    0    0    0  0.00000000000E+00  0.00000000000E+00  0.74505805969E-08  0.10566000000E+00  0.10566000000E+00 0.  1.
     999900   -1    0    0    0    0 -0.00000000000E+00 -0.00000000000E+00 -0.74505805969E-08  0.93827000000E+00  0.93827000000E+00 0. -1.
     999902    2    1    2    0    0  0.42113931753E-02  0.11887154586E-01 -0.18929587299E-01  0.10211842410E+01  0.10209308912E+01 0.  0.
     999903    2    3    3    0    0  0.31346565097E-01 -0.12236126611E+00  0.20699966615E-01  0.12970824158E+00  0.20996493262E-01 0.  0.
         14    1    1    2    0    0 -0.42113931753E-02 -0.11887154586E-01  0.18929587299E-01  0.22745758987E-01  0.00000000000E+00 0.  1.
     999901    1    3    3    0    0 -0.27135171921E-01  0.13424842070E+00 -0.39629553913E-01  0.89147599943E+00  0.88000000000E+00 0. -1.
        -11    1    4    4    0    0  0.86368405831E-02 -0.60896282667E-01  0.19024184015E-02  0.61537245427E-01  0.51100000000E-03 0.  1.
         11    1    4    4    0    0  0.22709724514E-01 -0.61464983443E-01  0.18797548213E-01  0.68170996157E-01  0.51100000000E-03 0. -1.
</event>
<event>
 8    1  0.1065239E+005  0.1043930E+01  0.7957747E-01            NaN
         13   -1    0    0    0    0  0.00000000000E+00  0.00000000000E+00  0.74505805969E-08  0.10566000000E+00  0.10566000000E+00 0. -1.
     999900   -1    0    0    0    0 -0.00000000000E+00 -0.00000000000E+00 -0.74505805969E-08  0.93827000000E+00  0.93827000000E+00 0.  1.
     999902    2    1    2    0    0  0.38163622205E-02  0.21642390841E-01 -0.82720827001E-02  0.10204484103E+01  0.10201782065E+01 0.  0.
     999903    2    3    3    0    0  0.73062764003E-01 -0.92142166413E-01  0.47436308900E-01  0.12868307430E+00  0.21926784840E-01 0.  0.
         14    1    1    2    0    0 -0.38163622205E-02 -0.21642390841E-01  0.82720827001E-02  0.23481589684E-01  0.00000000000E+00 0. -1.
     999901    1    3    3    0    0 -0.69246401783E-01  0.11378455725E+00 -0.55708391600E-01  0.89176533602E+00  0.88000000000E+00 0. -1.
        -11    1    4    4    0    0  0.41971059042E-01 -0.43323394847E-01  0.14322278307E-01  0.61998992855E-01  0.51100000000E-03 0.  1.
         11    1    4    4    0    0  0.31091704962E-01 -0.48818771566E-01  0.33114030593E-01  0.66684081442E-01  0.51100000000E-03 0. -1.
</event>
<event>
 8    1  0.1065239E+005  0.1043930E+01  0.7957747E-01            NaN
         13   -1    0    0    0    0  0.00000000000E+00  0.00000000000E+00  0.74505805969E-08  0.10566000000E+00  0.10566000000E+00 0. -1.
     999900   -1    0    0    0    0 -0.00000000000E+00 -0.00000000000E+00 -0.74505805969E-08  0.93827000000E+00  0.93827000000E+00 0.  1.
     999902    2    1    2    0    0  0.13183120689E-01  0.11172905478E-01  0.14660607631E-01  0.10212680958E+01  0.10210166314E+01 0.  0.
     999903    2    3    3    0    0  0.67785907562E-01 -0.94208105163E-01 -0.57263025416E-01  0.13039232960E+00  0.15906262770E-01 0.  0.
         14    1    1    2    0    0 -0.13183120689E-01 -0.11172905478E-01 -0.14660607631E-01  0.22661904245E-01  0.00000000000E+00 0.  1.
     999901    1    3    3    0    0 -0.54602786873E-01  0.10538101064E+00  0.71923633047E-01  0.89087576616E+00  0.88000000000E+00 0.  1.
        -11    1    4    4    0    0  0.50875169567E-01 -0.59139708024E-01 -0.34609322944E-01  0.85345499584E-01  0.51100000000E-03 0.  1.
         11    1    4    4    0    0  0.16910737995E-01 -0.35068397139E-01 -0.22653702472E-01  0.45046830012E-01  0.51100000000E-03 0. -1.
</event>
<event>
 8    1  0.1065239E+005  0.1043930E+01  0.7957747E-01            NaN
         13   -1    0    0    0    0  0.00000000000E+00  0.00000000000E+00  0.74505805969E-08  0.10566000000E+00  0.10566000000E+00 0. -1.
     999900   -1    0    0    0    0 -0.00000000000E+00 -0.00000000000E+00 -0.74505805969E-08  0.93827000000E+00  0.93827000000E+00 0. -1.
     999902    2    1    2    0    0  0.34015215644E-02  0.20476604741E-01 -0.12513138402E-01  0.10196928318E+01  0.10194047434E+01 0.  0.
     999903    2    3    3    0    0  0.34744682233E-01  0.11208253105E+00 -0.60567755947E-01  0.13307945171E+00  0.16492443619E-01 0.  0.
         14    1    1    2    0    0 -0.34015215644E-02 -0.20476604741E-01  0.12513138402E-01  0.24237168220E-01  0.00000000000E+00 0. -1.
     999901    1    3    3    0    0 -0.31343160668E-01 -0.91605926308E-01  0.48054617545E-01  0.88661338007E+00  0.88000000000E+00 0.  1.
        -11    1    4    4    0    0  0.13146320193E-01  0.62073778138E-01 -0.26072570045E-01  0.68600435106E-01  0.51100000000E-03 0.  1.
         11    1    4    4    0    0  0.21598362040E-01  0.50008752911E-01 -0.34495185902E-01  0.64479016602E-01  0.51100000000E-03 0. -1.
</event>
<event>
 8    1  0.1065239E+005  0.1043930E+01  0.7957747E-01            NaN
         13   -1    0    0    0    0  0.00000000000E+00  0.00000000000E+00  0.74505805969E-08  0.10566000000E+00  0.10566000000E+00 0. -1.
     999900   -1    0    0    0    0 -0.00000000000E+00 -0.00000000000E+00 -0.74505805969E-08  0.93827000000E+00  0.93827000000E+00 0. -1.
     999902    2    1    2    0    0 -0.10499316381E-01  0.90384009390E-02 -0.19389133988E-01  0.10201000430E+01  0.10198216662E+01 0.  0.
     999903    2    3    3    0    0  0.10762214823E+00  0.50236275119E-01 -0.50677299247E-01  0.13070199117E+00  0.20214146242E-01 0.  0.
         14    1    1    2    0    0  0.10499316381E-01 -0.90384009390E-02  0.19389133988E-01  0.23829957046E-01  0.00000000000E+00 0. -1.
     999901    1    3    3    0    0 -0.11812146461E+00 -0.41197874180E-01  0.31288165258E-01  0.88939805179E+00  0.88000000000E+00 0. -1.
        -11    1    4    4    0    0  0.40589191710E-01  0.24568511585E-01 -0.11085370198E-01  0.48726181860E-01  0.51100000000E-03 0.  1.
         11    1    4    4    0    0  0.67032956520E-01  0.25667763534E-01 -0.39591929048E-01  0.81975809306E-01  0.51100000000E-03 0. -1.
</event>
<event>
 8    1  0.1065239E+005  0.1043930E+01  0.7957747E-01            NaN
         13   -1    0    0    0    0  0.00000000000E+00  0.00000000000E+00  0.74505805969E-08  0.10566000000E+00  0.10566000000E+00 0.  1.
     999900   -1    0    0    0    0 -0.00000000000E+00 -0.00000000000E+00 -0.74505805969E-08  0.93827000000E+00  0.93827000000E+00 0. -1.
     999902    2    1    2    0    0 -0.16716865108E-01  0.16391264296E-01  0.18580472345E-03  0.10205171478E+01  0.10202485419E+01 0.  0.
     999903    2    3    3    0    0  0.57522422960E-01  0.11321443280E+00 -0.27961833995E-01  0.13165355455E+00  0.20602362204E-01 0.  0.
         14    1    1    2    0    0  0.16716865108E-01 -0.16391264296E-01 -0.18580472345E-03  0.23412852189E-01  0.00000000000E+00 0.  1.
     999901    1    3    3    0    0 -0.74239288068E-01 -0.96823168506E-01  0.28147638719E-01  0.88886359326E+00  0.88000000000E+00 0. -1.
        -11    1    4    4    0    0  0.44620198448E-01  0.10277287925E+00 -0.24126520317E-01  0.11461054455E+00  0.51100000000E-03 0.  1.
         11    1    4    4    0    0  0.12902224512E-01  0.10441553554E-01 -0.38353136781E-02  0.17043010004E-01  0.51100000000E-03 0. -1.
</event>
<event>
 8    1  0.1065239E+005  0.1043930E+01  0.7957747E-01            NaN
         13   -1    0    0    0    0  0.00000000000E+00  0.00000000000E+00  0.74505805969E-08  0.10566000000E+00  0.10566000000E+00 0.  1.
     999900   -1    0    0    0    0 -0.00000000000E+00 -0.00000000000E+00 -0.74505805969E-08  0.93827000000E+00  0.93827000000E+00 0. -1.
     999902    2    1    2    0    0 -0.14063333313E-01 -0.13628607418E-01 -0.93501663613E-02  0.10222288043E+01  0.10219984278E+01 0.  0.
     999903    2    3    3    0    0  0.93675652302E-01 -0.85089010241E-01  0.31605763319E-01  0.13184031247E+00  0.19174885138E-01 0.  0.
         14    1    1    2    0    0  0.14063333313E-01  0.13628607418E-01  0.93501663613E-02  0.21701195704E-01  0.00000000000E+00 0.  1.
     999901    1    3    3    0    0 -0.10773898562E+00  0.71460402823E-01 -0.40955929680E-01  0.89038849182E+00  0.88000000000E+00 0. -1.
        -11    1    4    4    0    0  0.28296901900E-01 -0.27603764001E-01  0.96122272473E-03  0.39545764809E-01  0.51100000000E-03 0. -1.
         11    1    4    4    0    0  0.65378750402E-01 -0.57485246240E-01  0.30644540594E-01  0.92294547665E-01  0.51100000000E-03 0.  1.
</event>
<event>
 8    1  0.1065239E+005  0.1043930E+01  0.7957747E-01            NaN
         13   -1    0    0    0    0  0.00000000000E+00  0.00000000000E+00  0.74505805969E-08  0.10566000000E+00  0.10566000000E+00 0. -1.
     999900   -1    0    0    0    0 -0.00000000000E+00 -0.00000000000E+00 -0.74505805969E-08  0.93827000000E+00  0.93827000000E+00 0. -1.
     999902    2    1    2    0    0 -0.15167925159E-01  0.18000841080E-01  0.50001048766E-04  0.10203906981E+01  0.10201191490E+01 0.  0.
     999903    2    3    3    0    0  0.12608629606E+00  0.74577083286E-03 -0.17464036162E-01  0.12878695543E+00  0.19564690229E-01 0.  0.
         14    1    1    2    0    0  0.15167925159E-01 -0.18000841080E-01 -0.50001048766E-04  0.23539301887E-01  0.00000000000E+00 0. -1.
     999901    1    3    3    0    0 -0.14125422121E+00  0.17255070247E-01  0.17514037210E-01  0.89160374268E+00  0.88000000000E+00 0. -1.
        -11    1    4    4    0    0  0.66443075840E-01 -0.30304346282E-02  0.30868145728E-04  0.66514118313E-01  0.51100000000E-03 0.  1.
         11    1    4    4    0    0  0.59643220216E-01  0.37762054611E-02 -0.17494904307E-01  0.62272837121E-01  0.51100000000E-03 0. -1.
</event>
<event>
 8    1  0.1065239E+005  0.1043930E+01  0.7957747E-01            NaN
         13   -1    0    0    0    0  0.00000000000E+00  0.00000000000E+00  0.74505805969E-08  0.10566000000E+00  0.10566000000E+00 0.  1.
     999900   -1    0    0    0    0 -0.00000000000E+00 -0.00000000000E+00 -0.74505805969E-08  0.93827000000E+00  0.93827000000E+00 0. -1.
     999902    2    1    2    0    0  0.20502747823E-01  0.93296046132E-02 -0.15351541887E-02  0.10213521150E+01  0.10211025326E+01 0.  0.
     999903    2    3    3    0    0 -0.62179103160E-01 -0.42316653748E-01 -0.10442860967E+00  0.13001004397E+00  0.18448223809E-01 0.  0.
         14    1    1    2    0    0 -0.20502747823E-01 -0.93296046132E-02  0.15351541887E-02  0.22577884952E-01  0.00000000000E+00 0. -1.
     999901    1    3    3    0    0  0.82681850982E-01  0.51646258361E-01  0.10289345548E+00  0.89134207107E+00  0.88000000000E+00 0.  1.
        -11    1    4    4    0    0 -0.59025605282E-01 -0.36527985712E-01 -0.86550178422E-01  0.11094823264E+00  0.51100000000E-03 0.  1.
         11    1    4    4    0    0 -0.31534978773E-02 -0.57886680362E-02 -0.17878431251E-01  0.19061811338E-01  0.51100000000E-03 0. -1.
</event>
<event>
 8    1  0.1065239E+005  0.1043930E+01  0.7957747E-01            NaN
         13   -1    0    0    0    0  0.00000000000E+00  0.00000000000E+00  0.74505805969E-08  0.10566000000E+00  0.10566000000E+00 0.  1.
     999900   -1    0    0    0    0 -0.00000000000E+00 -0.00000000000E+00 -0.74505805969E-08  0.93827000000E+00  0.93827000000E+00 0.  1.
     999902    2    1    2    0    0  0.11720117931E-01 -0.62237634812E-02  0.19932897575E-01  0.10199838771E+01  0.10197027472E+01 0.  0.
     999903    2    3    3    0    0 -0.11767891255E+00  0.27970891369E-01 -0.40654502885E-01  0.12780440154E+00  0.71048733973E-02 0.  0.
         14    1    1    2    0    0 -0.11720117931E-01  0.62237634812E-02 -0.19932897575E-01  0.23946122900E-01  0.00000000000E+00 0. -1.
     999901    1    3    3    0    0  0.12939903048E+00 -0.34194654851E-01  0.60587400461E-01  0.89217947556E+00  0.88000000000E+00 0. -1.
        -11    1    4    4    0    0 -0.50516560937E-01  0.12599777296E-01 -0.13887072923E-01  0.53886818724E-01  0.51100000000E-03 0. -1.
         11    1    4    4    0    0 -0.67162351613E-01  0.15371114074E-01 -0.26767429963E-01  0.73917582819E-01  0.51100000000E-03 0.  1.
</event>
<event>
 8    1  0.1065239E+005  0.1043930E+01  0.7957747E-01            NaN
         13   -1    0    0    0    0  0.00000000000E+00  0.00000000000E+00  0.74505805969E-08  0.10566000000E+00  0.10566000000E+00 0.  1.
     999900   -1    0    0    0    0 -0.00000000000E+00 -0.00000000000E+00 -0.74505805969E-08  0.93827000000E+00  0.93827000000E+00 0. -1.
     999902    2    1    2    0    0 -0.13827373024E-01  0.16856237750E-01  0.12816516767E-01  0.10186398419E+01  0.10183258493E+01 0.  0.
     999903    2    3    3    0    0  0.10308976930E-01 -0.23372444894E-01  0.12605161958E+00  0.13014499169E+00  0.19903815635E-01 0.  0.
         14    1    1    2    0    0  0.13827373024E-01 -0.16856237750E-01 -0.12816516767E-01  0.25290158123E-01  0.00000000000E+00 0. -1.
     999901    1    3    3    0    0 -0.24136349953E-01  0.40228682644E-01 -0.11323510282E+00  0.88849485019E+00  0.88000000000E+00 0. -1.
        -11    1    4    4    0    0  0.48984305845E-02  0.26213268992E-02  0.16381074539E-01  0.17305106211E-01  0.51100000000E-03 0. -1.
         11    1    4    4    0    0  0.54105463450E-02 -0.25993771793E-01  0.10967054505E+00  0.11283988548E+00  0.51100000000E-03 0.  1.
</event>
<event>
 8    1  0.1065239E+005  0.1043930E+01  0.7957747E-01            NaN
         13   -1    0    0    0    0  0.00000000000E+00  0.00000000000E+00  0.74505805969E-08  0.10566000000E+00  0.10566000000E+00 0.  1.
     999900   -1    0    0    0    0 -0.00000000000E+00 -0.00000000000E+00 -0.74505805969E-08  0.93827000000E+00  0.93827000000E+00 0. -1.
     999902    2    1    2    0    0 -0.22412860632E-01 -0.33525688940E-02 -0.26686896329E-02  0.10211111932E+01  0.10208561950E+01 0.  0.
     999903    2    3    3    0    0 -0.51445774832E-02 -0.25106536388E-01  0.12698162469E+00  0.13117825599E+00  0.20654224515E-01 0.  0.
         14    1    1    2    0    0  0.22412860632E-01  0.33525688940E-02  0.26686896329E-02  0.22818806811E-01  0.00000000000E+00 0. -1.
     999901    1    3    3    0    0 -0.17268283149E-01  0.21753967494E-01 -0.12965031432E+00  0.88993293720E+00  0.88000000000E+00 0. -1.
        -11    1    4    4    0    0 -0.31277022908E-02 -0.27735818468E-01  0.94869526337E-01  0.98891588601E-01  0.51100000000E-03 0. -1.
         11    1    4    4    0    0 -0.20168751924E-02  0.26292820802E-02  0.32112098350E-01  0.32286667391E-01  0.51100000000E-03 0.  1.
</event>
<event>
 8    1  0.1065239E+005  0.1043930E+01  0.7957747E-01            NaN
         13   -1    0    0    0    0  0.00000000000E+00  0.00000000000E+00  0.74505805969E-08  0.10566000000E+00  0.10566000000E+00 0. -1.
     999900   -1    0    0    0    0 -0.00000000000E+00 -0.00000000000E+00 -0.74505805969E-08  0.93827000000E+00  0.93827000000E+00 0.  1.
     999902    2    1    2    0    0  0.78157403245E-02  0.13243439731E-01  0.18032500630E-01  0.10202309373E+01  0.10199556460E+01 0.  0.
     999903    2    3    3    0    0 -0.12618566328E+00 -0.16603011115E-01  0.16539403940E-01  0.12958543201E+00  0.17898343846E-01 0.  0.
         14    1    1    2    0    0 -0.78157403245E-02 -0.13243439731E-01 -0.18032500630E-01  0.23699062675E-01  0.00000000000E+00 0.  1.
     999901    1    3    3    0    0  0.13400140360E+00  0.29846450845E-01  0.14930966903E-02  0.89064550531E+00  0.88000000000E+00 0. -1.
        -11    1    4    4    0    0 -0.67045549582E-01  0.17797581453E-03  0.88735827782E-02  0.67632381198E-01  0.51100000000E-03 0.  1.
         11    1    4    4    0    0 -0.59140113695E-01 -0.16780986929E-01  0.76658211614E-02  0.61953050815E-01  0.51100000000E-03 0. -1.
</event>
<event>
 8    1  0.1065239E+005  0.1043930E+01  0.7957747E-01            NaN
         13   -1    0    0    0    0  0.00000000000E+00  0.00000000000E+00  0.74505805969E-08  0.10566000000E+00  0.10566000000E+00 0.  1.
     999900   -1    0    0    0    0 -0.00000000000E+00 -0.00000000000E+00 -0.74505805969E-08  0.93827000000E+00  0.93827000000E+00 0. -1.
     999902    2    1    2    0    0 -0.90522945061E-02 -0.14161479192E-01  0.19988242511E-01  0.10178144612E+01  0.10174793639E+01 0.  0.
     999903    2    3    3    0    0  0.22484175215E-01  0.11995554792E+00 -0.27765232427E-01  0.12581540275E+00  0.12795930078E-01 0.  0.
         14    1    1    2    0    0  0.90522945061E-02  0.14161479192E-01 -0.19988242511E-01  0.26115538812E-01  0.00000000000E+00 0. -1.
     999901    1    3    3    0    0 -0.31536469721E-01 -0.13411702711E+00  0.47753474938E-01  0.89199905844E+00  0.88000000000E+00 0.  1.
        -11    1    4    4    0    0  0.20645044969E-01  0.11856963396E+00 -0.27240013609E-01  0.12339876596E+00  0.51100000000E-03 0.  1.
         11    1    4    4    0    0  0.18391302461E-02  0.13859139608E-02 -0.52521881774E-03  0.24166367901E-02  0.51100000000E-03 0. -1.
</event>
<event>
 8    1  0.1065239E+005  0.1043930E+01  0.7957747E-01            NaN
         13   -1    0    0    0    0  0.00000000000E+00  0.00000000000E+00  0.74505805969E-08  0.10566000000E+00  0.10566000000E+00 0. -1.
     999900   -1    0    0    0    0 -0.00000000000E+00 -0.00000000000E+00 -0.74505805969E-08  0.93827000000E+00  0.93827000000E+00 0. -1.
     999902    2    1    2    0    0 -0.11580909257E-01 -0.51818353383E-02 -0.19792437126E-01  0.10204202266E+01  0.10201493663E+01 0.  0.
     999903    2    3    3    0    0  0.31192619844E-02  0.12614372636E+00 -0.25318212290E-01  0.13053650817E+00  0.21835718321E-01 0.  0.
         14    1    1    2    0    0  0.11580909257E-01  0.51818353383E-02  0.19792437126E-01  0.23509773373E-01  0.00000000000E+00 0. -1.
     999901    1    3    3    0    0 -0.14700171242E-01 -0.13132556170E+00  0.55257751649E-02  0.88988371846E+00  0.88000000000E+00 0. -1.
        -11    1    4    4    0    0  0.37723149802E-02  0.60517784743E-01 -0.23036067199E-01  0.64865662284E-01  0.51100000000E-03 0. -1.
         11    1    4    4    0    0 -0.65305299578E-03  0.65625941619E-01 -0.22821450917E-02  0.65670845882E-01  0.51100000000E-03 0.  1.
</event>
<event>
 8    1  0.1065239E+005  0.1043930E+01  0.7957747E-01            NaN
         13   -1    0    0    0    0  0.00000000000E+00  0.00000000000E+00  0.74505805969E-08  0.10566000000E+00  0.10566000000E+00 0.  1.
     999900   -1    0    0    0    0 -0.00000000000E+00 -0.00000000000E+00 -0.74505805969E-08  0.93827000000E+00  0.93827000000E+00 0.  1.
     999902    2    1    2    0    0 -0.22019861969E-01 -0.12121419625E-02  0.34197009420E-02  0.10216132358E+01  0.10213694560E+01 0.  0.
     999903    2    3    3    0    0 -0.20305708768E-01  0.11494815924E+00  0.58867049690E-01  0.13224797768E+00  0.19969900820E-01 0.  0.
         14    1    1    2    0    0  0.22019861969E-01  0.12121419625E-02 -0.34197009420E-02  0.22316764187E-01  0.00000000000E+00 0. -1.
     999901    1    3    3    0    0 -0.17141532011E-02 -0.11616030120E+00 -0.55447348748E-01  0.88936525814E+00  0.88000000000E+00 0.  1.
        -11    1    4    4    0    0 -0.21846457636E-01  0.67693746142E-01  0.36115906542E-01  0.79776756040E-01  0.51100000000E-03 0. -1.
         11    1    4    4    0    0  0.15407488683E-02  0.47254413099E-01  0.22751143148E-01  0.52471221636E-01  0.51100000000E-03 0.  1.
</event>
<event>
 8    1  0.1065239E+005  0.1043930E+01  0.7957747E-01            NaN
         13   -1    0    0    0    0  0.00000000000E+00  0.00000000000E+00  0.74505805969E-08  0.10566000000E+00  0.10566000000E+00 0. -1.
     999900   -1    0    0    0    0 -0.00000000000E+00 -0.00000000000E+00 -0.74505805969E-08  0.93827000000E+00  0.93827000000E+00 0. -1.
     999902    2    1    2    0    0 -0.66486827187E-02  0.18435240911E-01  0.12974395820E-01  0.10204268505E+01  0.10201561445E+01 0.  0.
     999903    2    3    3    0    0  0.69944340455E-01 -0.77064240387E-02 -0.10606076349E+00  0.12873225761E+00  0.19274565238E-01 0.  0.
         14    1    1    2    0    0  0.66486827187E-02 -0.18435240911E-01 -0.12974395820E-01  0.23503149496E-01  0.00000000000E+00 0.  1.
     999901    1    3    3    0    0 -0.76593023173E-01  0.26141664949E-01  0.11903515931E+00  0.89169459289E+00  0.88000000000E+00 0.  1.
        -11    1    4    4    0    0  0.35535011689E-01  0.56841323720E-02 -0.50148526314E-01  0.61726673562E-01  0.51100000000E-03 0. -1.
         11    1    4    4    0    0  0.34409328766E-01 -0.13390556411E-01 -0.55912237172E-01  0.67005584048E-01  0.51100000000E-03 0.  1.
</event>
<event>
 8    1  0.1065239E+005  0.1043930E+01  0.7957747E-01            NaN
         13   -1    0    0    0    0  0.00000000000E+00  0.00000000000E+00  0.74505805969E-08  0.10566000000E+00  0.10566000000E+00 0. -1.
     999900   -1    0    0    0    0 -0.00000000000E+00 -0.00000000000E+00 -0.74505805969E-08  0.93827000000E+00  0.93827000000E+00 0.  1.
     999902    2    1    2    0    0 -0.86276517086E-02 -0.68213321592E-02 -0.18964683649E-01  0.10220068120E+01  0.10217716465E+01 0.  0.
     999903    2    3    3    0    0  0.48822942645E-01 -0.55559109042E-01 -0.11003621094E+00  0.13410481021E+00  0.20140458704E-01 0.  0.
         14    1    1    2    0    0  0.86276517086E-02  0.68213321592E-02  0.18964683649E-01  0.21923188006E-01  0.00000000000E+00 0. -1.
     999901    1    3    3    0    0 -0.57450594353E-01  0.48737776883E-01  0.91071527294E-01  0.88790200178E+00  0.88000000000E+00 0. -1.
        -11    1    4    4    0    0  0.28502747972E-01 -0.29899801241E-01 -0.43727880094E-01  0.60156407595E-01  0.51100000000E-03 0.  1.
         11    1    4    4    0    0  0.20320194673E-01 -0.25659307801E-01 -0.66308330850E-01  0.73948402616E-01  0.51100000000E-03 0. -1.
</event>
<event>
 8    1  0.1065239E+005  0.1043930E+01  0.7957747E-01            NaN
         13   -1    0    0    0    0  0.00000000000E+00  0.00000000000E+00  0.74505805969E-08  0.10566000000E+00  0.10566000000E+00 0. -1.
     999900   -1    0    0    0    0 -0.00000000000E+00 -0.00000000000E+00 -0.74505805969E-08  0.93827000000E+00  0.93827000000E+00 0.  1.
     999902    2    1    2    0    0 -0.12283395492E-01 -0.14672792982E-01  0.15642332256E-01  0.10192145146E+01  0.10189148010E+01 0.  0.
     999903    2    3    3    0    0 -0.12479264422E+00 -0.37338981366E-01  0.65037071211E-02  0.13171487992E+00  0.18414879950E-01 0.  0.
         14    1    1    2    0    0  0.12283395492E-01  0.14672792982E-01 -0.15642332256E-01  0.24715485371E-01  0.00000000000E+00 0.  1.
     999901    1    3    3    0    0  0.11250924873E+00  0.22666188383E-01  0.91386251349E-02  0.88749963471E+00  0.88000000000E+00 0.  1.
        -11    1    4    4    0    0 -0.53201116416E-01 -0.23111220342E-01 -0.31172761437E-02  0.58090152566E-01  0.51100000000E-03 0.  1.
         11    1    4    4    0    0 -0.71591527806E-01 -0.14227761024E-01  0.96209832648E-02  0.73624727350E-01  0.51100000000E-03 0. -1.
</event>
<event>
 8    1  0.1065239E+005  0.1043930E+01  0.7957747E-01            NaN
         13   -1    0    0    0    0  0.00000000000E+00  0.00000000000E+00  0.74505805969E-08  0.10566000000E+00  0.10566000000E+00 0. -1.
     999900   -1    0    0    0    0 -0.00000000000E+00 -0.00000000000E+00 -0.74505805969E-08  0.93827000000E+00  0.93827000000E+00 0. -1.
     999902    2    1    2    0    0  0.40895592740E-02 -0.82894377866E-02  0.21734414168E-01  0.10203117013E+01  0.10200383051E+01 0.  0.
     999903    2    3    3    0    0  0.18782396302E-01  0.11246375852E+00  0.61471566832E-01  0.13105568914E+00  0.19898862632E-01 0.  0.
         14    1    1    2    0    0 -0.40895592740E-02  0.82894377866E-02 -0.21734414168E-01  0.23618298692E-01  0.00000000000E+00 0.  1.
     999901    1    3    3    0    0 -0.14692837028E-01 -0.12075319631E+00 -0.39737152664E-01  0.88925601217E+00  0.88000000000E+00 0.  1.
        -11    1    4    4    0    0 -0.99476909697E-03 -0.17057913123E-03 -0.16677296699E-03  0.11435020852E-02  0.51100000000E-03 0.  1.
         11    1    4    4    0    0  0.19777165399E-01  0.11263433766E+00  0.61638339799E-01  0.12991218705E+00  0.51100000000E-03 0. -1.
</event>
<event>
 8    1  0.1065239E+005  0.1043930E+01  0.7957747E-01            NaN
         13   -1    0    0    0    0  0.00000000000E+00  0.00000000000E+00  0.74505805969E-08  0.10566000000E+00  0.10566000000E+00 0.  1.
     999900   -1    0    0    0    0 -0.00000000000E+00 -0.00000000000E+00 -0.74505805969E-08  0.93827000000E+00  0.93827000000E+00 0.  1.
     999902    2    1    2    0    0  0.98138170693E-02  0.10117538594E-01 -0.13084057345E-01  0.10246980435E+01  0.10245175510E+01 0.  0.
     999903    2    3    3    0    0  0.74899182065E-01  0.72508101507E-01 -0.86995453622E-01  0.13700914444E+00  0.18329878678E-01 0.  0.
         14    1    1    2    0    0 -0.98138170693E-02 -0.10117538594E-01  0.13084057345E-01  0.19231956460E-01  0.00000000000E+00 0.  1.
     999901    1    3    3    0    0 -0.65085364996E-01 -0.62390562913E-01  0.73911396278E-01  0.88768889910E+00  0.88000000000E+00 0. -1.
        -11    1    4    4    0    0  0.17100816972E-01  0.24475807647E-01 -0.32769649607E-01  0.44335247348E-01  0.51100000000E-03 0.  1.
         11    1    4    4    0    0  0.57798365093E-01  0.48032293860E-01 -0.54225804016E-01  0.92673897097E-01  0.51100000000E-03 0. -1.
</event>
<event>
 8    1  0.1065239E+005  0.1043930E+01  0.7957747E-01            NaN
         13   -1    0    0    0    0  0.00000000000E+00  0.00000000000E+00  0.74505805969E-08  0.10566000000E+00  0.10566000000E+00 0.  1.
     999900   -1    0    0    0    0 -0.00000000000E+00 -0.00000000000E+00 -0.74505805969E-08  0.93827000000E+00  0.93827000000E+00 0. -1.
     999902    2    1    2    0    0 -0.58971859321E-02  0.20955798378E-01  0.63725860939E-02  0.10212466991E+01  0.10209947543E+01 0.  0.
     999903    2    3    3    0    0 -0.71836751875E-01  0.43407562210E-01 -0.10011054381E+00  0.13209498816E+00  0.19550691512E-01 0.  0.
         14    1    1    2    0    0  0.58971859321E-02 -0.20955798378E-01 -0.63725860939E-02  0.22683300931E-01  0.00000000000E+00 0. -1.
     999901    1    3    3    0    0  0.65939565943E-01 -0.22451763832E-01  0.10648312990E+00  0.88915171091E+00  0.88000000000E+00 0.  1.
        -11    1    4    4    0    0 -0.44301423960E-01  0.35525382856E-01 -0.74453345757E-01  0.93638831728E-01  0.51100000000E-03 0.  1.
         11    1    4    4    0    0 -0.27535327915E-01  0.78821793547E-02 -0.25657198053E-01  0.38456156434E-01  0.51100000000E-03 0. -1.
</event>
<event>
 8    1  0.1065239E+005  0.1043930E+01  0.7957747E-01            NaN
         13   -1    0    0    0    0  0.00000000000E+00  0.00000000000E+00  0.74505805969E-08  0.10566000000E+00  0.10566000000E+00 0.  1.
     999900   -1    0    0    0    0 -0.00000000000E+00 -0.00000000000E+00 -0.74505805969E-08  0.93827000000E+00  0.93827000000E+00 0.  1.
     999902    2    1    2    0    0 -0.22376509380E-01  0.48360149417E-02  0.85397050728E-03  0.10210209520E+01  0.10207639100E+01 0.  0.
     999903    2    3    3    0    0  0.19644656279E-01 -0.11483931072E+00 -0.54652135440E-01  0.13019611532E+00  0.19753296632E-01 0.  0.
         14    1    1    2    0    0  0.22376509380E-01 -0.48360149417E-02 -0.85397050728E-03  0.22909047955E-01  0.00000000000E+00 0.  1.
     999901    1    3    3    0    0 -0.42021165659E-01  0.11967532566E+00  0.55506105947E-01  0.89082483673E+00  0.88000000000E+00 0. -1.
        -11    1    4    4    0    0 -0.89956586646E-03 -0.52710450988E-01 -0.23541164712E-01  0.57737755577E-01  0.51100000000E-03 0.  1.
         11    1    4    4    0    0  0.20544222145E-01 -0.62128859734E-01 -0.31110970728E-01  0.72458359739E-01  0.51100000000E-03 0. -1.
</event>
<event>
 8    1  0.1065239E+005  0.1043930E+01  0.7957747E-01            NaN
         13   -1    0    0    0    0  0.00000000000E+00  0.00000000000E+00  0.74505805969E-08  0.10566000000E+00  0.10566000000E+00 0.  1.
     999900   -1    0    0    0    0 -0.00000000000E+00 -0.00000000000E+00 -0.74505805969E-08  0.93827000000E+00  0.93827000000E+00 0. -1.
     999902    2    1    2    0    0  0.20228289975E-01 -0.13175828604E-01  0.31065304054E-02  0.10195899773E+01  0.10192994089E+01 0.  0.
     999903    2    3    3    0    0 -0.68932673527E-03 -0.11132170351E+00 -0.66316907716E-01  0.13117015917E+00  0.20363731633E-01 0.  0.
         14    1    1    2    0    0 -0.20228289975E-01  0.13175828604E-01 -0.31065304054E-02  0.24340022717E-01  0.00000000000E+00 0. -1.
     999901    1    3    3    0    0  0.20917616710E-01  0.98145874901E-01  0.69423438121E-01  0.88841981811E+00  0.88000000000E+00 0. -1.
        -11    1    4    4    0    0 -0.57400194437E-02 -0.66028258045E-01 -0.29353923172E-01  0.72488568825E-01  0.51100000000E-03 0. -1.
         11    1    4    4    0    0  0.50506927084E-02 -0.45293445460E-01 -0.36962984544E-01  0.58681590349E-01  0.51100000000E-03 0.  1.
</event>
<event>
 8    1  0.1065239E+005  0.1043930E+01  0.7957747E-01            NaN
         13   -1    0    0    0    0  0.00000000000E+00  0.00000000000E+00  0.74505805969E-08  0.10566000000E+00  0.10566000000E+00 0. -1.
     999900   -1    0    0    0    0 -0.00000000000E+00 -0.00000000000E+00 -0.74505805969E-08  0.93827000000E+00  0.93827000000E+00 0.  1.
     999902    2    1    2    0    0 -0.38282104433E-02 -0.50822949152E-02  0.21758333318E-01  0.10212604172E+01  0.10210087804E+01 0.  0.
     999903    2    3    3    0    0  0.27074116389E-03 -0.12690047886E+00 -0.27638252875E-01  0.13148713477E+00  0.20522883642E-01 0.  0.
         14    1    1    2    0    0  0.38282104433E-02  0.50822949152E-02 -0.21758333318E-01  0.22669582827E-01  0.00000000000E+00 0.  1.
     999901    1    3    3    0    0 -0.40989516072E-02  0.12181818395E+00  0.49396586193E-01  0.88977328240E+00  0.88000000000E+00 0. -1.
        -11    1    4    4    0    0 -0.39801126353E-02 -0.96801623619E-01 -0.28764002881E-01  0.10106445772E+00  0.51100000000E-03 0.  1.
         11    1    4    4    0    0  0.42508537992E-02 -0.30098855242E-01  0.11257500059E-02  0.30422677052E-01  0.51100000000E-03 0. -1.
</event>
<event>
 8    1  0.1065239E+005  0.1043930E+01  0.7957747E-01            NaN
         13   -1    0    0    0    0  0.00000000000E+00  0.00000000000E+00  0.74505805969E-08  0.10566000000E+00  0.10566000000E+00 0. -1.
     999900   -1    0    0    0    0 -0.00000000000E+00 -0.00000000000E+00 -0.74505805969E-08  0.93827000000E+00  0.93827000000E+00 0.  1.
     999902    2    1    2    0    0  0.12978889629E-02  0.25307462616E-02 -0.24554165754E-01  0.10192116617E+01  0.10189118780E+01 0.  0.
     999903    2    3    3    0    0  0.15918049546E-01  0.26850824298E-01  0.12115234719E+00  0.12677925350E+00  0.20511870275E-01 0.  0.
         14    1    1    2    0    0 -0.12978889629E-02 -0.25307462616E-02  0.24554165754E-01  0.24718338300E-01  0.00000000000E+00 0. -1.
     999901    1    3    3    0    0 -0.14620160583E-01 -0.24320078037E-01 -0.14570651294E+00  0.89243240820E+00  0.88000000000E+00 0.  1.
        -11    1    4    4    0    0 -0.44256582906E-02  0.53982075071E-02  0.14454531315E-01  0.16059940602E-01  0.51100000000E-03 0. -1.
         11    1    4    4    0    0  0.20343707837E-01  0.21452616791E-01  0.10669781587E+00  0.11071931290E+00  0.51100000000E-03 0.  1.
</event>
<event>
 8    1  0.1065239E+005  0.1043930E+01  0.7957747E-01            NaN
         13   -1    0    0    0    0  0.00000000000E+00  0.00000000000E+00  0.74505805969E-08  0.10566000000E+00  0.10566000000E+00 0.  1.
     999900   -1    0    0    0    0 -0.00000000000E+00 -0.00000000000E+00 -0.74505805969E-08  0.93827000000E+00  0.93827000000E+00 0.  1.
     999902    2    1    2    0    0  0.21558375616E-01 -0.82927397848E-02  0.70206616237E-02  0.10197882772E+01  0.10195024803E+01 0.  0.
     999903    2    3    3    0    0 -0.11175344046E+00 -0.59115784517E-01 -0.77629102351E-02  0.12817537001E+00  0.19625373071E-01 0.  0.
         14    1    1    2    0    0 -0.21558375616E-01  0.82927397848E-02 -0.70206616237E-02  0.24141722846E-01  0.00000000000E+00 0.  1.
     999901    1    3    3    0    0  0.13331181608E+00  0.50823044732E-01  0.14783571859E-01  0.89161290714E+00  0.88000000000E+00 0.  1.
        -11    1    4    4    0    0 -0.77241485191E-01 -0.31457132775E-01 -0.92881013137E-02  0.83918580683E-01  0.51100000000E-03 0.  1.
         11    1    4    4    0    0 -0.34511955273E-01 -0.27658651742E-01  0.15251910786E-02  0.44256789330E-01  0.51100000000E-03 0. -1.
</event>
<event>
 8    1  0.1065239E+005  0.1043930E+01  0.7957747E-01            NaN
         13   -1    0    0    0    0  0.00000000000E+00  0.00000000000E+00  0.74505805969E-08  0.10566000000E+00  0.10566000000E+00 0.  1.
     999900   -1    0    0    0    0 -0.00000000000E+00 -0.00000000000E+00 -0.74505805969E-08  0.93827000000E+00  0.93827000000E+00 0. -1.
     999902    2    1    2    0    0  0.13734966911E-01 -0.21037451659E-01  0.35221848244E-02  0.10185601463E+01  0.10182441467E+01 0.  0.
     999903    2    3    3    0    0  0.56440836573E-01  0.49304732182E-01 -0.10239530550E+00  0.12839705518E+00  0.19608175353E-01 0.  0.
         14    1    1    2    0    0 -0.13734966911E-01  0.21037451659E-01 -0.35221848244E-02  0.25369853651E-01  0.00000000000E+00 0.  1.
     999901    1    3    3    0    0 -0.42705869662E-01 -0.70342183841E-01  0.10591749032E+00  0.89016309117E+00  0.88000000000E+00 0.  1.
        -11    1    4    4    0    0  0.28678104246E-01  0.36868480619E-01 -0.56134517338E-01  0.73027828149E-01  0.51100000000E-03 0. -1.
         11    1    4    4    0    0  0.27762732326E-01  0.12436251563E-01 -0.46260788162E-01  0.55369227027E-01  0.51100000000E-03 0.  1.
</event>
<event>
 8    1  0.1065239E+005  0.1043930E+01  0.7957747E-01            NaN
         13   -1    0    0    0    0  0.00000000000E+00  0.00000000000E+00  0.74505805969E-08  0.10566000000E+00  0.10566000000E+00 0. -1.
     999900   -1    0    0    0    0 -0.00000000000E+00 -0.00000000000E+00 -0.74505805969E-08  0.93827000000E+00  0.93827000000E+00 0.  1.
     999902    2    1    2    0    0  0.10594160410E-01  0.21055729113E-01 -0.24694935441E-02  0.10202302455E+01  0.10199549380E+01 0.  0.
     999903    2    3    3    0    0 -0.66027434295E-01 -0.66287303097E-01 -0.86100310373E-01  0.12866208349E+00  0.19673323314E-01 0.  0.
         14    1    1    2    0    0 -0.10594160410E-01 -0.21055729113E-01  0.24694935441E-02  0.23699754464E-01  0.00000000000E+00 0.  1.
     999901    1    3    3    0    0  0.76621594705E-01  0.87343032210E-01  0.83630816829E-01  0.89156816205E+00  0.88000000000E+00 0.  1.
        -11    1    4    4    0    0 -0.44942971562E-01 -0.35455343615E-01 -0.42815572732E-01  0.71486967155E-01  0.51100000000E-03 0.  1.
         11    1    4    4    0    0 -0.21084462733E-01 -0.30831959482E-01 -0.43284737641E-01  0.57175116335E-01  0.51100000000E-03 0. -1.
</event>
<event>
 8    1  0.1065239E+005  0.1043930E+01  0.7957747E-01            NaN
         13   -1    0    0    0    0  0.00000000000E+00  0.00000000000E+00  0.74505805969E-08  0.10566000000E+00  0.10566000000E+00 0.  1.
     999900   -1    0    0    0    0 -0.00000000000E+00 -0.00000000000E+00 -0.74505805969E-08  0.93827000000E+00  0.93827000000E+00 0.  1.
     999902    2    1    2    0    0 -0.24496023256E-02 -0.22243228222E-01 -0.58341413520E-02  0.10208042793E+01  0.10205422959E+01 0.  0.
     999903    2    3    3    0    0 -0.41984571216E-01  0.83498547731E-01  0.86365011918E-01  0.12881491791E+00  0.19991400614E-01 0.  0.
         14    1    1    2    0    0  0.24496023256E-02  0.22243228222E-01  0.58341413520E-02  0.23125720715E-01  0.00000000000E+00 0.  1.
     999901    1    3    3    0    0  0.39534968890E-01 -0.10574177595E+00 -0.92199153270E-01  0.89198936138E+00  0.88000000000E+00 0.  1.
        -11    1    4    4    0    0 -0.33790727024E-01  0.51841400013E-01  0.47444528021E-01  0.77978127371E-01  0.51100000000E-03 0.  1.
         11    1    4    4    0    0 -0.81938441919E-02  0.31657147718E-01  0.38920483897E-01  0.50836790537E-01  0.51100000000E-03 0. -1.
</event>
<event>
 8    1  0.1065239E+005  0.1043930E+01  0.7957747E-01            NaN
         13   -1    0    0    0    0  0.00000000000E+00  0.00000000000E+00  0.74505805969E-08  0.10566000000E+00  0.10566000000E+00 0.  1.
     999900   -1    0    0    0    0 -0.00000000000E+00 -0.00000000000E+00 -0.74505805969E-08  0.93827000000E+00  0.93827000000E+00 0.  1.
     999902    2    1    2    0    0  0.21011568354E-02 -0.23662991193E-01  0.52889478623E-02  0.10195922725E+01  0.10193017596E+01 0.  0.
     999903    2    3    3    0    0  0.90918893132E-03  0.67263262655E-01  0.10860874579E+00  0.12889367862E+00  0.17104022905E-01 0.  0.
         14    1    1    2    0    0 -0.21011568354E-02  0.23662991193E-01 -0.52889478623E-02  0.24337727539E-01  0.00000000000E+00 0.  1.
     999901    1    3    3    0    0  0.11919679041E-02 -0.90926253849E-01 -0.10331979792E+00  0.89069859384E+00  0.88000000000E+00 0.  1.
        -11    1    4    4    0    0 -0.60399307933E-02  0.53966013043E-01  0.87742330200E-01  0.10318812411E+00  0.51100000000E-03 0.  1.
         11    1    4    4    0    0  0.69491197246E-02  0.13297249613E-01  0.20866415586E-01  0.25705554509E-01  0.51100000000E-03 0. -1.
</event>
<event>
 8    1  0.1065239E+005  0.1043930E+01  0.7957747E-01            NaN
         13   -1    0    0    0    0  0.00000000000E+00  0.00000000000E+00  0.74505805969E-08  0.10566000000E+00  0.10566000000E+00 0.  1.
     999900   -1    0    0    0    0 -0.00000000000E+00 -0.00000000000E+00 -0.74505805969E-08  0.93827000000E+00  0.93827000000E+00 0.  1.
     999902    2    1    2    0    0  0.66018891533E-02 -0.13579650167E-01  0.16384257568E-01  0.10216491622E+01  0.10214061752E+01 0.  0.
     999903    2    3    3    0    0 -0.88775277348E-01 -0.84057664193E-02 -0.91957993136E-01  0.12987474211E+00  0.21435236376E-01 0.  0.
         14    1    1    2    0    0 -0.66018891533E-02  0.13579650167E-01 -0.16384257568E-01  0.22280837846E-01  0.00000000000E+00 0. -1.
     999901    1    3    3    0    0  0.95377166501E-01 -0.51738837481E-02  0.10834225070E+00  0.89177442005E+00  0.88000000000E+00 0. -1.
        -11    1    4    4    0    0 -0.24374553246E-01 -0.11830390177E-01 -0.24223075035E-01  0.36346876934E-01  0.51100000000E-03 0.  1.
         11    1    4    4    0    0 -0.64400724102E-01  0.34246237581E-02 -0.67734918101E-01  0.93527865173E-01  0.51100000000E-03 0. -1.
</event>
<event>
 8    1  0.1065239E+005  0.1043930E+01  0.7957747E-01            NaN
         13   -1    0    0    0    0  0.00000000000E+00  0.00000000000E+00  0.74505805969E-08  0.10566000000E+00  0.10566000000E+00 0. -1.
     999900   -1    0    0    0    0 -0.00000000000E+00 -0.00000000000E+00 -0.74505805969E-08  0.93827000000E+00  0.93827000000E+00 0. -1.
     999902    2    1    2    0    0  0.40187385161E-02 -0.54667732539E-02 -0.22120144405E-01  0.10207926566E+01  0.10205304068E+01 0.  0.
     999903    2    3    3    0    0 -0.29518493083E-02  0.82409363483E-01  0.96578963146E-01  0.12845848010E+00  0.19340847505E-01 0.  0.
         14    1    1    2    0    0 -0.40187385161E-02  0.54667732539E-02  0.22120144405E-01  0.23137343356E-01  0.00000000000E+00 0. -1.
     999901    1    3    3    0    0  0.69705878244E-02 -0.87876136736E-01 -0.11869910755E+00  0.89233417655E+00  0.88000000000E+00 0. -1.
        -11    1    4    4    0    0 -0.86371934323E-02  0.61635685737E-01  0.62977308914E-01  0.88543556658E-01  0.51100000000E-03 0.  1.
         11    1    4    4    0    0  0.56853441241E-02  0.20773677746E-01  0.33601654232E-01  0.39914923438E-01  0.51100000000E-03 0. -1.
</event>
<event>
 8    1  0.1065239E+005  0.1043930E+01  0.7957747E-01            NaN
         13   -1    0    0    0    0  0.00000000000E+00  0.00000000000E+00  0.74505805969E-08  0.10566000000E+00  0.10566000000E+00 0. -1.
     999900   -1    0    0    0    0 -0.00000000000E+00 -0.00000000000E+00 -0.74505805969E-08  0.93827000000E+00  0.93827000000E+00 0. -1.
     999902    2    1    2    0    0 -0.24015795488E-01  0.16280170995E-02  0.26733332016E-02  0.10197110904E+01  0.10194234411E+01 0.  0.
     999903    2    3    3    0    0  0.57415883418E-01  0.10574339190E+00  0.41929335061E-01  0.12897422504E+00  0.19950764073E-01 0.  0.
         14    1    1    2    0    0  0.24015795488E-01 -0.16280170995E-02 -0.26733332016E-02  0.24218909616E-01  0.00000000000E+00 0.  1.
     999901    1    3    3    0    0 -0.81431678907E-01 -0.10411537480E+00 -0.39256001859E-01  0.89073686534E+00  0.88000000000E+00 0.  1.
        -11    1    4    4    0    0  0.21254358258E-01  0.38403156804E-01  0.25590929628E-01  0.50810500861E-01  0.51100000000E-03 0. -1.
         11    1    4    4    0    0  0.36161525160E-01  0.67340235095E-01  0.16338405433E-01  0.78163724179E-01  0.51100000000E-03 0.  1.
</event>
<event>
 8    1  0.1065239E+005  0.1043930E+01  0.7957747E-01            NaN
         13   -1    0    0    0    0  0.00000000000E+00  0.00000000000E+00  0.74505805969E-08  0.10566000000E+00  0.10566000000E+00 0. -1.
     999900   -1    0    0    0    0 -0.00000000000E+00 -0.00000000000E+00 -0.74505805969E-08  0.93827000000E+00  0.93827000000E+00 0. -1.
     999902    2    1    2    0    0  0.21231200983E-01  0.10725985309E-01  0.38708706705E-03  0.10201400758E+01  0.10198626446E+01 0.  0.
     999903    2    3    3    0    0 -0.90039696348E-01 -0.15305452870E-01 -0.87894698973E-01  0.12837075469E+00  0.20301939461E-01 0.  0.
         14    1    1    2    0    0 -0.21231200983E-01 -0.10725985309E-01 -0.38708706705E-03  0.23789924178E-01  0.00000000000E+00 0. -1.
     999901    1    3    3    0    0  0.11127089733E+00  0.26031438179E-01  0.88281786040E-01  0.89176932113E+00  0.88000000000E+00 0.  1.
        -11    1    4    4    0    0 -0.74737323311E-01 -0.73478815536E-02 -0.78840995714E-01  0.10888444602E+00  0.51100000000E-03 0. -1.
         11    1    4    4    0    0 -0.15302373037E-01 -0.79575713163E-02 -0.90537032589E-02  0.19486308669E-01  0.51100000000E-03 0.  1.
</event>
<event>
 8    1  0.1065239E+005  0.1043930E+01  0.7957747E-01            NaN
         13   -1    0    0    0    0  0.00000000000E+00  0.00000000000E+00  0.74505805969E-08  0.10566000000E+00  0.10566000000E+00 0.  1.
     999900   -1    0    0    0    0 -0.00000000000E+00 -0.00000000000E+00 -0.74505805969E-08  0.93827000000E+00  0.93827000000E+00 0.  1.
     999902    2    1    2    0    0 -0.19487613211E-01  0.31151420846E-03  0.15438037873E-01  0.10190664298E+01  0.10187630692E+01 0.  0.
     999903    2    3    3    0    0  0.95309462305E-01  0.33497760877E-01 -0.73484165937E-01  0.12654928495E+00  0.20218933948E-01 0.  0.
         14    1    1    2    0    0  0.19487613211E-01 -0.31151420846E-03 -0.15438037873E-01  0.24863570200E-01  0.00000000000E+00 0. -1.
     999901    1    3    3    0    0 -0.11479707552E+00 -0.33186246668E-01  0.88922203810E-01  0.89251714485E+00  0.88000000000E+00 0. -1.
        -11    1    4    4    0    0  0.73298108963E-01  0.31928226416E-01 -0.49894636335E-01  0.94243091395E-01  0.51100000000E-03 0. -1.
         11    1    4    4    0    0  0.22011353342E-01  0.15695344608E-02 -0.23589529602E-01  0.32306193558E-01  0.51100000000E-03 0.  1.
</event>
<event>
 8    1  0.1065239E+005  0.1043930E+01  0.7957747E-01            NaN
         13   -1    0    0    0    0  0.00000000000E+00  0.00000000000E+00  0.74505805969E-08  0.10566000000E+00  0.10566000000E+00 0.  1.
     999900   -1    0    0    0    0 -0.00000000000E+00 -0.00000000000E+00 -0.74505805969E-08  0.93827000000E+00  0.93827000000E+00 0.  1.
     999902    2    1    2    0    0  0.14650660084E-01  0.23523874267E-02 -0.17396731206E-01  0.10210647026E+01  0.10208086525E+01 0.  0.
     999903    2    3    3    0    0  0.90632117064E-01 -0.78152762568E-02 -0.96666273987E-01  0.13418239724E+00  0.19628754815E-01 0.  0.
         14    1    1    2    0    0 -0.14650660084E-01 -0.23523874267E-02  0.17396731206E-01  0.22865297378E-01  0.00000000000E+00 0.  1.
     999901    1    3    3    0    0 -0.75981456980E-01  0.10167663683E-01  0.79269542781E-01  0.88688230538E+00  0.88000000000E+00 0. -1.
        -11    1    4    4    0    0  0.57034046616E-01  0.18106413039E-02 -0.49956544742E-01  0.75842457627E-01  0.51100000000E-03 0. -1.
         11    1    4    4    0    0  0.33598070448E-01 -0.96259175607E-02 -0.46709729245E-01  0.58339939611E-01  0.51100000000E-03 0.  1.
</event>
<event>
 8    1  0.1065239E+005  0.1043930E+01  0.7957747E-01            NaN
         13   -1    0    0    0    0  0.00000000000E+00  0.00000000000E+00  0.74505805969E-08  0.10566000000E+00  0.10566000000E+00 0. -1.
     999900   -1    0    0    0    0 -0.00000000000E+00 -0.00000000000E+00 -0.74505805969E-08  0.93827000000E+00  0.93827000000E+00 0. -1.
     999902    2    1    2    0    0  0.24941675157E-01 -0.26270464005E-01  0.21621463574E-02  0.10076408926E+01  0.10069872239E+01 0.  0.
     999903    2    3    3    0    0  0.87036745012E-01  0.46188380073E-01  0.65711870868E-01  0.12020376848E+00  0.20545913172E-01 0.  0.
         14    1    1    2    0    0 -0.24941675157E-01  0.26270464005E-01 -0.21621463574E-02  0.36289107396E-01  0.00000000000E+00 0.  1.
     999901    1    3    3    0    0 -0.62095069855E-01 -0.72458844078E-01 -0.63549724511E-01  0.88743712412E+00  0.88000000000E+00 0. -1.
        -11    1    4    4    0    0  0.51927139014E-01  0.33333447848E-01  0.30466783059E-01  0.68818838283E-01  0.51100000000E-03 0. -1.
         11    1    4    4    0    0  0.35109605998E-01  0.12854932225E-01  0.35245087809E-01  0.51384930199E-01  0.51100000000E-03 0.  1.
</event>
<event>
 8    1  0.1065239E+005  0.1043930E+01  0.7957747E-01            NaN
         13   -1    0    0    0    0  0.00000000000E+00  0.00000000000E+00  0.74505805969E-08  0.10566000000E+00  0.10566000000E+00 0. -1.
     999900   -1    0    0    0    0 -0.00000000000E+00 -0.00000000000E+00 -0.74505805969E-08  0.93827000000E+00  0.93827000000E+00 0. -1.
     999902    2    1    2    0    0 -0.19197449013E-01  0.61160053571E-02  0.47791401824E-03  0.10237761921E+01  0.10235778014E+01 0.  0.
     999903    2    3    3    0    0  0.11304378413E+00  0.59183889555E-01 -0.27532575075E-01  0.13187455429E+00  0.18741010240E-01 0.  0.
         14    1    1    2    0    0  0.19197449013E-01 -0.61160053571E-02 -0.47791401824E-03  0.20153807877E-01  0.00000000000E+00 0.  1.
     999901    1    3    3    0    0 -0.13224123314E+00 -0.53067884198E-01  0.28010489094E-01  0.89190163784E+00  0.88000000000E+00 0.  1.
        -11    1    4    4    0    0  0.65030672108E-03  0.40211761439E-03  0.14971212432E-02  0.17570117883E-02  0.51100000000E-03 0. -1.
         11    1    4    4    0    0  0.11239347741E+00  0.58781771940E-01 -0.29029696319E-01  0.13011754250E+00  0.51100000000E-03 0.  1.
</event>
<event>
 8    1  0.1065239E+005  0.1043930E+01  0.7957747E-01            NaN
         13   -1    0    0    0    0  0.00000000000E+00  0.00000000000E+00  0.74505805969E-08  0.10566000000E+00  0.10566000000E+00 0.  1.
     999900   -1    0    0    0    0 -0.00000000000E+00 -0.00000000000E+00 -0.74505805969E-08  0.93827000000E+00  0.93827000000E+00 0.  1.
     999902    2    1    2    0    0  0.22680012405E-01 -0.84126485890E-02  0.22186103321E-02  0.10196384819E+01  0.10193490844E+01 0.  0.
     999903    2    3    3    0    0  0.91410750880E-01 -0.93299790631E-01 -0.83443633733E-02  0.13282321496E+00  0.22618614546E-01 0.  0.
         14    1    1    2    0    0 -0.22680012405E-01  0.84126485890E-02 -0.22186103321E-02  0.24291518083E-01  0.00000000000E+00 0.  1.
     999901    1    3    3    0    0 -0.68730738475E-01  0.84887142042E-01  0.10562973705E-01  0.88681526696E+00  0.88000000000E+00 0.  1.
        -11    1    4    4    0    0  0.48015971016E-01 -0.60153742580E-01  0.30888561680E-02  0.77031216869E-01  0.51100000000E-03 0. -1.
         11    1    4    4    0    0  0.43394779864E-01 -0.33146048051E-01 -0.11433219541E-01  0.55791998090E-01  0.51100000000E-03 0.  1.
</event>
<event>
 8    1  0.1065239E+005  0.1043930E+01  0.7957747E-01            NaN
         13   -1    0    0    0    0  0.00000000000E+00  0.00000000000E+00  0.74505805969E-08  0.10566000000E+00  0.10566000000E+00 0.  1.
     999900   -1    0    0    0    0 -0.00000000000E+00 -0.00000000000E+00 -0.74505805969E-08  0.93827000000E+00  0.93827000000E+00 0.  1.
     999902    2    1    2    0    0  0.23947143348E-01 -0.47573094689E-02 -0.45267016048E-02  0.10190987959E+01  0.10187962344E+01 0.  0.
     999903    2    3    3    0    0  0.58494754625E-01  0.11426973150E+00  0.81510022933E-02  0.13032340355E+00  0.20941413967E-01 0.  0.
         14    1    1    2    0    0 -0.23947143348E-01  0.47573094689E-02  0.45267016048E-02  0.24831204066E-01  0.00000000000E+00 0. -1.
     999901    1    3    3    0    0 -0.34547611276E-01 -0.11902704097E+00 -0.12677703898E-01  0.88877539238E+00  0.88000000000E+00 0. -1.
        -11    1    4    4    0    0  0.57128756679E-01  0.95855783171E-01  0.74590388771E-02  0.11183883221E+00  0.51100000000E-03 0.  1.
         11    1    4    4    0    0  0.13659979459E-02  0.18413948331E-01  0.69196341620E-03  0.18484571348E-01  0.51100000000E-03 0. -1.
</event>
<event>
 8    1  0.1065239E+005  0.1043930E+01  0.7957747E-01            NaN
         13   -1    0    0    0    0  0.00000000000E+00  0.00000000000E+00  0.74505805969E-08  0.10566000000E+00  0.10566000000E+00 0.  1.
     999900   -1    0    0    0    0 -0.00000000000E+00 -0.00000000000E+00 -0.74505805969E-08  0.93827000000E+00  0.93827000000E+00 0. -1.
     999902    2    1    2    0    0 -0.17601492412E-01  0.99102444737E-02  0.12571900487E-01  0.10201376028E+01  0.10198601132E+01 0.  0.
     999903    2    3    3    0    0 -0.22015947922E-01 -0.11758500186E+00  0.48653324594E-01  0.13020704689E+00  0.16607059926E-01 0.  0.
         14    1    1    2    0    0  0.17601492412E-01 -0.99102444737E-02 -0.12571900487E-01  0.23792397158E-01  0.00000000000E+00 0. -1.
     999901    1    3    3    0    0  0.44144555098E-02  0.12749524634E+00 -0.36081424107E-01  0.88993055595E+00  0.88000000000E+00 0. -1.
        -11    1    4    4    0    0 -0.22960701764E-01 -0.81707848383E-01  0.34881719948E-01  0.91762529501E-01  0.51100000000E-03 0. -1.
         11    1    4    4    0    0  0.94475384207E-03 -0.35877153479E-01  0.13771604645E-01  0.38444517387E-01  0.51100000000E-03 0.  1.
</event>
<event>
 8    1  0.1065239E+005  0.1043930E+01  0.7957747E-01            NaN
         13   -1    0    0    0    0  0.00000000000E+00  0.00000000000E+00  0.74505805969E-08  0.10566000000E+00  0.10566000000E+00 0.  1.
     999900   -1    0    0    0    0 -0.00000000000E+00 -0.00000000000E+00 -0.74505805969E-08  0.93827000000E+00  0.93827000000E+00 0. -1.
     999902    2    1    2    0    0  0.12781473980E-01 -0.61364205881E-02  0.18475896629E-01  0.10206409362E+01  0.10203751958E+01 0.  0.
     999903    2    3    3    0    0  0.12278430785E+00 -0.37620996547E-01 -0.23856107107E-01  0.13222442326E+00  0.20563526573E-01 0.  0.
         14    1    1    2    0    0 -0.12781473980E-01  0.61364205881E-02 -0.18475896629E-01  0.23289063764E-01  0.00000000000E+00 0. -1.
     999901    1    3    3    0    0 -0.11000283387E+00  0.31484575959E-01  0.42332003737E-01  0.88841651297E+00  0.88000000000E+00 0.  1.
        -11    1    4    4    0    0  0.72566129989E-01 -0.23523214795E-01 -0.24295068152E-01  0.80060579022E-01  0.51100000000E-03 0. -1.
         11    1    4    4    0    0  0.50218177862E-01 -0.14097781752E-01  0.43896104494E-03  0.52163844241E-01  0.51100000000E-03 0.  1.
</event>
<event>
 8    1  0.1065239E+005  0.1043930E+01  0.7957747E-01            NaN
         13   -1    0    0    0    0  0.00000000000E+00  0.00000000000E+00  0.74505805969E-08  0.10566000000E+00  0.10566000000E+00 0. -1.
     999900   -1    0    0    0    0 -0.00000000000E+00 -0.00000000000E+00 -0.74505805969E-08  0.93827000000E+00  0.93827000000E+00 0. -1.
     999902    2    1    2    0    0 -0.10908719542E-01  0.85394218002E-02 -0.20452698648E-01  0.10192270696E+01  0.10189276641E+01 0.  0.
     999903    2    3    3    0    0  0.77358572337E-01 -0.80787104304E-01 -0.61711313289E-01  0.12935482242E+00  0.20334182038E-01 0.  0.
         14    1    1    2    0    0  0.10908719542E-01 -0.85394218002E-02  0.20452698648E-01  0.24702930367E-01  0.00000000000E+00 0. -1.
     999901    1    3    3    0    0 -0.88267291879E-01  0.89326526104E-01  0.41258614642E-01  0.88987224722E+00  0.88000000000E+00 0. -1.
        -11    1    4    4    0    0  0.25181581893E-01 -0.34553883002E-01 -0.14470297650E-01  0.45141261970E-01  0.51100000000E-03 0. -1.
         11    1    4    4    0    0  0.52176990444E-01 -0.46233221302E-01 -0.47241015640E-01  0.84213560449E-01  0.51100000000E-03 0.  1.
</event>
<event>
 8    1  0.1065239E+005  0.1043930E+01  0.7957747E-01            NaN
         13   -1    0    0    0    0  0.00000000000E+00  0.00000000000E+00  0.74505805969E-08  0.10566000000E+00  0.10566000000E+00 0. -1.
     999900   -1    0    0    0    0 -0.00000000000E+00 -0.00000000000E+00 -0.74505805969E-08  0.93827000000E+00  0.93827000000E+00 0.  1.
     999902    2    1    2    0    0 -0.21900054944E-01  0.88101374674E-02  0.46645949479E-02  0.10198678020E+01  0.10195839073E+01 0.  0.
     999903    2    3    3    0    0 -0.96650991614E-01  0.51539974858E-01 -0.71556551905E-01  0.13238641918E+00  0.20200016721E-01 0.  0.
         14    1    1    2    0    0  0.21900054944E-01 -0.88101374674E-02 -0.46645949479E-02  0.24062198045E-01  0.00000000000E+00 0.  1.
     999901    1    3    3    0    0  0.74750936669E-01 -0.42729837391E-01  0.76221146853E-01  0.88748138277E+00  0.88000000000E+00 0. -1.
        -11    1    4    4    0    0 -0.35497858790E-01  0.23160061814E-01 -0.38656018565E-01  0.57367546001E-01  0.51100000000E-03 0.  1.
         11    1    4    4    0    0 -0.61153132824E-01  0.28379913044E-01 -0.32900533341E-01  0.75018873183E-01  0.51100000000E-03 0. -1.
</event>
<event>
 8    1  0.1065239E+005  0.1043930E+01  0.7957747E-01            NaN
         13   -1    0    0    0    0  0.00000000000E+00  0.00000000000E+00  0.74505805969E-08  0.10566000000E+00  0.10566000000E+00 0. -1.
     999900   -1    0    0    0    0 -0.00000000000E+00 -0.00000000000E+00 -0.74505805969E-08  0.93827000000E+00  0.93827000000E+00 0. -1.
     999902    2    1    2    0    0 -0.17511699560E-01 -0.14494927611E-01 -0.90712245364E-02  0.10194545089E+01  0.10191606577E+01 0.  0.
     999903    2    3    3    0    0 -0.34964272037E-02  0.12525803418E+00  0.15622818261E-01  0.12797421531E+00  0.20773232840E-01 0.  0.
         14    1    1    2    0    0  0.17511699560E-01  0.14494927611E-01  0.90712245364E-02  0.24475491058E-01  0.00000000000E+00 0. -1.
     999901    1    3    3    0    0 -0.14015272357E-01 -0.13975296179E+00 -0.24694042797E-01  0.89148029363E+00  0.88000000000E+00 0. -1.
        -11    1    4    4    0    0 -0.54773394341E-02  0.63799537924E-01 -0.17984669268E-02  0.64061516457E-01  0.51100000000E-03 0. -1.
         11    1    4    4    0    0  0.19809122304E-02  0.61458496259E-01  0.17421285188E-01  0.63912698850E-01  0.51100000000E-03 0.  1.
</event>
<event>
 8    1  0.1065239E+005  0.1043930E+01  0.7957747E-01            NaN
         13   -1    0    0    0    0  0.00000000000E+00  0.00000000000E+00  0.74505805969E-08  0.10566000000E+00  0.10566000000E+00 0. -1.
     999900   -1    0    0    0    0 -0.00000000000E+00 -0.00000000000E+00 -0.74505805969E-08  0.93827000000E+00  0.93827000000E+00 0. -1.
     999902    2    1    2    0    0 -0.88992118755E-02  0.22980963520E-01 -0.17754145951E-03  0.10192854838E+01  0.10189875099E+01 0.  0.
     999903    2    3    3    0    0 -0.12489134373E+00  0.33592778532E-01 -0.12713044230E-01  0.13152204456E+00  0.20251029711E-01 0.  0.
         14    1    1    2    0    0  0.88992118755E-02 -0.22980963520E-01  0.17754145951E-03  0.24644516170E-01  0.00000000000E+00 0.  1.
     999901    1    3    3    0    0  0.11599213185E+00 -0.10611815012E-01  0.12535502771E-01  0.88776343927E+00  0.88000000000E+00 0. -1.
        -11    1    4    4    0    0 -0.58869106824E-01  0.25538153621E-01 -0.24276215289E-02  0.64217781774E-01  0.51100000000E-03 0.  1.
         11    1    4    4    0    0 -0.66022236905E-01  0.80546249105E-02 -0.10285422701E-01  0.67304262789E-01  0.51100000000E-03 0. -1.
</event>
<event>
 8    1  0.1065239E+005  0.1043930E+01  0.7957747E-01            NaN
         13   -1    0    0    0    0  0.00000000000E+00  0.00000000000E+00  0.74505805969E-08  0.10566000000E+00  0.10566000000E+00 0.  1.
     999900   -1    0    0    0    0 -0.00000000000E+00 -0.00000000000E+00 -0.74505805969E-08  0.93827000000E+00  0.93827000000E+00 0.  1.
     999902    2    1    2    0    0 -0.12814891367E-01 -0.13417044076E-02  0.19292574042E-01  0.10207303227E+01  0.10204666417E+01 0.  0.
     999903    2    3    3    0    0 -0.11129584194E+00 -0.31092041826E-01  0.65302688586E-01  0.13354347048E+00  0.14694824694E-01 0.  0.
         14    1    1    2    0    0  0.12814891367E-01  0.13417044076E-02 -0.19292574042E-01  0.23199677253E-01  0.00000000000E+00 0. -1.
     999901    1    3    3    0    0  0.98480950570E-01  0.29750337419E-01 -0.46010114543E-01  0.88718685227E+00  0.88000000000E+00 0.  1.
        -11    1    4    4    0    0 -0.84280319062E-01 -0.17373364479E-01  0.51034802030E-01  0.10004907853E+00  0.51100000000E-03 0. -1.
         11    1    4    4    0    0 -0.27015522876E-01 -0.13718677347E-01  0.14267886555E-01  0.33494391951E-01  0.51100000000E-03 0.  1.
</event>
<event>
 8    1  0.1065239E+005  0.1043930E+01  0.7957747E-01            NaN
         13   -1    0    0    0    0  0.00000000000E+00  0.00000000000E+00  0.74505805969E-08  0.10566000000E+00  0.10566000000E+00 0. -1.
     999900   -1    0    0    0    0 -0.00000000000E+00 -0.00000000000E+00 -0.74505805969E-08  0.93827000000E+00  0.93827000000E+00 0. -1.
     999902    2    1    2    0    0  0.19838889935E-02 -0.22845160617E-01 -0.61655840037E-02  0.10201844403E+01  0.10199080550E+01 0.  0.
     999903    2    3    3    0    0 -0.95408296726E-01  0.67320137324E-01 -0.51729975432E-01  0.12906652860E+00  0.18639594233E-01 0.  0.
         14    1    1    2    0    0 -0.19838889935E-02  0.22845160617E-01  0.61655840037E-02  0.23745559696E-01  0.00000000000E+00 0. -1.
     999901    1    3    3    0    0  0.97392185720E-01 -0.90165297942E-01  0.45564391429E-01  0.89111791170E+00  0.88000000000E+00 0. -1.
        -11    1    4    4    0    0 -0.68397709253E-01  0.48153452162E-01 -0.45958918636E-01  0.95443621628E-01  0.51100000000E-03 0. -1.
         11    1    4    4    0    0 -0.27010587473E-01  0.19166685162E-01 -0.57710567960E-02  0.33622906973E-01  0.51100000000E-03 0.  1.
</event>
<event>
 8    1  0.1065239E+005  0.1043930E+01  0.7957747E-01            NaN
         13   -1    0    0    0    0  0.00000000000E+00  0.00000000000E+00  0.74505805969E-08  0.10566000000E+00  0.10566000000E+00 0. -1.
     999900   -1    0    0    0    0 -0.00000000000E+00 -0.00000000000E+00 -0.74505805969E-08  0.93827000000E+00  0.93827000000E+00 0.  1.
     999902    2    1    2    0    0 -0.74140961889E-03 -0.99826760879E-02  0.20040874155E-01  0.10215282111E+01  0.10212825495E+01 0.  0.
     999903    2    3    3    0    0  0.58588446020E-01  0.64470124731E-01 -0.93185550792E-01  0.12918103950E+00  0.20376238591E-01 0.  0.
         14    1    1    2    0    0  0.74140961889E-03  0.99826760879E-02 -0.20040874155E-01  0.22401788924E-01  0.00000000000E+00 0.  1.
     999901    1    3    3    0    0 -0.59329855638E-01 -0.74452800819E-01  0.11322642495E+00  0.89234717158E+00  0.88000000000E+00 0. -1.
        -11    1    4    4    0    0  0.24878327206E-01  0.18073335355E-01 -0.22242049749E-01  0.37954532186E-01  0.51100000000E-03 0.  1.
         11    1    4    4    0    0  0.33710118814E-01  0.46396789376E-01 -0.70943501043E-01  0.91226507311E-01  0.51100000000E-03 0. -1.
</event>
<event>
 8    1  0.1065239E+005  0.1043930E+01  0.7957747E-01            NaN
         13   -1    0    0    0    0  0.00000000000E+00  0.00000000000E+00  0.74505805969E-08  0.10566000000E+00  0.10566000000E+00 0. -1.
     999900   -1    0    0    0    0 -0.00000000000E+00 -0.00000000000E+00 -0.74505805969E-08  0.93827000000E+00  0.93827000000E+00 0.  1.
     999902    2    1    2    0    0  0.65786304497E-02  0.22779876366E-01  0.52027487236E-02  0.10196551212E+01  0.10193661248E+01 0.  0.
     999903    2    3    3    0    0  0.50729670936E-01 -0.92797614549E-01 -0.68117215243E-01  0.12798069190E+00  0.23541573997E-01 0.  0.
         14    1    1    2    0    0 -0.65786304497E-02 -0.22779876366E-01 -0.52027487236E-02  0.24274878787E-01  0.00000000000E+00 0. -1.
     999901    1    3    3    0    0 -0.44151040487E-01  0.11557749092E+00  0.73319963967E-01  0.89167442932E+00  0.88000000000E+00 0. -1.
        -11    1    4    4    0    0  0.28200763274E-01 -0.28241054840E-01 -0.27115832528E-01  0.48253183546E-01  0.51100000000E-03 0. -1.
         11    1    4    4    0    0  0.22528907663E-01 -0.64556559709E-01 -0.41001382715E-01  0.79727508349E-01  0.51100000000E-03 0.  1.
</event>
<event>
 8    1  0.1065239E+005  0.1043930E+01  0.7957747E-01            NaN
         13   -1    0    0    0    0  0.00000000000E+00  0.00000000000E+00  0.74505805969E-08  0.10566000000E+00  0.10566000000E+00 0. -1.
     999900   -1    0    0    0    0 -0.00000000000E+00 -0.00000000000E+00 -0.74505805969E-08  0.93827000000E+00  0.93827000000E+00 0.  1.
     999902    2    1    2    0    0 -0.41775829652E-03  0.23346041595E-01  0.39345593530E-02  0.10202510444E+01  0.10199762256E+01 0.  0.
     999903    2    3    3    0    0  0.11243390988E+00 -0.26502793093E-01  0.57909790559E-01  0.13000740871E+00  0.14303857652E-01 0.  0.
         14    1    1    2    0    0  0.41775829652E-03 -0.23346041595E-01 -0.39345593530E-02  0.23678955582E-01  0.00000000000E+00 0. -1.
     999901    1    3    3    0    0 -0.11285166818E+00  0.49848834688E-01 -0.53975231206E-01  0.89024363571E+00  0.88000000000E+00 0. -1.
        -11    1    4    4    0    0  0.63756651026E-01 -0.78014142382E-02  0.30933695948E-01  0.71294651133E-01  0.51100000000E-03 0. -1.
         11    1    4    4    0    0  0.48677258859E-01 -0.18701378855E-01  0.26976094611E-01  0.58712757579E-01  0.51100000000E-03 0.  1.
</event>
<event>
 8    1  0.1065239E+005  0.1043930E+01  0.7957747E-01            NaN
         13   -1    0    0    0    0  0.00000000000E+00  0.00000000000E+00  0.74505805969E-08  0.10566000000E+00  0.10566000000E+00 0.  1.
     999900   -1    0    0    0    0 -0.00000000000E+00 -0.00000000000E+00 -0.74505805969E-08  0.93827000000E+00  0.93827000000E+00 0. -1.
     999902    2    1    2    0    0 -0.45202774771E-02 -0.15528401897E-01  0.17234947406E-01  0.10202951193E+01  0.10200213345E+01 0.  0.
     999903    2    3    3    0    0  0.80715146035E-01  0.97526145712E-01 -0.92706318549E-02  0.12858386901E+00  0.20532482968E-01 0.  0.
         14    1    1    2    0    0  0.45202774771E-02  0.15528401897E-01 -0.17234947406E-01  0.23634880707E-01  0.00000000000E+00 0. -1.
     999901    1    3    3    0    0 -0.85235423512E-01 -0.11305454761E+00  0.26505579261E-01  0.89171125029E+00  0.88000000000E+00 0.  1.
        -11    1    4    4    0    0  0.56116023153E-01  0.76154702546E-01  0.36602546881E-03  0.94598847087E-01  0.51100000000E-03 0.  1.
         11    1    4    4    0    0  0.24599122881E-01  0.21371443166E-01 -0.96366573237E-02  0.33985021920E-01  0.51100000000E-03 0. -1.
</event>
<event>
 8    1  0.1065239E+005  0.1043930E+01  0.7957747E-01            NaN
         13   -1    0    0    0    0  0.00000000000E+00  0.00000000000E+00  0.74505805969E-08  0.10566000000E+00  0.10566000000E+00 0.  1.
     999900   -1    0    0    0    0 -0.00000000000E+00 -0.00000000000E+00 -0.74505805969E-08  0.93827000000E+00  0.93827000000E+00 0. -1.
     999902    2    1    2    0    0 -0.11830140305E-01  0.19230785524E-01 -0.97328895369E-02  0.10193433274E+01  0.10190467676E+01 0.  0.
     999903    2    3    3    0    0  0.96279158002E-01 -0.65692543052E-01 -0.48371677416E-01  0.12783194325E+00  0.20396079538E-01 0.  0.
         14    1    1    2    0    0  0.11830140305E-01 -0.19230785524E-01  0.97328895369E-02  0.24586672615E-01  0.00000000000E+00 0. -1.
     999901    1    3    3    0    0 -0.10810929831E+00  0.84923328576E-01  0.38638787879E-01  0.89151138414E+00  0.88000000000E+00 0. -1.
        -11    1    4    4    0    0  0.53618800814E-01 -0.47508886816E-01 -0.33849241332E-01  0.79234477262E-01  0.51100000000E-03 0.  1.
         11    1    4    4    0    0  0.42660357188E-01 -0.18183656235E-01 -0.14522436083E-01  0.48597465986E-01  0.51100000000E-03 0. -1.
</event>
<event>
 8    1  0.1065239E+005  0.1043930E+01  0.7957747E-01            NaN
         13   -1    0    0    0    0  0.00000000000E+00  0.00000000000E+00  0.74505805969E-08  0.10566000000E+00  0.10566000000E+00 0.  1.
     999900   -1    0    0    0    0 -0.00000000000E+00 -0.00000000000E+00 -0.74505805969E-08  0.93827000000E+00  0.93827000000E+00 0. -1.
     999902    2    1    2    0    0 -0.82281089416E-02 -0.17574389882E-01  0.12245150508E-01  0.10209843105E+01  0.10207264362E+01 0.  0.
     999903    2    3    3    0    0 -0.60657172673E-01  0.64023653244E-01  0.95693471986E-01  0.13173143884E+00  0.20435523651E-01 0.  0.
         14    1    1    2    0    0  0.82281089416E-02  0.17574389882E-01 -0.12245150508E-01  0.22945689517E-01  0.00000000000E+00 0.  1.
     999901    1    3    3    0    0  0.52429063731E-01 -0.81598043126E-01 -0.83448321479E-01  0.88925287164E+00  0.88000000000E+00 0.  1.
        -11    1    4    4    0    0 -0.31034931664E-01  0.18267813605E-01  0.38789108796E-01  0.52931428088E-01  0.51100000000E-03 0.  1.
         11    1    4    4    0    0 -0.29622241008E-01  0.45755839639E-01  0.56904363191E-01  0.78800010752E-01  0.51100000000E-03 0. -1.
</event>
<event>
 8    1  0.1065239E+005  0.1043930E+01  0.7957747E-01            NaN
         13   -1    0    0    0    0  0.00000000000E+00  0.00000000000E+00  0.74505805969E-08  0.10566000000E+00  0.10566000000E+00 0. -1.
     999900   -1    0    0    0    0 -0.00000000000E+00 -0.00000000000E+00 -0.74505805969E-08  0.93827000000E+00  0.93827000000E+00 0.  1.
     999902    2    1    2    0    0 -0.22326892511E-01  0.29541457175E-02  0.46508030023E-02  0.10209333247E+01  0.10206742901E+01 0.  0.
     999903    2    3    3    0    0 -0.47314289066E-01  0.10631755428E+00 -0.59815180038E-01  0.13219026443E+00  0.18824078959E-01 0.  0.
         14    1    1    2    0    0  0.22326892511E-01 -0.29541457175E-02 -0.46508030023E-02  0.22996675296E-01  0.00000000000E+00 0. -1.
     999901    1    3    3    0    0  0.24987396555E-01 -0.10336340856E+00  0.64465983041E-01  0.88874306027E+00  0.88000000000E+00 0. -1.
        -11    1    4    4    0    0 -0.38122723800E-01  0.98859274636E-01 -0.55222366685E-01  0.11948334258E+00  0.51100000000E-03 0. -1.
         11    1    4    4    0    0 -0.91915652665E-02  0.74582796454E-02 -0.45928133537E-02  0.12706921847E-01  0.51100000000E-03 0.  1.
</event>
<event>
 8    1  0.1065239E+005  0.1043930E+01  0.7957747E-01            NaN
         13   -1    0    0    0    0  0.00000000000E+00  0.00000000000E+00  0.74505805969E-08  0.10566000000E+00  0.10566000000E+00 0. -1.
     999900   -1    0    0    0    0 -0.00000000000E+00 -0.00000000000E+00 -0.74505805969E-08  0.93827000000E+00  0.93827000000E+00 0.  1.
     999902    2    1    2    0    0  0.71688908331E-02 -0.79301045698E-02 -0.21233154632E-01  0.10201576124E+01  0.10198805949E+01 0.  0.
     999903    2    3    3    0    0 -0.75497322253E-01  0.95523715310E-01 -0.40711908003E-01  0.13003637494E+00  0.20673013801E-01 0.  0.
         14    1    1    2    0    0 -0.71688908331E-02  0.79301045698E-02  0.21233154632E-01  0.23772387552E-01  0.00000000000E+00 0. -1.
     999901    1    3    3    0    0  0.82666213086E-01 -0.10345381988E+00  0.19478753371E-01  0.89012123751E+00  0.88000000000E+00 0. -1.
        -11    1    4    4    0    0 -0.54738618197E-02  0.18933214361E-01 -0.60008413347E-02  0.20608274721E-01  0.51100000000E-03 0.  1.
         11    1    4    4    0    0 -0.70023460434E-01  0.76590500949E-01 -0.34711066669E-01  0.10942810022E+00  0.51100000000E-03 0. -1.
</event>
<event>
 8    1  0.1065239E+005  0.1043930E+01  0.7957747E-01            NaN
         13   -1    0    0    0    0  0.00000000000E+00  0.00000000000E+00  0.74505805969E-08  0.10566000000E+00  0.10566000000E+00 0. -1.
     999900   -1    0    0    0    0 -0.00000000000E+00 -0.00000000000E+00 -0.74505805969E-08  0.93827000000E+00  0.93827000000E+00 0. -1.
     999902    2    1    2    0    0 -0.74054377881E-02  0.10833034874E-01  0.20045736154E-01  0.10199711459E+01  0.10196897134E+01 0.  0.
     999903    2    3    3    0    0 -0.73054920866E-02 -0.12245799979E+00  0.37572113921E-01  0.12976123589E+00  0.19416041479E-01 0.  0.
         14    1    1    2    0    0  0.74054377881E-02 -0.10833034874E-01 -0.20045736154E-01  0.23958854133E-01  0.00000000000E+00 0.  1.
     999901    1    3    3    0    0 -0.99945701485E-04  0.13329103466E+00 -0.17526377768E-01  0.89020990998E+00  0.88000000000E+00 0. -1.
        -11    1    4    4    0    0 -0.13207353595E-01 -0.59453628702E-01  0.19447235981E-01  0.63934531070E-01  0.51100000000E-03 0.  1.
         11    1    4    4    0    0  0.59018615089E-02 -0.63004371089E-01  0.18124877940E-01  0.65826704816E-01  0.51100000000E-03 0. -1.
</event>
<event>
 8    1  0.1065239E+005  0.1043930E+01  0.7957747E-01            NaN
         13   -1    0    0    0    0  0.00000000000E+00  0.00000000000E+00  0.74505805969E-08  0.10566000000E+00  0.10566000000E+00 0. -1.
     999900   -1    0    0    0    0 -0.00000000000E+00 -0.00000000000E+00 -0.74505805969E-08  0.93827000000E+00  0.93827000000E+00 0.  1.
     999902    2    1    2    0    0 -0.53966315432E-02  0.12133517942E-01 -0.19250834594E-01  0.10205432405E+01  0.10202752399E+01 0.  0.
     999903    2    3    3    0    0 -0.59863050126E-01 -0.28604104701E-01 -0.11200398244E+00  0.13305842870E+00  0.27529507615E-01 0.  0.
         14    1    1    2    0    0  0.53966315432E-02 -0.12133517942E-01  0.19250834594E-01  0.23386759550E-01  0.00000000000E+00 0. -1.
     999901    1    3    3    0    0  0.54466418583E-01  0.40737622644E-01  0.92753147846E-01  0.88748481175E+00  0.88000000000E+00 0. -1.
        -11    1    4    4    0    0 -0.15674562538E-01 -0.16172387550E-01 -0.19522233324E-01  0.29809675356E-01  0.51100000000E-03 0.  1.
         11    1    4    4    0    0 -0.44188487588E-01 -0.12431717151E-01 -0.92481749116E-01  0.10324875334E+00  0.51100000000E-03 0. -1.
</event>
<event>
 8    1  0.1065239E+005  0.1043930E+01  0.7957747E-01            NaN
         13   -1    0    0    0    0  0.00000000000E+00  0.00000000000E+00  0.74505805969E-08  0.10566000000E+00  0.10566000000E+00 0.  1.
     999900   -1    0    0    0    0 -0.00000000000E+00 -0.00000000000E+00 -0.74505805969E-08  0.93827000000E+00  0.93827000000E+00 0.  1.
     999902    2    1    2    0    0 -0.19207532859E-01  0.10708887775E-01 -0.76584914916E-02  0.10206434784E+01  0.10203777967E+01 0.  0.
     999903    2    3    3    0    0  0.25142103213E-01  0.79997578155E-01 -0.99764140411E-01  0.13202023800E+00  0.21088424892E-01 0.  0.
         14    1    1    2    0    0  0.19207532859E-01 -0.10708887775E-01  0.76584914916E-02  0.23286521592E-01  0.00000000000E+00 0.  1.
     999901    1    3    3    0    0 -0.44349636073E-01 -0.69288690380E-01  0.92105648919E-01  0.88862324041E+00  0.88000000000E+00 0. -1.
        -11    1    4    4    0    0  0.53673434452E-02  0.51092257982E-01 -0.61812062144E-01  0.80375489727E-01  0.51100000000E-03 0. -1.
         11    1    4    4    0    0  0.19774759768E-01  0.28905320173E-01 -0.37952078267E-01  0.51644748271E-01  0.51100000000E-03 0.  1.
</event>
<event>
 8    1  0.1065239E+005  0.1043930E+01  0.7957747E-01            NaN
         13   -1    0    0    0    0  0.00000000000E+00  0.00000000000E+00  0.74505805969E-08  0.10566000000E+00  0.10566000000E+00 0.  1.
     999900   -1    0    0    0    0 -0.00000000000E+00 -0.00000000000E+00 -0.74505805969E-08  0.93827000000E+00  0.93827000000E+00 0.  1.
     999902    2    1    2    0    0 -0.13407358383E-01 -0.12811769140E-01 -0.14387245183E-01  0.10204589218E+01  0.10201889627E+01 0.  0.
     999903    2    3    3    0    0  0.99709877693E-01  0.66166773472E-01 -0.44329709332E-01  0.12920717822E+00  0.20230426441E-01 0.  0.
         14    1    1    2    0    0  0.13407358383E-01  0.12811769140E-01  0.14387245183E-01  0.23471078187E-01  0.00000000000E+00 0.  1.
     999901    1    3    3    0    0 -0.11311723608E+00 -0.78978542613E-01  0.29942464149E-01  0.89125174359E+00  0.88000000000E+00 0.  1.
        -11    1    4    4    0    0  0.20586665198E-01  0.23451487370E-01 -0.79361631547E-02  0.32202901274E-01  0.51100000000E-03 0. -1.
         11    1    4    4    0    0  0.79123212494E-01  0.42715286102E-01 -0.36393546177E-01  0.97004276950E-01  0.51100000000E-03 0.  1.
</event>
<event>
 8    1  0.1065239E+005  0.1043930E+01  0.7957747E-01            NaN
         13   -1    0    0    0    0  0.00000000000E+00  0.00000000000E+00  0.74505805969E-08  0.10566000000E+00  0.10566000000E+00 0.  1.
     999900   -1    0    0    0    0 -0.00000000000E+00 -0.00000000000E+00 -0.74505805969E-08  0.93827000000E+00  0.93827000000E+00 0.  1.
     999902    2    1    2    0    0  0.22597501173E-01  0.58951879493E-02 -0.52457077624E-02  0.10199942997E+01  0.10197134174E+01 0.  0.
     999903    2    3    3    0    0 -0.44274997713E-01  0.16311844663E-01  0.11725824562E+00  0.12893444958E+00  0.25460644626E-01 0.  0.
         14    1    1    2    0    0 -0.22597501173E-01 -0.58951879493E-02  0.52457077624E-02  0.23935700328E-01  0.00000000000E+00 0. -1.
     999901    1    3    3    0    0  0.66872498886E-01 -0.10416656714E-01 -0.12250395338E+00  0.89105985009E+00  0.88000000000E+00 0.  1.
        -11    1    4    4    0    0 -0.27388968299E-01  0.11710504224E-02  0.40610726122E-01  0.49000195313E-01  0.51100000000E-03 0.  1.
         11    1    4    4    0    0 -0.16886029414E-01  0.15140794241E-01  0.76647519499E-01  0.79934254272E-01  0.51100000000E-03 0. -1.
</event>
<event>
 8    1  0.1065239E+005  0.1043930E+01  0.7957747E-01            NaN
         13   -1    0    0    0    0  0.00000000000E+00  0.00000000000E+00  0.74505805969E-08  0.10566000000E+00  0.10566000000E+00 0. -1.
     999900   -1    0    0    0    0 -0.00000000000E+00 -0.00000000000E+00 -0.74505805969E-08  0.93827000000E+00  0.93827000000E+00 0. -1.
     999902    2    1    2    0    0 -0.20251393965E-01  0.99092218286E-02  0.86537310450E-02  0.10197804928E+01  0.10194945095E+01 0.  0.
     999903    2    3    3    0    0 -0.87261019571E-01  0.15610802423E-01 -0.94588501542E-01  0.13119636259E+00  0.20182126880E-01 0.  0.
         14    1    1    2    0    0  0.20251393965E-01 -0.99092218286E-02 -0.86537310450E-02  0.24149507154E-01  0.00000000000E+00 0.  1.
     999901    1    3    3    0    0  0.67009625606E-01 -0.57015805939E-02  0.10324223259E+00  0.88858413025E+00  0.88000000000E+00 0. -1.
        -11    1    4    4    0    0 -0.36841863456E-02 -0.35753774069E-02 -0.51136526407E-02  0.72640978077E-02  0.51100000000E-03 0.  1.
         11    1    4    4    0    0 -0.83576833225E-01  0.19186179829E-01 -0.89474848901E-01  0.12393226479E+00  0.51100000000E-03 0. -1.
</event>
<event>
 8    1  0.1065239E+005  0.1043930E+01  0.7957747E-01            NaN
         13   -1    0    0    0    0  0.00000000000E+00  0.00000000000E+00  0.74505805969E-08  0.10566000000E+00  0.10566000000E+00 0.  1.
     999900   -1    0    0    0    0 -0.00000000000E+00 -0.00000000000E+00 -0.74505805969E-08  0.93827000000E+00  0.93827000000E+00 0.  1.
     999902    2    1    2    0    0  0.15333098861E-01  0.98619668606E-02  0.15055459987E-01  0.10202862019E+01  0.10200122081E+01 0.  0.
     999903    2    3    3    0    0  0.52105445271E-01 -0.15235379269E-01  0.11980265865E+00  0.13295646736E+00  0.19433244386E-01 0.  0.
         14    1    1    2    0    0 -0.15333098861E-01 -0.98619668606E-02 -0.15055459987E-01  0.23643798055E-01  0.00000000000E+00 0. -1.
     999901    1    3    3    0    0 -0.36772346409E-01  0.25097346129E-01 -0.10474719866E+00  0.88732973458E+00  0.88000000000E+00 0.  1.
        -11    1    4    4    0    0  0.28491838428E-01 -0.15632772997E-01  0.83938019582E-01  0.90011225416E-01  0.51100000000E-03 0.  1.
         11    1    4    4    0    0  0.23613606842E-01  0.39739372887E-03  0.35864639063E-01  0.42945241949E-01  0.51100000000E-03 0. -1.
</event>
<event>
 8    1  0.1065239E+005  0.1043930E+01  0.7957747E-01            NaN
         13   -1    0    0    0    0  0.00000000000E+00  0.00000000000E+00  0.74505805969E-08  0.10566000000E+00  0.10566000000E+00 0. -1.
     999900   -1    0    0    0    0 -0.00000000000E+00 -0.00000000000E+00 -0.74505805969E-08  0.93827000000E+00  0.93827000000E+00 0. -1.
     999902    2    1    2    0    0 -0.12714556866E-01  0.16860639894E-02 -0.19784295175E-01  0.10203520208E+01  0.10200795681E+01 0.  0.
     999903    2    3    3    0    0 -0.44963015137E-01  0.80518117872E-01 -0.94124859853E-01  0.13311982157E+00  0.18882733271E-01 0.  0.
         14    1    1    2    0    0  0.12714556866E-01 -0.16860639894E-02  0.19784295175E-01  0.23577979211E-01  0.00000000000E+00 0.  1.
     999901    1    3    3    0    0  0.32248458271E-01 -0.78832053883E-01  0.74340564678E-01  0.88723219922E+00  0.88000000000E+00 0.  1.
        -11    1    4    4    0    0 -0.39163618407E-01  0.54048213467E-01 -0.62131469132E-01  0.91189796376E-01  0.51100000000E-03 0. -1.
         11    1    4    4    0    0 -0.57993967305E-02  0.26469904405E-01 -0.31993390721E-01  0.41930025191E-01  0.51100000000E-03 0.  1.
</event>
<event>
 8    1  0.1065239E+005  0.1043930E+01  0.7957747E-01            NaN
         13   -1    0    0    0    0  0.00000000000E+00  0.00000000000E+00  0.74505805969E-08  0.10566000000E+00  0.10566000000E+00 0. -1.
     999900   -1    0    0    0    0 -0.00000000000E+00 -0.00000000000E+00 -0.74505805969E-08  0.93827000000E+00  0.93827000000E+00 0.  1.
     999902    2    1    2    0    0 -0.98920865786E-02  0.17839445520E-01  0.12259862876E-01  0.10201307683E+01  0.10198531173E+01 0.  0.
     999903    2    3    3    0    0  0.88621504955E-01  0.94217504624E-01  0.15507087506E-01  0.13133997168E+00  0.16703564890E-01 0.  0.
         14    1    1    2    0    0  0.98920865786E-02 -0.17839445520E-01 -0.12259862876E-01  0.23799231733E-01  0.00000000000E+00 0.  1.
     999901    1    3    3    0    0 -0.98513591534E-01 -0.76378059105E-01 -0.32472246301E-02  0.88879079659E+00  0.88000000000E+00 0. -1.
        -11    1    4    4    0    0  0.75254163278E-01  0.74362693605E-01  0.17817254444E-01  0.10728800011E+00  0.51100000000E-03 0.  1.
         11    1    4    4    0    0  0.13367341677E-01  0.19854811019E-01 -0.23101669378E-02  0.24051971570E-01  0.51100000000E-03 0. -1.
</event>
<event>
 8    1  0.1065239E+005  0.1043930E+01  0.7957747E-01            NaN
         13   -1    0    0    0    0  0.00000000000E+00  0.00000000000E+00  0.74505805969E-08  0.10566000000E+00  0.10566000000E+00 0.  1.
     999900   -1    0    0    0    0 -0.00000000000E+00 -0.00000000000E+00 -0.74505805969E-08  0.93827000000E+00  0.93827000000E+00 0. -1.
     999902    2    1    2    0    0 -0.13234668840E-01  0.10207342681E-01  0.17843322289E-01  0.10194814734E+01  0.10191882771E+01 0.  0.
     999903    2    3    3    0    0 -0.10750931425E+00 -0.68512497945E-01 -0.16606583466E-01  0.13028446591E+00  0.21119858385E-01 0.  0.
         14    1    1    2    0    0  0.13234668840E-01 -0.10207342681E-01 -0.17843322289E-01  0.24448526627E-01  0.00000000000E+00 0. -1.
     999901    1    3    3    0    0  0.94274645408E-01  0.78719840626E-01  0.34449905755E-01  0.88919700746E+00  0.88000000000E+00 0.  1.
        -11    1    4    4    0    0 -0.86037688416E-01 -0.46057815190E-01 -0.73752200149E-02  0.97869613054E-01  0.51100000000E-03 0.  1.
         11    1    4    4    0    0 -0.21471625832E-01 -0.22454682755E-01 -0.92313634508E-02  0.32414852856E-01  0.51100000000E-03 0. -1.
</event>
<event>
 8    1  0.1126851E+005  0.1043930E+01  0.7957747E-01            NaN
         13   -1    0    0    0    0  0.00000000000E+00  0.00000000000E+00  0.74505805969E-08  0.10566000000E+00  0.10566000000E+00 0.  1.
     999900   -1    0    0    0    0 -0.00000000000E+00 -0.00000000000E+00 -0.74505805969E-08  0.93827000000E+00  0.93827000000E+00 0. -1.
     999902    2    1    2    0    0 -0.49068443218E-02  0.10111192003E-01  0.21236725144E-01  0.10199026860E+01  0.10196196237E+01 0.  0.
     999903    2    3    3    0    0  0.91594869085E-01  0.71475414139E-01 -0.53332058723E-01  0.12937550953E+00  0.19883639214E-01 0.  0.
         14    1    1    2    0    0  0.49068443218E-02 -0.10111192003E-01 -0.21236725144E-01  0.24027314036E-01  0.00000000000E+00 0. -1.
     999901    1    3    3    0    0 -0.96501713406E-01 -0.61364222136E-01  0.74568783867E-01  0.89052717644E+00  0.88000000000E+00 0. -1.
        -11    1    4    4    0    0  0.49710284480E-01  0.50200486479E-01 -0.27964214877E-01  0.75983285402E-01  0.51100000000E-03 0.  1.
         11    1    4    4    0    0  0.41884584605E-01  0.21274927660E-01 -0.25367843846E-01  0.53392224123E-01  0.51100000000E-03 0. -1.
</event>
<event>
 8    1  0.1065239E+005  0.1043930E+01  0.7957747E-01            NaN
         13   -1    0    0    0    0  0.00000000000E+00  0.00000000000E+00  0.74505805969E-08  0.10566000000E+00  0.10566000000E+00 0. -1.
     999900   -1    0    0    0    0 -0.00000000000E+00 -0.00000000000E+00 -0.74505805969E-08  0.93827000000E+00  0.93827000000E+00 0.  1.
     999902    2    1    2    0    0 -0.24480522807E-02 -0.15114711803E-01 -0.20234929759E-01  0.10185548181E+01  0.10182386840E+01 0.  0.
     999903    2    3    3    0    0  0.11259181532E+00 -0.60732715723E-01  0.47869702589E-02  0.12954341837E+00  0.19829334895E-01 0.  0.
         14    1    1    2    0    0  0.24480522807E-02  0.15114711803E-01  0.20234929759E-01  0.25375181875E-01  0.00000000000E+00 0. -1.
     999901    1    3    3    0    0 -0.11503986760E+00  0.45618003920E-01 -0.25021900017E-01  0.88901139976E+00  0.88000000000E+00 0. -1.
        -11    1    4    4    0    0  0.88841593693E-01 -0.56542640611E-01  0.29495609552E-02  0.10535112723E+00  0.51100000000E-03 0.  1.
         11    1    4    4    0    0  0.23750221625E-01 -0.41900751122E-02  0.18374093037E-02  0.24192291140E-01  0.51100000000E-03 0. -1.
</event>
<event>
 8    1  0.1097747E+005  0.1043930E+01  0.7957747E-01            NaN
         13   -1    0    0    0    0  0.00000000000E+00  0.00000000000E+00  0.74505805969E-08  0.10566000000E+00  0.10566000000E+00 0. -1.
     999900   -1    0    0    0    0 -0.00000000000E+00 -0.00000000000E+00 -0.74505805969E-08  0.93827000000E+00  0.93827000000E+00 0.  1.
     999902    2    1    2    0    0  0.20250572625E-01  0.79188808429E-02  0.79435802560E-02  0.10207805976E+01  0.10205180712E+01 0.  0.
     999903    2    3    3    0    0  0.82207699125E-01  0.10269003044E+00 -0.13110823479E-01  0.13327648815E+00  0.16952299436E-01 0.  0.
         14    1    1    2    0    0 -0.20250572625E-01 -0.79188808429E-02 -0.79435802560E-02  0.23149402427E-01  0.00000000000E+00 0.  1.
     999901    1    3    3    0    0 -0.61957126500E-01 -0.94771149593E-01  0.21054403735E-01  0.88750410942E+00  0.88000000000E+00 0. -1.
        -11    1    4    4    0    0  0.47783987157E-01  0.62917120042E-01  0.23023691624E-03  0.79007515801E-01  0.51100000000E-03 0.  1.
         11    1    4    4    0    0  0.34423711967E-01  0.39772910394E-01 -0.13341060395E-01  0.54268972353E-01  0.51100000000E-03 0. -1.
</event>
<event>
 8    1  0.1065239E+005  0.1043930E+01  0.7957747E-01            NaN
         13   -1    0    0    0    0  0.00000000000E+00  0.00000000000E+00  0.74505805969E-08  0.10566000000E+00  0.10566000000E+00 0. -1.
     999900   -1    0    0    0    0 -0.00000000000E+00 -0.00000000000E+00 -0.74505805969E-08  0.93827000000E+00  0.93827000000E+00 0. -1.
     999902    2    1    2    0    0  0.39403436415E-02  0.23176243331E-01  0.69543794931E-02  0.10194141285E+01  0.10191192950E+01 0.  0.
     999903    2    3    3    0    0  0.12269144095E+00  0.23109348121E-01 -0.32350290110E-01  0.13056842496E+00  0.20355359811E-01 0.  0.
         14    1    1    2    0    0 -0.39403436415E-02 -0.23176243331E-01 -0.69543794931E-02  0.24515871534E-01  0.00000000000E+00 0. -1.
     999901    1    3    3    0    0 -0.11875109731E+00  0.66895209812E-04  0.39304669603E-01  0.88884570351E+00  0.88000000000E+00 0.  1.
        -11    1    4    4    0    0  0.84783609881E-01  0.98372582784E-02 -0.29468912196E-01  0.90297896221E-01  0.51100000000E-03 0.  1.
         11    1    4    4    0    0  0.37907831070E-01  0.13272089843E-01 -0.28813779141E-02  0.40270528739E-01  0.51100000000E-03 0. -1.
</event>
<event>
 8    1  0.1065239E+005  0.1043930E+01  0.7957747E-01            NaN
         13   -1    0    0    0    0  0.00000000000E+00  0.00000000000E+00  0.74505805969E-08  0.10566000000E+00  0.10566000000E+00 0.  1.
     999900   -1    0    0    0    0 -0.00000000000E+00 -0.00000000000E+00 -0.74505805969E-08  0.93827000000E+00  0.93827000000E+00 0. -1.
     999902    2    1    2    0    0  0.93040243692E-02 -0.16116495112E-01  0.14743693238E-01  0.10201879956E+01  0.10199116940E+01 0.  0.
     999903    2    3    3    0    0 -0.10648728522E-01  0.11100149268E+00  0.63100052351E-01  0.12951665740E+00  0.18926730870E-01 0.  0.
         14    1    1    2    0    0 -0.93040243692E-02  0.16116495112E-01 -0.14743693238E-01  0.23742004432E-01  0.00000000000E+00 0. -1.
     999901    1    3    3    0    0  0.19952752891E-01 -0.12711798779E+00 -0.48356359113E-01  0.89067133817E+00  0.88000000000E+00 0. -1.
        -11    1    4    4    0    0 -0.14977983341E-01  0.83009262585E-01  0.51990374297E-01  0.99086516744E-01  0.51100000000E-03 0. -1.
         11    1    4    4    0    0  0.43292548198E-02  0.27992230093E-01  0.11109678054E-01  0.30430140655E-01  0.51100000000E-03 0.  1.
</event>
<event>
 8    1  0.1065239E+005  0.1043930E+01  0.7957747E-01            NaN
         13   -1    0    0    0    0  0.00000000000E+00  0.00000000000E+00  0.74505805969E-08  0.10566000000E+00  0.10566000000E+00 0. -1.
     999900   -1    0    0    0    0 -0.00000000000E+00 -0.00000000000E+00 -0.74505805969E-08  0.93827000000E+00  0.93827000000E+00 0. -1.
     999902    2    1    2    0    0  0.27276454999E-02  0.13176042866E-01  0.19288078153E-01  0.10204123871E+01  0.10201413440E+01 0.  0.
     999903    2    3    3    0    0  0.12174570680E+00  0.21789008806E-01  0.42087694753E-01  0.13206599940E+00  0.19320355062E-01 0.  0.
         14    1    1    2    0    0 -0.27276454999E-02 -0.13176042866E-01 -0.19288078153E-01  0.23517612855E-01  0.00000000000E+00 0.  1.
     999901    1    3    3    0    0 -0.11901806130E+00 -0.86129659402E-02 -0.22799616600E-01  0.88834638774E+00  0.88000000000E+00 0.  1.
        -11    1    4    4    0    0  0.77672426869E-01  0.12975254270E-01  0.16908207258E-01  0.80545091177E-01  0.51100000000E-03 0.  1.
         11    1    4    4    0    0  0.44073279931E-01  0.88137545360E-02  0.25179487495E-01  0.51520908225E-01  0.51100000000E-03 0. -1.
</event>
<event>
 8    1  0.1065239E+005  0.1043930E+01  0.7957747E-01            NaN
         13   -1    0    0    0    0  0.00000000000E+00  0.00000000000E+00  0.74505805969E-08  0.10566000000E+00  0.10566000000E+00 0. -1.
     999900   -1    0    0    0    0 -0.00000000000E+00 -0.00000000000E+00 -0.74505805969E-08  0.93827000000E+00  0.93827000000E+00 0. -1.
     999902    2    1    2    0    0  0.13842201609E-01  0.11211155935E-01  0.16621811090E-01  0.10195664788E+01  0.10192753423E+01 0.  0.
     999903    2    3    3    0    0 -0.68942050774E-02 -0.58905483002E-01  0.11514308741E+00  0.13105492369E+00  0.20001911259E-01 0.  0.
         14    1    1    2    0    0 -0.13842201609E-01 -0.11211155935E-01 -0.16621811090E-01  0.24363521230E-01  0.00000000000E+00 0.  1.
     999901    1    3    3    0    0  0.20736406687E-01  0.70116638938E-01 -0.98521276321E-01  0.88851155508E+00  0.88000000000E+00 0. -1.
        -11    1    4    4    0    0 -0.12580629385E-01 -0.25536408005E-01  0.46653048849E-01  0.54654811841E-01  0.51100000000E-03 0. -1.
         11    1    4    4    0    0  0.56864243072E-02 -0.33369074998E-01  0.68490038562E-01  0.76400111851E-01  0.51100000000E-03 0.  1.
</event>
<event>
 8    1  0.1065239E+005  0.1043930E+01  0.7957747E-01            NaN
         13   -1    0    0    0    0  0.00000000000E+00  0.00000000000E+00  0.74505805969E-08  0.10566000000E+00  0.10566000000E+00 0.  1.
     999900   -1    0    0    0    0 -0.00000000000E+00 -0.00000000000E+00 -0.74505805969E-08  0.93827000000E+00  0.93827000000E+00 0. -1.
     999902    2    1    2    0    0  0.40432800599E-02  0.22857987387E-01  0.13613942417E-02  0.10206772777E+01  0.10204123755E+01 0.  0.
     999903    2    3    3    0    0 -0.29736824955E-01  0.90536531819E-01 -0.90017284495E-01  0.13271807603E+00  0.20732434602E-01 0.  0.
         14    1    1    2    0    0 -0.40432800599E-02 -0.22857987387E-01 -0.13613942417E-02  0.23252722320E-01  0.00000000000E+00 0.  1.
     999901    1    3    3    0    0  0.33780105015E-01 -0.67678544432E-01  0.91378678736E-01  0.88795920165E+00  0.88000000000E+00 0.  1.
        -11    1    4    4    0    0  0.27645866633E-02  0.15193895798E-01 -0.15176698261E-01  0.21658501795E-01  0.51100000000E-03 0. -1.
         11    1    4    4    0    0 -0.32501411619E-01  0.75342636021E-01 -0.74840586234E-01  0.11105957423E+00  0.51100000000E-03 0.  1.
</event>
<event>
 8    1  0.1065239E+005  0.1043930E+01  0.7957747E-01            NaN
         13   -1    0    0    0    0  0.00000000000E+00  0.00000000000E+00  0.74505805969E-08  0.10566000000E+00  0.10566000000E+00 0.  1.
     999900   -1    0    0    0    0 -0.00000000000E+00 -0.00000000000E+00 -0.74505805969E-08  0.93827000000E+00  0.93827000000E+00 0. -1.
     999902    2    1    2    0    0 -0.96132903282E-02  0.36674691794E-02 -0.20308526187E-01  0.10211637549E+01  0.10209099433E+01 0.  0.
     999903    2    3    3    0    0 -0.69954581195E-01 -0.58804400268E-01 -0.95414561824E-01  0.13370405301E+00  0.20523992327E-01 0.  0.
         14    1    1    2    0    0  0.96132903282E-02 -0.36674691794E-02  0.20308526187E-01  0.22766245123E-01  0.00000000000E+00 0.  1.
     999901    1    3    3    0    0  0.60341290867E-01  0.62471869448E-01  0.75106035637E-01  0.88745970187E+00  0.88000000000E+00 0.  1.
        -11    1    4    4    0    0 -0.43893251888E-01 -0.48912960729E-01 -0.64751738335E-01  0.92261281299E-01  0.51100000000E-03 0. -1.
         11    1    4    4    0    0 -0.26061329308E-01 -0.98914395396E-02 -0.30662823489E-01  0.41442771707E-01  0.51100000000E-03 0.  1.
</event>
<event>
 8    1  0.1065239E+005  0.1043930E+01  0.7957747E-01            NaN
         13   -1    0    0    0    0  0.00000000000E+00  0.00000000000E+00  0.74505805969E-08  0.10566000000E+00  0.10566000000E+00 0. -1.
     999900   -1    0    0    0    0 -0.00000000000E+00 -0.00000000000E+00 -0.74505805969E-08  0.93827000000E+00  0.93827000000E+00 0. -1.
     999902    2    1    2    0    0  0.23510882233E-01 -0.81633001932E-03  0.13491219906E-02  0.10203662968E+01  0.10200941778E+01 0.  0.
     999903    2    3    3    0    0 -0.87936709392E-01  0.13255666934E-02 -0.91460706968E-01  0.12849252897E+00  0.20264429345E-01 0.  0.
         14    1    1    2    0    0 -0.23510882233E-01  0.81633001932E-03 -0.13491219906E-02  0.23563703194E-01  0.00000000000E+00 0.  1.
     999901    1    3    3    0    0  0.11144759162E+00 -0.21418967128E-02  0.92809828958E-01  0.89187376783E+00  0.88000000000E+00 0.  1.
        -11    1    4    4    0    0 -0.48152480237E-01 -0.29550368770E-03 -0.35576109287E-01  0.59872108268E-01  0.51100000000E-03 0. -1.
         11    1    4    4    0    0 -0.39784229154E-01  0.16210703811E-02 -0.55884597680E-01  0.68620420703E-01  0.51100000000E-03 0.  1.
</event>
<event>
 8    1  0.1065239E+005  0.1043930E+01  0.7957747E-01            NaN
         13   -1    0    0    0    0  0.00000000000E+00  0.00000000000E+00  0.74505805969E-08  0.10566000000E+00  0.10566000000E+00 0.  1.
     999900   -1    0    0    0    0 -0.00000000000E+00 -0.00000000000E+00 -0.74505805969E-08  0.93827000000E+00  0.93827000000E+00 0.  1.
     999902    2    1    2    0    0  0.89181661157E-02 -0.51983363489E-02  0.20982240374E-01  0.10205460141E+01  0.10202780778E+01 0.  0.
     999903    2    3    3    0    0  0.27882967103E-01  0.11396445317E+00  0.56533840390E-01  0.13160093681E+00  0.18904365100E-01 0.  0.
         14    1    1    2    0    0 -0.89181661157E-02  0.51983363489E-02 -0.20982240374E-01  0.23383985947E-01  0.00000000000E+00 0.  1.
     999901    1    3    3    0    0 -0.18964800987E-01 -0.11916278952E+00 -0.35551600016E-01  0.88894507724E+00  0.88000000000E+00 0.  1.
        -11    1    4    4    0    0  0.20219756870E-01  0.61680170138E-01  0.22297926944E-01  0.68634835347E-01  0.51100000000E-03 0. -1.
         11    1    4    4    0    0  0.76632102333E-02  0.52284283034E-01  0.34235913446E-01  0.62966101467E-01  0.51100000000E-03 0.  1.
</event>
<event>
 8    1  0.1065239E+005  0.1043930E+01  0.7957747E-01            NaN
         13   -1    0    0    0    0  0.00000000000E+00  0.00000000000E+00  0.74505805969E-08  0.10566000000E+00  0.10566000000E+00 0. -1.
     999900   -1    0    0    0    0 -0.00000000000E+00 -0.00000000000E+00 -0.74505805969E-08  0.93827000000E+00  0.93827000000E+00 0. -1.
     999902    2    1    2    0    0 -0.12463276305E-02  0.14033323930E-01 -0.20210306100E-01  0.10192937668E+01  0.10189959956E+01 0.  0.
     999903    2    3    3    0    0  0.13680219342E-02 -0.81353729426E-01  0.94735746607E-01  0.12670308805E+00  0.21412848049E-01 0.  0.
         14    1    1    2    0    0  0.12463276305E-02 -0.14033323930E-01  0.20210306100E-01  0.24636233189E-01  0.00000000000E+00 0. -1.
     999901    1    3    3    0    0 -0.26143495647E-02  0.95387053356E-01 -0.11494605271E+00  0.89259067876E+00  0.88000000000E+00 0. -1.
        -11    1    4    4    0    0  0.25840820098E-03 -0.22356278570E-01  0.41904990706E-01  0.47499045605E-01  0.51100000000E-03 0.  1.
         11    1    4    4    0    0  0.11096137332E-02 -0.58997450856E-01  0.52830755901E-01  0.79204042448E-01  0.51100000000E-03 0. -1.
</event>
<event>
 8    1  0.1065239E+005  0.1043930E+01  0.7957747E-01            NaN
         13   -1    0    0    0    0  0.00000000000E+00  0.00000000000E+00  0.74505805969E-08  0.10566000000E+00  0.10566000000E+00 0.  1.
     999900   -1    0    0    0    0 -0.00000000000E+00 -0.00000000000E+00 -0.74505805969E-08  0.93827000000E+00  0.93827000000E+00 0.  1.
     999902    2    1    2    0    0 -0.11638975806E-01 -0.51041841614E-02 -0.19897738464E-01  0.10203198655E+01  0.10200466605E+01 0.  0.
     999903    2    3    3    0    0 -0.31862203083E-01 -0.75250188166E-01  0.97968962323E-01  0.12946521972E+00  0.22034852733E-01 0.  0.
         14    1    1    2    0    0  0.11638975806E-01  0.51041841614E-02  0.19897738464E-01  0.23610134471E-01  0.00000000000E+00 0.  1.
     999901    1    3    3    0    0  0.20223227278E-01  0.70146004004E-01 -0.11786670079E+00  0.89085464581E+00  0.88000000000E+00 0.  1.
        -11    1    4    4    0    0 -0.28339644326E-01 -0.40558832008E-01  0.52215063287E-01  0.71936279091E-01  0.51100000000E-03 0. -1.
         11    1    4    4    0    0 -0.35225587574E-02 -0.34691356158E-01  0.45753899036E-01  0.57528940632E-01  0.51100000000E-03 0.  1.
</event>
<event>
 8    1  0.1065239E+005  0.1043930E+01  0.7957747E-01            NaN
         13   -1    0    0    0    0  0.00000000000E+00  0.00000000000E+00  0.74505805969E-08  0.10566000000E+00  0.10566000000E+00 0. -1.
     999900   -1    0    0    0    0 -0.00000000000E+00 -0.00000000000E+00 -0.74505805969E-08  0.93827000000E+00  0.93827000000E+00 0.  1.
     999902    2    1    2    0    0  0.24820846496E-01  0.43094168730E-02  0.65684673166E-03  0.10187292670E+01  0.10184175188E+01 0.  0.
     999903    2    3    3    0    0  0.38291139598E-01  0.91399772385E-01 -0.82649063768E-01  0.13041285181E+00  0.18881589250E-01 0.  0.
         14    1    1    2    0    0 -0.24820846496E-01 -0.43094168730E-02 -0.65684673166E-03  0.25200732969E-01  0.00000000000E+00 0. -1.
     999901    1    3    3    0    0 -0.13470293102E-01 -0.87090355512E-01  0.83305910500E-01  0.88831641522E+00  0.88000000000E+00 0. -1.
        -11    1    4    4    0    0  0.13153870559E-01  0.55511679021E-01 -0.45867255775E-01  0.73202712325E-01  0.51100000000E-03 0. -1.
         11    1    4    4    0    0  0.25137269039E-01  0.35888093365E-01 -0.36781807994E-01  0.57210139489E-01  0.51100000000E-03 0.  1.
</event>
<event>
 8    1  0.1065239E+005  0.1043930E+01  0.7957747E-01            NaN
         13   -1    0    0    0    0  0.00000000000E+00  0.00000000000E+00  0.74505805969E-08  0.10566000000E+00  0.10566000000E+00 0. -1.
     999900   -1    0    0    0    0 -0.00000000000E+00 -0.00000000000E+00 -0.74505805969E-08  0.93827000000E+00  0.93827000000E+00 0.  1.
     999902    2    1    2    0    0 -0.89903368023E-02  0.22231387078E-01  0.32563916260E-02  0.10197294873E+01  0.10194422801E+01 0.  0.
     999903    2    3    3    0    0  0.95199289641E-02 -0.10782208452E+00  0.64356094297E-01  0.12788325109E+00  0.22275279544E-01 0.  0.
         14    1    1    2    0    0  0.89903368023E-02 -0.22231387078E-01 -0.32563916260E-02  0.24200512674E-01  0.00000000000E+00 0. -1.
     999901    1    3    3    0    0 -0.18510265766E-01  0.13005347160E+00 -0.61099702671E-01  0.89184623623E+00  0.88000000000E+00 0.  1.
        -11    1    4    4    0    0 -0.44746558074E-02 -0.65249582546E-01  0.33621677143E-01  0.73540525304E-01  0.51100000000E-03 0. -1.
         11    1    4    4    0    0  0.13994584771E-01 -0.42572501978E-01  0.30734417154E-01  0.54342725791E-01  0.51100000000E-03 0.  1.
</event>
<event>
 8    1  0.1065239E+005  0.1043930E+01  0.7957747E-01            NaN
         13   -1    0    0    0    0  0.00000000000E+00  0.00000000000E+00  0.74505805969E-08  0.10566000000E+00  0.10566000000E+00 0. -1.
     999900   -1    0    0    0    0 -0.00000000000E+00 -0.00000000000E+00 -0.74505805969E-08  0.93827000000E+00  0.93827000000E+00 0.  1.
     999902    2    1    2    0    0  0.25284745548E-02 -0.93648525173E-02  0.18378443047E-01  0.10231487388E+01  0.10229376721E+01 0.  0.
     999903    2    3    3    0    0  0.12472103032E+00  0.44142933947E-01 -0.54743007241E-02  0.13277631268E+00  0.97799396542E-02 0.  0.
         14    1    1    2    0    0 -0.25284745548E-02  0.93648525173E-02 -0.18378443047E-01  0.20781261152E-01  0.00000000000E+00 0.  1.
     999901    1    3    3    0    0 -0.12219255576E+00 -0.53507786464E-01  0.23852743771E-01  0.89037242617E+00  0.88000000000E+00 0.  1.
        -11    1    4    4    0    0  0.11117767414E+00  0.37074999013E-01 -0.26206931984E-02  0.11722695907E+00  0.51100000000E-03 0. -1.
         11    1    4    4    0    0  0.13543356177E-01  0.70679349336E-02 -0.28536075257E-02  0.15549353610E-01  0.51100000000E-03 0.  1.
</event>
<event>
 8    1  0.1065239E+005  0.1043930E+01  0.7957747E-01            NaN
         13   -1    0    0    0    0  0.00000000000E+00  0.00000000000E+00  0.74505805969E-08  0.10566000000E+00  0.10566000000E+00 0.  1.
     999900   -1    0    0    0    0 -0.00000000000E+00 -0.00000000000E+00 -0.74505805969E-08  0.93827000000E+00  0.93827000000E+00 0. -1.
     999902    2    1    2    0    0 -0.32694215737E-02 -0.21134196032E-01  0.10473183352E-01  0.10201175888E+01  0.10198396266E+01 0.  0.
     999903    2    3    3    0    0  0.26084518583E-01 -0.56975801732E-01  0.11516096908E+00  0.13270234944E+00  0.20523660846E-01 0.  0.
         14    1    1    2    0    0  0.32694215737E-02  0.21134196032E-01 -0.10473183352E-01  0.23812411236E-01  0.00000000000E+00 0. -1.
     999901    1    3    3    0    0 -0.29353940157E-01  0.35841605700E-01 -0.10468778573E+00  0.88741523932E+00  0.88000000000E+00 0. -1.
        -11    1    4    4    0    0  0.74797505886E-02 -0.18162238197E-01  0.18935925576E-01  0.27288165266E-01  0.51100000000E-03 0. -1.
         11    1    4    4    0    0  0.18604767995E-01 -0.38813563536E-01  0.96225043506E-01  0.10541418417E+00  0.51100000000E-03 0.  1.
</event>
<event>
 8    1  0.1065239E+005  0.1043930E+01  0.7957747E-01            NaN
         13   -1    0    0    0    0  0.00000000000E+00  0.00000000000E+00  0.74505805969E-08  0.10566000000E+00  0.10566000000E+00 0.  1.
     999900   -1    0    0    0    0 -0.00000000000E+00 -0.00000000000E+00 -0.74505805969E-08  0.93827000000E+00  0.93827000000E+00 0.  1.
     999902    2    1    2    0    0  0.11611028467E-01  0.15550960108E-01  0.12946331623E-01  0.10206007084E+01  0.10203340385E+01 0.  0.
     999903    2    3    3    0    0  0.12774791044E+00 -0.19751771953E-01  0.20207694370E-01  0.13223885332E+00  0.19212035237E-01 0.  0.
         14    1    1    2    0    0 -0.11611028467E-01 -0.15550960108E-01 -0.12946331623E-01  0.23329291563E-01  0.00000000000E+00 0. -1.
     999901    1    3    3    0    0 -0.11613688197E+00  0.35302732062E-01 -0.72613627469E-02  0.88836185512E+00  0.88000000000E+00 0.  1.
        -11    1    4    4    0    0  0.59498630512E-01  0.25450751839E-03  0.11224403359E-01  0.60550806425E-01  0.51100000000E-03 0.  1.
         11    1    4    4    0    0  0.68249279926E-01 -0.20006279472E-01  0.89832910110E-02  0.71688046892E-01  0.51100000000E-03 0. -1.
</event>
<event>
 8    1  0.1065239E+005  0.1043930E+01  0.7957747E-01            NaN
         13   -1    0    0    0    0  0.00000000000E+00  0.00000000000E+00  0.74505805969E-08  0.10566000000E+00  0.10566000000E+00 0.  1.
     999900   -1    0    0    0    0 -0.00000000000E+00 -0.00000000000E+00 -0.74505805969E-08  0.93827000000E+00  0.93827000000E+00 0. -1.
     999902    2    1    2    0    0 -0.95325771824E-03 -0.23342159521E-01  0.49284838048E-02  0.10200541741E+01  0.10197747119E+01 0.  0.
     999903    2    3    3    0    0 -0.12703847647E+00  0.67784380147E-02 -0.20292378784E-01  0.13019979008E+00  0.18854256138E-01 0.  0.
         14    1    1    2    0    0  0.95325771824E-03  0.23342159521E-01 -0.49284838048E-02  0.23875825933E-01  0.00000000000E+00 0. -1.
     999901    1    3    3    0    0  0.12608521876E+00 -0.30120597535E-01  0.25220862589E-01  0.88985438398E+00  0.88000000000E+00 0. -1.
        -11    1    4    4    0    0 -0.49973250159E-01  0.10456902035E-01 -0.13091811721E-01  0.52709858535E-01  0.51100000000E-03 0.  1.
         11    1    4    4    0    0 -0.77065226314E-01 -0.36784640198E-02 -0.72005670635E-02  0.77489931549E-01  0.51100000000E-03 0. -1.
</event>
<event>
 8    1  0.1065239E+005  0.1043930E+01  0.7957747E-01            NaN
         13   -1    0    0    0    0  0.00000000000E+00  0.00000000000E+00  0.74505805969E-08  0.10566000000E+00  0.10566000000E+00 0.  1.
     999900   -1    0    0    0    0 -0.00000000000E+00 -0.00000000000E+00 -0.74505805969E-08  0.93827000000E+00  0.93827000000E+00 0. -1.
     999902    2    1    2    0    0 -0.16021985214E-01  0.14064910261E-01 -0.10151069866E-01  0.10203170813E+01  0.10200438110E+01 0.  0.
     999903    2    3    3    0    0 -0.21389248374E-01 -0.11351121156E+00 -0.55525708956E-01  0.12994450071E+00  0.21451662211E-01 0.  0.
         14    1    1    2    0    0  0.16021985214E-01 -0.14064910261E-01  0.10151069866E-01  0.23612918716E-01  0.00000000000E+00 0.  1.
     999901    1    3    3    0    0  0.53672631601E-02  0.12757612183E+00  0.45374639090E-01  0.89037258058E+00  0.88000000000E+00 0. -1.
        -11    1    4    4    0    0 -0.61643828075E-02 -0.74244593667E-01 -0.27798278306E-01  0.79518958130E-01  0.51100000000E-03 0.  1.
         11    1    4    4    0    0 -0.15224865567E-01 -0.39266617898E-01 -0.27727430650E-01  0.50425542576E-01  0.51100000000E-03 0. -1.
</event>
<event>
 8    1  0.1065239E+005  0.1043930E+01  0.7957747E-01            NaN
         13   -1    0    0    0    0  0.00000000000E+00  0.00000000000E+00  0.74505805969E-08  0.10566000000E+00  0.10566000000E+00 0. -1.
     999900   -1    0    0    0    0 -0.00000000000E+00 -0.00000000000E+00 -0.74505805969E-08  0.93827000000E+00  0.93827000000E+00 0.  1.
     999902    2    1    2    0    0 -0.16837699744E-01 -0.10971460288E-01  0.12149490946E-01  0.10204461502E+01  0.10201758937E+01 0.  0.
     999903    2    3    3    0    0 -0.24389655838E-01 -0.12148513949E+00 -0.40479879816E-01  0.13194170109E+00  0.20408267630E-01 0.  0.
         14    1    1    2    0    0  0.16837699744E-01  0.10971460288E-01 -0.12149490946E-01  0.23483849850E-01  0.00000000000E+00 0.  1.
     999901    1    3    3    0    0  0.75519560938E-02  0.11051367920E+00  0.52629370761E-01  0.88850444906E+00  0.88000000000E+00 0. -1.
        -11    1    4    4    0    0 -0.11880244693E-01 -0.77967218360E-01 -0.35146588227E-01  0.86345649212E-01  0.51100000000E-03 0. -1.
         11    1    4    4    0    0 -0.12509411145E-01 -0.43517921131E-01 -0.53332915889E-02  0.45596051879E-01  0.51100000000E-03 0.  1.
</event>
<event>
 8    1  0.1065239E+005  0.1043930E+01  0.7957747E-01            NaN
         13   -1    0    0    0    0  0.00000000000E+00  0.00000000000E+00  0.74505805969E-08  0.10566000000E+00  0.10566000000E+00 0. -1.
     999900   -1    0    0    0    0 -0.00000000000E+00 -0.00000000000E+00 -0.74505805969E-08  0.93827000000E+00  0.93827000000E+00 0. -1.
     999902    2    1    2    0    0 -0.10354139831E-01 -0.20489842439E-01  0.53903077690E-02  0.10203482852E+01  0.10200757452E+01 0.  0.
     999903    2    3    3    0    0  0.12215637500E+00 -0.34057931544E-01 -0.18581935921E-01  0.13000127530E+00  0.21746737273E-01 0.  0.
         14    1    1    2    0    0  0.10354139831E-01  0.20489842439E-01 -0.53903077690E-02  0.23581714795E-01  0.00000000000E+00 0. -1.
     999901    1    3    3    0    0 -0.13251051483E+00  0.13568089105E-01  0.23972243690E-01  0.89034700991E+00  0.88000000000E+00 0. -1.
        -11    1    4    4    0    0  0.35181901166E-01 -0.37824893951E-02  0.26614978117E-02  0.35488280985E-01  0.51100000000E-03 0. -1.
         11    1    4    4    0    0  0.86974473835E-01 -0.30275442149E-01 -0.21243433733E-01  0.94512994313E-01  0.51100000000E-03 0.  1.
</event>
<event>
 8    1  0.1065239E+005  0.1043930E+01  0.7957747E-01            NaN
         13   -1    0    0    0    0  0.00000000000E+00  0.00000000000E+00  0.74505805969E-08  0.10566000000E+00  0.10566000000E+00 0.  1.
     999900   -1    0    0    0    0 -0.00000000000E+00 -0.00000000000E+00 -0.74505805969E-08  0.93827000000E+00  0.93827000000E+00 0.  1.
     999902    2    1    2    0    0  0.21017556669E-01  0.21318871325E-01 -0.70007941382E-02  0.10131851942E+01  0.10127186158E+01 0.  0.
     999903    2    3    3    0    0  0.92832550269E-01  0.50731295302E-01  0.66681199627E-01  0.12670252650E+00  0.20386297494E-01 0.  0.
         14    1    1    2    0    0 -0.21017556669E-01 -0.21318871325E-01  0.70007941382E-02  0.30744805764E-01  0.00000000000E+00 0.  1.
     999901    1    3    3    0    0 -0.71814993600E-01 -0.29412423977E-01 -0.73681993765E-01  0.88648266774E+00  0.88000000000E+00 0.  1.
        -11    1    4    4    0    0  0.30605015263E-01  0.13720117575E-01  0.10791833744E-01  0.35236818558E-01  0.51100000000E-03 0. -1.
         11    1    4    4    0    0  0.62227535006E-01  0.37011177727E-01  0.55889365883E-01  0.91465707943E-01  0.51100000000E-03 0.  1.
</event>
<event>
 8    1  0.1065239E+005  0.1043930E+01  0.7957747E-01            NaN
         13   -1    0    0    0    0  0.00000000000E+00  0.00000000000E+00  0.74505805969E-08  0.10566000000E+00  0.10566000000E+00 0.  1.
     999900   -1    0    0    0    0 -0.00000000000E+00 -0.00000000000E+00 -0.74505805969E-08  0.93827000000E+00  0.93827000000E+00 0. -1.
     999902    2    1    2    0    0  0.71347809353E-02  0.21521410383E-01  0.76617907309E-02  0.10199971932E+01  0.10197163796E+01 0.  0.
     999903    2    3    3    0    0  0.65500944969E-01  0.57005456189E-01  0.98355760889E-01  0.13270292250E+00  0.19905127771E-01 0.  0.
         14    1    1    2    0    0 -0.71347809353E-02 -0.21521410383E-01 -0.76617907309E-02  0.23932806795E-01  0.00000000000E+00 0. -1.
     999901    1    3    3    0    0 -0.58366164034E-01 -0.35484045806E-01 -0.90693970159E-01  0.88729427071E+00  0.88000000000E+00 0. -1.
        -11    1    4    4    0    0  0.30692039634E-01  0.36535206796E-01  0.43392586423E-01  0.64498064390E-01  0.51100000000E-03 0. -1.
         11    1    4    4    0    0  0.34808905335E-01  0.20470249393E-01  0.54963174466E-01  0.68204858106E-01  0.51100000000E-03 0.  1.
</event>
<event>
 8    1  0.1065239E+005  0.1043930E+01  0.7957747E-01            NaN
         13   -1    0    0    0    0  0.00000000000E+00  0.00000000000E+00  0.74505805969E-08  0.10566000000E+00  0.10566000000E+00 0. -1.
     999900   -1    0    0    0    0 -0.00000000000E+00 -0.00000000000E+00 -0.74505805969E-08  0.93827000000E+00  0.93827000000E+00 0.  1.
     999902    2    1    2    0    0  0.70493404933E-03 -0.20848370153E-01 -0.17077811083E-01  0.10169707140E+01  0.10166133139E+01 0.  0.
     999903    2    3    3    0    0 -0.10156796819E+00 -0.75563160559E-01 -0.17590097358E-01  0.12935947182E+00  0.19965420816E-01 0.  0.
         14    1    1    2    0    0 -0.70493404933E-03  0.20848370153E-01  0.17077811083E-01  0.26959285996E-01  0.00000000000E+00 0. -1.
     999901    1    3    3    0    0  0.10227290224E+00  0.54714790406E-01  0.51228627492E-03  0.88761124219E+00  0.88000000000E+00 0. -1.
        -11    1    4    4    0    0 -0.44715429337E-01 -0.45635893336E-01 -0.78089116510E-02  0.64368817012E-01  0.51100000000E-03 0.  1.
         11    1    4    4    0    0 -0.56852538849E-01 -0.29927267223E-01 -0.97811857072E-02  0.64990654804E-01  0.51100000000E-03 0. -1.
</event>
<event>
 8    1  0.1065239E+005  0.1043930E+01  0.7957747E-01            NaN
         13   -1    0    0    0    0  0.00000000000E+00  0.00000000000E+00  0.74505805969E-08  0.10566000000E+00  0.10566000000E+00 0.  1.
     999900   -1    0    0    0    0 -0.00000000000E+00 -0.00000000000E+00 -0.74505805969E-08  0.93827000000E+00  0.93827000000E+00 0. -1.
     999902    2    1    2    0    0 -0.99445019897E-02 -0.16898970966E-01  0.14142738105E-01  0.10197538675E+01  0.10194672457E+01 0.  0.
     999903    2    3    3    0    0 -0.45043183482E-01 -0.78249028030E-01  0.95750524749E-01  0.13315611332E+00  0.20262989899E-01 0.  0.
         14    1    1    2    0    0  0.99445019897E-02  0.16898970966E-01 -0.14142738105E-01  0.24176132459E-01  0.00000000000E+00 0. -1.
     999901    1    3    3    0    0  0.35098681493E-01  0.61350057063E-01 -0.81607786644E-01  0.88659775422E+00  0.88000000000E+00 0. -1.
        -11    1    4    4    0    0 -0.13670479093E-01 -0.43487124189E-01  0.43891910445E-01  0.63283274981E-01  0.51100000000E-03 0. -1.
         11    1    4    4    0    0 -0.31372704389E-01 -0.34761903841E-01  0.51858614304E-01  0.69872838342E-01  0.51100000000E-03 0.  1.
</event>
<event>
 8    1  0.1065239E+005  0.1043930E+01  0.7957747E-01            NaN
         13   -1    0    0    0    0  0.00000000000E+00  0.00000000000E+00  0.74505805969E-08  0.10566000000E+00  0.10566000000E+00 0.  1.
     999900   -1    0    0    0    0 -0.00000000000E+00 -0.00000000000E+00 -0.74505805969E-08  0.93827000000E+00  0.93827000000E+00 0. -1.
     999902    2    1    2    0    0  0.12728374810E-01  0.56876739159E-02  0.19779310258E-01  0.10197311927E+01  0.10194440265E+01 0.  0.
     999903    2    3    3    0    0  0.29757957969E-02 -0.96684744155E-01 -0.81322660038E-01  0.12799309597E+00  0.20299321863E-01 0.  0.
         14    1    1    2    0    0 -0.12728374810E-01 -0.56876739159E-02 -0.19779310258E-01  0.24198807288E-01  0.00000000000E+00 0. -1.
     999901    1    3    3    0    0  0.97525790128E-02  0.10237241807E+00  0.10110197030E+00  0.89173809674E+00  0.88000000000E+00 0. -1.
        -11    1    4    4    0    0 -0.38967305990E-02 -0.40470391547E-01 -0.23081281833E-01  0.46755147239E-01  0.51100000000E-03 0. -1.
         11    1    4    4    0    0  0.68725263959E-02 -0.56214352608E-01 -0.58241378205E-01  0.81237948733E-01  0.51100000000E-03 0.  1.
</event>
<event>
 8    1  0.1065239E+005  0.1043930E+01  0.7957747E-01            NaN
         13   -1    0    0    0    0  0.00000000000E+00  0.00000000000E+00  0.74505805969E-08  0.10566000000E+00  0.10566000000E+00 0.  1.
     999900   -1    0    0    0    0 -0.00000000000E+00 -0.00000000000E+00 -0.74505805969E-08  0.93827000000E+00  0.93827000000E+00 0.  1.
     999902    2    1    2    0    0  0.10358775510E-01 -0.16520879284E-01  0.14299661251E-01  0.10197489331E+01  0.10194621929E+01 0.  0.
     999903    2    3    3    0    0 -0.29444834575E-01  0.12225189965E+00 -0.93712077542E-02  0.12767128989E+00  0.19990334590E-01 0.  0.
         14    1    1    2    0    0 -0.10358775510E-01  0.16520879284E-01 -0.14299661251E-01  0.24181066856E-01  0.00000000000E+00 0. -1.
     999901    1    3    3    0    0  0.39803610086E-01 -0.13877277893E+00  0.23670869005E-01  0.89207764325E+00  0.88000000000E+00 0.  1.
        -11    1    4    4    0    0 -0.21484383657E-01  0.48044912708E-01 -0.19437052848E-02  0.52668125934E-01  0.51100000000E-03 0. -1.
         11    1    4    4    0    0 -0.79604509179E-02  0.74206986943E-01 -0.74275024694E-02  0.75003163959E-01  0.51100000000E-03 0.  1.
</event>
<event>
 8    1  0.1065239E+005  0.1043930E+01  0.7957747E-01            NaN
         13   -1    0    0    0    0  0.00000000000E+00  0.00000000000E+00  0.74505805969E-08  0.10566000000E+00  0.10566000000E+00 0. -1.
     999900   -1    0    0    0    0 -0.00000000000E+00 -0.00000000000E+00 -0.74505805969E-08  0.93827000000E+00  0.93827000000E+00 0.  1.
     999902    2    1    2    0    0  0.18246135117E-01  0.16015035850E-01  0.88631639633E-02  0.10180851070E+01  0.10177570076E+01 0.  0.
     999903    2    3    3    0    0 -0.28845932782E-03 -0.92647778529E-01 -0.83373267472E-01  0.12642446654E+00  0.21174275326E-01 0.  0.
         14    1    1    2    0    0 -0.18246135117E-01 -0.16015035850E-01 -0.88631639633E-02  0.25844893024E-01  0.00000000000E+00 0. -1.
     999901    1    3    3    0    0  0.18534594445E-01  0.10866281438E+00  0.92236431436E-01  0.89166064044E+00  0.88000000000E+00 0. -1.
        -11    1    4    4    0    0  0.65149476416E-02 -0.82567222780E-01 -0.71448634092E-01  0.10938445619E+00  0.51100000000E-03 0. -1.
         11    1    4    4    0    0 -0.68034069695E-02 -0.10080555748E-01 -0.11924633380E-01  0.17040010353E-01  0.51100000000E-03 0.  1.
</event>
<event>
 8    1  0.1065239E+005  0.1043930E+01  0.7957747E-01            NaN
         13   -1    0    0    0    0  0.00000000000E+00  0.00000000000E+00  0.74505805969E-08  0.10566000000E+00  0.10566000000E+00 0. -1.
     999900   -1    0    0    0    0 -0.00000000000E+00 -0.00000000000E+00 -0.74505805969E-08  0.93827000000E+00  0.93827000000E+00 0.  1.
     999902    2    1    2    0    0 -0.14169438375E-01 -0.11409399238E-01  0.15540003726E-01  0.10200043006E+01  0.10197236558E+01 0.  0.
     999903    2    3    3    0    0 -0.35072709005E-01 -0.80413455374E-01 -0.94149408663E-01  0.13026823095E+00  0.20230722216E-01 0.  0.
         14    1    1    2    0    0  0.14169438375E-01  0.11409399238E-01 -0.15540003726E-01  0.23925699376E-01  0.00000000000E+00 0.  1.
     999901    1    3    3    0    0  0.20903270630E-01  0.69004056136E-01  0.10968941239E+00  0.88973606967E+00  0.88000000000E+00 0. -1.
        -11    1    4    4    0    0 -0.53158282901E-02 -0.14631062927E-01 -0.29470415223E-01  0.33333054574E-01  0.51100000000E-03 0. -1.
         11    1    4    4    0    0 -0.29756880715E-01 -0.65782392447E-01 -0.64678993440E-01  0.96935176378E-01  0.51100000000E-03 0.  1.
</event>
<event>
 8    1  0.1065239E+005  0.1043930E+01  0.7957747E-01            NaN
         13   -1    0    0    0    0  0.00000000000E+00  0.00000000000E+00  0.74505805969E-08  0.10566000000E+00  0.10566000000E+00 0.  1.
     999900   -1    0    0    0    0 -0.00000000000E+00 -0.00000000000E+00 -0.74505805969E-08  0.93827000000E+00  0.93827000000E+00 0. -1.
     999902    2    1    2    0    0 -0.15657766116E-01  0.31512393957E-02  0.16871590345E-01  0.10206975548E+01  0.10204331197E+01 0.  0.
     999903    2    3    3    0    0 -0.93869637951E-01  0.50184883221E-01  0.78470425670E-01  0.13383585359E+00  0.20600887571E-01 0.  0.
         14    1    1    2    0    0  0.15657766116E-01 -0.31512393957E-02 -0.16871590345E-01  0.23232445206E-01  0.00000000000E+00 0. -1.
     999901    1    3    3    0    0  0.78211871835E-01 -0.47033643825E-01 -0.61598835325E-01  0.88686170120E+00  0.88000000000E+00 0. -1.
        -11    1    4    4    0    0 -0.32825993801E-01  0.13939697884E-01  0.15317156370E-01  0.38816716069E-01  0.51100000000E-03 0. -1.
         11    1    4    4    0    0 -0.61043644150E-01  0.36245185337E-01  0.63153269300E-01  0.95019137522E-01  0.51100000000E-03 0.  1.
</event>
<event>
 8    1  0.1065239E+005  0.1043930E+01  0.7957747E-01            NaN
         13   -1    0    0    0    0  0.00000000000E+00  0.00000000000E+00  0.74505805969E-08  0.10566000000E+00  0.10566000000E+00 0.  1.
     999900   -1    0    0    0    0 -0.00000000000E+00 -0.00000000000E+00 -0.74505805969E-08  0.93827000000E+00  0.93827000000E+00 0.  1.
     999902    2    1    2    0    0  0.57387554718E-02 -0.23040783827E-01 -0.66105043251E-02  0.10192822861E+01  0.10189842339E+01 0.  0.
     999903    2    3    3    0    0 -0.11182009046E-01 -0.10206800916E+00 -0.81114714474E-01  0.13244380477E+00  0.20465793330E-01 0.  0.
         14    1    1    2    0    0 -0.57387554718E-02  0.23040783827E-01  0.66105043251E-02  0.24647713913E-01  0.00000000000E+00 0.  1.
     999901    1    3    3    0    0  0.16920764518E-01  0.79027225336E-01  0.74504210148E-01  0.88683848132E+00  0.88000000000E+00 0. -1.
        -11    1    4    4    0    0  0.24772646014E-02 -0.53857798637E-01 -0.49501736234E-01  0.73194824442E-01  0.51100000000E-03 0.  1.
         11    1    4    4    0    0 -0.13659273647E-01 -0.48210210526E-01 -0.31612978240E-01  0.59248980327E-01  0.51100000000E-03 0. -1.
</event>
<event>
 8    1  0.1065239E+005  0.1043930E+01  0.7957747E-01            NaN
         13   -1    0    0    0    0  0.00000000000E+00  0.00000000000E+00  0.74505805969E-08  0.10566000000E+00  0.10566000000E+00 0.  1.
     999900   -1    0    0    0    0 -0.00000000000E+00 -0.00000000000E+00 -0.74505805969E-08  0.93827000000E+00  0.93827000000E+00 0. -1.
     999902    2    1    2    0    0  0.90192260139E-02 -0.95795035076E-02 -0.20878234764E-01  0.10192517907E+01  0.10189529915E+01 0.  0.
     999903    2    3    3    0    0 -0.11228122764E+00 -0.56519261730E-01  0.19932884992E-01  0.12875603643E+00  0.19475522748E-01 0.  0.
         14    1    1    2    0    0 -0.90192260139E-02  0.95795035076E-02  0.20878234764E-01  0.24678209258E-01  0.00000000000E+00 0. -1.
     999901    1    3    3    0    0  0.12130045365E+00  0.46939758222E-01 -0.40811119756E-01  0.89049575432E+00  0.88000000000E+00 0. -1.
        -11    1    4    4    0    0 -0.20498541471E-01 -0.14550771463E-01 -0.28144963913E-02  0.25300151453E-01  0.51100000000E-03 0. -1.
         11    1    4    4    0    0 -0.91782686164E-01 -0.41968490267E-01  0.22747381384E-01  0.10345588497E+00  0.51100000000E-03 0.  1.
</event>
<event>
 8    1  0.1065239E+005  0.1043930E+01  0.7957747E-01            NaN
         13   -1    0    0    0    0  0.00000000000E+00  0.00000000000E+00  0.74505805969E-08  0.10566000000E+00  0.10566000000E+00 0. -1.
     999900   -1    0    0    0    0 -0.00000000000E+00 -0.00000000000E+00 -0.74505805969E-08  0.93827000000E+00  0.93827000000E+00 0. -1.
     999902    2    1    2    0    0 -0.85467548775E-02 -0.83549925607E-02  0.21619531110E-01  0.10192266188E+01  0.10189272022E+01 0.  0.
     999903    2    3    3    0    0 -0.33045630284E-01  0.12273156760E+00  0.98830405013E-02  0.12910211827E+00  0.20362492153E-01 0.  0.
         14    1    1    2    0    0  0.85467548775E-02  0.83549925607E-02 -0.21619531110E-01  0.24703381247E-01  0.00000000000E+00 0.  1.
     999901    1    3    3    0    0  0.24498875406E-01 -0.13108656016E+00  0.11736490609E-01  0.89012450048E+00  0.88000000000E+00 0. -1.
        -11    1    4    4    0    0 -0.54375081647E-02  0.56533641702E-01  0.79449746851E-02  0.57349828970E-01  0.51100000000E-03 0.  1.
         11    1    4    4    0    0 -0.27608122119E-01  0.66197925893E-01  0.19380658162E-02  0.71752289299E-01  0.51100000000E-03 0. -1.
</event>
<event>
 8    1  0.1065239E+005  0.1043930E+01  0.7957747E-01            NaN
         13   -1    0    0    0    0  0.00000000000E+00  0.00000000000E+00  0.74505805969E-08  0.10566000000E+00  0.10566000000E+00 0. -1.
     999900   -1    0    0    0    0 -0.00000000000E+00 -0.00000000000E+00 -0.74505805969E-08  0.93827000000E+00  0.93827000000E+00 0. -1.
     999902    2    1    2    0    0 -0.15017275369E-01  0.53402061711E-02 -0.17458649963E-01  0.10202901857E+01  0.10200162853E+01 0.  0.
     999903    2    3    3    0    0  0.53073498688E-01  0.28566909944E-02  0.11483492422E+00  0.12779698622E+00  0.17890022897E-01 0.  0.
         14    1    1    2    0    0  0.15017275369E-01 -0.53402061711E-02  0.17458649963E-01  0.23639814297E-01  0.00000000000E+00 0. -1.
     999901    1    3    3    0    0 -0.68090774057E-01  0.24835151767E-02 -0.13229357418E+00  0.89249319949E+00  0.88000000000E+00 0.  1.
        -11    1    4    4    0    0  0.33870348704E-01 -0.63809604858E-02  0.77175200317E-01  0.84523309466E-01  0.51100000000E-03 0. -1.
         11    1    4    4    0    0  0.19203149984E-01  0.92376514802E-02  0.37659723902E-01  0.43273676751E-01  0.51100000000E-03 0.  1.
</event>
<event>
 8    1  0.1065239E+005  0.1043930E+01  0.7957747E-01            NaN
         13   -1    0    0    0    0  0.00000000000E+00  0.00000000000E+00  0.74505805969E-08  0.10566000000E+00  0.10566000000E+00 0.  1.
     999900   -1    0    0    0    0 -0.00000000000E+00 -0.00000000000E+00 -0.74505805969E-08  0.93827000000E+00  0.93827000000E+00 0. -1.
     999902    2    1    2    0    0  0.10825478581E-01  0.39631770210E-02 -0.20177791437E-01  0.10206912172E+01  0.10204266362E+01 0.  0.
     999903    2    3    3    0    0 -0.85291215197E-01  0.93918551425E-01  0.20677851286E-01  0.12996141993E+00  0.19160152528E-01 0.  0.
         14    1    1    2    0    0 -0.10825478581E-01 -0.39631770210E-02  0.20177791437E-01  0.23238782797E-01  0.00000000000E+00 0.  1.
     999901    1    3    3    0    0  0.96116693778E-01 -0.89955374404E-01 -0.40855642723E-01  0.89072979727E+00  0.88000000000E+00 0.  1.
        -11    1    4    4    0    0 -0.19386386900E-01  0.14123940572E-01  0.97349669534E-02  0.25891087210E-01  0.51100000000E-03 0.  1.
         11    1    4    4    0    0 -0.65904828297E-01  0.79794610853E-01  0.10942884333E-01  0.10407033272E+00  0.51100000000E-03 0. -1.
</event>
<event>
 8    1  0.1065239E+005  0.1043930E+01  0.7957747E-01            NaN
         13   -1    0    0    0    0  0.00000000000E+00  0.00000000000E+00  0.74505805969E-08  0.10566000000E+00  0.10566000000E+00 0.  1.
     999900   -1    0    0    0    0 -0.00000000000E+00 -0.00000000000E+00 -0.74505805969E-08  0.93827000000E+00  0.93827000000E+00 0. -1.
     999902    2    1    2    0    0  0.90204764903E-02  0.21097311094E-01  0.21336354203E-02  0.10208861737E+01  0.10206260636E+01 0.  0.
     999903    2    3    3    0    0 -0.10176614621E+00  0.12161447681E-01  0.78372303436E-01  0.13062449309E+00  0.20403208661E-01 0.  0.
         14    1    1    2    0    0 -0.90204764903E-02 -0.21097311094E-01 -0.21336354203E-02  0.23043826323E-01  0.00000000000E+00 0. -1.
     999901    1    3    3    0    0  0.11078662270E+00  0.89358634127E-02 -0.76238668016E-01  0.89026168059E+00  0.88000000000E+00 0. -1.
        -11    1    4    4    0    0 -0.51625816604E-01  0.16414849614E-01  0.40107555347E-01  0.67405855419E-01  0.51100000000E-03 0. -1.
         11    1    4    4    0    0 -0.50140329609E-01 -0.42534019326E-02  0.38264748089E-01  0.63218637668E-01  0.51100000000E-03 0.  1.
</event>
<event>
 8    1  0.1065239E+005  0.1043930E+01  0.7957747E-01            NaN
         13   -1    0    0    0    0  0.00000000000E+00  0.00000000000E+00  0.74505805969E-08  0.10566000000E+00  0.10566000000E+00 0. -1.
     999900   -1    0    0    0    0 -0.00000000000E+00 -0.00000000000E+00 -0.74505805969E-08  0.93827000000E+00  0.93827000000E+00 0.  1.
     999902    2    1    2    0    0 -0.60712771199E-02  0.18070029212E-01 -0.13409583459E-01  0.10206232780E+01  0.10203571298E+01 0.  0.
     999903    2    3    3    0    0 -0.74147711509E-01  0.23169321978E-01  0.10294892998E+00  0.13034258780E+00  0.18868158544E-01 0.  0.
         14    1    1    2    0    0  0.60712771199E-02 -0.18070029212E-01  0.13409583459E-01  0.23306721995E-01  0.00000000000E+00 0. -1.
     999901    1    3    3    0    0  0.68076434389E-01 -0.50992927658E-02 -0.11635851344E+00  0.89028069021E+00  0.88000000000E+00 0.  1.
        -11    1    4    4    0    0 -0.38132683894E-01  0.48767904145E-02  0.39475761991E-01  0.55104279067E-01  0.51100000000E-03 0. -1.
         11    1    4    4    0    0 -0.36015027615E-01  0.18292531564E-01  0.63473167989E-01  0.75238308731E-01  0.51100000000E-03 0.  1.
</event>
<event>
 8    1  0.1065239E+005  0.1043930E+01  0.7957747E-01            NaN
         13   -1    0    0    0    0  0.00000000000E+00  0.00000000000E+00  0.74505805969E-08  0.10566000000E+00  0.10566000000E+00 0.  1.
     999900   -1    0    0    0    0 -0.00000000000E+00 -0.00000000000E+00 -0.74505805969E-08  0.93827000000E+00  0.93827000000E+00 0.  1.
     999902    2    1    2    0    0  0.14613219770E-01 -0.12250593504E-01  0.13768390876E-01  0.10204099698E+01  0.10201388703E+01 0.  0.
     999903    2    3    3    0    0  0.20168723307E-01 -0.41505978705E-01  0.12334517092E+00  0.13311418377E+00  0.19386362811E-01 0.  0.
         14    1    1    2    0    0 -0.14613219770E-01  0.12250593504E-01 -0.13768390876E-01  0.23520030199E-01  0.00000000000E+00 0. -1.
     999901    1    3    3    0    0 -0.55555035380E-02  0.29255385201E-01 -0.10957678005E+00  0.88729578603E+00  0.88000000000E+00 0.  1.
        -11    1    4    4    0    0  0.68664463378E-02 -0.33324952218E-01  0.76361330207E-01  0.83600325345E-01  0.51100000000E-03 0.  1.
         11    1    4    4    0    0  0.13302276970E-01 -0.81810264871E-02  0.46983840714E-01  0.49513858426E-01  0.51100000000E-03 0. -1.
</event>
<event>
 8    1  0.1065239E+005  0.1043930E+01  0.7957747E-01            NaN
         13   -1    0    0    0    0  0.00000000000E+00  0.00000000000E+00  0.74505805969E-08  0.10566000000E+00  0.10566000000E+00 0.  1.
     999900   -1    0    0    0    0 -0.00000000000E+00 -0.00000000000E+00 -0.74505805969E-08  0.93827000000E+00  0.93827000000E+00 0. -1.
     999902    2    1    2    0    0  0.17968063242E-01 -0.14797637431E-01 -0.17370966979E-02  0.10205882161E+01  0.10203212572E+01 0.  0.
     999903    2    3    3    0    0  0.51509794994E-01 -0.33029740753E-01 -0.11544034180E+00  0.13245202987E+00  0.21744998244E-01 0.  0.
         14    1    1    2    0    0 -0.17968063242E-01  0.14797637431E-01  0.17370966979E-02  0.23341783889E-01  0.00000000000E+00 0.  1.
     999901    1    3    3    0    0 -0.33541731752E-01  0.18232103322E-01  0.11370324510E+00  0.88813618624E+00  0.88000000000E+00 0.  1.
        -11    1    4    4    0    0  0.17999626126E-01 -0.21301826685E-01 -0.36878602843E-01  0.46239018474E-01  0.51100000000E-03 0.  1.
         11    1    4    4    0    0  0.33510168868E-01 -0.11727914068E-01 -0.78561738954E-01  0.86213011399E-01  0.51100000000E-03 0. -1.
</event>
<event>
 8    1  0.1065239E+005  0.1043930E+01  0.7957747E-01            NaN
         13   -1    0    0    0    0  0.00000000000E+00  0.00000000000E+00  0.74505805969E-08  0.10566000000E+00  0.10566000000E+00 0.  1.
     999900   -1    0    0    0    0 -0.00000000000E+00 -0.00000000000E+00 -0.74505805969E-08  0.93827000000E+00  0.93827000000E+00 0.  1.
     999902    2    1    2    0    0  0.13263653499E-01  0.82128885650E-02  0.17548308488E-01  0.10204498132E+01  0.10201796420E+01 0.  0.
     999903    2    3    3    0    0 -0.46027988878E-01  0.47130428166E-01 -0.10866117311E+00  0.12862084583E+00  0.19905236009E-01 0.  0.
         14    1    1    2    0    0 -0.13263653499E-01 -0.82128885650E-02 -0.17548308488E-01  0.23480186829E-01  0.00000000000E+00 0. -1.
     999901    1    3    3    0    0  0.59291642377E-01 -0.38917539601E-01  0.12620948160E+00  0.89182896734E+00  0.88000000000E+00 0. -1.
        -11    1    4    4    0    0 -0.18332042921E-01  0.32490803579E-01 -0.63651683572E-01  0.73780173877E-01  0.51100000000E-03 0.  1.
         11    1    4    4    0    0 -0.27695945957E-01  0.14639624587E-01 -0.45009489540E-01  0.54840671952E-01  0.51100000000E-03 0. -1.
</event>
<event>
 8    1  0.1065239E+005  0.1043930E+01  0.7957747E-01            NaN
         13   -1    0    0    0    0  0.00000000000E+00  0.00000000000E+00  0.74505805969E-08  0.10566000000E+00  0.10566000000E+00 0.  1.
     999900   -1    0    0    0    0 -0.00000000000E+00 -0.00000000000E+00 -0.74505805969E-08  0.93827000000E+00  0.93827000000E+00 0. -1.
     999902    2    1    2    0    0  0.23282552577E-01  0.40703140750E-02 -0.28869138161E-02  0.10201186795E+01  0.10198407431E+01 0.  0.
     999903    2    3    3    0    0  0.45176247499E-01 -0.11778087267E+00  0.29349967899E-01  0.13086828615E+00  0.18757942266E-01 0.  0.
         14    1    1    2    0    0 -0.23282552577E-01 -0.40703140750E-02  0.28869138161E-02  0.23811320470E-01  0.00000000000E+00 0. -1.
     999901    1    3    3    0    0 -0.21893694923E-01  0.12185118675E+00 -0.32236881715E-01  0.88925039338E+00  0.88000000000E+00 0. -1.
        -11    1    4    4    0    0  0.28530652819E-02 -0.16174303598E-01 -0.16542640059E-02  0.16515017069E-01  0.51100000000E-03 0.  1.
         11    1    4    4    0    0  0.42323182217E-01 -0.10160656907E+00  0.31004231905E-01  0.11435326908E+00  0.51100000000E-03 0. -1.
</event>
<event>
 8    1  0.1065239E+005  0.1043930E+01  0.7957747E-01            NaN
         13   -1    0    0    0    0  0.00000000000E+00  0.00000000000E+00  0.74505805969E-08  0.10566000000E+00  0.10566000000E+00 0.  1.
     999900   -1    0    0    0    0 -0.00000000000E+00 -0.00000000000E+00 -0.74505805969E-08  0.93827000000E+00  0.93827000000E+00 0. -1.
     999902    2    1    2    0    0  0.10707035745E-01  0.88819950668E-02 -0.18996236373E-01  0.10203845663E+01  0.10201128740E+01 0.  0.
     999903    2    3    3    0    0  0.76601444092E-01 -0.64504088049E-01  0.80312061533E-01  0.12932355366E+00  0.15684249816E-01 0.  0.
         14    1    1    2    0    0 -0.10707035745E-01 -0.88819950668E-02  0.18996236373E-01  0.23545433679E-01  0.00000000000E+00 0.  1.
     999901    1    3    3    0    0 -0.65894408347E-01  0.73386083116E-01 -0.99308297906E-01  0.89106101266E+00  0.88000000000E+00 0. -1.
        -11    1    4    4    0    0  0.22613887822E-01 -0.19811646906E-01  0.33629204077E-01  0.45111791844E-01  0.51100000000E-03 0.  1.
         11    1    4    4    0    0  0.53987556270E-01 -0.44692441143E-01  0.46682857456E-01  0.84211761819E-01  0.51100000000E-03 0. -1.
</event>
<event>
 7    1  0.1065239E+005  0.1043930E+01  0.7957747E-01            NaN
         13   -1    0    0    0    0  0.00000000000E+00  0.00000000000E+00  0.74505805969E-08  0.10566000000E+00  0.10566000000E+00 0. -1.
     999900   -1    0    0    0    0 -0.00000000000E+00 -0.00000000000E+00 -0.74505805969E-08  0.93827000000E+00  0.93827000000E+00 0. -1.
     999903    2    1    2    0    0  0.48794862163E-01  0.83158768791E-01 -0.40428838682E-01  0.10649985513E+00  0.20283213390E-01 0.  0.
         14    1    1    2    0    0  0.34781038666E-01  0.21309635528E-01  0.23671198200E-01  0.47160861328E-01  0.00000000000E+00 0. -1.
     999901    1    1    2    0    0 -0.83575900830E-01 -0.10446840432E+00  0.16757640483E-01  0.89026928354E+00  0.88000000000E+00 0.  1.
        -11    1    3    3    0    0  0.18782077454E-01  0.21360557970E-01 -0.39737639924E-02  0.28724411073E-01  0.51100000000E-03 0. -1.
         11    1    3    3    0    0  0.30012784710E-01  0.61798210822E-01 -0.36455074690E-01  0.77775444058E-01  0.51100000000E-03 0.  1.
</event>
<event>
 8    1  0.1065239E+005  0.1043930E+01  0.7957747E-01            NaN
         13   -1    0    0    0    0  0.00000000000E+00  0.00000000000E+00  0.74505805969E-08  0.10566000000E+00  0.10566000000E+00 0. -1.
     999900   -1    0    0    0    0 -0.00000000000E+00 -0.00000000000E+00 -0.74505805969E-08  0.93827000000E+00  0.93827000000E+00 0.  1.
     999902    2    1    2    0    0  0.21262795443E-01 -0.10069156864E-01 -0.35944010774E-02  0.10201305439E+01  0.10198528877E+01 0.  0.
     999903    2    3    3    0    0 -0.70102365425E-01 -0.85301915900E-01  0.62657602362E-01  0.12973911955E+00  0.26748934812E-01 0.  0.
         14    1    1    2    0    0 -0.21262795443E-01  0.10069156864E-01  0.35944010774E-02  0.23799456068E-01  0.00000000000E+00 0. -1.
     999901    1    3    3    0    0  0.91365160868E-01  0.75232759037E-01 -0.66252003439E-01  0.89039142438E+00  0.88000000000E+00 0. -1.
        -11    1    4    4    0    0 -0.15212117157E-01 -0.33432559700E-01  0.30127800406E-01  0.47508841649E-01  0.51100000000E-03 0.  1.
         11    1    4    4    0    0 -0.54890248268E-01 -0.51869356201E-01  0.32529801956E-01  0.82230277902E-01  0.51100000000E-03 0. -1.
</event>
<event>
 8    1  0.1065239E+005  0.1043930E+01  0.7957747E-01            NaN
         13   -1    0    0    0    0  0.00000000000E+00  0.00000000000E+00  0.74505805969E-08  0.10566000000E+00  0.10566000000E+00 0. -1.
     999900   -1    0    0    0    0 -0.00000000000E+00 -0.00000000000E+00 -0.74505805969E-08  0.93827000000E+00  0.93827000000E+00 0.  1.
     999902    2    1    2    0    0 -0.32623136738E-02 -0.23912787174E-01 -0.37173711154E-02  0.10195110948E+01  0.10192186172E+01 0.  0.
     999903    2    3    3    0    0 -0.12281102647E-01  0.12389102901E+00 -0.16219082910E-01  0.12705179637E+00  0.19475311567E-01 0.  0.
         14    1    1    2    0    0  0.32623136738E-02  0.23912787174E-01  0.37173711154E-02  0.24418905155E-01  0.00000000000E+00 0. -1.
     999901    1    3    3    0    0  0.90187889736E-02 -0.14780381618E+00  0.12501711794E-01  0.89245929847E+00  0.88000000000E+00 0.  1.
        -11    1    4    4    0    0 -0.49040249675E-02  0.12825059057E-01  0.30751983758E-02  0.14080112455E-01  0.51100000000E-03 0. -1.
         11    1    4    4    0    0 -0.73770776798E-02  0.11106596995E+00 -0.19294281286E-01  0.11297168392E+00  0.51100000000E-03 0.  1.
</event>
<event>
 7    1  0.1065239E+005  0.1043930E+01  0.7957747E-01            NaN
         13   -1    0    0    0    0  0.00000000000E+00  0.00000000000E+00  0.74505805969E-08  0.10566000000E+00  0.10566000000E+00 0.  1.
     999900   -1    0    0    0    0 -0.00000000000E+00 -0.00000000000E+00 -0.74505805969E-08  0.93827000000E+00  0.93827000000E+00 0.  1.
     999903    2    1    2    0    0  0.10897376634E+00 -0.82312900194E-02  0.93103186630E-02  0.11187106968E+00  0.22032210789E-01 0.  0.
         14    1    1    2    0    0  0.23671048640E-01 -0.31541148209E-01  0.11195241008E-01  0.40993853140E-01  0.00000000000E+00 0. -1.
     999901    1    1    2    0    0 -0.13264481498E+00  0.39772438228E-01 -0.20505559671E-01  0.89106507718E+00  0.88000000000E+00 0. -1.
        -11    1    3    3    0    0  0.68461008149E-01 -0.76030351315E-02 -0.45791861160E-02  0.69035830164E-01  0.51100000000E-03 0. -1.
         11    1    3    3    0    0  0.40512758194E-01 -0.62825488785E-03  0.13889504779E-01  0.42835239520E-01  0.51100000000E-03 0.  1.
</event>
<event>
 7    1  0.1065239E+005  0.1043930E+01  0.7957747E-01            NaN
         13   -1    0    0    0    0  0.00000000000E+00  0.00000000000E+00  0.74505805969E-08  0.10566000000E+00  0.10566000000E+00 0.  1.
     999900   -1    0    0    0    0 -0.00000000000E+00 -0.00000000000E+00 -0.74505805969E-08  0.93827000000E+00  0.93827000000E+00 0.  1.
     999903    2    1    2    0    0  0.37313178004E-01  0.17284486949E-01  0.10893075646E+00  0.11810136121E+00  0.19773595366E-01 0.  0.
         14    1    1    2    0    0 -0.85470812150E-02  0.24718294619E-01 -0.31529869752E-01  0.40965587665E-01  0.00000000000E+00 0. -1.
     999901    1    1    2    0    0 -0.28766096789E-01 -0.42002781568E-01 -0.77400886713E-01  0.88486305113E+00  0.88000000000E+00 0. -1.
        -11    1    3    3    0    0  0.27494613215E-01  0.76305409802E-02  0.91702795193E-01  0.96040838598E-01  0.51100000000E-03 0.  1.
         11    1    3    3    0    0  0.98185647890E-02  0.96539459689E-02  0.17227961272E-01  0.22060522611E-01  0.51100000000E-03 0. -1.
</event>
<event>
 8    1  0.1065239E+005  0.1043930E+01  0.7957747E-01            NaN
         13   -1    0    0    0    0  0.00000000000E+00  0.00000000000E+00  0.74505805969E-08  0.10566000000E+00  0.10566000000E+00 0.  1.
     999900   -1    0    0    0    0 -0.00000000000E+00 -0.00000000000E+00 -0.74505805969E-08  0.93827000000E+00  0.93827000000E+00 0.  1.
     999902    2    1    2    0    0  0.13754180474E-01 -0.11501813725E-01  0.10384087139E-01  0.10232104811E+01  0.10230006794E+01 0.  0.
     999903    2    3    3    0    0  0.10027222140E+00 -0.85457976725E-01 -0.23395170128E-01  0.13523755147E+00  0.19602988878E-01 0.  0.
         14    1    1    2    0    0 -0.13754180474E-01  0.11501813725E-01 -0.10384087139E-01  0.20719518942E-01  0.00000000000E+00 0. -1.
     999901    1    3    3    0    0 -0.86518040927E-01  0.73956163000E-01  0.33779257267E-01  0.88797292958E+00  0.88000000000E+00 0.  1.
        -11    1    4    4    0    0  0.61365512915E-01 -0.64393657100E-01 -0.15755506406E-01  0.90336960061E-01  0.51100000000E-03 0.  1.
         11    1    4    4    0    0  0.38906708486E-01 -0.21064319625E-01 -0.76396637220E-02  0.44900591414E-01  0.51100000000E-03 0. -1.
</event>
<event>
 8    1  0.1065239E+005  0.1043930E+01  0.7957747E-01            NaN
         13   -1    0    0    0    0  0.00000000000E+00  0.00000000000E+00  0.74505805969E-08  0.10566000000E+00  0.10566000000E+00 0.  1.
     999900   -1    0    0    0    0 -0.00000000000E+00 -0.00000000000E+00 -0.74505805969E-08  0.93827000000E+00  0.93827000000E+00 0.  1.
     999902    2    1    2    0    0  0.69362643678E-02  0.33584103786E-02 -0.22975541641E-01  0.10196964242E+01  0.10194084222E+01 0.  0.
     999903    2    3    3    0    0 -0.10632952345E+00  0.10196242215E-01 -0.73056814835E-01  0.13099848417E+00  0.20331594886E-01 0.  0.
         14    1    1    2    0    0 -0.69362643678E-02 -0.33584103786E-02  0.22975541641E-01  0.24233575827E-01  0.00000000000E+00 0.  1.
     999901    1    3    3    0    0  0.11326578781E+00 -0.68378318362E-02  0.50081273194E-01  0.88869794000E+00  0.88000000000E+00 0. -1.
        -11    1    4    4    0    0 -0.17437958328E-01 -0.55924649348E-02 -0.14789562191E-01  0.23544645368E-01  0.51100000000E-03 0.  1.
         11    1    4    4    0    0 -0.88891565118E-01  0.15788707150E-01 -0.58267252644E-01  0.10745383881E+00  0.51100000000E-03 0. -1.
</event>
<event>
 8    1  0.1065239E+005  0.1043930E+01  0.7957747E-01            NaN
         13   -1    0    0    0    0  0.00000000000E+00  0.00000000000E+00  0.74505805969E-08  0.10566000000E+00  0.10566000000E+00 0.  1.
     999900   -1    0    0    0    0 -0.00000000000E+00 -0.00000000000E+00 -0.74505805969E-08  0.93827000000E+00  0.93827000000E+00 0. -1.
     999902    2    1    2    0    0 -0.17729167586E-03  0.22505281664E-01  0.54355033069E-02  0.10207769477E+01  0.10205143375E+01 0.  0.
     999903    2    3    3    0    0 -0.71753455283E-01  0.11020165926E+00 -0.43821658818E-02  0.13347193335E+00  0.22418509476E-01 0.  0.
         14    1    1    2    0    0  0.17729167586E-03 -0.22505281664E-01 -0.54355033069E-02  0.23153052311E-01  0.00000000000E+00 0. -1.
     999901    1    3    3    0    0  0.71576163607E-01 -0.87696377593E-01  0.98176691886E-02  0.88730501434E+00  0.88000000000E+00 0. -1.
        -11    1    4    4    0    0 -0.59930187052E-01  0.10270932726E+00 -0.42520630385E-03  0.11891709359E+00  0.51100000000E-03 0. -1.
         11    1    4    4    0    0 -0.11823268231E-01  0.74923319939E-02 -0.39569595779E-02  0.14554839761E-01  0.51100000000E-03 0.  1.
</event>
<event>
 8    1  0.1065239E+005  0.1043930E+01  0.7957747E-01            NaN
         13   -1    0    0    0    0  0.00000000000E+00  0.00000000000E+00  0.74505805969E-08  0.10566000000E+00  0.10566000000E+00 0.  1.
     999900   -1    0    0    0    0 -0.00000000000E+00 -0.00000000000E+00 -0.74505805969E-08  0.93827000000E+00  0.93827000000E+00 0. -1.
     999902    2    1    2    0    0 -0.20493430273E-01 -0.27832043799E-02 -0.11254051632E-01  0.10203847120E+01  0.10201130231E+01 0.  0.
     999903    2    3    3    0    0  0.97315948385E-01 -0.21744609263E-01  0.77466622581E-01  0.12791065485E+00  0.20416566008E-01 0.  0.
         14    1    1    2    0    0  0.20493430273E-01  0.27832043799E-02  0.11254051632E-01  0.23545288045E-01  0.00000000000E+00 0.  1.
     999901    1    3    3    0    0 -0.11780937866E+00  0.18961404883E-01 -0.88720674214E-01  0.89247405711E+00  0.88000000000E+00 0. -1.
        -11    1    4    4    0    0  0.37561043252E-01 -0.11899687104E-01  0.42594603492E-01  0.58025820899E-01  0.51100000000E-03 0. -1.
         11    1    4    4    0    0  0.59754905133E-01 -0.98449221582E-02  0.34872019089E-01  0.69884833950E-01  0.51100000000E-03 0.  1.
</event>
<event>
 8    1  0.1065239E+005  0.1043930E+01  0.7957747E-01            NaN
         13   -1    0    0    0    0  0.00000000000E+00  0.00000000000E+00  0.74505805969E-08  0.10566000000E+00  0.10566000000E+00 0.  1.
     999900   -1    0    0    0    0 -0.00000000000E+00 -0.00000000000E+00 -0.74505805969E-08  0.93827000000E+00  0.93827000000E+00 0.  1.
     999902    2    1    2    0    0  0.23181531152E-01  0.37931450281E-02  0.69406142359E-02  0.10194362567E+01  0.10191419616E+01 0.  0.
     999903    2    3    3    0    0  0.43951763589E-01 -0.71398261846E-01 -0.97043852487E-01  0.12988697781E+00  0.20582720463E-01 0.  0.
         14    1    1    2    0    0 -0.23181531152E-01 -0.37931450281E-02 -0.69406142359E-02  0.24493743318E-01  0.00000000000E+00 0. -1.
     999901    1    3    3    0    0 -0.20770232437E-01  0.75191406874E-01  0.10398446672E+00  0.88954927887E+00  0.88000000000E+00 0. -1.
        -11    1    4    4    0    0  0.19197462052E-01 -0.34067349336E-01 -0.30152540109E-01  0.49381814832E-01  0.51100000000E-03 0.  1.
         11    1    4    4    0    0  0.24754301536E-01 -0.37330912510E-01 -0.66891312378E-01  0.80505162978E-01  0.51100000000E-03 0. -1.
</event>
<event>
 8    1  0.1065239E+005  0.1043930E+01  0.7957747E-01            NaN
         13   -1    0    0    0    0  0.00000000000E+00  0.00000000000E+00  0.74505805969E-08  0.10566000000E+00  0.10566000000E+00 0. -1.
     999900   -1    0    0    0    0 -0.00000000000E+00 -0.00000000000E+00 -0.74505805969E-08  0.93827000000E+00  0.93827000000E+00 0. -1.
     999902    2    1    2    0    0 -0.21793732221E-01  0.68054458432E-02 -0.89144781470E-03  0.10210810277E+01  0.10208253472E+01 0.  0.
     999903    2    3    3    0    0 -0.10372616729E+00 -0.56959610986E-01 -0.57641296777E-01  0.13316242119E+00  0.20154311162E-01 0.  0.
         14    1    1    2    0    0  0.21793732221E-01 -0.68054458432E-02  0.89144781470E-03  0.22848972328E-01  0.00000000000E+00 0.  1.
     999901    1    3    3    0    0  0.81932435065E-01  0.63765056829E-01  0.56749848962E-01  0.88791860649E+00  0.88000000000E+00 0. -1.
        -11    1    4    4    0    0 -0.81907975301E-01 -0.44764798801E-01 -0.35827521934E-01  0.99983379012E-01  0.51100000000E-03 0. -1.
         11    1    4    4    0    0 -0.21818191985E-01 -0.12194812185E-01 -0.21813774842E-01  0.33179042174E-01  0.51100000000E-03 0.  1.
</event>
<event>
 8    1  0.1065239E+005  0.1043930E+01  0.7957747E-01            NaN
         13   -1    0    0    0    0  0.00000000000E+00  0.00000000000E+00  0.74505805969E-08  0.10566000000E+00  0.10566000000E+00 0. -1.
     999900   -1    0    0    0    0 -0.00000000000E+00 -0.00000000000E+00 -0.74505805969E-08  0.93827000000E+00  0.93827000000E+00 0. -1.
     999902    2    1    2    0    0 -0.24340911165E-01  0.20288108517E-01  0.15586489725E-01  0.10086167452E+01  0.10079983694E+01 0.  0.
     999903    2    3    3    0    0 -0.11752667850E+00  0.28647173579E-01  0.14883577205E-01  0.12365688435E+00  0.20888357151E-01 0.  0.
         14    1    1    2    0    0  0.24340911165E-01 -0.20288108517E-01 -0.15586489725E-01  0.35313254813E-01  0.00000000000E+00 0.  1.
     999901    1    3    3    0    0  0.93185767334E-01 -0.83590650617E-02  0.70291251967E-03  0.88495986083E+00  0.88000000000E+00 0.  1.
        -11    1    4    4    0    0 -0.51676273813E-01  0.13757014571E-01  0.16980055252E-01  0.56109501178E-01  0.51100000000E-03 0. -1.
         11    1    4    4    0    0 -0.65850404685E-01  0.14890159008E-01 -0.20964780473E-02  0.67547383174E-01  0.51100000000E-03 0.  1.
</event>
<event>
 8    1  0.1065239E+005  0.1043930E+01  0.7957747E-01            NaN
         13   -1    0    0    0    0  0.00000000000E+00  0.00000000000E+00  0.74505805969E-08  0.10566000000E+00  0.10566000000E+00 0.  1.
     999900   -1    0    0    0    0 -0.00000000000E+00 -0.00000000000E+00 -0.74505805969E-08  0.93827000000E+00  0.93827000000E+00 0. -1.
     999902    2    1    2    0    0  0.21856333300E-03  0.17901508597E-01  0.18222995706E-01  0.10183841715E+01  0.10180637168E+01 0.  0.
     999903    2    3    3    0    0 -0.15379367257E-01 -0.10986584880E+00  0.60606733236E-01  0.12801111810E+00  0.20165330984E-01 0.  0.
         14    1    1    2    0    0 -0.21856333300E-03 -0.17901508597E-01 -0.18222995706E-01  0.25545828475E-01  0.00000000000E+00 0.  1.
     999901    1    3    3    0    0  0.15597930590E-01  0.12776735740E+00 -0.42383737530E-01  0.89037305342E+00  0.88000000000E+00 0.  1.
        -11    1    4    4    0    0 -0.19329583248E-01 -0.96219565422E-01  0.56358968504E-01  0.11317434343E+00  0.51100000000E-03 0. -1.
         11    1    4    4    0    0  0.39502159913E-02 -0.13646283382E-01  0.42477647317E-02  0.14836774674E-01  0.51100000000E-03 0.  1.
</event>
<event>
 8    1  0.1065239E+005  0.1043930E+01  0.7957747E-01            NaN
         13   -1    0    0    0    0  0.00000000000E+00  0.00000000000E+00  0.74505805969E-08  0.10566000000E+00  0.10566000000E+00 0. -1.
     999900   -1    0    0    0    0 -0.00000000000E+00 -0.00000000000E+00 -0.74505805969E-08  0.93827000000E+00  0.93827000000E+00 0. -1.
     999902    2    1    2    0    0  0.10882287119E-01 -0.10625821713E-01  0.17705006149E-01  0.10205890595E+01  0.10203221202E+01 0.  0.
     999903    2    3    3    0    0 -0.16853006991E-01  0.12033843862E+00 -0.37610149112E-01  0.12874790189E+00  0.19903147276E-01 0.  0.
         14    1    1    2    0    0 -0.10882287119E-01  0.10625821713E-01 -0.17705006149E-01  0.23340940485E-01  0.00000000000E+00 0.  1.
     999901    1    3    3    0    0  0.27735294109E-01 -0.13096426033E+00  0.55315155261E-01  0.89184115762E+00  0.88000000000E+00 0.  1.
        -11    1    4    4    0    0 -0.18665551129E-01  0.65953691221E-01 -0.24306246157E-01  0.72727896352E-01  0.51100000000E-03 0.  1.
         11    1    4    4    0    0  0.18125441384E-02  0.54384747400E-01 -0.13303902955E-01  0.56020005542E-01  0.51100000000E-03 0. -1.
</event>
<event>
 7    1  0.1065239E+005  0.1043930E+01  0.7957747E-01            NaN
         13   -1    0    0    0    0  0.00000000000E+00  0.00000000000E+00  0.74505805969E-08  0.10566000000E+00  0.10566000000E+00 0.  1.
     999900   -1    0    0    0    0 -0.00000000000E+00 -0.00000000000E+00 -0.74505805969E-08  0.93827000000E+00  0.93827000000E+00 0. -1.
     999902    2    1    2    0    0 -0.45254336607E-03  0.16766908341E-01  0.16620470041E-01  0.10203169944E+01  0.10200437221E+01 0.  0.
         14    1    1    2    0    0  0.45254336607E-03 -0.16766908341E-01 -0.16620470041E-01  0.23613005637E-01  0.00000000000E+00 0.  1.
     999901    1    3    3    0    0  0.22575973128E-01  0.13292444439E+00  0.13563282495E-01  0.89037213855E+00  0.88000000000E+00 0. -1.
        -11    1    3    3    0    0 -0.15789642580E-01 -0.47087323348E-01 -0.24309768494E-01  0.55296969159E-01  0.51100000000E-03 0.  1.
         11    1    3    3    0    0 -0.72388739142E-02 -0.69070212698E-01  0.27366956041E-01  0.74647886652E-01  0.51100000000E-03 0. -1.
</event>
<event>
 8    1  0.1065239E+005  0.1043930E+01  0.7957747E-01            NaN
         13   -1    0    0    0    0  0.00000000000E+00  0.00000000000E+00  0.74505805969E-08  0.10566000000E+00  0.10566000000E+00 0.  1.
     999900   -1    0    0    0    0 -0.00000000000E+00 -0.00000000000E+00 -0.74505805969E-08  0.93827000000E+00  0.93827000000E+00 0.  1.
     999902    2    1    2    0    0  0.11139392825E-01 -0.21222386894E-01  0.77377546668E-03  0.10199492889E+01  0.10196673366E+01 0.  0.
     999903    2    3    3    0    0  0.21815017059E-01 -0.12834742316E+00  0.19565694893E-01  0.13318952513E+00  0.20191017498E-01 0.  0.
         14    1    1    2    0    0 -0.11139392825E-01  0.21222386894E-01 -0.77377546668E-03  0.23980711133E-01  0.00000000000E+00 0. -1.
     999901    1    3    3    0    0 -0.10675624234E-01  0.10712503626E+00 -0.18791919426E-01  0.88675976374E+00  0.88000000000E+00 0.  1.
        -11    1    4    4    0    0  0.50459414861E-02 -0.21219644993E-01  0.10958787914E-01  0.24414975172E-01  0.51100000000E-03 0. -1.
         11    1    4    4    0    0  0.16769075573E-01 -0.10712777816E+00  0.86069069781E-02  0.10877454996E+00  0.51100000000E-03 0.  1.
</event>
<event>
 8    1  0.1065239E+005  0.1043930E+01  0.7957747E-01            NaN
         13   -1    0    0    0    0  0.00000000000E+00  0.00000000000E+00  0.74505805969E-08  0.10566000000E+00  0.10566000000E+00 0.  1.
     999900   -1    0    0    0    0 -0.00000000000E+00 -0.00000000000E+00 -0.74505805969E-08  0.93827000000E+00  0.93827000000E+00 0. -1.
     999902    2    1    2    0    0 -0.40922996636E-02 -0.10771862623E-01  0.19015641316E-01  0.10216954648E+01  0.10214534978E+01 0.  0.
     999903    2    3    3    0    0  0.42954012892E-01  0.12128998471E+00  0.95989902372E-02  0.13054881000E+00  0.19863120735E-01 0.  0.
         14    1    1    2    0    0  0.40922996636E-02  0.10771862623E-01 -0.19015641316E-01  0.22234535200E-01  0.00000000000E+00 0. -1.
     999901    1    3    3    0    0 -0.47046312555E-01 -0.13206184733E+00  0.94166510786E-02  0.89114665480E+00  0.88000000000E+00 0. -1.
        -11    1    4    4    0    0  0.30666005750E-01  0.68215579623E-01  0.13200346809E-01  0.75949190179E-01  0.51100000000E-03 0. -1.
         11    1    4    4    0    0  0.12288007142E-01  0.53074405082E-01 -0.36013565717E-02  0.54599619820E-01  0.51100000000E-03 0.  1.
</event>
<event>
 8    1  0.1065239E+005  0.1043930E+01  0.7957747E-01            NaN
         13   -1    0    0    0    0  0.00000000000E+00  0.00000000000E+00  0.74505805969E-08  0.10566000000E+00  0.10566000000E+00 0. -1.
     999900   -1    0    0    0    0 -0.00000000000E+00 -0.00000000000E+00 -0.74505805969E-08  0.93827000000E+00  0.93827000000E+00 0.  1.
     999902    2    1    2    0    0  0.16262163399E-02  0.68402599945E-02  0.23561228967E-01  0.10193420915E+01  0.10190455015E+01 0.  0.
     999903    2    3    3    0    0 -0.75903119941E-01 -0.95791464390E-01  0.38059037254E-01  0.12987356740E+00  0.21940030208E-01 0.  0.
         14    1    1    2    0    0 -0.16262163399E-02 -0.68402599945E-02 -0.23561228967E-01  0.24587908549E-01  0.00000000000E+00 0.  1.
     999901    1    3    3    0    0  0.77529336281E-01  0.10263172438E+00 -0.14497808287E-01  0.88946852405E+00  0.88000000000E+00 0.  1.
        -11    1    4    4    0    0 -0.60756975415E-01 -0.79840345145E-01  0.39495949257E-01  0.10782431035E+00  0.51100000000E-03 0.  1.
         11    1    4    4    0    0 -0.15146144526E-01 -0.15951119245E-01 -0.14369120032E-02  0.22049257046E-01  0.51100000000E-03 0. -1.
</event>
<event>
 8    1  0.1065239E+005  0.1043930E+01  0.7957747E-01            NaN
         13   -1    0    0    0    0  0.00000000000E+00  0.00000000000E+00  0.74505805969E-08  0.10566000000E+00  0.10566000000E+00 0.  1.
     999900   -1    0    0    0    0 -0.00000000000E+00 -0.00000000000E+00 -0.74505805969E-08  0.93827000000E+00  0.93827000000E+00 0. -1.
     999902    2    1    2    0    0  0.16093395034E-01 -0.54329613068E-02 -0.18723307280E-01  0.10186500343E+01  0.10183362979E+01 0.  0.
     999903    2    3    3    0    0  0.10523294396E+00 -0.53620180789E-01  0.52122847506E-01  0.13000666094E+00  0.15357225446E-01 0.  0.
         14    1    1    2    0    0 -0.16093395034E-01  0.54329613068E-02  0.18723307280E-01  0.25279965739E-01  0.00000000000E+00 0.  1.
     999901    1    3    3    0    0 -0.89139548927E-01  0.48187219483E-01 -0.70846154785E-01  0.88864337332E+00  0.88000000000E+00 0.  1.
        -11    1    4    4    0    0  0.48155086063E-01 -0.29242148453E-01  0.17827172336E-01  0.59093863931E-01  0.51100000000E-03 0.  1.
         11    1    4    4    0    0  0.57077857898E-01 -0.24378032337E-01  0.34295675170E-01  0.70912797006E-01  0.51100000000E-03 0. -1.
</event>
<event>
 8    1  0.1065239E+005  0.1043930E+01  0.7957747E-01            NaN
         13   -1    0    0    0    0  0.00000000000E+00  0.00000000000E+00  0.74505805969E-08  0.10566000000E+00  0.10566000000E+00 0. -1.
     999900   -1    0    0    0    0 -0.00000000000E+00 -0.00000000000E+00 -0.74505805969E-08  0.93827000000E+00  0.93827000000E+00 0. -1.
     999902    2    1    2    0    0  0.24145885471E-02 -0.23697488806E-01  0.96794506904E-03  0.10200901566E+01  0.10198115461E+01 0.  0.
     999903    2    3    3    0    0  0.40998246415E-02 -0.30369014807E-02  0.12917887483E+00  0.13055783997E+00  0.18224613677E-01 0.  0.
         14    1    1    2    0    0 -0.24145885471E-02  0.23697488806E-01 -0.96794506904E-03  0.23839843356E-01  0.00000000000E+00 0.  1.
     999901    1    3    3    0    0 -0.16852360944E-02 -0.20660587325E-01 -0.12821092976E+00  0.88953231667E+00  0.88000000000E+00 0. -1.
        -11    1    4    4    0    0  0.52514205798E-02 -0.30344924287E-02  0.12813478535E-01  0.14185623553E-01  0.51100000000E-03 0.  1.
         11    1    4    4    0    0 -0.11515959383E-02 -0.24090520092E-05  0.11636539630E+00  0.11637221642E+00  0.51100000000E-03 0. -1.
</event>
<event>
 8    1  0.1065239E+005  0.1043930E+01  0.7957747E-01            NaN
         13   -1    0    0    0    0  0.00000000000E+00  0.00000000000E+00  0.74505805969E-08  0.10566000000E+00  0.10566000000E+00 0.  1.
     999900   -1    0    0    0    0 -0.00000000000E+00 -0.00000000000E+00 -0.74505805969E-08  0.93827000000E+00  0.93827000000E+00 0.  1.
     999902    2    1    2    0    0 -0.23022611802E-01 -0.14117628721E-02 -0.68797339074E-02  0.10198600090E+01  0.10195759283E+01 0.  0.
     999903    2    3    3    0    0  0.20827700740E-01  0.96124507141E-01  0.81005836666E-01  0.12904013528E+00  0.20388647536E-01 0.  0.
         14    1    1    2    0    0  0.23022611802E-01  0.14117628721E-02  0.68797339074E-02  0.24069991010E-01  0.00000000000E+00 0.  1.
     999901    1    3    3    0    0 -0.43850312542E-01 -0.97536270013E-01 -0.87885570573E-01  0.89081987371E+00  0.88000000000E+00 0.  1.
        -11    1    4    4    0    0 -0.39000269459E-02  0.10699158891E-01  0.11219288310E-01  0.15994241537E-01  0.51100000000E-03 0.  1.
         11    1    4    4    0    0  0.24727727686E-01  0.85425348250E-01  0.69786548356E-01  0.11304589374E+00  0.51100000000E-03 0. -1.
</event>
<event>
 8    1  0.1065239E+005  0.1043930E+01  0.7957747E-01            NaN
         13   -1    0    0    0    0  0.00000000000E+00  0.00000000000E+00  0.74505805969E-08  0.10566000000E+00  0.10566000000E+00 0.  1.
     999900   -1    0    0    0    0 -0.00000000000E+00 -0.00000000000E+00 -0.74505805969E-08  0.93827000000E+00  0.93827000000E+00 0. -1.
     999902    2    1    2    0    0  0.12485957799E-01  0.14288744656E-01  0.14448010958E-01  0.10200802120E+01  0.10198013662E+01 0.  0.
     999903    2    3    3    0    0 -0.19767874901E-01  0.68331148877E-01  0.11010648127E+00  0.13266180218E+00  0.20391217623E-01 0.  0.
         14    1    1    2    0    0 -0.12485957799E-01 -0.14288744656E-01 -0.14448010958E-01  0.23849787979E-01  0.00000000000E+00 0.  1.
     999901    1    3    3    0    0  0.32253832700E-01 -0.54042404221E-01 -0.95658470310E-01  0.88741840984E+00  0.88000000000E+00 0. -1.
        -11    1    4    4    0    0  0.28949882329E-02  0.22173109556E-01  0.28937103528E-01  0.36573827061E-01  0.51100000000E-03 0. -1.
         11    1    4    4    0    0 -0.22662863134E-01  0.46158039321E-01  0.81169377740E-01  0.96087975122E-01  0.51100000000E-03 0.  1.
</event>
<event>
 8    1  0.1065239E+005  0.1043930E+01  0.7957747E-01            NaN
         13   -1    0    0    0    0  0.00000000000E+00  0.00000000000E+00  0.74505805969E-08  0.10566000000E+00  0.10566000000E+00 0.  1.
     999900   -1    0    0    0    0 -0.00000000000E+00 -0.00000000000E+00 -0.74505805969E-08  0.93827000000E+00  0.93827000000E+00 0. -1.
     999902    2    1    2    0    0  0.20801021352E-01 -0.74451770311E-02 -0.63808228365E-02  0.10209337383E+01  0.10206747131E+01 0.  0.
     999903    2    3    3    0    0 -0.77409924910E-01 -0.52217999585E-01 -0.88693647961E-01  0.13052630531E+00  0.21249405523E-01 0.  0.
         14    1    1    2    0    0 -0.20801021352E-01  0.74451770311E-02  0.63808228365E-02  0.22996261661E-01  0.00000000000E+00 0.  1.
     999901    1    3    3    0    0  0.98210946262E-01  0.44772822554E-01  0.82312825125E-01  0.89040743302E+00  0.88000000000E+00 0.  1.
        -11    1    4    4    0    0 -0.62056357184E-01 -0.44955661437E-01 -0.60612796654E-01  0.97704530097E-01  0.51100000000E-03 0.  1.
         11    1    4    4    0    0 -0.15353567725E-01 -0.72623381484E-02 -0.28080851307E-01  0.32821775217E-01  0.51100000000E-03 0. -1.
</event>
<event>
 8    1  0.1342651E+005  0.1043930E+01  0.7957747E-01            NaN
         13   -1    0    0    0    0  0.00000000000E+00  0.00000000000E+00  0.74505805969E-08  0.10566000000E+00  0.10566000000E+00 0.  1.
     999900   -1    0    0    0    0 -0.00000000000E+00 -0.00000000000E+00 -0.74505805969E-08  0.93827000000E+00  0.93827000000E+00 0.  1.
     999902    2    1    2    0    0  0.43518600505E-02  0.20945495024E-01  0.36235727027E-02  0.10222324719E+01  0.10220021741E+01 0.  0.
     999903    2    3    3    0    0  0.89798413862E-01  0.87578808424E-01 -0.45054383593E-01  0.13425124716E+00  0.16115119176E-01 0.  0.
         14    1    1    2    0    0 -0.43518600505E-02 -0.20945495024E-01 -0.36235727027E-02  0.21697528128E-01  0.00000000000E+00 0. -1.
     999901    1    3    3    0    0 -0.85446553811E-01 -0.66633313399E-01  0.48677956295E-01  0.88798122471E+00  0.88000000000E+00 0.  1.
        -11    1    4    4    0    0  0.39774148167E-01  0.41336816557E-01 -0.12343304347E-01  0.58679924580E-01  0.51100000000E-03 0.  1.
         11    1    4    4    0    0  0.50024265695E-01  0.46241991866E-01 -0.32711079246E-01  0.75571322580E-01  0.51100000000E-03 0. -1.
</event>
<event>
 8    1  0.1065239E+005  0.1043930E+01  0.7957747E-01            NaN
         13   -1    0    0    0    0  0.00000000000E+00  0.00000000000E+00  0.74505805969E-08  0.10566000000E+00  0.10566000000E+00 0. -1.
     999900   -1    0    0    0    0 -0.00000000000E+00 -0.00000000000E+00 -0.74505805969E-08  0.93827000000E+00  0.93827000000E+00 0. -1.
     999902    2    1    2    0    0 -0.15394951427E-01  0.11237828745E-01 -0.15210817267E-01  0.10195443016E+01  0.10192526285E+01 0.  0.
     999903    2    3    3    0    0  0.36083385727E-01 -0.10598476300E+00 -0.61801562170E-01  0.12906024632E+00  0.17387736447E-01 0.  0.
         14    1    1    2    0    0  0.15394951427E-01 -0.11237828745E-01  0.15210817267E-01  0.24385698397E-01  0.00000000000E+00 0. -1.
     999901    1    3    3    0    0 -0.51478337154E-01  0.11722259174E+00  0.46590744903E-01  0.89048405529E+00  0.88000000000E+00 0. -1.
        -11    1    4    4    0    0  0.12650013042E-02 -0.26003260796E-01 -0.12990665236E-01  0.29099627224E-01  0.51100000000E-03 0. -1.
         11    1    4    4    0    0  0.34818384423E-01 -0.79981502204E-01 -0.48810896934E-01  0.99960619091E-01  0.51100000000E-03 0.  1.
</event>
<event>
 8    1  0.1065239E+005  0.1043930E+01  0.7957747E-01            NaN
         13   -1    0    0    0    0  0.00000000000E+00  0.00000000000E+00  0.74505805969E-08  0.10566000000E+00  0.10566000000E+00 0. -1.
     999900   -1    0    0    0    0 -0.00000000000E+00 -0.00000000000E+00 -0.74505805969E-08  0.93827000000E+00  0.93827000000E+00 0.  1.
     999902    2    1    2    0    0 -0.11035115762E-01 -0.16900021228E-01 -0.10112858529E-01  0.10213544733E+01  0.10211049436E+01 0.  0.
     999903    2    3    3    0    0  0.80198301715E-01  0.67461025707E-01 -0.74937053326E-01  0.13026385002E+00  0.19244507592E-01 0.  0.
         14    1    1    2    0    0  0.11035115762E-01  0.16900021228E-01  0.10112858529E-01  0.22575526683E-01  0.00000000000E+00 0. -1.
     999901    1    3    3    0    0 -0.91233417477E-01 -0.84361046934E-01  0.64824194796E-01  0.89109062330E+00  0.88000000000E+00 0.  1.
        -11    1    4    4    0    0  0.17827546459E-01  0.68501575403E-02 -0.18441799568E-01  0.26553854021E-01  0.51100000000E-03 0.  1.
         11    1    4    4    0    0  0.62370755257E-01  0.60610868166E-01 -0.56495253758E-01  0.10370999600E+00  0.51100000000E-03 0. -1.
</event>
<event>
 8    1  0.1065239E+005  0.1043930E+01  0.7957747E-01            NaN
         13   -1    0    0    0    0  0.00000000000E+00  0.00000000000E+00  0.74505805969E-08  0.10566000000E+00  0.10566000000E+00 0.  1.
     999900   -1    0    0    0    0 -0.00000000000E+00 -0.00000000000E+00 -0.74505805969E-08  0.93827000000E+00  0.93827000000E+00 0.  1.
     999902    2    1    2    0    0  0.23431893797E-01  0.14366929840E-02  0.44442847760E-02  0.10200371266E+01  0.10197572604E+01 0.  0.
     999903    2    3    3    0    0  0.24411512938E-01  0.25479188037E-01  0.12506635380E+00  0.13148285993E+00  0.20025948578E-01 0.  0.
         14    1    1    2    0    0 -0.23431893797E-01 -0.14366929840E-02 -0.44442847760E-02  0.23892873432E-01  0.00000000000E+00 0. -1.
     999901    1    3    3    0    0 -0.97961914087E-03 -0.24042495053E-01 -0.12062206902E+00  0.88855426664E+00  0.88000000000E+00 0.  1.
        -11    1    4    4    0    0 -0.22573116384E-03  0.63733236509E-02  0.46775427227E-01  0.47210930114E-01  0.51100000000E-03 0.  1.
         11    1    4    4    0    0  0.24637244102E-01  0.19105864386E-01  0.78290926571E-01  0.84271929818E-01  0.51100000000E-03 0. -1.
</event>
<event>
 8    1  0.1065239E+005  0.1043930E+01  0.7957747E-01            NaN
         13   -1    0    0    0    0  0.00000000000E+00  0.00000000000E+00  0.74505805969E-08  0.10566000000E+00  0.10566000000E+00 0. -1.
     999900   -1    0    0    0    0 -0.00000000000E+00 -0.00000000000E+00 -0.74505805969E-08  0.93827000000E+00  0.93827000000E+00 0. -1.
     999902    2    1    2    0    0  0.45021070259E-02 -0.23248190243E-01  0.29509911174E-02  0.10200667298E+01  0.10197875649E+01 0.  0.
     999903    2    3    3    0    0 -0.76699414560E-01 -0.10596356334E+00 -0.41610197699E-02  0.13243724584E+00  0.20278881868E-01 0.  0.
         14    1    1    2    0    0 -0.45021070259E-02  0.23248190243E-01 -0.29509911174E-02  0.23863270225E-01  0.00000000000E+00 0.  1.
     999901    1    3    3    0    0  0.81201521586E-01  0.82715373099E-01  0.71120108873E-02  0.88762948394E+00  0.88000000000E+00 0. -1.
        -11    1    4    4    0    0 -0.14748060175E-01 -0.33240606179E-01  0.38241940018E-02  0.36569505859E-01  0.51100000000E-03 0. -1.
         11    1    4    4    0    0 -0.61951354385E-01 -0.72722957164E-01 -0.79852137718E-02  0.95867739979E-01  0.51100000000E-03 0.  1.
</event>
<event>
 8    1  0.1065239E+005  0.1043930E+01  0.7957747E-01            NaN
         13   -1    0    0    0    0  0.00000000000E+00  0.00000000000E+00  0.74505805969E-08  0.10566000000E+00  0.10566000000E+00 0.  1.
     999900   -1    0    0    0    0 -0.00000000000E+00 -0.00000000000E+00 -0.74505805969E-08  0.93827000000E+00  0.93827000000E+00 0. -1.
     999902    2    1    2    0    0  0.16152349606E-01  0.43468926973E-02 -0.17127592759E-01  0.10199894840E+01  0.10197084873E+01 0.  0.
     999903    2    3    3    0    0 -0.57904556624E-01 -0.89424436321E-01  0.67836025966E-01  0.12785927822E+00  0.19914846709E-01 0.  0.
         14    1    1    2    0    0 -0.16152349606E-01 -0.43468926973E-02  0.17127592759E-01  0.23940516027E-01  0.00000000000E+00 0.  1.
     999901    1    3    3    0    0  0.74056906230E-01  0.93771329018E-01 -0.84963618726E-01  0.89213020575E+00  0.88000000000E+00 0. -1.
        -11    1    4    4    0    0 -0.24198921855E-01 -0.31765792262E-01  0.36422469107E-01  0.54051001414E-01  0.51100000000E-03 0.  1.
         11    1    4    4    0    0 -0.33705634769E-01 -0.57658644059E-01  0.31413556860E-01  0.73808276809E-01  0.51100000000E-03 0. -1.
</event>
<event>
 8    1  0.1065239E+005  0.1043930E+01  0.7957747E-01            NaN
         13   -1    0    0    0    0  0.00000000000E+00  0.00000000000E+00  0.74505805969E-08  0.10566000000E+00  0.10566000000E+00 0.  1.
     999900   -1    0    0    0    0 -0.00000000000E+00 -0.00000000000E+00 -0.74505805969E-08  0.93827000000E+00  0.93827000000E+00 0. -1.
     999902    2    1    2    0    0 -0.22702528326E-01  0.67105781398E-02 -0.90722134069E-02  0.10185776489E+01  0.10182620906E+01 0.  0.
     999903    2    3    3    0    0 -0.12328475841E+00  0.28394200717E-01  0.30489771830E-01  0.13169991482E+00  0.20245470737E-01 0.  0.
         14    1    1    2    0    0  0.22702528326E-01 -0.67105781398E-02  0.90722134069E-02  0.25352351123E-01  0.00000000000E+00 0.  1.
     999901    1    3    3    0    0  0.10058223009E+00 -0.21683622577E-01 -0.39561985237E-01  0.88687773406E+00  0.88000000000E+00 0. -1.
        -11    1    4    4    0    0 -0.40710519132E-01 -0.15675903093E-03  0.82485591444E-02  0.41541193897E-01  0.51100000000E-03 0. -1.
         11    1    4    4    0    0 -0.82574239280E-01  0.28550959747E-01  0.22241212686E-01  0.90158720919E-01  0.51100000000E-03 0.  1.
</event>
<event>
 8    1  0.1065239E+005  0.1043930E+01  0.7957747E-01            NaN
         13   -1    0    0    0    0  0.00000000000E+00  0.00000000000E+00  0.74505805969E-08  0.10566000000E+00  0.10566000000E+00 0. -1.
     999900   -1    0    0    0    0 -0.00000000000E+00 -0.00000000000E+00 -0.74505805969E-08  0.93827000000E+00  0.93827000000E+00 0. -1.
     999902    2    1    2    0    0  0.11590621234E-01 -0.16656793361E-01  0.11738136042E-01  0.10204869818E+01  0.10202176752E+01 0.  0.
     999903    2    3    3    0    0  0.11172082333E+00 -0.57467114988E-01  0.39968037673E-01  0.13341964100E+00  0.20477912470E-01 0.  0.
         14    1    1    2    0    0 -0.11590621234E-01  0.16656793361E-01 -0.11738136042E-01  0.23443018222E-01  0.00000000000E+00 0.  1.
     999901    1    3    3    0    0 -0.10013020210E+00  0.40810321628E-01 -0.28229901632E-01  0.88706734077E+00  0.88000000000E+00 0. -1.
        -11    1    4    4    0    0  0.70674944669E-01 -0.39107130605E-01  0.35495462340E-01  0.88229838694E-01  0.51100000000E-03 0.  1.
         11    1    4    4    0    0  0.41045878661E-01 -0.18359984383E-01  0.44725753331E-02  0.45189802309E-01  0.51100000000E-03 0. -1.
</event>
<event>
 8    1  0.1065239E+005  0.1043930E+01  0.7957747E-01            NaN
         13   -1    0    0    0    0  0.00000000000E+00  0.00000000000E+00  0.74505805969E-08  0.10566000000E+00  0.10566000000E+00 0. -1.
     999900   -1    0    0    0    0 -0.00000000000E+00 -0.00000000000E+00 -0.74505805969E-08  0.93827000000E+00  0.93827000000E+00 0.  1.
     999902    2    1    2    0    0 -0.14675440016E-01 -0.18009072464E-01 -0.40180538494E-02  0.10203537410E+01  0.10200813285E+01 0.  0.
     999903    2    3    3    0    0  0.10445870559E+00  0.63475206727E-01  0.32928400127E-01  0.12783053524E+00  0.17766349115E-01 0.  0.
         14    1    1    2    0    0  0.14675440016E-01  0.18009072464E-01  0.40180538494E-02  0.23576258979E-01  0.00000000000E+00 0.  1.
     999901    1    3    3    0    0 -0.11913414561E+00 -0.81484279191E-01 -0.36946453976E-01  0.89252320579E+00  0.88000000000E+00 0.  1.
        -11    1    4    4    0    0  0.21974678586E-01  0.65899488323E-02  0.10058190231E-01  0.25054784699E-01  0.51100000000E-03 0. -1.
         11    1    4    4    0    0  0.82484027005E-01  0.56885257894E-01  0.22870209896E-01  0.10277575054E+00  0.51100000000E-03 0.  1.
</event>
<event>
 8    1  0.1065239E+005  0.1043930E+01  0.7957747E-01            NaN
         13   -1    0    0    0    0  0.00000000000E+00  0.00000000000E+00  0.74505805969E-08  0.10566000000E+00  0.10566000000E+00 0.  1.
     999900   -1    0    0    0    0 -0.00000000000E+00 -0.00000000000E+00 -0.74505805969E-08  0.93827000000E+00  0.93827000000E+00 0. -1.
     999902    2    1    2    0    0 -0.22218214448E-01 -0.41716649059E-03  0.72193991111E-02  0.10205645810E+01  0.10202970750E+01 0.  0.
     999903    2    3    3    0    0 -0.10903459301E+00  0.27125258995E-01 -0.67751741949E-01  0.13269277676E+00  0.19817979677E-01 0.  0.
         14    1    1    2    0    0  0.22218214448E-01  0.41716649059E-03 -0.72193991111E-02  0.23365418992E-01  0.00000000000E+00 0. -1.
     999901    1    3    3    0    0  0.86816378562E-01 -0.27542425486E-01  0.74971141060E-01  0.88787180425E+00  0.88000000000E+00 0.  1.
        -11    1    4    4    0    0 -0.26631238139E-01  0.14462630486E-01 -0.13196672372E-01  0.33057583216E-01  0.51100000000E-03 0.  1.
         11    1    4    4    0    0 -0.82403354871E-01  0.12662628509E-01 -0.54555069577E-01  0.99635193543E-01  0.51100000000E-03 0. -1.
</event>
<event>
 8    1  0.1065239E+005  0.1043930E+01  0.7957747E-01            NaN
         13   -1    0    0    0    0  0.00000000000E+00  0.00000000000E+00  0.74505805969E-08  0.10566000000E+00  0.10566000000E+00 0. -1.
     999900   -1    0    0    0    0 -0.00000000000E+00 -0.00000000000E+00 -0.74505805969E-08  0.93827000000E+00  0.93827000000E+00 0. -1.
     999902    2    1    2    0    0 -0.25473622226E-02  0.11680594014E-01 -0.20421704717E-01  0.10202662861E+01  0.10199918251E+01 0.  0.
     999903    2    3    3    0    0 -0.46822310260E-01 -0.39252977515E-01  0.11062610177E+00  0.12800621904E+00  0.20355164884E-01 0.  0.
         14    1    1    2    0    0  0.25473622226E-02 -0.11680594014E-01  0.20421704717E-01  0.23663713875E-01  0.00000000000E+00 0. -1.
     999901    1    3    3    0    0  0.44274948037E-01  0.50933571529E-01 -0.13104780649E+00  0.89226006709E+00  0.88000000000E+00 0. -1.
        -11    1    4    4    0    0 -0.39873085221E-01 -0.23882643364E-01  0.70137973729E-01  0.84141785451E-01  0.51100000000E-03 0. -1.
         11    1    4    4    0    0 -0.69492250391E-02 -0.15370334151E-01  0.40488128042E-01  0.43864433587E-01  0.51100000000E-03 0.  1.
</event>
<event>
 8    1  0.1065239E+005  0.1043930E+01  0.7957747E-01            NaN
         13   -1    0    0    0    0  0.00000000000E+00  0.00000000000E+00  0.74505805969E-08  0.10566000000E+00  0.10566000000E+00 0.  1.
     999900   -1    0    0    0    0 -0.00000000000E+00 -0.00000000000E+00 -0.74505805969E-08  0.93827000000E+00  0.93827000000E+00 0. -1.
     999902    2    1    2    0    0 -0.52376543463E-02  0.11838252102E-01 -0.17065815112E-01  0.10225099327E+01  0.10222855488E+01 0.  0.
     999903    2    3    3    0    0 -0.10302072264E+00  0.34504191485E-01  0.71313966279E-01  0.13240529900E+00  0.25331263169E-01 0.  0.
         14    1    1    2    0    0  0.52376543463E-02 -0.11838252102E-01  0.17065815112E-01  0.21420067258E-01  0.00000000000E+00 0.  1.
     999901    1    3    3    0    0  0.97783068291E-01 -0.22665939384E-01 -0.88379781391E-01  0.89010463374E+00  0.88000000000E+00 0. -1.
        -11    1    4    4    0    0 -0.16844907459E-01  0.92092268736E-02  0.24481561384E-01  0.31115409940E-01  0.51100000000E-03 0.  1.
         11    1    4    4    0    0 -0.86175815179E-01  0.25294964612E-01  0.46832404895E-01  0.10128988906E+00  0.51100000000E-03 0. -1.
</event>
<event>
 8    1  0.1065239E+005  0.1043930E+01  0.7957747E-01            NaN
         13   -1    0    0    0    0  0.00000000000E+00  0.00000000000E+00  0.74505805969E-08  0.10566000000E+00  0.10566000000E+00 0. -1.
     999900   -1    0    0    0    0 -0.00000000000E+00 -0.00000000000E+00 -0.74505805969E-08  0.93827000000E+00  0.93827000000E+00 0.  1.
     999902    2    1    2    0    0 -0.28924515581E-01  0.20574061314E-02  0.11184816797E-01  0.10128500925E+01  0.10123731275E+01 0.  0.
     999903    2    3    3    0    0  0.49508673617E-01  0.10762781169E+00 -0.23466032847E-01  0.12240213949E+00  0.19919197776E-01 0.  0.
         14    1    1    2    0    0  0.28924515581E-01 -0.20574061314E-02 -0.11184816797E-01  0.31079907471E-01  0.00000000000E+00 0.  1.
     999901    1    3    3    0    0 -0.78433189199E-01 -0.10557040556E+00  0.34650849644E-01  0.89044795304E+00  0.88000000000E+00 0.  1.
        -11    1    4    4    0    0  0.49409464060E-01  0.92051066124E-01 -0.18988171126E-01  0.10618618402E+00  0.51100000000E-03 0. -1.
         11    1    4    4    0    0  0.99209557693E-04  0.15576745569E-01 -0.44778617213E-02  0.16215955465E-01  0.51100000000E-03 0.  1.
</event>
<event>
 8    1  0.1065239E+005  0.1043930E+01  0.7957747E-01            NaN
         13   -1    0    0    0    0  0.00000000000E+00  0.00000000000E+00  0.74505805969E-08  0.10566000000E+00  0.10566000000E+00 0. -1.
     999900   -1    0    0    0    0 -0.00000000000E+00 -0.00000000000E+00 -0.74505805969E-08  0.93827000000E+00  0.93827000000E+00 0.  1.
     999902    2    1    2    0    0  0.85585423541E-03  0.38200442835E-02  0.23908291262E-01  0.10197033284E+01  0.10194154925E+01 0.  0.
     999903    2    3    3    0    0 -0.29758539535E-01  0.96115633760E-01  0.82446959967E-01  0.13241392091E+00  0.24741857548E-01 0.  0.
         14    1    1    2    0    0 -0.85585423541E-03 -0.38200442835E-02 -0.23908291262E-01  0.24226671580E-01  0.00000000000E+00 0.  1.
     999901    1    3    3    0    0  0.30614393770E-01 -0.92295589477E-01 -0.58538668705E-01  0.88728940751E+00  0.88000000000E+00 0.  1.
        -11    1    4    4    0    0 -0.13799736207E-01  0.33105432400E-01  0.44461566471E-01  0.57127002266E-01  0.51100000000E-03 0.  1.
         11    1    4    4    0    0 -0.15958803327E-01  0.63010201360E-01  0.37985393495E-01  0.75286918645E-01  0.51100000000E-03 0. -1.
</event>
<event>
 8    1  0.1065239E+005  0.1043930E+01  0.7957747E-01            NaN
         13   -1    0    0    0    0  0.00000000000E+00  0.00000000000E+00  0.74505805969E-08  0.10566000000E+00  0.10566000000E+00 0. -1.
     999900   -1    0    0    0    0 -0.00000000000E+00 -0.00000000000E+00 -0.74505805969E-08  0.93827000000E+00  0.93827000000E+00 0.  1.
     999902    2    1    2    0    0 -0.90186425673E-02 -0.12386455906E-01  0.17745963379E-01  0.10204847570E+01  0.10202153987E+01 0.  0.
     999903    2    3    3    0    0 -0.49447031828E-01 -0.60330979347E-01 -0.10209301647E+00  0.13015082352E+00  0.20770575979E-01 0.  0.
         14    1    1    2    0    0  0.90186425673E-02  0.12386455906E-01 -0.17745963379E-01  0.23445243012E-01  0.00000000000E+00 0.  1.
     999901    1    3    3    0    0  0.40428389261E-01  0.47944523441E-01  0.11983897985E+00  0.89033393346E+00  0.88000000000E+00 0. -1.
        -11    1    4    4    0    0 -0.66395640648E-02 -0.21165816819E-01 -0.21973968898E-01  0.31228064985E-01  0.51100000000E-03 0. -1.
         11    1    4    4    0    0 -0.42807467763E-01 -0.39165162528E-01 -0.80119047571E-01  0.98922758539E-01  0.51100000000E-03 0.  1.
</event>
<event>
 8    1  0.1065239E+005  0.1043930E+01  0.7957747E-01            NaN
         13   -1    0    0    0    0  0.00000000000E+00  0.00000000000E+00  0.74505805969E-08  0.10566000000E+00  0.10566000000E+00 0. -1.
     999900   -1    0    0    0    0 -0.00000000000E+00 -0.00000000000E+00 -0.74505805969E-08  0.93827000000E+00  0.93827000000E+00 0. -1.
     999902    2    1    2    0    0 -0.75996798822E-02 -0.98467743180E-02 -0.19795697532E-01  0.10205508696E+01  0.10202830458E+01 0.  0.
     999903    2    3    3    0    0  0.42780599681E-02 -0.75731141036E-01  0.10359224817E+00  0.12942438269E+00  0.16303663206E-01 0.  0.
         14    1    1    2    0    0  0.75996798822E-02  0.98467743180E-02  0.19795697532E-01  0.23379130428E-01  0.00000000000E+00 0. -1.
     999901    1    3    3    0    0 -0.11877739850E-01  0.65884366718E-01 -0.12338794570E+00  0.89112648688E+00  0.88000000000E+00 0. -1.
        -11    1    4    4    0    0 -0.59641916421E-02 -0.27114963981E-01  0.33590230394E-01  0.43581619434E-01  0.51100000000E-03 0. -1.
         11    1    4    4    0    0  0.10242251610E-01 -0.48616177055E-01  0.70002017775E-01  0.85842763254E-01  0.51100000000E-03 0.  1.
</event>
<event>
 8    1  0.1065239E+005  0.1043930E+01  0.7957747E-01            NaN
         13   -1    0    0    0    0  0.00000000000E+00  0.00000000000E+00  0.74505805969E-08  0.10566000000E+00  0.10566000000E+00 0. -1.
     999900   -1    0    0    0    0 -0.00000000000E+00 -0.00000000000E+00 -0.74505805969E-08  0.93827000000E+00  0.93827000000E+00 0. -1.
     999902    2    1    2    0    0 -0.34603964957E-02  0.99295243634E-02 -0.19846046441E-01  0.10214703616E+01  0.10212234154E+01 0.  0.
     999903    2    3    3    0    0 -0.12062426364E+00  0.49635025845E-01  0.42783230065E-03  0.13258626973E+00  0.23771560945E-01 0.  0.
         14    1    1    2    0    0  0.34603964957E-02 -0.99295243634E-02  0.19846046441E-01  0.22459638406E-01  0.00000000000E+00 0. -1.
     999901    1    3    3    0    0  0.11716386715E+00 -0.39705501482E-01 -0.20273878741E-01  0.88888409187E+00  0.88000000000E+00 0. -1.
        -11    1    4    4    0    0 -0.18875947806E-01 -0.76482585245E-03  0.21890837272E-02  0.19024709531E-01  0.51100000000E-03 0. -1.
         11    1    4    4    0    0 -0.10174831584E+00  0.50399851698E-01 -0.17612514265E-02  0.11356156020E+00  0.51100000000E-03 0.  1.
</event>
<event>
 8    1  0.1065239E+005  0.1043930E+01  0.7957747E-01            NaN
         13   -1    0    0    0    0  0.00000000000E+00  0.00000000000E+00  0.74505805969E-08  0.10566000000E+00  0.10566000000E+00 0. -1.
     999900   -1    0    0    0    0 -0.00000000000E+00 -0.00000000000E+00 -0.74505805969E-08  0.93827000000E+00  0.93827000000E+00 0.  1.
     999902    2    1    2    0    0  0.18320077861E-01 -0.17861787164E-01 -0.22238798975E-02  0.10182470419E+01  0.10179230934E+01 0.  0.
     999903    2    3    3    0    0 -0.20201112400E-01  0.10687901228E+00 -0.61787490694E-01  0.12662381832E+00  0.19613494136E-01 0.  0.
         14    1    1    2    0    0 -0.18320077861E-01  0.17861787164E-01  0.22238798975E-02  0.25682958072E-01  0.00000000000E+00 0.  1.
     999901    1    3    3    0    0  0.38521190261E-01 -0.12474079944E+00  0.59563610796E-01  0.89162322361E+00  0.88000000000E+00 0. -1.
        -11    1    4    4    0    0 -0.70743071947E-02  0.45294699101E-01 -0.37138343287E-01  0.59001468219E-01  0.51100000000E-03 0.  1.
         11    1    4    4    0    0 -0.13126805205E-01  0.61584313177E-01 -0.24649147407E-01  0.67622350102E-01  0.51100000000E-03 0. -1.
</event>
<event>
 8    1  0.1065239E+005  0.1043930E+01  0.7957747E-01            NaN
         13   -1    0    0    0    0  0.00000000000E+00  0.00000000000E+00  0.74505805969E-08  0.10566000000E+00  0.10566000000E+00 0. -1.
     999900   -1    0    0    0    0 -0.00000000000E+00 -0.00000000000E+00 -0.74505805969E-08  0.93827000000E+00  0.93827000000E+00 0.  1.
     999902    2    1    2    0    0 -0.21755605548E-01  0.15508652550E-01  0.12588910651E-01  0.10143951841E+01  0.10139651297E+01 0.  0.
     999903    2    3    3    0    0 -0.11843206479E+00 -0.38315116155E-01  0.17236175391E-01  0.12745384847E+00  0.21288392413E-01 0.  0.
         14    1    1    2    0    0  0.21755605548E-01 -0.15508652550E-01 -0.12588910651E-01  0.29534815862E-01  0.00000000000E+00 0.  1.
     999901    1    3    3    0    0  0.96676459240E-01  0.53823768704E-01 -0.46472647399E-02  0.88694133567E+00  0.88000000000E+00 0.  1.
        -11    1    4    4    0    0 -0.72616508401E-01 -0.23022926811E-01  0.38078273566E-04  0.76180542281E-01  0.51100000000E-03 0.  1.
         11    1    4    4    0    0 -0.45815556387E-01 -0.15292189343E-01  0.17198097117E-01  0.51273306187E-01  0.51100000000E-03 0. -1.
</event>
<event>
 8    1  0.1065239E+005  0.1043930E+01  0.7957747E-01            NaN
         13   -1    0    0    0    0  0.00000000000E+00  0.00000000000E+00  0.74505805969E-08  0.10566000000E+00  0.10566000000E+00 0. -1.
     999900   -1    0    0    0    0 -0.00000000000E+00 -0.00000000000E+00 -0.74505805969E-08  0.93827000000E+00  0.93827000000E+00 0.  1.
     999902    2    1    2    0    0 -0.26104339365E-02 -0.13004101187E-01  0.19864095450E-01  0.10200447891E+01  0.10197651045E+01 0.  0.
     999903    2    3    3    0    0  0.13124030669E-01  0.40597522677E-01  0.12350780223E+00  0.13220317853E+00  0.20077454340E-01 0.  0.
         14    1    1    2    0    0  0.26104339365E-02  0.13004101187E-01 -0.19864095450E-01  0.23885210927E-01  0.00000000000E+00 0.  1.
     999901    1    3    3    0    0 -0.15734464605E-01 -0.53601623864E-01 -0.10364370678E+00  0.88784161054E+00  0.88000000000E+00 0.  1.
        -11    1    4    4    0    0  0.17459722933E-01  0.22708926612E-01  0.71129971927E-01  0.76682927045E-01  0.51100000000E-03 0. -1.
         11    1    4    4    0    0 -0.43356922638E-02  0.17888596065E-01  0.52377830303E-01  0.55520251484E-01  0.51100000000E-03 0.  1.
</event>
<event>
 8    1  0.1065239E+005  0.1043930E+01  0.7957747E-01            NaN
         13   -1    0    0    0    0  0.00000000000E+00  0.00000000000E+00  0.74505805969E-08  0.10566000000E+00  0.10566000000E+00 0.  1.
     999900   -1    0    0    0    0 -0.00000000000E+00 -0.00000000000E+00 -0.74505805969E-08  0.93827000000E+00  0.93827000000E+00 0. -1.
     999902    2    1    2    0    0 -0.20588872617E-02 -0.20953227704E-01 -0.99528506391E-02  0.10206418914E+01  0.10203761730E+01 0.  0.
     999903    2    3    3    0    0  0.65447547358E-01 -0.55056658113E-01 -0.99520944118E-01  0.13286793024E+00  0.20853093544E-01 0.  0.
         14    1    1    2    0    0  0.20588872617E-02  0.20953227704E-01  0.99528506391E-02  0.23288108636E-01  0.00000000000E+00 0.  1.
     999901    1    3    3    0    0 -0.67506434620E-01  0.34103430409E-01  0.89568093479E-01  0.88777396112E+00  0.88000000000E+00 0. -1.
        -11    1    4    4    0    0  0.45687251253E-01 -0.49082462674E-01 -0.71058302015E-01  0.97703410767E-01  0.51100000000E-03 0.  1.
         11    1    4    4    0    0  0.19760296106E-01 -0.59741954395E-02 -0.28462642103E-01  0.35164519474E-01  0.51100000000E-03 0. -1.
</event>
<event>
 8    1  0.1065239E+005  0.1043930E+01  0.7957747E-01            NaN
         13   -1    0    0    0    0  0.00000000000E+00  0.00000000000E+00  0.74505805969E-08  0.10566000000E+00  0.10566000000E+00 0.  1.
     999900   -1    0    0    0    0 -0.00000000000E+00 -0.00000000000E+00 -0.74505805969E-08  0.93827000000E+00  0.93827000000E+00 0.  1.
     999902    2    1    2    0    0  0.13029983271E-01 -0.18950667565E-01  0.86157801707E-02  0.10193710926E+01  0.10190752104E+01 0.  0.
     999903    2    3    3    0    0  0.12235298880E+00  0.15495799929E-01  0.40283656330E-01  0.13137281948E+00  0.20631796980E-01 0.  0.
         14    1    1    2    0    0 -0.13029983271E-01  0.18950667565E-01 -0.86157801707E-02  0.24558907410E-01  0.00000000000E+00 0. -1.
     999901    1    3    3    0    0 -0.10932300553E+00 -0.34446467494E-01 -0.31667876160E-01  0.88799827311E+00  0.88000000000E+00 0. -1.
        -11    1    4    4    0    0  0.66517047879E-01  0.18153586849E-01  0.18631199563E-01  0.71424457242E-01  0.51100000000E-03 0. -1.
         11    1    4    4    0    0  0.55835940925E-01 -0.26577869208E-02  0.21652456768E-01  0.59948362241E-01  0.51100000000E-03 0.  1.
</event>
<event>
 8    1  0.1065239E+005  0.1043930E+01  0.7957747E-01            NaN
         13   -1    0    0    0    0  0.00000000000E+00  0.00000000000E+00  0.74505805969E-08  0.10566000000E+00  0.10566000000E+00 0.  1.
     999900   -1    0    0    0    0 -0.00000000000E+00 -0.00000000000E+00 -0.74505805969E-08  0.93827000000E+00  0.93827000000E+00 0. -1.
     999902    2    1    2    0    0 -0.48965211601E-02  0.10731333701E-01  0.21088062581E-01  0.10197671395E+01  0.10194808360E+01 0.  0.
     999903    2    3    3    0    0 -0.11631316885E+00 -0.50710725325E-02  0.58493680703E-01  0.13181299337E+00  0.19967110782E-01 0.  0.
         14    1    1    2    0    0  0.48965211601E-02 -0.10731333701E-01 -0.21088062581E-01  0.24162860466E-01  0.00000000000E+00 0. -1.
     999901    1    3    3    0    0  0.11141664769E+00  0.15802406233E-01 -0.37405618122E-01  0.88795414617E+00  0.88000000000E+00 0. -1.
        -11    1    4    4    0    0 -0.65650988780E-01 -0.12644993828E-01  0.34731040453E-01  0.75342249029E-01  0.51100000000E-03 0. -1.
         11    1    4    4    0    0 -0.50662180074E-01  0.75739212954E-02  0.23762640249E-01  0.56470744339E-01  0.51100000000E-03 0.  1.
</event>
<event>
 8    1  0.1065239E+005  0.1043930E+01  0.7957747E-01            NaN
         13   -1    0    0    0    0  0.00000000000E+00  0.00000000000E+00  0.74505805969E-08  0.10566000000E+00  0.10566000000E+00 0.  1.
     999900   -1    0    0    0    0 -0.00000000000E+00 -0.00000000000E+00 -0.74505805969E-08  0.93827000000E+00  0.93827000000E+00 0.  1.
     999902    2    1    2    0    0 -0.15186415325E-01  0.16713768245E-01  0.10048654550E-02  0.10213249781E+01  0.10210747886E+01 0.  0.
     999903    2    3    3    0    0  0.78534790298E-01 -0.27946871388E-01 -0.96126107902E-01  0.12991448733E+00  0.26245085061E-01 0.  0.
         14    1    1    2    0    0  0.15186415325E-01 -0.16713768245E-01 -0.10048654550E-02  0.22605021875E-01  0.00000000000E+00 0.  1.
     999901    1    3    3    0    0 -0.93721205624E-01  0.44660639634E-01  0.97130973358E-01  0.89141049080E+00  0.88000000000E+00 0. -1.
        -11    1    4    4    0    0  0.93475442316E-02 -0.25055563996E-02 -0.27651502643E-01  0.29300530975E-01  0.51100000000E-03 0. -1.
         11    1    4    4    0    0  0.69187246067E-01 -0.25441314989E-01 -0.68474605260E-01  0.10061395635E+00  0.51100000000E-03 0.  1.
</event>
<event>
 8    1  0.1065239E+005  0.1043930E+01  0.7957747E-01            NaN
         13   -1    0    0    0    0  0.00000000000E+00  0.00000000000E+00  0.74505805969E-08  0.10566000000E+00  0.10566000000E+00 0.  1.
     999900   -1    0    0    0    0 -0.00000000000E+00 -0.00000000000E+00 -0.74505805969E-08  0.93827000000E+00  0.93827000000E+00 0.  1.
     999902    2    1    2    0    0 -0.14950719318E-01 -0.88176702864E-02  0.15880329323E-01  0.10204042656E+01  0.10201330331E+01 0.  0.
     999903    2    3    3    0    0 -0.10170143871E+00  0.42251012521E-01 -0.67613644189E-01  0.13073863110E+00  0.19815501157E-01 0.  0.
         14    1    1    2    0    0  0.14950719318E-01  0.88176702864E-02 -0.15880329323E-01  0.23525734353E-01  0.00000000000E+00 0. -1.
     999901    1    3    3    0    0  0.86750719396E-01 -0.51068682808E-01  0.83493973512E-01  0.88966563455E+00  0.88000000000E+00 0. -1.
        -11    1    4    4    0    0 -0.42136811943E-01  0.20311069566E-01 -0.17813061416E-01  0.50056135944E-01  0.51100000000E-03 0. -1.
         11    1    4    4    0    0 -0.59564626771E-01  0.21939942955E-01 -0.49800582773E-01  0.80682495157E-01  0.51100000000E-03 0.  1.
</event>
<event>
 8    1  0.1065239E+005  0.1043930E+01  0.7957747E-01            NaN
         13   -1    0    0    0    0  0.00000000000E+00  0.00000000000E+00  0.74505805969E-08  0.10566000000E+00  0.10566000000E+00 0.  1.
     999900   -1    0    0    0    0 -0.00000000000E+00 -0.00000000000E+00 -0.74505805969E-08  0.93827000000E+00  0.93827000000E+00 0.  1.
     999902    2    1    2    0    0 -0.50183721073E-02  0.18174442602E-01  0.13440533705E-01  0.10207752517E+01  0.10205126026E+01 0.  0.
     999903    2    3    3    0    0 -0.77223108433E-01  0.98225258954E-01 -0.39488926678E-01  0.13261806690E+00  0.20409957478E-01 0.  0.
         14    1    1    2    0    0  0.50183721073E-02 -0.18174442602E-01 -0.13440533705E-01  0.23154748299E-01  0.00000000000E+00 0. -1.
     999901    1    3    3    0    0  0.72204736325E-01 -0.80050816353E-01  0.52929460382E-01  0.88815718481E+00  0.88000000000E+00 0. -1.
        -11    1    4    4    0    0 -0.28824309319E-01  0.28604104327E-01 -0.43904227517E-02  0.40848164279E-01  0.51100000000E-03 0. -1.
         11    1    4    4    0    0 -0.48398799114E-01  0.69621154628E-01 -0.35098503926E-01  0.91769902616E-01  0.51100000000E-03 0.  1.
</event>
<event>
 8    1  0.1065239E+005  0.1043930E+01  0.7957747E-01            NaN
         13   -1    0    0    0    0  0.00000000000E+00  0.00000000000E+00  0.74505805969E-08  0.10566000000E+00  0.10566000000E+00 0. -1.
     999900   -1    0    0    0    0 -0.00000000000E+00 -0.00000000000E+00 -0.74505805969E-08  0.93827000000E+00  0.93827000000E+00 0. -1.
     999902    2    1    2    0    0  0.79259081529E-02 -0.55767414493E-02  0.19035639694E-01  0.10225693904E+01  0.10223462635E+01 0.  0.
     999903    2    3    3    0    0 -0.35369958662E-01  0.88811857285E-01 -0.85994482230E-01  0.13026055024E+00  0.20836986483E-01 0.  0.
         14    1    1    2    0    0 -0.79259081529E-02  0.55767414493E-02 -0.19035639694E-01  0.21360609631E-01  0.00000000000E+00 0.  1.
     999901    1    3    3    0    0  0.43295866815E-01 -0.94388598734E-01  0.10503012192E+00  0.89230884013E+00  0.88000000000E+00 0.  1.
        -11    1    4    4    0    0 -0.22243731781E-01  0.76924924387E-01 -0.68844179244E-01  0.10560307634E+00  0.51100000000E-03 0.  1.
         11    1    4    4    0    0 -0.13126226881E-01  0.11886932898E-01 -0.17150302986E-01  0.24657473905E-01  0.51100000000E-03 0. -1.
</event>
<event>
 8    1  0.1065239E+005  0.1043930E+01  0.7957747E-01            NaN
         13   -1    0    0    0    0  0.00000000000E+00  0.00000000000E+00  0.74505805969E-08  0.10566000000E+00  0.10566000000E+00 0.  1.
     999900   -1    0    0    0    0 -0.00000000000E+00 -0.00000000000E+00 -0.74505805969E-08  0.93827000000E+00  0.93827000000E+00 0.  1.
     999902    2    1    2    0    0 -0.12458776366E-01  0.18502113606E-01  0.44033740368E-02  0.10211937070E+01  0.10209405704E+01 0.  0.
     999903    2    3    3    0    0  0.79002584243E-01 -0.21619493272E-01  0.99557513689E-01  0.13044725929E+00  0.19899198904E-01 0.  0.
         14    1    1    2    0    0  0.12458776366E-01 -0.18502113606E-01 -0.44033740368E-02  0.22736292999E-01  0.00000000000E+00 0. -1.
     999901    1    3    3    0    0 -0.91461360609E-01  0.40121606878E-01 -0.95154139653E-01  0.89074644771E+00  0.88000000000E+00 0.  1.
        -11    1    4    4    0    0  0.54472096479E-01 -0.21863854468E-01  0.79103160535E-01  0.98502835262E-01  0.51100000000E-03 0. -1.
         11    1    4    4    0    0  0.24530487763E-01  0.24436119569E-03  0.20454353154E-01  0.31944424025E-01  0.51100000000E-03 0.  1.
</event>
<event>
 8    1  0.1065239E+005  0.1043930E+01  0.7957747E-01            NaN
         13   -1    0    0    0    0  0.00000000000E+00  0.00000000000E+00  0.74505805969E-08  0.10566000000E+00  0.10566000000E+00 0.  1.
     999900   -1    0    0    0    0 -0.00000000000E+00 -0.00000000000E+00 -0.74505805969E-08  0.93827000000E+00  0.93827000000E+00 0. -1.
     999902    2    1    2    0    0  0.26815547490E-02  0.19702355058E-01  0.10799290143E-01  0.10213026228E+01  0.10210519327E+01 0.  0.
     999903    2    3    3    0    0 -0.61036661851E-01 -0.67694096914E-01 -0.89190969223E-01  0.12906038950E+00  0.19839110357E-01 0.  0.
         14    1    1    2    0    0 -0.26815547490E-02 -0.19702355058E-01 -0.10799290143E-01  0.22627377186E-01  0.00000000000E+00 0. -1.
     999901    1    3    3    0    0  0.63718216600E-01  0.87396451972E-01  0.99990259366E-01  0.89224223332E+00  0.88000000000E+00 0.  1.
        -11    1    4    4    0    0 -0.38161505229E-01 -0.54762145724E-01 -0.68147178543E-01  0.95391258248E-01  0.51100000000E-03 0.  1.
         11    1    4    4    0    0 -0.22875156621E-01 -0.12931951191E-01 -0.21043790679E-01  0.33669131251E-01  0.51100000000E-03 0. -1.
</event>
<event>
 8    1  0.1065239E+005  0.1043930E+01  0.7957747E-01            NaN
         13   -1    0    0    0    0  0.00000000000E+00  0.00000000000E+00  0.74505805969E-08  0.10566000000E+00  0.10566000000E+00 0. -1.
     999900   -1    0    0    0    0 -0.00000000000E+00 -0.00000000000E+00 -0.74505805969E-08  0.93827000000E+00  0.93827000000E+00 0. -1.
     999902    2    1    2    0    0 -0.66856560367E-02 -0.93451475488E-02 -0.20610714228E-01  0.10203327264E+01  0.10200598224E+01 0.  0.
     999903    2    3    3    0    0 -0.12223385699E+00  0.14050801661E-01 -0.44031243140E-01  0.13216197800E+00  0.19735684285E-01 0.  0.
         14    1    1    2    0    0  0.66856560367E-02  0.93451475488E-02  0.20610714228E-01  0.23597273579E-01  0.00000000000E+00 0. -1.
     999901    1    3    3    0    0  0.11554820095E+00 -0.23395949210E-01  0.23420528911E-01  0.88817074842E+00  0.88000000000E+00 0.  1.
        -11    1    4    4    0    0 -0.52018750946E-01  0.22624775556E-03 -0.26944222770E-01  0.58585441022E-01  0.51100000000E-03 0.  1.
         11    1    4    4    0    0 -0.70215106042E-01  0.13824553905E-01 -0.17087020369E-01  0.73576536975E-01  0.51100000000E-03 0. -1.
</event>
<event>
 8    1  0.1065239E+005  0.1043930E+01  0.7957747E-01            NaN
         13   -1    0    0    0    0  0.00000000000E+00  0.00000000000E+00  0.74505805969E-08  0.10566000000E+00  0.10566000000E+00 0. -1.
     999900   -1    0    0    0    0 -0.00000000000E+00 -0.00000000000E+00 -0.74505805969E-08  0.93827000000E+00  0.93827000000E+00 0. -1.
     999902    2    1    2    0    0  0.19568015793E-01  0.12546211320E-01 -0.43187906927E-02  0.10202875252E+01  0.10200135624E+01 0.  0.
     999903    2    3    3    0    0 -0.59901246435E-01 -0.64716350690E-01 -0.91690560224E-01  0.12904193997E+00  0.21640195587E-01 0.  0.
         14    1    1    2    0    0 -0.19568015793E-01 -0.12546211320E-01  0.43187906927E-02  0.23642474778E-01  0.00000000000E+00 0. -1.
     999901    1    3    3    0    0  0.79469262227E-01  0.77262562010E-01  0.87371769531E-01  0.89124558526E+00  0.88000000000E+00 0.  1.
        -11    1    4    4    0    0 -0.50081218977E-01 -0.42214235790E-01 -0.73696053104E-01  0.98597867937E-01  0.51100000000E-03 0. -1.
         11    1    4    4    0    0 -0.98200274571E-02 -0.22502114900E-01 -0.17994507120E-01  0.30444072029E-01  0.51100000000E-03 0.  1.
</event>
<event>
 8    1  0.1065239E+005  0.1043930E+01  0.7957747E-01            NaN
         13   -1    0    0    0    0  0.00000000000E+00  0.00000000000E+00  0.74505805969E-08  0.10566000000E+00  0.10566000000E+00 0.  1.
     999900   -1    0    0    0    0 -0.00000000000E+00 -0.00000000000E+00 -0.74505805969E-08  0.93827000000E+00  0.93827000000E+00 0.  1.
     999902    2    1    2    0    0 -0.16584256946E-01 -0.17947797447E-01  0.51339495534E-03  0.10194877295E+01  0.10191946851E+01 0.  0.
     999903    2    3    3    0    0 -0.61206265562E-02  0.11209566176E+00  0.58153595389E-01  0.12800403279E+00  0.20007306123E-01 0.  0.
         14    1    1    2    0    0  0.16584256946E-01  0.17947797447E-01 -0.51339495534E-03  0.24442270476E-01  0.00000000000E+00 0.  1.
     999901    1    3    3    0    0 -0.10463630390E-01 -0.13004345921E+00 -0.57640200434E-01  0.89148369674E+00  0.88000000000E+00 0.  1.
        -11    1    4    4    0    0 -0.39673426853E-02  0.55853521083E-01  0.17836757125E-01  0.58768755738E-01  0.51100000000E-03 0. -1.
         11    1    4    4    0    0 -0.21532838709E-02  0.56242140676E-01  0.40316838264E-01  0.69235277047E-01  0.51100000000E-03 0.  1.
</event>
<event>
 8    1  0.1065239E+005  0.1043930E+01  0.7957747E-01            NaN
         13   -1    0    0    0    0  0.00000000000E+00  0.00000000000E+00  0.74505805969E-08  0.10566000000E+00  0.10566000000E+00 0. -1.
     999900   -1    0    0    0    0 -0.00000000000E+00 -0.00000000000E+00 -0.74505805969E-08  0.93827000000E+00  0.93827000000E+00 0.  1.
     999902    2    1    2    0    0  0.72208035708E-02 -0.22669783619E-01  0.80745930768E-03  0.10201243056E+01  0.10198465021E+01 0.  0.
     999903    2    3    3    0    0 -0.12147985667E+00  0.23140511359E-01  0.31288023863E-01  0.12906229439E+00  0.19628972274E-01 0.  0.
         14    1    1    2    0    0 -0.72208035708E-02  0.22669783619E-01 -0.80745930768E-03  0.23805694362E-01  0.00000000000E+00 0. -1.
     999901    1    3    3    0    0  0.12870066024E+00 -0.45810294978E-01 -0.30480564555E-01  0.89106201125E+00  0.88000000000E+00 0. -1.
        -11    1    4    4    0    0 -0.91324749507E-01  0.20956623577E-01  0.31408016845E-01  0.98823653987E-01  0.51100000000E-03 0.  1.
         11    1    4    4    0    0 -0.30155107167E-01  0.21838877823E-02 -0.11999298251E-03  0.30238640403E-01  0.51100000000E-03 0. -1.
</event>
<event>
 8    1  0.1065239E+005  0.1043930E+01  0.7957747E-01            NaN
         13   -1    0    0    0    0  0.00000000000E+00  0.00000000000E+00  0.74505805969E-08  0.10566000000E+00  0.10566000000E+00 0. -1.
     999900   -1    0    0    0    0 -0.00000000000E+00 -0.00000000000E+00 -0.74505805969E-08  0.93827000000E+00  0.93827000000E+00 0. -1.
     999902    2    1    2    0    0 -0.22433102704E-02  0.21581944710E-01  0.10199875959E-01  0.10199539651E+01  0.10196721241E+01 0.  0.
     999903    2    3    3    0    0 -0.22429206247E-01 -0.77013538746E-01  0.98405515196E-01  0.12983668379E+00  0.27198613802E-01 0.  0.
         14    1    1    2    0    0  0.22433102704E-02 -0.21581944710E-01 -0.10199875959E-01  0.23976034868E-01  0.00000000000E+00 0.  1.
     999901    1    3    3    0    0  0.20185895976E-01  0.98595483456E-01 -0.88205639238E-01  0.89011728134E+00  0.88000000000E+00 0. -1.
        -11    1    4    4    0    0 -0.21723148211E-01 -0.33992621669E-01  0.59099428271E-01  0.71556949622E-01  0.51100000000E-03 0.  1.
         11    1    4    4    0    0 -0.70605803605E-03 -0.43020917077E-01  0.39306086925E-01  0.58279734166E-01  0.51100000000E-03 0. -1.
</event>
<event>
 8    1  0.1065239E+005  0.1043930E+01  0.7957747E-01            NaN
         13   -1    0    0    0    0  0.00000000000E+00  0.00000000000E+00  0.74505805969E-08  0.10566000000E+00  0.10566000000E+00 0. -1.
     999900   -1    0    0    0    0 -0.00000000000E+00 -0.00000000000E+00 -0.74505805969E-08  0.93827000000E+00  0.93827000000E+00 0. -1.
     999902    2    1    2    0    0  0.14938014450E-01 -0.10689181048E-01 -0.14521072719E-01  0.10205149531E+01  0.10202462963E+01 0.  0.
     999903    2    3    3    0    0  0.12446204217E+00  0.12372949178E-01  0.36884561858E-01  0.13193748674E+00  0.20078338877E-01 0.  0.
         14    1    1    2    0    0 -0.14938014450E-01  0.10689181048E-01  0.14521072719E-01  0.23415046874E-01  0.00000000000E+00 0.  1.
     999901    1    3    3    0    0 -0.10952402772E+00 -0.23062130227E-01 -0.51405634578E-01  0.88857746638E+00  0.88000000000E+00 0. -1.
        -11    1    4    4    0    0  0.63865794723E-01  0.11524734794E-01  0.28014126310E-01  0.70687422089E-01  0.51100000000E-03 0. -1.
         11    1    4    4    0    0  0.60596247446E-01  0.84821438454E-03  0.88704355481E-02  0.61250064653E-01  0.51100000000E-03 0.  1.
</event>
<event>
 8    1  0.1065239E+005  0.1043930E+01  0.7957747E-01            NaN
         13   -1    0    0    0    0  0.00000000000E+00  0.00000000000E+00  0.74505805969E-08  0.10566000000E+00  0.10566000000E+00 0.  1.
     999900   -1    0    0    0    0 -0.00000000000E+00 -0.00000000000E+00 -0.74505805969E-08  0.93827000000E+00  0.93827000000E+00 0.  1.
     999902    2    1    2    0    0  0.81533567476E-02  0.90580085576E-02  0.19649884248E-01  0.10208076581E+01  0.10205457521E+01 0.  0.
     999903    2    3    3    0    0 -0.26821975549E-01 -0.40268597840E-01  0.12223654958E+00  0.13278715613E+00  0.18699637276E-01 0.  0.
         14    1    1    2    0    0 -0.81533567476E-02 -0.90580085576E-02 -0.19649884248E-01  0.23122341928E-01  0.00000000000E+00 0. -1.
     999901    1    3    3    0    0  0.34975332296E-01  0.49326606397E-01 -0.10258666533E+00  0.88802050194E+00  0.88000000000E+00 0.  1.
        -11    1    4    4    0    0 -0.12743188094E-01 -0.26670445494E-01  0.93114152830E-01  0.97694462913E-01  0.51100000000E-03 0. -1.
         11    1    4    4    0    0 -0.14078787455E-01 -0.13598152346E-01  0.29122396753E-01  0.35092693215E-01  0.51100000000E-03 0.  1.
</event>
<event>
 8    1  0.1065239E+005  0.1043930E+01  0.7957747E-01            NaN
         13   -1    0    0    0    0  0.00000000000E+00  0.00000000000E+00  0.74505805969E-08  0.10566000000E+00  0.10566000000E+00 0.  1.
     999900   -1    0    0    0    0 -0.00000000000E+00 -0.00000000000E+00 -0.74505805969E-08  0.93827000000E+00  0.93827000000E+00 0. -1.
     999902    2    1    2    0    0 -0.14693967081E-01 -0.11758204968E-01 -0.13737271737E-01  0.10206301998E+01  0.10203642115E+01 0.  0.
     999903    2    3    3    0    0  0.60339305092E-01  0.83939362979E-01  0.73490739814E-01  0.12799548035E+00  0.17184462601E-01 0.  0.
         14    1    1    2    0    0  0.14693967081E-01  0.11758204968E-01  0.13737271737E-01  0.23299800159E-01  0.00000000000E+00 0.  1.
     999901    1    3    3    0    0 -0.75033272174E-01 -0.95697567947E-01 -0.87228011552E-01  0.89263471949E+00  0.88000000000E+00 0. -1.
        -11    1    4    4    0    0  0.34597041399E-01  0.54202595085E-01  0.36200772003E-01  0.73794536398E-01  0.51100000000E-03 0.  1.
         11    1    4    4    0    0  0.25742263693E-01  0.29736767894E-01  0.37289967811E-01  0.54200943951E-01  0.51100000000E-03 0. -1.
</event>
<event>
 8    1  0.1065239E+005  0.1043930E+01  0.7957747E-01            NaN
         13   -1    0    0    0    0  0.00000000000E+00  0.00000000000E+00  0.74505805969E-08  0.10566000000E+00  0.10566000000E+00 0.  1.
     999900   -1    0    0    0    0 -0.00000000000E+00 -0.00000000000E+00 -0.74505805969E-08  0.93827000000E+00  0.93827000000E+00 0.  1.
     999902    2    1    2    0    0  0.16072821202E-01  0.79890349644E-03 -0.17055779768E-01  0.10204806194E+01  0.10202111649E+01 0.  0.
     999903    2    3    3    0    0 -0.18382180890E-01  0.12757156336E+00  0.34039366348E-02  0.13049351023E+00  0.20113703662E-01 0.  0.
         14    1    1    2    0    0 -0.16072821202E-01 -0.79890349644E-03  0.17055779768E-01  0.23449380625E-01  0.00000000000E+00 0.  1.
     999901    1    3    3    0    0  0.34455002093E-01 -0.12677265986E+00 -0.20459716403E-01  0.88998710915E+00  0.88000000000E+00 0.  1.
        -11    1    4    4    0    0 -0.82480038089E-02  0.83607506305E-01 -0.66141565483E-02  0.84274864967E-01  0.51100000000E-03 0. -1.
         11    1    4    4    0    0 -0.10134177082E-01  0.43964057051E-01  0.10018093183E-01  0.46218645258E-01  0.51100000000E-03 0.  1.
</event>
<event>
 8    1  0.1065239E+005  0.1043930E+01  0.7957747E-01            NaN
         13   -1    0    0    0    0  0.00000000000E+00  0.00000000000E+00  0.74505805969E-08  0.10566000000E+00  0.10566000000E+00 0. -1.
     999900   -1    0    0    0    0 -0.00000000000E+00 -0.00000000000E+00 -0.74505805969E-08  0.93827000000E+00  0.93827000000E+00 0.  1.
     999902    2    1    2    0    0  0.11010503526E-03  0.17800362139E-01  0.16464127146E-01  0.10196826806E+01  0.10193943479E+01 0.  0.
     999903    2    3    3    0    0  0.11700424286E+00  0.52346711935E-01  0.20357159565E-01  0.13127238944E+00  0.19694039313E-01 0.  0.
         14    1    1    2    0    0 -0.11010503526E-03 -0.17800362139E-01 -0.16464127146E-01  0.24247319400E-01  0.00000000000E+00 0.  1.
     999901    1    3    3    0    0 -0.11689413783E+00 -0.34546349795E-01 -0.38930324188E-02  0.88841029116E+00  0.88000000000E+00 0. -1.
        -11    1    4    4    0    0  0.88546263627E-01  0.40454542221E-01  0.23844287719E-01  0.10022884798E+00  0.51100000000E-03 0.  1.
         11    1    4    4    0    0  0.28457979236E-01  0.11892169713E-01 -0.34871281535E-02  0.31043541461E-01  0.51100000000E-03 0. -1.
</event>
<event>
 8    1  0.1065239E+005  0.1043930E+01  0.7957747E-01            NaN
         13   -1    0    0    0    0  0.00000000000E+00  0.00000000000E+00  0.74505805969E-08  0.10566000000E+00  0.10566000000E+00 0.  1.
     999900   -1    0    0    0    0 -0.00000000000E+00 -0.00000000000E+00 -0.74505805969E-08  0.93827000000E+00  0.93827000000E+00 0. -1.
     999902    2    1    2    0    0 -0.12170149527E-01  0.91610689144E-02  0.17405945679E-01  0.10207998321E+01  0.10205377467E+01 0.  0.
     999903    2    3    3    0    0  0.56721544076E-01 -0.10691409706E+00  0.43110405383E-01  0.13013702896E+00  0.20716697165E-01 0.  0.
         14    1    1    2    0    0  0.12170149527E-01 -0.91610689144E-02 -0.17405945679E-01  0.23130167923E-01  0.00000000000E+00 0.  1.
     999901    1    3    3    0    0 -0.68891693603E-01  0.11607516598E+00 -0.25704459704E-01  0.89066280312E+00  0.88000000000E+00 0. -1.
        -11    1    4    4    0    0  0.29678502317E-01 -0.70651955854E-01  0.34696450734E-01  0.84122631796E-01  0.51100000000E-03 0. -1.
         11    1    4    4    0    0  0.27043041759E-01 -0.36262141210E-01  0.84139546491E-02  0.46014397166E-01  0.51100000000E-03 0.  1.
</event>
<event>
 8    1  0.1065239E+005  0.1043930E+01  0.7957747E-01            NaN
         13   -1    0    0    0    0  0.00000000000E+00  0.00000000000E+00  0.74505805969E-08  0.10566000000E+00  0.10566000000E+00 0. -1.
     999900   -1    0    0    0    0 -0.00000000000E+00 -0.00000000000E+00 -0.74505805969E-08  0.93827000000E+00  0.93827000000E+00 0.  1.
     999902    2    1    2    0    0 -0.91542970579E-02 -0.92111165275E-02 -0.21847690986E-01  0.10185141108E+01  0.10181969488E+01 0.  0.
     999903    2    3    3    0    0  0.11545267232E+00 -0.15195868734E-01 -0.52500012941E-01  0.12918724237E+00  0.19309538071E-01 0.  0.
         14    1    1    2    0    0  0.91542970579E-02  0.92111165275E-02  0.21847690986E-01  0.25415889198E-01  0.00000000000E+00 0. -1.
     999901    1    3    3    0    0 -0.12460696937E+00  0.59847522061E-02  0.30652321955E-01  0.88932686843E+00  0.88000000000E+00 0.  1.
        -11    1    4    4    0    0  0.56458773414E-01  0.60234358814E-03 -0.19297641441E-01  0.59670897425E-01  0.51100000000E-03 0. -1.
         11    1    4    4    0    0  0.58993898902E-01 -0.15798212322E-01 -0.33202371500E-01  0.69516344944E-01  0.51100000000E-03 0.  1.
</event>
<event>
 8    1  0.1065239E+005  0.1043930E+01  0.7957747E-01            NaN
         13   -1    0    0    0    0  0.00000000000E+00  0.00000000000E+00  0.74505805969E-08  0.10566000000E+00  0.10566000000E+00 0. -1.
     999900   -1    0    0    0    0 -0.00000000000E+00 -0.00000000000E+00 -0.74505805969E-08  0.93827000000E+00  0.93827000000E+00 0.  1.
     999902    2    1    2    0    0  0.17117009119E-01 -0.13372492315E-01  0.48298093156E-02  0.10216781999E+01  0.10214358528E+01 0.  0.
     999903    2    3    3    0    0 -0.14369231756E-01 -0.33659438406E-01 -0.12468635898E+00  0.13141004845E+00  0.19557098511E-01 0.  0.
         14    1    1    2    0    0 -0.17117009119E-01  0.13372492315E-01 -0.48298093156E-02  0.22251800150E-01  0.00000000000E+00 0.  1.
     999901    1    3    3    0    0  0.31486240874E-01  0.20286946091E-01  0.12951616830E+00  0.89026815140E+00  0.88000000000E+00 0. -1.
        -11    1    4    4    0    0 -0.19577080961E-02  0.14481980042E-02 -0.22722073598E-01  0.22857901217E-01  0.51100000000E-03 0.  1.
         11    1    4    4    0    0 -0.12411523660E-01 -0.35107636410E-01 -0.10196428539E+00  0.10855214723E+00  0.51100000000E-03 0. -1.
</event>
<event>
 8    1  0.1065239E+005  0.1043930E+01  0.7957747E-01            NaN
         13   -1    0    0    0    0  0.00000000000E+00  0.00000000000E+00  0.74505805969E-08  0.10566000000E+00  0.10566000000E+00 0.  1.
     999900   -1    0    0    0    0 -0.00000000000E+00 -0.00000000000E+00 -0.74505805969E-08  0.93827000000E+00  0.93827000000E+00 0.  1.
     999902    2    1    2    0    0 -0.20918515469E-02 -0.14172495611E-01  0.18875947896E-01  0.10202332305E+01  0.10199579931E+01 0.  0.
     999903    2    3    3    0    0 -0.12998558159E+00  0.14843159845E-02  0.23464287899E-02  0.13069674058E+00  0.13329578224E-01 0.  0.
         14    1    1    2    0    0  0.20918515469E-02  0.14172495611E-01 -0.18875947896E-01  0.23696769478E-01  0.00000000000E+00 0. -1.
     999901    1    3    3    0    0  0.12789373004E+00 -0.15656811596E-01  0.16529519106E-01  0.88953648994E+00  0.88000000000E+00 0. -1.
        -11    1    4    4    0    0 -0.97956624150E-01  0.54099930207E-03  0.74656354429E-02  0.98243522579E-01  0.51100000000E-03 0.  1.
         11    1    4    4    0    0 -0.32028957439E-01  0.94331668240E-03 -0.51192066529E-02  0.32453218003E-01  0.51100000000E-03 0. -1.
</event>
<event>
 8    1  0.1065239E+005  0.1043930E+01  0.7957747E-01            NaN
         13   -1    0    0    0    0  0.00000000000E+00  0.00000000000E+00  0.74505805969E-08  0.10566000000E+00  0.10566000000E+00 0.  1.
     999900   -1    0    0    0    0 -0.00000000000E+00 -0.00000000000E+00 -0.74505805969E-08  0.93827000000E+00  0.93827000000E+00 0. -1.
     999902    2    1    2    0    0 -0.20311279226E-01 -0.33910839933E-02  0.14708503343E-01  0.10186241196E+01  0.10183097315E+01 0.  0.
     999903    2    3    3    0    0  0.73611799621E-02 -0.12754745593E+00  0.18628490884E-02  0.12938535493E+00  0.20360731289E-01 0.  0.
         14    1    1    2    0    0  0.20311279226E-01  0.33910839933E-02 -0.14708503343E-01  0.25305880444E-01  0.00000000000E+00 0. -1.
     999901    1    3    3    0    0 -0.27672459188E-01  0.12415637193E+00  0.12845654255E-01  0.88923876463E+00  0.88000000000E+00 0.  1.
        -11    1    4    4    0    0 -0.50285558719E-02 -0.49785725229E-01 -0.52718289585E-02  0.50318566279E-01  0.51100000000E-03 0.  1.
         11    1    4    4    0    0  0.12389735834E-01 -0.77761730697E-01  0.71346780468E-02  0.79066788647E-01  0.51100000000E-03 0. -1.
</event>
<event>
 8    1  0.1065239E+005  0.1043930E+01  0.7957747E-01            NaN
         13   -1    0    0    0    0  0.00000000000E+00  0.00000000000E+00  0.74505805969E-08  0.10566000000E+00  0.10566000000E+00 0. -1.
     999900   -1    0    0    0    0 -0.00000000000E+00 -0.00000000000E+00 -0.74505805969E-08  0.93827000000E+00  0.93827000000E+00 0.  1.
     999902    2    1    2    0    0 -0.69278557718E-02  0.57979228137E-02  0.22130329822E-01  0.10200268079E+01  0.10197466971E+01 0.  0.
     999903    2    3    3    0    0  0.34330038629E-01 -0.11985377338E+00  0.31486235472E-01  0.13009529617E+00  0.19746506413E-01 0.  0.
         14    1    1    2    0    0  0.69278557718E-02 -0.57979228137E-02 -0.22130329822E-01  0.23903192100E-01  0.00000000000E+00 0.  1.
     999901    1    3    3    0    0 -0.41257894401E-01  0.12565169619E+00 -0.93559056503E-02  0.88993151173E+00  0.88000000000E+00 0. -1.
        -11    1    4    4    0    0  0.67425016257E-02 -0.16287686827E-01 -0.21414010733E-02  0.17765044045E-01  0.51100000000E-03 0.  1.
         11    1    4    4    0    0  0.27587537003E-01 -0.10356608655E+00  0.33627636545E-01  0.11233025212E+00  0.51100000000E-03 0. -1.
</event>
<event>
 8    1  0.1065239E+005  0.1043930E+01  0.7957747E-01            NaN
         13   -1    0    0    0    0  0.00000000000E+00  0.00000000000E+00  0.74505805969E-08  0.10566000000E+00  0.10566000000E+00 0.  1.
     999900   -1    0    0    0    0 -0.00000000000E+00 -0.00000000000E+00 -0.74505805969E-08  0.93827000000E+00  0.93827000000E+00 0. -1.
     999902    2    1    2    0    0  0.16727215387E-01  0.16336034099E-01  0.97598337540E-02  0.10185938578E+01  0.10182787080E+01 0.  0.
     999903    2    3    3    0    0  0.73996025768E-01 -0.74153699158E-01 -0.71557777923E-01  0.12838002822E+00  0.19665531710E-01 0.  0.
         14    1    1    2    0    0 -0.16727215387E-01 -0.16336034099E-01 -0.97598337540E-02  0.25336142161E-01  0.00000000000E+00 0.  1.
     999901    1    3    3    0    0 -0.57268810381E-01  0.90489733257E-01  0.81317611677E-01  0.89021382961E+00  0.88000000000E+00 0.  1.
        -11    1    4    4    0    0  0.36912774512E-01 -0.38984654293E-01 -0.48331640186E-01  0.72239634250E-01  0.51100000000E-03 0. -1.
         11    1    4    4    0    0  0.37083251257E-01 -0.35169044865E-01 -0.23226137737E-01  0.56140393975E-01  0.51100000000E-03 0.  1.
</event>
<event>
 8    1  0.1065239E+005  0.1043930E+01  0.7957747E-01            NaN
         13   -1    0    0    0    0  0.00000000000E+00  0.00000000000E+00  0.74505805969E-08  0.10566000000E+00  0.10566000000E+00 0. -1.
     999900   -1    0    0    0    0 -0.00000000000E+00 -0.00000000000E+00 -0.74505805969E-08  0.93827000000E+00  0.93827000000E+00 0. -1.
     999902    2    1    2    0    0  0.21481748672E-01 -0.31074324218E-02 -0.99335692944E-02  0.10200595693E+01  0.10197802349E+01 0.  0.
     999903    2    3    3    0    0 -0.70392859592E-01  0.62330211595E-01  0.84190364333E-01  0.12788114334E+00  0.20624243384E-01 0.  0.
         14    1    1    2    0    0 -0.21481748672E-01  0.31074324218E-02  0.99335692944E-02  0.23870430687E-01  0.00000000000E+00 0. -1.
     999901    1    3    3    0    0  0.91874608264E-01 -0.65437644016E-01 -0.94123933628E-01  0.89217842598E+00  0.88000000000E+00 0. -1.
        -11    1    4    4    0    0 -0.14944973104E-01  0.21310544558E-01  0.32755689276E-01  0.41841221677E-01  0.51100000000E-03 0. -1.
         11    1    4    4    0    0 -0.55447886488E-01  0.41019667036E-01  0.51434675058E-01  0.86039921659E-01  0.51100000000E-03 0.  1.
</event>
<event>
 8    1  0.1065239E+005  0.1043930E+01  0.7957747E-01            NaN
         13   -1    0    0    0    0  0.00000000000E+00  0.00000000000E+00  0.74505805969E-08  0.10566000000E+00  0.10566000000E+00 0.  1.
     999900   -1    0    0    0    0 -0.00000000000E+00 -0.00000000000E+00 -0.74505805969E-08  0.93827000000E+00  0.93827000000E+00 0.  1.
     999902    2    1    2    0    0  0.29054761657E-03  0.25636014687E-02  0.22504380255E-01  0.10212782098E+01  0.10210269723E+01 0.  0.
     999903    2    3    3    0    0 -0.54725146641E-01  0.11670029801E+00  0.20654398275E-01  0.13220153447E+00  0.20900725263E-01 0.  0.
         14    1    1    2    0    0 -0.29054761657E-03 -0.25636014687E-02 -0.22504380255E-01  0.22651790240E-01  0.00000000000E+00 0. -1.
     999901    1    3    3    0    0  0.55015694257E-01 -0.11413669655E+00  0.18499819797E-02  0.88907667529E+00  0.88000000000E+00 0. -1.
        -11    1    4    4    0    0 -0.53460896141E-01  0.99406779719E-01  0.14521136392E-01  0.11380202016E+00  0.51100000000E-03 0. -1.
         11    1    4    4    0    0 -0.12642504999E-02  0.17293518294E-01  0.61332618830E-02  0.18399514305E-01  0.51100000000E-03 0.  1.
</event>
<event>
 8    1  0.1065239E+005  0.1043930E+01  0.7957747E-01            NaN
         13   -1    0    0    0    0  0.00000000000E+00  0.00000000000E+00  0.74505805969E-08  0.10566000000E+00  0.10566000000E+00 0.  1.
     999900   -1    0    0    0    0 -0.00000000000E+00 -0.00000000000E+00 -0.74505805969E-08  0.93827000000E+00  0.93827000000E+00 0.  1.
     999902    2    1    2    0    0  0.92980065036E-02 -0.17330308026E-01 -0.63565694961E-02  0.10232612198E+01  0.10230524548E+01 0.  0.
     999903    2    3    3    0    0 -0.79111877830E-01  0.34832364817E-01 -0.98431118621E-01  0.13252277628E+00  0.20040415827E-01 0.  0.
         14    1    1    2    0    0 -0.92980065036E-02  0.17330308026E-01  0.63565694961E-02  0.20668780249E-01  0.00000000000E+00 0.  1.
     999901    1    3    3    0    0  0.88409884334E-01 -0.52162672843E-01  0.92074549125E-01  0.89073844347E+00  0.88000000000E+00 0. -1.
        -11    1    4    4    0    0 -0.16703443188E-01  0.16954656945E-01 -0.27133772668E-01  0.36096650075E-01  0.51100000000E-03 0. -1.
         11    1    4    4    0    0 -0.62408434643E-01  0.17877707872E-01 -0.71297345954E-01  0.96426126202E-01  0.51100000000E-03 0.  1.
</event>
<event>
 8    1  0.1065239E+005  0.1043930E+01  0.7957747E-01            NaN
         13   -1    0    0    0    0  0.00000000000E+00  0.00000000000E+00  0.74505805969E-08  0.10566000000E+00  0.10566000000E+00 0. -1.
     999900   -1    0    0    0    0 -0.00000000000E+00 -0.00000000000E+00 -0.74505805969E-08  0.93827000000E+00  0.93827000000E+00 0. -1.
     999902    2    1    2    0    0 -0.23753004282E-01 -0.77661070829E-02 -0.63963711312E-03  0.10189314647E+01  0.10186247606E+01 0.  0.
     999903    2    3    3    0    0 -0.10670951090E+00 -0.27081570126E-01  0.69982620795E-01  0.13200284727E+00  0.20170605267E-01 0.  0.
         14    1    1    2    0    0  0.23753004282E-01  0.77661070829E-02  0.63963711312E-03  0.24998535303E-01  0.00000000000E+00 0.  1.
     999901    1    3    3    0    0  0.82956506616E-01  0.19315463043E-01 -0.70622257908E-01  0.88692861743E+00  0.88000000000E+00 0. -1.
        -11    1    4    4    0    0 -0.66983024018E-01 -0.19976224025E-01  0.55027628472E-01  0.88961092895E-01  0.51100000000E-03 0.  1.
         11    1    4    4    0    0 -0.39726486881E-01 -0.71053461017E-02  0.14954992323E-01  0.43041754373E-01  0.51100000000E-03 0. -1.
</event>
<event>
 8    1  0.1065239E+005  0.1043930E+01  0.7957747E-01            NaN
         13   -1    0    0    0    0  0.00000000000E+00  0.00000000000E+00  0.74505805969E-08  0.10566000000E+00  0.10566000000E+00 0. -1.
     999900   -1    0    0    0    0 -0.00000000000E+00 -0.00000000000E+00 -0.74505805969E-08  0.93827000000E+00  0.93827000000E+00 0.  1.
     999902    2    1    2    0    0  0.18674333600E-01  0.54151201535E-02 -0.15769066761E-01  0.10188956690E+01  0.10185880750E+01 0.  0.
     999903    2    3    3    0    0  0.10725147770E+00  0.61740866763E-01  0.37542908036E-01  0.13105521778E+00  0.21241140862E-01 0.  0.
         14    1    1    2    0    0 -0.18674333600E-01 -0.54151201535E-02  0.15769066761E-01  0.25034330991E-01  0.00000000000E+00 0. -1.
     999901    1    3    3    0    0 -0.88577144100E-01 -0.56325746609E-01 -0.53311974797E-01  0.88784045123E+00  0.88000000000E+00 0.  1.
        -11    1    4    4    0    0  0.43854180926E-01  0.27876340078E-01  0.51661976435E-02  0.52222890000E-01  0.51100000000E-03 0.  1.
         11    1    4    4    0    0  0.63397296774E-01  0.33864526685E-01  0.32376710392E-01  0.78832327776E-01  0.51100000000E-03 0. -1.
</event>
<event>
 8    1  0.1065239E+005  0.1043930E+01  0.7957747E-01            NaN
         13   -1    0    0    0    0  0.00000000000E+00  0.00000000000E+00  0.74505805969E-08  0.10566000000E+00  0.10566000000E+00 0. -1.
     999900   -1    0    0    0    0 -0.00000000000E+00 -0.00000000000E+00 -0.74505805969E-08  0.93827000000E+00  0.93827000000E+00 0. -1.
     999902    2    1    2    0    0  0.11075347148E-01 -0.15782042753E-01 -0.16534263133E-01  0.10185308259E+01  0.10182140862E+01 0.  0.
     999903    2    3    3    0    0  0.36998641297E-01  0.69769143871E-01 -0.10118414471E+00  0.12996083700E+00  0.20370447205E-01 0.  0.
         14    1    1    2    0    0 -0.11075347148E-01  0.15782042753E-01  0.16534263133E-01  0.25399174106E-01  0.00000000000E+00 0. -1.
     999901    1    3    3    0    0 -0.25923294149E-01 -0.85551186625E-01  0.84649881575E-01  0.88856998889E+00  0.88000000000E+00 0.  1.
        -11    1    4    4    0    0  0.25030316921E-01  0.31109778662E-01 -0.61144743534E-01  0.73029280952E-01  0.51100000000E-03 0.  1.
         11    1    4    4    0    0  0.11968324376E-01  0.38659365209E-01 -0.40039401173E-01  0.56931556048E-01  0.51100000000E-03 0. -1.
</event>
<event>
 8    1  0.1065239E+005  0.1043930E+01  0.7957747E-01            NaN
         13   -1    0    0    0    0  0.00000000000E+00  0.00000000000E+00  0.74505805969E-08  0.10566000000E+00  0.10566000000E+00 0.  1.
     999900   -1    0    0    0    0 -0.00000000000E+00 -0.00000000000E+00 -0.74505805969E-08  0.93827000000E+00  0.93827000000E+00 0.  1.
     999902    2    1    2    0    0  0.19477696763E-01  0.26818614729E-01  0.16096302232E-02  0.10107455205E+01  0.10102006225E+01 0.  0.
     999903    2    3    3    0    0  0.59689798826E-01  0.98307219729E-01  0.46851221691E-01  0.12577408858E+00  0.19922420774E-01 0.  0.
         14    1    1    2    0    0 -0.19477696763E-01 -0.26818614729E-01 -0.16096302232E-02  0.33184479454E-01  0.00000000000E+00 0.  1.
     999901    1    3    3    0    0 -0.40212102062E-01 -0.71488604999E-01 -0.45241591468E-01  0.88497143197E+00  0.88000000000E+00 0.  1.
        -11    1    4    4    0    0  0.50739499719E-01  0.69093984640E-01  0.39261149770E-01  0.94287722146E-01  0.51100000000E-03 0. -1.
         11    1    4    4    0    0  0.89502991070E-02  0.29213235089E-01  0.75900719204E-02  0.31486366434E-01  0.51100000000E-03 0.  1.
</event>
<event>
 8    1  0.1065239E+005  0.1043930E+01  0.7957747E-01            NaN
         13   -1    0    0    0    0  0.00000000000E+00  0.00000000000E+00  0.74505805969E-08  0.10566000000E+00  0.10566000000E+00 0.  1.
     999900   -1    0    0    0    0 -0.00000000000E+00 -0.00000000000E+00 -0.74505805969E-08  0.93827000000E+00  0.93827000000E+00 0. -1.
     999902    2    1    2    0    0  0.66855848278E-03  0.31749441175E-02  0.23159788969E-01  0.10205440413E+01  0.10202760593E+01 0.  0.
     999903    2    3    3    0    0  0.99471803830E-01  0.77363652095E-01 -0.27294102738E-01  0.13048132389E+00  0.20015829170E-01 0.  0.
         14    1    1    2    0    0 -0.66855848278E-03 -0.31749441175E-02 -0.23159788969E-01  0.23385958729E-01  0.00000000000E+00 0. -1.
     999901    1    3    3    0    0 -0.98803245347E-01 -0.74188707977E-01  0.50453891706E-01  0.89006271738E+00  0.88000000000E+00 0.  1.
        -11    1    4    4    0    0  0.13597643729E-01  0.15182995757E-01  0.19967237536E-02  0.20485782921E-01  0.51100000000E-03 0.  1.
         11    1    4    4    0    0  0.85874160101E-01  0.62180656338E-01 -0.29290826491E-01  0.10999554097E+00  0.51100000000E-03 0. -1.
</event>
<event>
 8    1  0.1065239E+005  0.1043930E+01  0.7957747E-01            NaN
         13   -1    0    0    0    0  0.00000000000E+00  0.00000000000E+00  0.74505805969E-08  0.10566000000E+00  0.10566000000E+00 0. -1.
     999900   -1    0    0    0    0 -0.00000000000E+00 -0.00000000000E+00 -0.74505805969E-08  0.93827000000E+00  0.93827000000E+00 0.  1.
     999902    2    1    2    0    0  0.17207405657E-01 -0.10958821721E-01 -0.10411931843E-01  0.10210258758E+01  0.10207689455E+01 0.  0.
     999903    2    3    3    0    0 -0.83831112691E-01  0.66641742753E-01 -0.70362499901E-01  0.12983302322E+00  0.20903473229E-01 0.  0.
         14    1    1    2    0    0 -0.17207405657E-01  0.10958821721E-01  0.10411931843E-01  0.22904124250E-01  0.00000000000E+00 0. -1.
     999901    1    3    3    0    0  0.10103851835E+00 -0.77600564474E-01  0.59950568058E-01  0.89119285253E+00  0.88000000000E+00 0. -1.
        -11    1    4    4    0    0 -0.45832171171E-01  0.24543683092E-01 -0.39262199462E-01  0.65151835903E-01  0.51100000000E-03 0. -1.
         11    1    4    4    0    0 -0.37998941520E-01  0.42098059661E-01 -0.31100300440E-01  0.64681187313E-01  0.51100000000E-03 0.  1.
</event>
<event>
 8    1  0.1065239E+005  0.1043930E+01  0.7957747E-01            NaN
         13   -1    0    0    0    0  0.00000000000E+00  0.00000000000E+00  0.74505805969E-08  0.10566000000E+00  0.10566000000E+00 0.  1.
     999900   -1    0    0    0    0 -0.00000000000E+00 -0.00000000000E+00 -0.74505805969E-08  0.93827000000E+00  0.93827000000E+00 0. -1.
     999902    2    1    2    0    0 -0.23221697214E-01  0.82439394204E-02  0.46981306209E-02  0.10188445024E+01  0.10185356341E+01 0.  0.
     999903    2    3    3    0    0 -0.23549671048E-01 -0.12482685756E+00 -0.72182127841E-02  0.12876026828E+00  0.19767971995E-01 0.  0.
         14    1    1    2    0    0  0.23221697214E-01 -0.82439394204E-02 -0.46981306209E-02  0.25085497603E-01  0.00000000000E+00 0. -1.
     999901    1    3    3    0    0  0.32797383351E-03  0.13307079698E+00  0.11916343405E-01  0.89008423411E+00  0.88000000000E+00 0.  1.
        -11    1    4    4    0    0 -0.24050519639E-01 -0.75799730653E-01 -0.45182403427E-02  0.79653639457E-01  0.51100000000E-03 0. -1.
         11    1    4    4    0    0  0.50084859181E-03 -0.49027126911E-01 -0.26999724414E-02  0.49106628826E-01  0.51100000000E-03 0.  1.
</event>
<event>
 8    1  0.1065239E+005  0.1043930E+01  0.7957747E-01            NaN
         13   -1    0    0    0    0  0.00000000000E+00  0.00000000000E+00  0.74505805969E-08  0.10566000000E+00  0.10566000000E+00 0. -1.
     999900   -1    0    0    0    0 -0.00000000000E+00 -0.00000000000E+00 -0.74505805969E-08  0.93827000000E+00  0.93827000000E+00 0.  1.
     999902    2    1    2    0    0  0.97147245264E-02 -0.18261776351E-01 -0.10910675894E-01  0.10205438674E+01  0.10202758814E+01 0.  0.
     999903    2    3    3    0    0  0.93428869974E-01 -0.20408856645E-01 -0.90194433594E-01  0.13302001855E+00  0.20342426317E-01 0.  0.
         14    1    1    2    0    0 -0.97147245264E-02  0.18261776351E-01  0.10910675894E-01  0.23386132570E-01  0.00000000000E+00 0.  1.
     999901    1    3    3    0    0 -0.83714145448E-01  0.21470802933E-02  0.79283757701E-01  0.88752384888E+00  0.88000000000E+00 0.  1.
        -11    1    4    4    0    0  0.64036028943E-01 -0.22333219525E-01 -0.56580548639E-01  0.88323299884E-01  0.51100000000E-03 0.  1.
         11    1    4    4    0    0  0.29392841031E-01  0.19243628803E-02 -0.33613884955E-01  0.44696718662E-01  0.51100000000E-03 0. -1.
</event>
<event>
 8    1  0.1065239E+005  0.1043930E+01  0.7957747E-01            NaN
         13   -1    0    0    0    0  0.00000000000E+00  0.00000000000E+00  0.74505805969E-08  0.10566000000E+00  0.10566000000E+00 0.  1.
     999900   -1    0    0    0    0 -0.00000000000E+00 -0.00000000000E+00 -0.74505805969E-08  0.93827000000E+00  0.93827000000E+00 0. -1.
     999902    2    1    2    0    0 -0.24776897736E-01  0.89672571350E-02 -0.99363654335E-02  0.10157690746E+01  0.10153786364E+01 0.  0.
     999903    2    3    3    0    0 -0.40582830574E-01 -0.45155467208E-01 -0.11101840123E+00  0.12818996557E+00  0.20532888391E-01 0.  0.
         14    1    1    2    0    0  0.24776897736E-01 -0.89672571350E-02  0.99363654335E-02  0.28160925411E-01  0.00000000000E+00 0. -1.
     999901    1    3    3    0    0  0.15805932838E-01  0.54122724343E-01  0.10108203580E+00  0.88757910902E+00  0.88000000000E+00 0.  1.
        -11    1    4    4    0    0 -0.19741158762E-01 -0.32563316168E-01 -0.52972016635E-01  0.65240927159E-01  0.51100000000E-03 0. -1.
         11    1    4    4    0    0 -0.20841671812E-01 -0.12592151041E-01 -0.58046384594E-01  0.62949038413E-01  0.51100000000E-03 0.  1.
</event>
<event>
 8    1  0.1065239E+005  0.1043930E+01  0.7957747E-01            NaN
         13   -1    0    0    0    0  0.00000000000E+00  0.00000000000E+00  0.74505805969E-08  0.10566000000E+00  0.10566000000E+00 0. -1.
     999900   -1    0    0    0    0 -0.00000000000E+00 -0.00000000000E+00 -0.74505805969E-08  0.93827000000E+00  0.93827000000E+00 0. -1.
     999902    2    1    2    0    0 -0.24692524394E-02  0.20464925018E-01  0.11922098222E-01  0.10201172557E+01  0.10198392857E+01 0.  0.
     999903    2    3    3    0    0  0.62284595028E-01 -0.41246641042E-01  0.10579274472E+00  0.13061566696E+00  0.16961469422E-01 0.  0.
         14    1    1    2    0    0  0.24692524394E-02 -0.20464925018E-01 -0.11922098222E-01  0.23812744269E-01  0.00000000000E+00 0. -1.
     999901    1    3    3    0    0 -0.64753847468E-01  0.61711566060E-01 -0.93870646501E-01  0.88950158877E+00  0.88000000000E+00 0. -1.
        -11    1    4    4    0    0  0.41902160476E-01 -0.27124147190E-01  0.56208227571E-01  0.75174040606E-01  0.51100000000E-03 0. -1.
         11    1    4    4    0    0  0.20382434552E-01 -0.14122493852E-01  0.49584517152E-01  0.55441626357E-01  0.51100000000E-03 0.  1.
</event>
<event>
 8    1  0.1065239E+005  0.1043930E+01  0.7957747E-01            NaN
         13   -1    0    0    0    0  0.00000000000E+00  0.00000000000E+00  0.74505805969E-08  0.10566000000E+00  0.10566000000E+00 0.  1.
     999900   -1    0    0    0    0 -0.00000000000E+00 -0.00000000000E+00 -0.74505805969E-08  0.93827000000E+00  0.93827000000E+00 0.  1.
     999902    2    1    2    0    0 -0.72176430363E-02 -0.16655934764E-01  0.14166166723E-01  0.10209040404E+01  0.10206443381E+01 0.  0.
     999903    2    3    3    0    0 -0.88277731067E-01 -0.71408509518E-01 -0.64248210814E-01  0.13201856024E+00  0.20222131962E-01 0.  0.
         14    1    1    2    0    0  0.72176430363E-02  0.16655934764E-01 -0.14166166723E-01  0.23025959556E-01  0.00000000000E+00 0. -1.
     999901    1    3    3    0    0  0.81060088030E-01  0.54752574754E-01  0.78414377537E-01  0.88888548020E+00  0.88000000000E+00 0. -1.
        -11    1    4    4    0    0 -0.62631123961E-01 -0.38324049900E-01 -0.42551832168E-01  0.84866424640E-01  0.51100000000E-03 0. -1.
         11    1    4    4    0    0 -0.25646607106E-01 -0.33084459617E-01 -0.21696378646E-01  0.47152135599E-01  0.51100000000E-03 0.  1.
</event>
<event>
 8    1  0.1156455E+005  0.1043930E+01  0.7957747E-01            NaN
         13   -1    0    0    0    0  0.00000000000E+00  0.00000000000E+00  0.74505805969E-08  0.10566000000E+00  0.10566000000E+00 0. -1.
     999900   -1    0    0    0    0 -0.00000000000E+00 -0.00000000000E+00 -0.74505805969E-08  0.93827000000E+00  0.93827000000E+00 0.  1.
     999902    2    1    2    0    0 -0.88178861350E-02  0.22631619747E-01  0.66643783703E-03  0.10196320687E+01  0.10193425165E+01 0.  0.
     999903    2    3    3    0    0  0.35299956508E-01  0.53169168328E-01 -0.11244075072E+00  0.13077203354E+00  0.19630459643E-01 0.  0.
         14    1    1    2    0    0  0.88178861350E-02 -0.22631619747E-01 -0.66643783703E-03  0.24297931345E-01  0.00000000000E+00 0.  1.
     999901    1    3    3    0    0 -0.44117842643E-01 -0.30537548581E-01  0.11310718855E+00  0.88886003511E+00  0.88000000000E+00 0. -1.
        -11    1    4    4    0    0  0.31992204705E-01  0.34532218727E-01 -0.70729507380E-01  0.84964107877E-01  0.51100000000E-03 0.  1.
         11    1    4    4    0    0  0.33077518037E-02  0.18636949601E-01 -0.41711243335E-01  0.45807925668E-01  0.51100000000E-03 0. -1.
</event>
<event>
 8    1  0.1065239E+005  0.1043930E+01  0.7957747E-01            NaN
         13   -1    0    0    0    0  0.00000000000E+00  0.00000000000E+00  0.74505805969E-08  0.10566000000E+00  0.10566000000E+00 0. -1.
     999900   -1    0    0    0    0 -0.00000000000E+00 -0.00000000000E+00 -0.74505805969E-08  0.93827000000E+00  0.93827000000E+00 0.  1.
     999902    2    1    2    0    0  0.10401967511E-01  0.12881409193E-01  0.17132666040E-01  0.10201043861E+01  0.10198261120E+01 0.  0.
     999903    2    3    3    0    0 -0.80985197271E-01 -0.84570396702E-01 -0.46979827094E-01  0.12771496433E+00  0.19830627425E-01 0.  0.
         14    1    1    2    0    0 -0.10401967511E-01 -0.12881409193E-01 -0.17132666040E-01  0.23825613875E-01  0.00000000000E+00 0.  1.
     999901    1    3    3    0    0  0.91387164783E-01  0.97451805894E-01  0.64112493134E-01  0.89238942180E+00  0.88000000000E+00 0. -1.
        -11    1    4    4    0    0 -0.40604711661E-01 -0.45494688059E-01 -0.14035773229E-01  0.62576140036E-01  0.51100000000E-03 0.  1.
         11    1    4    4    0    0 -0.40380485610E-01 -0.39075708643E-01 -0.32944053865E-01  0.65138824291E-01  0.51100000000E-03 0. -1.
</event>
<event>
 8    1  0.1065239E+005  0.1043930E+01  0.7957747E-01            NaN
         13   -1    0    0    0    0  0.00000000000E+00  0.00000000000E+00  0.74505805969E-08  0.10566000000E+00  0.10566000000E+00 0.  1.
     999900   -1    0    0    0    0 -0.00000000000E+00 -0.00000000000E+00 -0.74505805969E-08  0.93827000000E+00  0.93827000000E+00 0.  1.
     999902    2    1    2    0    0 -0.10702965392E-01  0.46578052031E-02 -0.20614098664E-01  0.10202405576E+01  0.10199654924E+01 0.  0.
     999903    2    3    3    0    0  0.13771632966E-01 -0.99004692685E-01 -0.83377290503E-01  0.13159882007E+00  0.19362071780E-01 0.  0.
         14    1    1    2    0    0  0.10702965392E-01 -0.46578052031E-02  0.20614098664E-01  0.23689442400E-01  0.00000000000E+00 0.  1.
     999901    1    3    3    0    0 -0.24474598358E-01  0.10366249789E+00  0.62763191839E-01  0.88864173753E+00  0.88000000000E+00 0.  1.
        -11    1    4    4    0    0  0.81428982123E-02 -0.92858285404E-01 -0.78897253354E-01  0.12212291213E+00  0.51100000000E-03 0.  1.
         11    1    4    4    0    0  0.56287347535E-02 -0.61464072809E-02 -0.44800371491E-02  0.94759079378E-02  0.51100000000E-03 0. -1.
</event>
<event>
 8    1  0.1065239E+005  0.1043930E+01  0.7957747E-01            NaN
         13   -1    0    0    0    0  0.00000000000E+00  0.00000000000E+00  0.74505805969E-08  0.10566000000E+00  0.10566000000E+00 0.  1.
     999900   -1    0    0    0    0 -0.00000000000E+00 -0.00000000000E+00 -0.74505805969E-08  0.93827000000E+00  0.93827000000E+00 0. -1.
     999902    2    1    2    0    0 -0.55111536528E-02  0.11059174608E-01 -0.25154364080E-01  0.10159046509E+01  0.10155180154E+01 0.  0.
     999903    2    3    3    0    0  0.42814636863E-02  0.12534680513E+00  0.13204910757E-01  0.12763161194E+00  0.19629218317E-01 0.  0.
         14    1    1    2    0    0  0.55111536528E-02 -0.11059174608E-01  0.25154364080E-01  0.28025349058E-01  0.00000000000E+00 0.  1.
     999901    1    3    3    0    0 -0.97926173391E-02 -0.11428763052E+00 -0.38359274837E-01  0.88827303900E+00  0.88000000000E+00 0.  1.
        -11    1    4    4    0    0  0.10176336865E-01  0.10872488362E+00  0.95911505066E-02  0.10962166501E+00  0.51100000000E-03 0.  1.
         11    1    4    4    0    0 -0.58948731788E-02  0.16621921511E-01  0.36137602505E-02  0.18009946937E-01  0.51100000000E-03 0. -1.
</event>
<event>
 8    1  0.1065239E+005  0.1043930E+01  0.7957747E-01            NaN
         13   -1    0    0    0    0  0.00000000000E+00  0.00000000000E+00  0.74505805969E-08  0.10566000000E+00  0.10566000000E+00 0. -1.
     999900   -1    0    0    0    0 -0.00000000000E+00 -0.00000000000E+00 -0.74505805969E-08  0.93827000000E+00  0.93827000000E+00 0. -1.
     999902    2    1    2    0    0  0.43393346302E-03  0.99092872459E-02  0.19689453699E-01  0.10218833028E+01  0.10216454510E+01 0.  0.
     999903    2    3    3    0    0 -0.28125378960E-01 -0.76099503869E-01  0.10365217718E+00  0.13325352304E+00  0.20749846722E-01 0.  0.
         14    1    1    2    0    0 -0.43393346302E-03 -0.99092872459E-02 -0.19689453699E-01  0.22046697234E-01  0.00000000000E+00 0.  1.
     999901    1    3    3    0    0  0.28559312423E-01  0.86008791115E-01 -0.83962723480E-01  0.88862977972E+00  0.88000000000E+00 0.  1.
        -11    1    4    4    0    0 -0.29541097810E-01 -0.53698340258E-01  0.75662238836E-01  0.97371575488E-01  0.51100000000E-03 0. -1.
         11    1    4    4    0    0  0.14157188505E-02 -0.22401163611E-01  0.27989938343E-01  0.35881947556E-01  0.51100000000E-03 0.  1.
</event>
<event>
 8    1  0.1065239E+005  0.1043930E+01  0.7957747E-01            NaN
         13   -1    0    0    0    0  0.00000000000E+00  0.00000000000E+00  0.74505805969E-08  0.10566000000E+00  0.10566000000E+00 0. -1.
     999900   -1    0    0    0    0 -0.00000000000E+00 -0.00000000000E+00 -0.74505805969E-08  0.93827000000E+00  0.93827000000E+00 0. -1.
     999902    2    1    2    0    0  0.16181304051E-01  0.13962912428E-01  0.10273136058E-01  0.10202163995E+01  0.10199407664E+01 0.  0.
     999903    2    3    3    0    0  0.14096703632E-01 -0.65625614705E-01  0.11064727471E+00  0.13093936341E+00  0.19921323522E-01 0.  0.
         14    1    1    2    0    0 -0.16181304051E-01 -0.13962912428E-01 -0.10273136058E-01  0.23713600501E-01  0.00000000000E+00 0.  1.
     999901    1    3    3    0    0  0.20846004189E-02  0.79588527132E-01 -0.10037413865E+00  0.88927703609E+00  0.88000000000E+00 0. -1.
        -11    1    4    4    0    0  0.17620647781E-01 -0.38153532740E-01  0.60817013895E-01  0.73926650059E-01  0.51100000000E-03 0. -1.
         11    1    4    4    0    0 -0.35239441490E-02 -0.27472081965E-01  0.49830260811E-01  0.57012713349E-01  0.51100000000E-03 0.  1.
</event>
<event>
 8    1  0.1065239E+005  0.1043930E+01  0.7957747E-01            NaN
         13   -1    0    0    0    0  0.00000000000E+00  0.00000000000E+00  0.74505805969E-08  0.10566000000E+00  0.10566000000E+00 0.  1.
     999900   -1    0    0    0    0 -0.00000000000E+00 -0.00000000000E+00 -0.74505805969E-08  0.93827000000E+00  0.93827000000E+00 0. -1.
     999902    2    1    2    0    0  0.20140425396E-01 -0.52998559662E-02  0.10316285836E-01  0.10206888520E+01  0.10204242165E+01 0.  0.
     999903    2    3    3    0    0 -0.18886843684E-02 -0.12927909769E+00  0.15576710774E-01  0.13170977115E+00  0.19702225027E-01 0.  0.
         14    1    1    2    0    0 -0.20140425396E-01  0.52998559662E-02 -0.10316285836E-01  0.23241148032E-01  0.00000000000E+00 0.  1.
     999901    1    3    3    0    0  0.22029109765E-01  0.12397924172E+00 -0.52604249387E-02  0.88897908081E+00  0.88000000000E+00 0. -1.
        -11    1    4    4    0    0 -0.10311152167E-01 -0.50054587147E-01  0.66318732982E-02  0.51536631806E-01  0.51100000000E-03 0. -1.
         11    1    4    4    0    0  0.84224677989E-02 -0.79224510542E-01  0.89448374761E-02  0.80173139348E-01  0.51100000000E-03 0.  1.
</event>
<event>
 8    1  0.1065239E+005  0.1043930E+01  0.7957747E-01            NaN
         13   -1    0    0    0    0  0.00000000000E+00  0.00000000000E+00  0.74505805969E-08  0.10566000000E+00  0.10566000000E+00 0.  1.
     999900   -1    0    0    0    0 -0.00000000000E+00 -0.00000000000E+00 -0.74505805969E-08  0.93827000000E+00  0.93827000000E+00 0.  1.
     999902    2    1    2    0    0 -0.18877492113E-01  0.41387577802E-03  0.13677193060E-01  0.10206148416E+01  0.10203484984E+01 0.  0.
     999903    2    3    3    0    0 -0.74049852740E-01  0.46174398437E-01 -0.95569688125E-01  0.13096721705E+00  0.20084593363E-01 0.  0.
         14    1    1    2    0    0  0.18877492113E-01 -0.41387577802E-03 -0.13677193060E-01  0.23315158409E-01  0.00000000000E+00 0. -1.
     999901    1    3    3    0    0  0.55172360627E-01 -0.45760522659E-01  0.10924688119E+00  0.88964762455E+00  0.88000000000E+00 0. -1.
        -11    1    4    4    0    0 -0.58853110770E-01  0.29694841090E-01 -0.80036466741E-01  0.10368977464E+00  0.51100000000E-03 0. -1.
         11    1    4    4    0    0 -0.15196741970E-01  0.16479557347E-01 -0.15533221384E-01  0.27277442410E-01  0.51100000000E-03 0.  1.
</event>
<event>
 8    1  0.1065239E+005  0.1043930E+01  0.7957747E-01            NaN
         13   -1    0    0    0    0  0.00000000000E+00  0.00000000000E+00  0.74505805969E-08  0.10566000000E+00  0.10566000000E+00 0.  1.
     999900   -1    0    0    0    0 -0.00000000000E+00 -0.00000000000E+00 -0.74505805969E-08  0.93827000000E+00  0.93827000000E+00 0.  1.
     999902    2    1    2    0    0  0.96004623303E-02 -0.73250017911E-02  0.14341043160E-01  0.10251819322E+01  0.10250104897E+01 0.  0.
     999903    2    3    3    0    0  0.10512996375E+00  0.78305651368E-01  0.28177645262E-01  0.13577204581E+00  0.21353791635E-01 0.  0.
         14    1    1    2    0    0 -0.96004623303E-02  0.73250017911E-02 -0.14341043160E-01  0.18748067823E-01  0.00000000000E+00 0. -1.
     999901    1    3    3    0    0 -0.95529501422E-01 -0.85630653159E-01 -0.13836602102E-01  0.88940988636E+00  0.88000000000E+00 0.  1.
        -11    1    4    4    0    0  0.79101405844E-01  0.67521675717E-01  0.27536944127E-01  0.10758602842E+00  0.51100000000E-03 0. -1.
         11    1    4    4    0    0  0.26028557909E-01  0.10783975651E-01  0.64070113471E-03  0.28186017395E-01  0.51100000000E-03 0.  1.
</event>
<event>
 8    1  0.1065239E+005  0.1043930E+01  0.7957747E-01            NaN
         13   -1    0    0    0    0  0.00000000000E+00  0.00000000000E+00  0.74505805969E-08  0.10566000000E+00  0.10566000000E+00 0.  1.
     999900   -1    0    0    0    0 -0.00000000000E+00 -0.00000000000E+00 -0.74505805969E-08  0.93827000000E+00  0.93827000000E+00 0. -1.
     999902    2    1    2    0    0 -0.15495817942E-01  0.14345721629E-02 -0.17861883425E-01  0.10202398069E+01  0.10199647240E+01 0.  0.
     999903    2    3    3    0    0 -0.45579723139E-01  0.72005490018E-01  0.95604183415E-01  0.12964458786E+00  0.20131008948E-01 0.  0.
         14    1    1    2    0    0  0.15495817942E-01 -0.14345721629E-02  0.17861883425E-01  0.23690193129E-01  0.00000000000E+00 0.  1.
     999901    1    3    3    0    0  0.30083905196E-01 -0.70570917855E-01 -0.11346606684E+00  0.89059521901E+00  0.88000000000E+00 0. -1.
        -11    1    4    4    0    0 -0.27213573485E-01  0.53275559021E-01  0.54784807745E-01  0.81120281382E-01  0.51100000000E-03 0.  1.
         11    1    4    4    0    0 -0.18366149654E-01  0.18729930997E-01  0.40819375670E-01  0.48524306480E-01  0.51100000000E-03 0. -1.
</event>
<event>
 8    1  0.1065239E+005  0.1043930E+01  0.7957747E-01            NaN
         13   -1    0    0    0    0  0.00000000000E+00  0.00000000000E+00  0.74505805969E-08  0.10566000000E+00  0.10566000000E+00 0.  1.
     999900   -1    0    0    0    0 -0.00000000000E+00 -0.00000000000E+00 -0.74505805969E-08  0.93827000000E+00  0.93827000000E+00 0.  1.
     999902    2    1    2    0    0  0.26142924915E-02 -0.19263089684E-01 -0.11644737949E-01  0.10212694380E+01  0.10210180037E+01 0.  0.
     999903    2    3    3    0    0 -0.90830778912E-01  0.10349982720E-01  0.90215795551E-01  0.12998694420E+00  0.20009081818E-01 0.  0.
         14    1    1    2    0    0 -0.26142924915E-02  0.19263089684E-01  0.11644737949E-01  0.22660562025E-01  0.00000000000E+00 0.  1.
     999901    1    3    3    0    0  0.93445071404E-01 -0.29613072404E-01 -0.10186053350E+00  0.89128249378E+00  0.88000000000E+00 0. -1.
        -11    1    4    4    0    0 -0.27013807457E-01  0.91980000050E-02  0.37975042536E-01  0.47504883686E-01  0.51100000000E-03 0. -1.
         11    1    4    4    0    0 -0.63816971455E-01  0.11519827148E-02  0.52240753014E-01  0.82482060512E-01  0.51100000000E-03 0.  1.
</event>
<event>
 8    1  0.1065239E+005  0.1043930E+01  0.7957747E-01            NaN
         13   -1    0    0    0    0  0.00000000000E+00  0.00000000000E+00  0.74505805969E-08  0.10566000000E+00  0.10566000000E+00 0. -1.
     999900   -1    0    0    0    0 -0.00000000000E+00 -0.00000000000E+00 -0.74505805969E-08  0.93827000000E+00  0.93827000000E+00 0.  1.
     999902    2    1    2    0    0 -0.13921122269E-01  0.14784210366E-01 -0.13256726974E-01  0.10196789932E+01  0.10193905718E+01 0.  0.
     999903    2    3    3    0    0  0.68985151611E-01  0.55526219236E-01  0.91570320941E-01  0.12865594550E+00  0.18030986375E-01 0.  0.
         14    1    1    2    0    0  0.13921122269E-01 -0.14784210366E-01  0.13256726974E-01  0.24251006813E-01  0.00000000000E+00 0. -1.
     999901    1    3    3    0    0 -0.82906273880E-01 -0.40742008870E-01 -0.10482704792E+00  0.89102304769E+00  0.88000000000E+00 0.  1.
        -11    1    4    4    0    0  0.14318299680E-01  0.21013194776E-01  0.30601641685E-01  0.39790572442E-01  0.51100000000E-03 0.  1.
         11    1    4    4    0    0  0.54666851931E-01  0.34513024460E-01  0.60968679256E-01  0.88865373058E-01  0.51100000000E-03 0. -1.
</event>
<event>
 8    1  0.1065239E+005  0.1043930E+01  0.7957747E-01            NaN
         13   -1    0    0    0    0  0.00000000000E+00  0.00000000000E+00  0.74505805969E-08  0.10566000000E+00  0.10566000000E+00 0. -1.
     999900   -1    0    0    0    0 -0.00000000000E+00 -0.00000000000E+00 -0.74505805969E-08  0.93827000000E+00  0.93827000000E+00 0. -1.
     999902    2    1    2    0    0  0.94327991696E-02  0.13649073593E-01  0.17664140043E-01  0.10196957937E+01  0.10194077766E+01 0.  0.
     999903    2    3    3    0    0 -0.95933972541E-01  0.76494038305E-01  0.33907269377E-01  0.13103641837E+00  0.31083356283E-01 0.  0.
         14    1    1    2    0    0 -0.94327991696E-02 -0.13649073593E-01 -0.17664140043E-01  0.24234206271E-01  0.00000000000E+00 0. -1.
     999901    1    3    3    0    0  0.10536677171E+00 -0.62844964712E-01 -0.16243129334E-01  0.88865937536E+00  0.88000000000E+00 0.  1.
        -11    1    4    4    0    0 -0.69743471390E-01  0.69096959755E-01  0.18990375277E-01  0.99997185575E-01  0.51100000000E-03 0. -1.
         11    1    4    4    0    0 -0.26190501151E-01  0.73970785503E-02  0.14916894100E-01  0.31039232791E-01  0.51100000000E-03 0.  1.
</event>
<event>
 8    1  0.1065239E+005  0.1043930E+01  0.7957747E-01            NaN
         13   -1    0    0    0    0  0.00000000000E+00  0.00000000000E+00  0.74505805969E-08  0.10566000000E+00  0.10566000000E+00 0.  1.
     999900   -1    0    0    0    0 -0.00000000000E+00 -0.00000000000E+00 -0.74505805969E-08  0.93827000000E+00  0.93827000000E+00 0.  1.
     999902    2    1    2    0    0  0.14721135792E-01 -0.18267743157E-01  0.12674733875E-01  0.10172640825E+01  0.10169145207E+01 0.  0.
     999903    2    3    3    0    0  0.11992659876E+00  0.28148792134E-01 -0.31074074873E-01  0.12870533795E+00  0.20608791778E-01 0.  0.
         14    1    1    2    0    0 -0.14721135792E-01  0.18267743157E-01 -0.12674733875E-01  0.26665917533E-01  0.00000000000E+00 0. -1.
     999901    1    3    3    0    0 -0.10520546297E+00 -0.46416535291E-01  0.43748808748E-01  0.88855874452E+00  0.88000000000E+00 0.  1.
        -11    1    4    4    0    0  0.92915603563E-01  0.14651573710E-01 -0.17881051714E-01  0.95749522866E-01  0.51100000000E-03 0. -1.
         11    1    4    4    0    0  0.27010995200E-01  0.13497218424E-01 -0.13193023159E-01  0.32955815086E-01  0.51100000000E-03 0.  1.
</event>
<event>
 8    1  0.1065239E+005  0.1043930E+01  0.7957747E-01            NaN
         13   -1    0    0    0    0  0.00000000000E+00  0.00000000000E+00  0.74505805969E-08  0.10566000000E+00  0.10566000000E+00 0. -1.
     999900   -1    0    0    0    0 -0.00000000000E+00 -0.00000000000E+00 -0.74505805969E-08  0.93827000000E+00  0.93827000000E+00 0.  1.
     999902    2    1    2    0    0  0.13573301870E-01 -0.20324671772E-01  0.23297140104E-02  0.10193789435E+01  0.10190832528E+01 0.  0.
     999903    2    3    3    0    0  0.24686232529E-01  0.62630429617E-01 -0.10762334090E+00  0.12859573738E+00  0.20545057223E-01 0.  0.
         14    1    1    2    0    0 -0.13573301870E-01  0.20324671772E-01 -0.23297140104E-02  0.24551056467E-01  0.00000000000E+00 0.  1.
     999901    1    3    3    0    0 -0.11112930659E-01 -0.82955101389E-01  0.10995305491E+00  0.89078320615E+00  0.88000000000E+00 0. -1.
        -11    1    4    4    0    0  0.13032041519E-01  0.36415592420E-01 -0.42702626484E-01  0.57616880401E-01  0.51100000000E-03 0. -1.
         11    1    4    4    0    0  0.11654191010E-01  0.26214837197E-01 -0.64920714415E-01  0.70978856982E-01  0.51100000000E-03 0.  1.
</event>
<event>
 8    1  0.1065239E+005  0.1043930E+01  0.7957747E-01            NaN
         13   -1    0    0    0    0  0.00000000000E+00  0.00000000000E+00  0.74505805969E-08  0.10566000000E+00  0.10566000000E+00 0.  1.
     999900   -1    0    0    0    0 -0.00000000000E+00 -0.00000000000E+00 -0.74505805969E-08  0.93827000000E+00  0.93827000000E+00 0. -1.
     999902    2    1    2    0    0  0.12847707302E-01 -0.94764096802E-02  0.17422109467E-01  0.10202995996E+01  0.10200259199E+01 0.  0.
     999903    2    3    3    0    0  0.11511622248E-01 -0.15953329381E-01 -0.12575369725E+00  0.12870381272E+00  0.19069684629E-01 0.  0.
         14    1    1    2    0    0 -0.12847707302E-01  0.94764096802E-02 -0.17422109467E-01  0.23630400369E-01  0.00000000000E+00 0. -1.
     999901    1    3    3    0    0  0.13360850536E-02  0.64769197005E-02  0.14317580671E+00  0.89159578691E+00  0.88000000000E+00 0.  1.
        -11    1    4    4    0    0  0.62073901547E-02  0.30737606717E-02 -0.21496420654E-01  0.22590637865E-01  0.51100000000E-03 0. -1.
         11    1    4    4    0    0  0.53042320935E-02 -0.19027090052E-01 -0.10425727659E+00  0.10611317485E+00  0.51100000000E-03 0.  1.
</event>
<event>
 8    1  0.1065239E+005  0.1043930E+01  0.7957747E-01            NaN
         13   -1    0    0    0    0  0.00000000000E+00  0.00000000000E+00  0.74505805969E-08  0.10566000000E+00  0.10566000000E+00 0. -1.
     999900   -1    0    0    0    0 -0.00000000000E+00 -0.00000000000E+00 -0.74505805969E-08  0.93827000000E+00  0.93827000000E+00 0.  1.
     999902    2    1    2    0    0 -0.19784192021E-01 -0.14447297248E-01  0.10478116352E-02  0.10194098744E+01  0.10191149373E+01 0.  0.
     999903    2    3    3    0    0 -0.92820081147E-01 -0.20295727296E-01  0.89371594817E-01  0.13195872872E+00  0.19958459744E-01 0.  0.
         14    1    1    2    0    0  0.19784192021E-01  0.14447297248E-01 -0.10478116352E-02  0.24520125631E-01  0.00000000000E+00 0.  1.
     999901    1    3    3    0    0  0.73035889125E-01  0.58484300483E-02 -0.88323783182E-01  0.88745114565E+00  0.88000000000E+00 0.  1.
        -11    1    4    4    0    0 -0.63734562431E-01 -0.64706875789E-02  0.51169355155E-01  0.81991025570E-01  0.51100000000E-03 0.  1.
         11    1    4    4    0    0 -0.29085518715E-01 -0.13825039717E-01  0.38202239662E-01  0.49967703152E-01  0.51100000000E-03 0. -1.
</event>
<event>
 8    1  0.1065239E+005  0.1043930E+01  0.7957747E-01            NaN
         13   -1    0    0    0    0  0.00000000000E+00  0.00000000000E+00  0.74505805969E-08  0.10566000000E+00  0.10566000000E+00 0.  1.
     999900   -1    0    0    0    0 -0.00000000000E+00 -0.00000000000E+00 -0.74505805969E-08  0.93827000000E+00  0.93827000000E+00 0. -1.
     999902    2    1    2    0    0 -0.22551047274E-01  0.16128828857E-02  0.69812048487E-02  0.10202680401E+01  0.10199936202E+01 0.  0.
     999903    2    3    3    0    0 -0.85512240477E-01  0.16375627292E-01  0.98419024886E-01  0.13317000416E+00  0.21620386374E-01 0.  0.
         14    1    1    2    0    0  0.22551047274E-01 -0.16128828857E-02 -0.69812048487E-02  0.23661959882E-01  0.00000000000E+00 0. -1.
     999901    1    3    3    0    0  0.62961193204E-01 -0.14762744406E-01 -0.91437820037E-01  0.88709803596E+00  0.88000000000E+00 0. -1.
        -11    1    4    4    0    0 -0.46838201713E-01 -0.20019364724E-02  0.52149374494E-01  0.70125910122E-01  0.51100000000E-03 0.  1.
         11    1    4    4    0    0 -0.38674038764E-01  0.18377563764E-01  0.46269650392E-01  0.63044094035E-01  0.51100000000E-03 0. -1.
</event>
<event>
 7    1  0.1065239E+005  0.1043930E+01  0.7957747E-01            NaN
         13   -1    0    0    0    0  0.00000000000E+00  0.00000000000E+00  0.74505805969E-08  0.10566000000E+00  0.10566000000E+00 0.  1.
     999900   -1    0    0    0    0 -0.00000000000E+00 -0.00000000000E+00 -0.74505805969E-08  0.93827000000E+00  0.93827000000E+00 0.  1.
     999903    2    1    2    0    0 -0.51843528878E-01  0.84266046158E-01 -0.47924929832E-01  0.11167787059E+00  0.19662905648E-01 0.  0.
         14    1    1    2    0    0  0.17105443231E-01 -0.31793199976E-01  0.34450085794E-01  0.49902025651E-01  0.00000000000E+00 0.  1.
     999901    1    1    2    0    0  0.34738085646E-01 -0.52472846182E-01  0.13474844038E-01  0.88235010376E+00  0.88000000000E+00 0. -1.
        -11    1    3    3    0    0  0.96940457880E-04  0.28743415353E-02 -0.54724859084E-02  0.62032620234E-02  0.51100000000E-03 0. -1.
         11    1    3    3    0    0 -0.51940469335E-01  0.81391704623E-01 -0.42452443923E-01  0.10547460857E+00  0.51100000000E-03 0.  1.
</event>
<event>
 8    1  0.1065239E+005  0.1043930E+01  0.7957747E-01            NaN
         13   -1    0    0    0    0  0.00000000000E+00  0.00000000000E+00  0.74505805969E-08  0.10566000000E+00  0.10566000000E+00 0. -1.
     999900   -1    0    0    0    0 -0.00000000000E+00 -0.00000000000E+00 -0.74505805969E-08  0.93827000000E+00  0.93827000000E+00 0.  1.
     999902    2    1    2    0    0  0.21694092064E-01  0.72326966662E-02  0.36930363045E-02  0.10207657161E+01  0.10205028482E+01 0.  0.
     999903    2    3    3    0    0 -0.10245653883E+00  0.54202401277E-01  0.53959138275E-01  0.12939249835E+00  0.19889378412E-01 0.  0.
         14    1    1    2    0    0 -0.21694092064E-01 -0.72326966662E-02 -0.36930363045E-02  0.23164283902E-01  0.00000000000E+00 0.  1.
     999901    1    3    3    0    0  0.12415063090E+00 -0.46969704611E-01 -0.50266101971E-01  0.89137321774E+00  0.88000000000E+00 0.  1.
        -11    1    4    4    0    0 -0.55161912576E-01  0.21222374970E-01  0.35019547926E-01  0.68701205640E-01  0.51100000000E-03 0. -1.
         11    1    4    4    0    0 -0.47294626255E-01  0.32980026307E-01  0.18939590349E-01  0.60691292714E-01  0.51100000000E-03 0.  1.
</event>
<event>
 8    1  0.1065239E+005  0.1043930E+01  0.7957747E-01            NaN
         13   -1    0    0    0    0  0.00000000000E+00  0.00000000000E+00  0.74505805969E-08  0.10566000000E+00  0.10566000000E+00 0. -1.
     999900   -1    0    0    0    0 -0.00000000000E+00 -0.00000000000E+00 -0.74505805969E-08  0.93827000000E+00  0.93827000000E+00 0. -1.
     999902    2    1    2    0    0  0.51166289185E-02 -0.10773163975E-01 -0.20096869305E-01  0.10205606802E+01  0.10202930838E+01 0.  0.
     999903    2    3    3    0    0  0.44241423821E-01  0.10166114367E+00 -0.67325624618E-01  0.13128975495E+00  0.20297002483E-01 0.  0.
         14    1    1    2    0    0 -0.51166289185E-02  0.10773163975E-01  0.20096869305E-01  0.23369319831E-01  0.00000000000E+00 0.  1.
     999901    1    3    3    0    0 -0.39124794902E-01 -0.11243430765E+00  0.47228755313E-01  0.88927092522E+00  0.88000000000E+00 0.  1.
        -11    1    4    4    0    0  0.15748871612E-01  0.41738286057E-01 -0.15977826294E-01  0.47388432493E-01  0.51100000000E-03 0.  1.
         11    1    4    4    0    0  0.28492552209E-01  0.59922857616E-01 -0.51347798324E-01  0.83901322457E-01  0.51100000000E-03 0. -1.
</event>
<event>
 8    1  0.1506609E+005  0.1043930E+01  0.7957747E-01            NaN
         13   -1    0    0    0    0  0.00000000000E+00  0.00000000000E+00  0.74505805969E-08  0.10566000000E+00  0.10566000000E+00 0.  1.
     999900   -1    0    0    0    0 -0.00000000000E+00 -0.00000000000E+00 -0.74505805969E-08  0.93827000000E+00  0.93827000000E+00 0. -1.
     999902    2    1    2    0    0  0.41976849043E-02 -0.94148099278E-02  0.21451205875E-01  0.10201305580E+01  0.10198529021E+01 0.  0.
     999903    2    3    3    0    0 -0.54632213884E-01  0.11239381349E+00  0.29106297136E-01  0.12976159061E+00  0.19335091355E-01 0.  0.
         14    1    1    2    0    0 -0.41976849043E-02  0.94148099278E-02 -0.21451205875E-01  0.23799441969E-01  0.00000000000E+00 0. -1.
     999901    1    3    3    0    0  0.58829898789E-01 -0.12180862342E+00 -0.76550912610E-02  0.89036896743E+00  0.88000000000E+00 0. -1.
        -11    1    4    4    0    0 -0.40631144848E-01  0.74689523822E-01  0.28014212405E-01  0.89523584145E-01  0.51100000000E-03 0.  1.
         11    1    4    4    0    0 -0.14001069036E-01  0.37704289673E-01  0.10920847310E-02  0.40238006461E-01  0.51100000000E-03 0. -1.
</event>
<event>
 8    1  0.1065239E+005  0.1043930E+01  0.7957747E-01            NaN
         13   -1    0    0    0    0  0.00000000000E+00  0.00000000000E+00  0.74505805969E-08  0.10566000000E+00  0.10566000000E+00 0.  1.
     999900   -1    0    0    0    0 -0.00000000000E+00 -0.00000000000E+00 -0.74505805969E-08  0.93827000000E+00  0.93827000000E+00 0. -1.
     999902    2    1    2    0    0 -0.63444307167E-02 -0.19992175448E-01 -0.91141297321E-02  0.10210606703E+01  0.10208045289E+01 0.  0.
     999903    2    3    3    0    0  0.76300773357E-01  0.68578631935E-03  0.10312599489E+00  0.12985045187E+00  0.20097032405E-01 0.  0.
         14    1    1    2    0    0  0.63444307167E-02  0.19992175448E-01  0.91141297321E-02  0.22869329702E-01  0.00000000000E+00 0. -1.
     999901    1    3    3    0    0 -0.82645204074E-01 -0.20677961767E-01 -0.11224012462E+00  0.89121021843E+00  0.88000000000E+00 0. -1.
        -11    1    4    4    0    0  0.25930495494E-01  0.19595200253E-02  0.51581326900E-01  0.57767851969E-01  0.51100000000E-03 0. -1.
         11    1    4    4    0    0  0.50370277863E-01 -0.12737337059E-02  0.51544667986E-01  0.72082599899E-01  0.51100000000E-03 0.  1.
</event>
<event>
 8    1  0.1065239E+005  0.1043930E+01  0.7957747E-01            NaN
         13   -1    0    0    0    0  0.00000000000E+00  0.00000000000E+00  0.74505805969E-08  0.10566000000E+00  0.10566000000E+00 0. -1.
     999900   -1    0    0    0    0 -0.00000000000E+00 -0.00000000000E+00 -0.74505805969E-08  0.93827000000E+00  0.93827000000E+00 0.  1.
     999902    2    1    2    0    0 -0.27186373192E-02  0.54739297588E-02  0.23056121434E-01  0.10200775445E+01  0.10197986356E+01 0.  0.
     999903    2    3    3    0    0 -0.86796847970E-01 -0.58621943137E-01 -0.71976685796E-01  0.12866929863E+00  0.20122625995E-01 0.  0.
         14    1    1    2    0    0  0.27186373192E-02 -0.54739297588E-02 -0.23056121434E-01  0.23852455460E-01  0.00000000000E+00 0.  1.
     999901    1    3    3    0    0  0.84078210650E-01  0.64095872896E-01  0.95032807230E-01  0.89140824591E+00  0.88000000000E+00 0.  1.
        -11    1    4    4    0    0 -0.42299615447E-01 -0.26424926823E-01 -0.22396743365E-01  0.54675492306E-01  0.51100000000E-03 0.  1.
         11    1    4    4    0    0 -0.44497232522E-01 -0.32197016314E-01 -0.49579942431E-01  0.73993806323E-01  0.51100000000E-03 0. -1.
</event>
<event>
 8    1  0.1065239E+005  0.1043930E+01  0.7957747E-01            NaN
         13   -1    0    0    0    0  0.00000000000E+00  0.00000000000E+00  0.74505805969E-08  0.10566000000E+00  0.10566000000E+00 0.  1.
     999900   -1    0    0    0    0 -0.00000000000E+00 -0.00000000000E+00 -0.74505805969E-08  0.93827000000E+00  0.93827000000E+00 0.  1.
     999902    2    1    2    0    0  0.17470394485E-01  0.65291174435E-02 -0.14862727934E-01  0.10200816303E+01  0.10198028180E+01 0.  0.
     999903    2    3    3    0    0 -0.11635385443E+00  0.23199863963E-01 -0.47820503913E-01  0.12919832791E+00  0.18137094905E-01 0.  0.
         14    1    1    2    0    0 -0.17470394485E-01 -0.65291174435E-02  0.14862727934E-01  0.23848369749E-01  0.00000000000E+00 0.  1.
     999901    1    3    3    0    0  0.13382424892E+00 -0.16670746519E-01  0.32957775980E-01  0.89088330234E+00  0.88000000000E+00 0.  1.
        -11    1    4    4    0    0 -0.58566334075E-01  0.68320177641E-02 -0.15397884302E-01  0.60942989061E-01  0.51100000000E-03 0. -1.
         11    1    4    4    0    0 -0.57787520358E-01  0.16367846199E-01 -0.32422619611E-01  0.68255338852E-01  0.51100000000E-03 0.  1.
</event>
<event>
 8    1  0.1065239E+005  0.1043930E+01  0.7957747E-01            NaN
         13   -1    0    0    0    0  0.00000000000E+00  0.00000000000E+00  0.74505805969E-08  0.10566000000E+00  0.10566000000E+00 0. -1.
     999900   -1    0    0    0    0 -0.00000000000E+00 -0.00000000000E+00 -0.74505805969E-08  0.93827000000E+00  0.93827000000E+00 0.  1.
     999902    2    1    2    0    0 -0.18154910125E-01 -0.14839307957E-01 -0.62623270990E-02  0.10196602130E+01  0.10193713393E+01 0.  0.
     999903    2    3    3    0    0 -0.11364906116E+00  0.24360547637E-01  0.58413878580E-01  0.13126909800E+00  0.17602542308E-01 0.  0.
         14    1    1    2    0    0  0.18154910125E-01  0.14839307957E-01  0.62623270990E-02  0.24269787041E-01  0.00000000000E+00 0.  1.
     999901    1    3    3    0    0  0.95494151032E-01 -0.39199855595E-01 -0.64676205679E-01  0.88839111496E+00  0.88000000000E+00 0.  1.
        -11    1    4    4    0    0 -0.37909053967E-01  0.36486710792E-02  0.27043272171E-01  0.46711977736E-01  0.51100000000E-03 0.  1.
         11    1    4    4    0    0 -0.75740007190E-01  0.20711876558E-01  0.31370606409E-01  0.84557120263E-01  0.51100000000E-03 0. -1.
</event>
<event>
 8    1  0.1065239E+005  0.1043930E+01  0.7957747E-01            NaN
         13   -1    0    0    0    0  0.00000000000E+00  0.00000000000E+00  0.74505805969E-08  0.10566000000E+00  0.10566000000E+00 0.  1.
     999900   -1    0    0    0    0 -0.00000000000E+00 -0.00000000000E+00 -0.74505805969E-08  0.93827000000E+00  0.93827000000E+00 0.  1.
     999902    2    1    2    0    0 -0.12568658868E-01  0.14711986749E-01  0.15291659193E-01  0.10192673039E+01  0.10189688848E+01 0.  0.
     999903    2    3    3    0    0  0.71675315581E-01 -0.10015283472E+00  0.26883411132E-01  0.12773752693E+00  0.20645019425E-01 0.  0.
         14    1    1    2    0    0  0.12568658868E-01 -0.14711986749E-01 -0.15291659193E-01  0.24662696136E-01  0.00000000000E+00 0. -1.
     999901    1    3    3    0    0 -0.84243974449E-01  0.11486482147E+00 -0.11591751940E-01  0.89152977693E+00  0.88000000000E+00 0. -1.
        -11    1    4    4    0    0  0.23912413240E-01 -0.20272929037E-01  0.11537313385E-01  0.33409068826E-01  0.51100000000E-03 0.  1.
         11    1    4    4    0    0  0.47762902341E-01 -0.79879905681E-01  0.15346097748E-01  0.94328458107E-01  0.51100000000E-03 0. -1.
</event>
<event>
 8    1  0.1065239E+005  0.1043930E+01  0.7957747E-01            NaN
         13   -1    0    0    0    0  0.00000000000E+00  0.00000000000E+00  0.74505805969E-08  0.10566000000E+00  0.10566000000E+00 0.  1.
     999900   -1    0    0    0    0 -0.00000000000E+00 -0.00000000000E+00 -0.74505805969E-08  0.93827000000E+00  0.93827000000E+00 0. -1.
     999902    2    1    2    0    0  0.98790886858E-02 -0.17696793202E-01 -0.12660845206E-01  0.10200329315E+01  0.10197529659E+01 0.  0.
     999903    2    3    3    0    0  0.13738790418E-01 -0.10847143720E+00  0.69634011575E-01  0.13153567388E+00  0.22314364995E-01 0.  0.
         14    1    1    2    0    0 -0.98790886858E-02  0.17696793202E-01  0.12660845206E-01  0.23897068527E-01  0.00000000000E+00 0.  1.
     999901    1    3    3    0    0 -0.38597017324E-02  0.90774644000E-01 -0.82294856781E-01  0.88849725759E+00  0.88000000000E+00 0. -1.
        -11    1    4    4    0    0  0.12014594748E-01 -0.61467584725E-01  0.51629399671E-01  0.81169393802E-01  0.51100000000E-03 0.  1.
         11    1    4    4    0    0  0.17241956697E-02 -0.47003852477E-01  0.18004611904E-01  0.50366280081E-01  0.51100000000E-03 0. -1.
</event>
<event>
 8    1  0.1065239E+005  0.1043930E+01  0.7957747E-01            NaN
         13   -1    0    0    0    0  0.00000000000E+00  0.00000000000E+00  0.74505805969E-08  0.10566000000E+00  0.10566000000E+00 0. -1.
     999900   -1    0    0    0    0 -0.00000000000E+00 -0.00000000000E+00 -0.74505805969E-08  0.93827000000E+00  0.93827000000E+00 0.  1.
     999902    2    1    2    0    0  0.15468258385E-01 -0.13646875287E-01 -0.11439757398E-01  0.10203424552E+01  0.10200697787E+01 0.  0.
     999903    2    3    3    0    0  0.97656440856E-01  0.38394823024E-01  0.75341480798E-01  0.13073904969E+00  0.20134982256E-01 0.  0.
         14    1    1    2    0    0 -0.15468258385E-01  0.13646875287E-01  0.11439757398E-01  0.23587544846E-01  0.00000000000E+00 0. -1.
     999901    1    3    3    0    0 -0.82188182472E-01 -0.52041698311E-01 -0.86781238196E-01  0.88960340546E+00  0.88000000000E+00 0.  1.
        -11    1    4    4    0    0  0.50166609468E-01  0.92665139886E-02  0.32975175718E-01  0.60746854417E-01  0.51100000000E-03 0. -1.
         11    1    4    4    0    0  0.47489831389E-01  0.29128309036E-01  0.42366305080E-01  0.69992195278E-01  0.51100000000E-03 0.  1.
</event>
<event>
 8    1  0.1065239E+005  0.1043930E+01  0.7957747E-01            NaN
         13   -1    0    0    0    0  0.00000000000E+00  0.00000000000E+00  0.74505805969E-08  0.10566000000E+00  0.10566000000E+00 0. -1.
     999900   -1    0    0    0    0 -0.00000000000E+00 -0.00000000000E+00 -0.74505805969E-08  0.93827000000E+00  0.93827000000E+00 0. -1.
     999902    2    1    2    0    0  0.13143556451E-01  0.11012034550E-01 -0.16144518058E-01  0.10203787061E+01  0.10201068770E+01 0.  0.
     999903    2    3    3    0    0  0.96749390094E-01 -0.11313780982E-01  0.84438056337E-01  0.13043194829E+00  0.19856023106E-01 0.  0.
         14    1    1    2    0    0 -0.13143556451E-01 -0.11012034550E-01  0.16144518058E-01  0.23551293901E-01  0.00000000000E+00 0. -1.
     999901    1    3    3    0    0 -0.83605833643E-01  0.22325815531E-01 -0.10058257440E+00  0.88994675781E+00  0.88000000000E+00 0. -1.
        -11    1    4    4    0    0  0.20320539698E-01  0.56388752951E-02  0.16645566458E-01  0.26871123011E-01  0.51100000000E-03 0. -1.
         11    1    4    4    0    0  0.76428850396E-01 -0.16952656277E-01  0.67792489880E-01  0.10356082528E+00  0.51100000000E-03 0.  1.
</event>
<event>
 8    1  0.1065239E+005  0.1043930E+01  0.7957747E-01            NaN
         13   -1    0    0    0    0  0.00000000000E+00  0.00000000000E+00  0.74505805969E-08  0.10566000000E+00  0.10566000000E+00 0.  1.
     999900   -1    0    0    0    0 -0.00000000000E+00 -0.00000000000E+00 -0.74505805969E-08  0.93827000000E+00  0.93827000000E+00 0.  1.
     999902    2    1    2    0    0 -0.87793199989E-02  0.18954142496E-01 -0.99482295227E-02  0.10207933786E+01  0.10205311453E+01 0.  0.
     999903    2    3    3    0    0 -0.11569934269E+00  0.54068906039E-01  0.30550115686E-01  0.13270269980E+00  0.19154959324E-01 0.  0.
         14    1    1    2    0    0  0.87793199989E-02 -0.18954142496E-01  0.99482295227E-02  0.23136621361E-01  0.00000000000E+00 0. -1.
     999901    1    3    3    0    0  0.10692002269E+00 -0.35114763543E-01 -0.40498345209E-01  0.88809067884E+00  0.88000000000E+00 0.  1.
        -11    1    4    4    0    0 -0.70943175737E-01  0.26822247820E-01  0.25686030426E-01  0.80077465256E-01  0.51100000000E-03 0.  1.
         11    1    4    4    0    0 -0.44756166955E-01  0.27246658219E-01  0.48640852595E-02  0.52625234546E-01  0.51100000000E-03 0. -1.
</event>
<event>
 8    1  0.1065239E+005  0.1043930E+01  0.7957747E-01            NaN
         13   -1    0    0    0    0  0.00000000000E+00  0.00000000000E+00  0.74505805969E-08  0.10566000000E+00  0.10566000000E+00 0.  1.
     999900   -1    0    0    0    0 -0.00000000000E+00 -0.00000000000E+00 -0.74505805969E-08  0.93827000000E+00  0.93827000000E+00 0.  1.
     999902    2    1    2    0    0 -0.80706996072E-02  0.15304217075E-01  0.16107834818E-01  0.10202906769E+01  0.10200167880E+01 0.  0.
     999903    2    3    3    0    0  0.93029007526E-01  0.21016377838E-01 -0.84331466837E-01  0.12880773662E+00  0.19584492198E-01 0.  0.
         14    1    1    2    0    0  0.80706996072E-02 -0.15304217075E-01 -0.16107834818E-01  0.23639323064E-01  0.00000000000E+00 0.  1.
     999901    1    3    3    0    0 -0.10109970713E+00 -0.57121607635E-02  0.10043930165E+00  0.89148294032E+00  0.88000000000E+00 0. -1.
        -11    1    4    4    0    0  0.73768234442E-01  0.22405772123E-01 -0.59727918278E-01  0.97526695730E-01  0.51100000000E-03 0.  1.
         11    1    4    4    0    0  0.19260773084E-01 -0.13893942847E-02 -0.24603548559E-01  0.31281040887E-01  0.51100000000E-03 0. -1.
</event>
<event>
 8    1  0.1065239E+005  0.1043930E+01  0.7957747E-01            NaN
         13   -1    0    0    0    0  0.00000000000E+00  0.00000000000E+00  0.74505805969E-08  0.10566000000E+00  0.10566000000E+00 0. -1.
     999900   -1    0    0    0    0 -0.00000000000E+00 -0.00000000000E+00 -0.74505805969E-08  0.93827000000E+00  0.93827000000E+00 0.  1.
     999902    2    1    2    0    0 -0.12402672615E-01  0.67399886948E-02 -0.19216073452E-01  0.10200865268E+01  0.10198078304E+01 0.  0.
     999903    2    3    3    0    0  0.29492569980E-01 -0.10188088650E+00  0.69611662306E-01  0.12798559499E+00  0.16882010485E-01 0.  0.
         14    1    1    2    0    0  0.12402672615E-01 -0.67399886948E-02  0.19216073452E-01  0.23843473206E-01  0.00000000000E+00 0. -1.
     999901    1    3    3    0    0 -0.41895242595E-01  0.10862087520E+00 -0.88827735758E-01  0.89210093180E+00  0.88000000000E+00 0.  1.
        -11    1    4    4    0    0  0.99098980446E-02 -0.30715109163E-01  0.12327086568E-01  0.34552021568E-01  0.51100000000E-03 0.  1.
         11    1    4    4    0    0  0.19582671935E-01 -0.71165777340E-01  0.57284575738E-01  0.93433573425E-01  0.51100000000E-03 0. -1.
</event>
<event>
 8    1  0.1065239E+005  0.1043930E+01  0.7957747E-01            NaN
         13   -1    0    0    0    0  0.00000000000E+00  0.00000000000E+00  0.74505805969E-08  0.10566000000E+00  0.10566000000E+00 0.  1.
     999900   -1    0    0    0    0 -0.00000000000E+00 -0.00000000000E+00 -0.74505805969E-08  0.93827000000E+00  0.93827000000E+00 0.  1.
     999902    2    1    2    0    0 -0.11727743467E-01  0.18151296485E-01 -0.99541303758E-02  0.10201372649E+01  0.10198597673E+01 0.  0.
     999903    2    3    3    0    0  0.38332939138E-01 -0.50387120478E-01 -0.11230435158E+00  0.13014897605E+00  0.17838510339E-01 0.  0.
         14    1    1    2    0    0  0.11727743467E-01 -0.18151296485E-01  0.99541303758E-02  0.23792735077E-01  0.00000000000E+00 0.  1.
     999901    1    3    3    0    0 -0.50060682605E-01  0.68538416963E-01  0.10235022120E+00  0.88998828887E+00  0.88000000000E+00 0. -1.
        -11    1    4    4    0    0  0.27213163605E-01 -0.45429883323E-01 -0.97683842819E-01  0.11111626722E+00  0.51100000000E-03 0.  1.
         11    1    4    4    0    0  0.11119775533E-01 -0.49572371556E-02 -0.14620508761E-01  0.19032708834E-01  0.51100000000E-03 0. -1.
</event>
<event>
 8    1  0.1065239E+005  0.1043930E+01  0.7957747E-01            NaN
         13   -1    0    0    0    0  0.00000000000E+00  0.00000000000E+00  0.74505805969E-08  0.10566000000E+00  0.10566000000E+00 0.  1.
     999900   -1    0    0    0    0 -0.00000000000E+00 -0.00000000000E+00 -0.74505805969E-08  0.93827000000E+00  0.93827000000E+00 0.  1.
     999902    2    1    2    0    0 -0.21073189656E-01 -0.39722566847E-02 -0.93905214823E-02  0.10205197450E+01  0.10202511994E+01 0.  0.
     999903    2    3    3    0    0 -0.66541882428E-02 -0.12745454321E-01  0.12743030950E+00  0.12978700372E+00  0.19986438597E-01 0.  0.
         14    1    1    2    0    0  0.21073189656E-01  0.39722566847E-02  0.93905214823E-02  0.23410255000E-01  0.00000000000E+00 0.  1.
     999901    1    3    3    0    0 -0.14419001413E-01  0.87731976359E-02 -0.13682083098E+00  0.89073274128E+00  0.88000000000E+00 0.  1.
        -11    1    4    4    0    0  0.27010082308E-02 -0.43405608358E-02  0.92768564920E-01  0.92910729586E-01  0.51100000000E-03 0. -1.
         11    1    4    4    0    0 -0.93551964736E-02 -0.84048934848E-02  0.34661744582E-01  0.36876274134E-01  0.51100000000E-03 0.  1.
</event>
<event>
 8    1  0.1065239E+005  0.1043930E+01  0.7957747E-01            NaN
         13   -1    0    0    0    0  0.00000000000E+00  0.00000000000E+00  0.74505805969E-08  0.10566000000E+00  0.10566000000E+00 0.  1.
     999900   -1    0    0    0    0 -0.00000000000E+00 -0.00000000000E+00 -0.74505805969E-08  0.93827000000E+00  0.93827000000E+00 0.  1.
     999902    2    1    2    0    0 -0.85648434776E-02 -0.85784865576E-02  0.20370179184E-01  0.10202257562E+01  0.10199503431E+01 0.  0.
     999903    2    3    3    0    0  0.11589874704E+00  0.27512778157E-01  0.48931381184E-01  0.13027659638E+00  0.19703780659E-01 0.  0.
         14    1    1    2    0    0  0.85648434776E-02  0.85784865576E-02 -0.20370179184E-01  0.23704243827E-01  0.00000000000E+00 0. -1.
     999901    1    3    3    0    0 -0.12446359052E+00 -0.36091264714E-01 -0.28561202000E-01  0.88994915979E+00  0.88000000000E+00 0.  1.
        -11    1    4    4    0    0  0.44061388465E-01  0.98721100280E-02  0.28993948775E-01  0.53663532277E-01  0.51100000000E-03 0.  1.
         11    1    4    4    0    0  0.71837358578E-01  0.17640668129E-01  0.19937432408E-01  0.76613064105E-01  0.51100000000E-03 0. -1.
</event>
<event>
 8    1  0.1065239E+005  0.1043930E+01  0.7957747E-01            NaN
         13   -1    0    0    0    0  0.00000000000E+00  0.00000000000E+00  0.74505805969E-08  0.10566000000E+00  0.10566000000E+00 0. -1.
     999900   -1    0    0    0    0 -0.00000000000E+00 -0.00000000000E+00 -0.74505805969E-08  0.93827000000E+00  0.93827000000E+00 0.  1.
     999902    2    1    2    0    0 -0.63012695262E-02 -0.22955989806E-01  0.65956837586E-03  0.10201157501E+01  0.10198377445E+01 0.  0.
     999903    2    3    3    0    0 -0.12139038843E+00 -0.40845049741E-01  0.24990843546E-01  0.13210812929E+00  0.20592985937E-01 0.  0.
         14    1    1    2    0    0  0.63012695262E-02  0.22955989806E-01 -0.65956837586E-03  0.23814249853E-01  0.00000000000E+00 0. -1.
     999901    1    3    3    0    0  0.11508911891E+00  0.17889059935E-01 -0.24331275170E-01  0.88800762086E+00  0.88000000000E+00 0. -1.
        -11    1    4    4    0    0 -0.61498501714E-01 -0.12789028291E-01  0.50071829273E-02  0.63015537446E-01  0.51100000000E-03 0. -1.
         11    1    4    4    0    0 -0.59891886719E-01 -0.28056021450E-01  0.19983660619E-01  0.69092591839E-01  0.51100000000E-03 0.  1.
</event>
<event>
 8    1  0.1065239E+005  0.1043930E+01  0.7957747E-01            NaN
         13   -1    0    0    0    0  0.00000000000E+00  0.00000000000E+00  0.74505805969E-08  0.10566000000E+00  0.10566000000E+00 0. -1.
     999900   -1    0    0    0    0 -0.00000000000E+00 -0.00000000000E+00 -0.74505805969E-08  0.93827000000E+00  0.93827000000E+00 0. -1.
     999902    2    1    2    0    0  0.14907568399E-01 -0.10588183211E-01 -0.12216867903E-01  0.10219391592E+01  0.10217025242E+01 0.  0.
     999903    2    3    3    0    0 -0.54436651982E-01  0.11063724414E+00  0.34741739056E-01  0.12968956634E+00  0.20210054758E-01 0.  0.
         14    1    1    2    0    0 -0.14907568399E-01  0.10588183211E-01  0.12216867903E-01  0.21990840835E-01  0.00000000000E+00 0. -1.
     999901    1    3    3    0    0  0.69344220381E-01 -0.12122542735E+00 -0.46958606959E-01  0.89224959283E+00  0.88000000000E+00 0.  1.
        -11    1    4    4    0    0 -0.37904162949E-01  0.91989634676E-01  0.32477355748E-01  0.10466068132E+00  0.51100000000E-03 0. -1.
         11    1    4    4    0    0 -0.16532489033E-01  0.18647609466E-01  0.22643833077E-02  0.25028885017E-01  0.51100000000E-03 0.  1.
</event>
<event>
 8    1  0.1065239E+005  0.1043930E+01  0.7957747E-01            NaN
         13   -1    0    0    0    0  0.00000000000E+00  0.00000000000E+00  0.74505805969E-08  0.10566000000E+00  0.10566000000E+00 0.  1.
     999900   -1    0    0    0    0 -0.00000000000E+00 -0.00000000000E+00 -0.74505805969E-08  0.93827000000E+00  0.93827000000E+00 0.  1.
     999902    2    1    2    0    0 -0.17779203440E-01 -0.12898989091E-01 -0.83651311896E-02  0.10204255448E+01  0.10201548084E+01 0.  0.
     999903    2    3    3    0    0  0.26172111037E-01 -0.88704481437E-01  0.90049399762E-01  0.13061454767E+00  0.19944955286E-01 0.  0.
         14    1    1    2    0    0  0.17779203440E-01  0.12898989091E-01  0.83651311896E-02  0.23504455202E-01  0.00000000000E+00 0.  1.
     999901    1    3    3    0    0 -0.43951314477E-01  0.75805492345E-01 -0.98414530952E-01  0.88981099713E+00  0.88000000000E+00 0.  1.
        -11    1    4    4    0    0  0.12612271819E-01 -0.59240422635E-01  0.69612505809E-01  0.92274910785E-01  0.51100000000E-03 0. -1.
         11    1    4    4    0    0  0.13559839218E-01 -0.29464058802E-01  0.20436893953E-01  0.38339636881E-01  0.51100000000E-03 0.  1.
</event>
<event>
 8    1  0.1065239E+005  0.1043930E+01  0.7957747E-01            NaN
         13   -1    0    0    0    0  0.00000000000E+00  0.00000000000E+00  0.74505805969E-08  0.10566000000E+00  0.10566000000E+00 0. -1.
     999900   -1    0    0    0    0 -0.00000000000E+00 -0.00000000000E+00 -0.74505805969E-08  0.93827000000E+00  0.93827000000E+00 0.  1.
     999902    2    1    2    0    0 -0.23308639732E-01 -0.30945031114E-02  0.48168902608E-03  0.10204119078E+01  0.10201408535E+01 0.  0.
     999903    2    3    3    0    0 -0.40085449643E-01  0.10177734580E+00 -0.69378089480E-01  0.13127752275E+00  0.21330665452E-01 0.  0.
         14    1    1    2    0    0  0.23308639732E-01  0.30945031114E-02 -0.48168902608E-03  0.23518092184E-01  0.00000000000E+00 0.  1.
     999901    1    3    3    0    0  0.16776809911E-01 -0.10487184891E+00  0.69859778506E-01  0.88913438506E+00  0.88000000000E+00 0. -1.
        -11    1    4    4    0    0 -0.18152294253E-01  0.46435539072E-01 -0.44234414284E-01  0.66653654091E-01  0.51100000000E-03 0.  1.
         11    1    4    4    0    0 -0.21933155390E-01  0.55341806732E-01 -0.25143675196E-01  0.64623868663E-01  0.51100000000E-03 0. -1.
</event>
<event>
 8    1  0.1065239E+005  0.1043930E+01  0.7957747E-01            NaN
         13   -1    0    0    0    0  0.00000000000E+00  0.00000000000E+00  0.74505805969E-08  0.10566000000E+00  0.10566000000E+00 0.  1.
     999900   -1    0    0    0    0 -0.00000000000E+00 -0.00000000000E+00 -0.74505805969E-08  0.93827000000E+00  0.93827000000E+00 0. -1.
     999902    2    1    2    0    0  0.90949801478E-02  0.32133977948E-02  0.21702252255E-01  0.10201806349E+01  0.10199041600E+01 0.  0.
     999903    2    3    3    0    0  0.34250887300E-01  0.44671057624E-01  0.11923774506E+00  0.13346493663E+00  0.20654849127E-01 0.  0.
         14    1    1    2    0    0 -0.90949801478E-02 -0.32133977948E-02 -0.21702252255E-01  0.23749365090E-01  0.00000000000E+00 0. -1.
     999901    1    3    3    0    0 -0.25155907152E-01 -0.41457659829E-01 -0.97535492803E-01  0.88671569828E+00  0.88000000000E+00 0. -1.
        -11    1    4    4    0    0  0.85780808727E-02  0.21416364297E-02  0.30581231022E-01  0.31837758870E-01  0.51100000000E-03 0. -1.
         11    1    4    4    0    0  0.25672806427E-01  0.42529421194E-01  0.88656514036E-01  0.10162717776E+00  0.51100000000E-03 0.  1.
</event>
<event>
 8    1  0.1065239E+005  0.1043930E+01  0.7957747E-01            NaN
         13   -1    0    0    0    0  0.00000000000E+00  0.00000000000E+00  0.74505805969E-08  0.10566000000E+00  0.10566000000E+00 0.  1.
     999900   -1    0    0    0    0 -0.00000000000E+00 -0.00000000000E+00 -0.74505805969E-08  0.93827000000E+00  0.93827000000E+00 0. -1.
     999902    2    1    2    0    0  0.18843538505E-01 -0.10383918737E-01 -0.10004433937E-01  0.10202025178E+01  0.10199265581E+01 0.  0.
     999903    2    3    3    0    0  0.31594290941E-01  0.11419692052E+00  0.48140609798E-01  0.12943666009E+00  0.19929746308E-01 0.  0.
         14    1    1    2    0    0 -0.18843538505E-01  0.10383918737E-01  0.10004433937E-01  0.23727482170E-01  0.00000000000E+00 0.  1.
     999901    1    3    3    0    0 -0.12750752436E-01 -0.12458083926E+00 -0.58145043735E-01  0.89076585774E+00  0.88000000000E+00 0. -1.
        -11    1    4    4    0    0  0.26967361037E-01  0.73172376314E-01  0.23930794843E-01  0.81574378818E-01  0.51100000000E-03 0.  1.
         11    1    4    4    0    0  0.46269299042E-02  0.41024544206E-01  0.24209814956E-01  0.47862281275E-01  0.51100000000E-03 0. -1.
</event>
<event>
 8    1  0.1065239E+005  0.1043930E+01  0.7957747E-01            NaN
         13   -1    0    0    0    0  0.00000000000E+00  0.00000000000E+00  0.74505805969E-08  0.10566000000E+00  0.10566000000E+00 0.  1.
     999900   -1    0    0    0    0 -0.00000000000E+00 -0.00000000000E+00 -0.74505805969E-08  0.93827000000E+00  0.93827000000E+00 0.  1.
     999902    2    1    2    0    0  0.11862727943E-01 -0.84615844451E-02 -0.18496678906E-01  0.10203832411E+01  0.10201115178E+01 0.  0.
     999903    2    3    3    0    0  0.54675723032E-01  0.26564531908E-01  0.11199230996E+00  0.12904315020E+00  0.20365364686E-01 0.  0.
         14    1    1    2    0    0 -0.11862727943E-01  0.84615844451E-02  0.18496678906E-01  0.23546758930E-01  0.00000000000E+00 0.  1.
     999901    1    3    3    0    0 -0.42812995089E-01 -0.35026116353E-01 -0.13048898887E+00  0.89134009087E+00  0.88000000000E+00 0.  1.
        -11    1    4    4    0    0  0.34607715174E-01  0.21535333259E-01  0.90234715762E-01  0.99015299715E-01  0.51100000000E-03 0. -1.
         11    1    4    4    0    0  0.20068007858E-01  0.50291986490E-02  0.21757594199E-01  0.30027850485E-01  0.51100000000E-03 0.  1.
</event>
<event>
 8    1  0.1065239E+005  0.1043930E+01  0.7957747E-01            NaN
         13   -1    0    0    0    0  0.00000000000E+00  0.00000000000E+00  0.74505805969E-08  0.10566000000E+00  0.10566000000E+00 0. -1.
     999900   -1    0    0    0    0 -0.00000000000E+00 -0.00000000000E+00 -0.74505805969E-08  0.93827000000E+00  0.93827000000E+00 0. -1.
     999902    2    1    2    0    0 -0.89240390991E-02  0.63589066708E-02  0.20685093716E-01  0.10205217265E+01  0.10202532269E+01 0.  0.
     999903    2    3    3    0    0 -0.15672382496E-01 -0.11944564117E+00  0.46499681443E-01  0.13117437175E+00  0.23056683669E-01 0.  0.
         14    1    1    2    0    0  0.89240390991E-02 -0.63589066708E-02 -0.20685093716E-01  0.23408273536E-01  0.00000000000E+00 0. -1.
     999901    1    3    3    0    0  0.67483433964E-02  0.12580454784E+00 -0.25814587727E-01  0.88934735471E+00  0.88000000000E+00 0. -1.
        -11    1    4    4    0    0 -0.97890908216E-02 -0.65387382198E-01  0.37628611308E-01  0.76075683104E-01  0.51100000000E-03 0.  1.
         11    1    4    4    0    0 -0.58832916739E-02 -0.54058258973E-01  0.88710701352E-02  0.55098688646E-01  0.51100000000E-03 0. -1.
</event>
<event>
 8    1  0.1065239E+005  0.1043930E+01  0.7957747E-01            NaN
         13   -1    0    0    0    0  0.00000000000E+00  0.00000000000E+00  0.74505805969E-08  0.10566000000E+00  0.10566000000E+00 0. -1.
     999900   -1    0    0    0    0 -0.00000000000E+00 -0.00000000000E+00 -0.74505805969E-08  0.93827000000E+00  0.93827000000E+00 0.  1.
     999902    2    1    2    0    0  0.12592720251E-01  0.48824930282E-02  0.17816761699E-01  0.10215726223E+01  0.10213279445E+01 0.  0.
     999903    2    3    3    0    0  0.76780618564E-01 -0.12083991020E-01 -0.10325932709E+00  0.13080476971E+00  0.20152243594E-01 0.  0.
         14    1    1    2    0    0 -0.12592720251E-01 -0.48824930282E-02 -0.17816761699E-01  0.22357377730E-01  0.00000000000E+00 0.  1.
     999901    1    3    3    0    0 -0.64187898312E-01  0.16966484048E-01  0.12107608879E+00  0.89076785256E+00  0.88000000000E+00 0. -1.
        -11    1    4    4    0    0  0.64558446097E-01 -0.99772419328E-02 -0.72257223736E-01  0.97409988307E-01  0.51100000000E-03 0.  1.
         11    1    4    4    0    0  0.12222172467E-01 -0.21067490872E-02 -0.31002103358E-01  0.33394781406E-01  0.51100000000E-03 0. -1.
</event>
<event>
 8    1  0.1065239E+005  0.1043930E+01  0.7957747E-01            NaN
         13   -1    0    0    0    0  0.00000000000E+00  0.00000000000E+00  0.74505805969E-08  0.10566000000E+00  0.10566000000E+00 0.  1.
     999900   -1    0    0    0    0 -0.00000000000E+00 -0.00000000000E+00 -0.74505805969E-08  0.93827000000E+00  0.93827000000E+00 0. -1.
     999902    2    1    2    0    0 -0.26309429714E-02 -0.19422217485E-01  0.12235529340E-01  0.10208247501E+01  0.10205632356E+01 0.  0.
     999903    2    3    3    0    0 -0.87080720329E-02 -0.13037328882E+00  0.20745850470E-01  0.13379628538E+00  0.19950707058E-01 0.  0.
         14    1    1    2    0    0  0.26309429714E-02  0.19422217485E-01 -0.12235529340E-01  0.23105249862E-01  0.00000000000E+00 0. -1.
     999901    1    3    3    0    0  0.60771290615E-02  0.11095107134E+00 -0.85103211299E-02  0.88702846476E+00  0.88000000000E+00 0. -1.
        -11    1    4    4    0    0 -0.81227793328E-02 -0.36889760285E-01  0.13154972478E-01  0.40001854706E-01  0.51100000000E-03 0. -1.
         11    1    4    4    0    0 -0.58529270015E-03 -0.93483528538E-01  0.75908779917E-02  0.93794430672E-01  0.51100000000E-03 0.  1.
</event>
<event>
 8    1  0.1065239E+005  0.1043930E+01  0.7957747E-01            NaN
         13   -1    0    0    0    0  0.00000000000E+00  0.00000000000E+00  0.74505805969E-08  0.10566000000E+00  0.10566000000E+00 0.  1.
     999900   -1    0    0    0    0 -0.00000000000E+00 -0.00000000000E+00 -0.74505805969E-08  0.93827000000E+00  0.93827000000E+00 0.  1.
     999902    2    1    2    0    0 -0.19609434247E-01  0.13332691065E-01  0.43456553455E-02  0.10198224227E+01  0.10195374434E+01 0.  0.
     999903    2    3    3    0    0  0.11969766168E+00  0.39989281591E-01  0.14358021825E-01  0.12840933761E+00  0.18871469006E-01 0.  0.
         14    1    1    2    0    0  0.19609434247E-01 -0.13332691065E-01 -0.43456553455E-02  0.24107577292E-01  0.00000000000E+00 0.  1.
     999901    1    3    3    0    0 -0.13930709592E+00 -0.26656590526E-01 -0.10012366479E-01  0.89141308509E+00  0.88000000000E+00 0.  1.
        -11    1    4    4    0    0  0.88570163388E-01  0.20730461731E-01  0.89432641165E-02  0.91403878365E-01  0.51100000000E-03 0. -1.
         11    1    4    4    0    0  0.31127498291E-01  0.19258819860E-01  0.54147577082E-02  0.37005459249E-01  0.51100000000E-03 0.  1.
</event>
<event>
 8    1  0.1065239E+005  0.1043930E+01  0.7957747E-01            NaN
         13   -1    0    0    0    0  0.00000000000E+00  0.00000000000E+00  0.74505805969E-08  0.10566000000E+00  0.10566000000E+00 0.  1.
     999900   -1    0    0    0    0 -0.00000000000E+00 -0.00000000000E+00 -0.74505805969E-08  0.93827000000E+00  0.93827000000E+00 0. -1.
     999902    2    1    2    0    0 -0.93186905057E-02 -0.19433825119E-01  0.94808567375E-02  0.10203843381E+01  0.10201126404E+01 0.  0.
     999903    2    3    3    0    0  0.10262286533E-01 -0.10439523263E+00 -0.76693851061E-01  0.13188676593E+00  0.22549791911E-01 0.  0.
         14    1    1    2    0    0  0.93186905057E-02  0.19433825119E-01 -0.94808567375E-02  0.23545661936E-01  0.00000000000E+00 0.  1.
     999901    1    3    3    0    0 -0.19580977038E-01  0.84961407513E-01  0.86174707798E-01  0.88849757214E+00  0.88000000000E+00 0.  1.
        -11    1    4    4    0    0 -0.40712615298E-02 -0.46411665497E-01 -0.42478702238E-01  0.63050131875E-01  0.51100000000E-03 0.  1.
         11    1    4    4    0    0  0.14333548062E-01 -0.57983567135E-01 -0.34215148823E-01  0.68836634053E-01  0.51100000000E-03 0. -1.
</event>
<event>
 8    1  0.1065239E+005  0.1043930E+01  0.7957747E-01            NaN
         13   -1    0    0    0    0  0.00000000000E+00  0.00000000000E+00  0.74505805969E-08  0.10566000000E+00  0.10566000000E+00 0. -1.
     999900   -1    0    0    0    0 -0.00000000000E+00 -0.00000000000E+00 -0.74505805969E-08  0.93827000000E+00  0.93827000000E+00 0. -1.
     999902    2    1    2    0    0 -0.77270573057E-02  0.87413481057E-02  0.20525436500E-01  0.10203204230E+01  0.10200472310E+01 0.  0.
     999903    2    3    3    0    0  0.11727991949E+00 -0.23629018505E-01  0.48646641972E-01  0.13045223780E+00  0.18395122776E-01 0.  0.
         14    1    1    2    0    0  0.77270573057E-02 -0.87413481057E-02 -0.20525436500E-01  0.23609576972E-01  0.00000000000E+00 0.  1.
     999901    1    3    3    0    0 -0.12500697679E+00  0.32370366611E-01 -0.28121205472E-01  0.88986818523E+00  0.88000000000E+00 0. -1.
        -11    1    4    4    0    0  0.83652573291E-01 -0.15826250852E-01  0.25456804531E-01  0.88862440053E-01  0.51100000000E-03 0.  1.
         11    1    4    4    0    0  0.33627346195E-01 -0.78027676531E-02  0.23189837441E-01  0.41589797748E-01  0.51100000000E-03 0. -1.
</event>
<event>
 8    1  0.1065239E+005  0.1043930E+01  0.7957747E-01            NaN
         13   -1    0    0    0    0  0.00000000000E+00  0.00000000000E+00  0.74505805969E-08  0.10566000000E+00  0.10566000000E+00 0. -1.
     999900   -1    0    0    0    0 -0.00000000000E+00 -0.00000000000E+00 -0.74505805969E-08  0.93827000000E+00  0.93827000000E+00 0. -1.
     999902    2    1    2    0    0 -0.20044475169E-01  0.46318067624E-02 -0.12419951657E-01  0.10198989822E+01  0.10196158316E+01 0.  0.
     999903    2    3    3    0    0  0.59275669858E-01  0.65986149682E-01  0.89984885141E-01  0.12830333873E+00  0.22286547263E-01 0.  0.
         14    1    1    2    0    0  0.20044475169E-01 -0.46318067624E-02  0.12419951657E-01  0.24031017828E-01  0.00000000000E+00 0. -1.
     999901    1    3    3    0    0 -0.79320145027E-01 -0.61354342919E-01 -0.10240483680E+00  0.89159564344E+00  0.88000000000E+00 0. -1.
        -11    1    4    4    0    0  0.43471203865E-01  0.49332309322E-01  0.51644184673E-01  0.83611035397E-01  0.51100000000E-03 0.  1.
         11    1    4    4    0    0  0.15804465993E-01  0.16653840360E-01  0.38340700468E-01  0.44692303335E-01  0.51100000000E-03 0. -1.
</event>
<event>
 8    1  0.1065239E+005  0.1043930E+01  0.7957747E-01            NaN
         13   -1    0    0    0    0  0.00000000000E+00  0.00000000000E+00  0.74505805969E-08  0.10566000000E+00  0.10566000000E+00 0. -1.
     999900   -1    0    0    0    0 -0.00000000000E+00 -0.00000000000E+00 -0.74505805969E-08  0.93827000000E+00  0.93827000000E+00 0.  1.
     999902    2    1    2    0    0  0.18085273326E-01 -0.61938097977E-02 -0.30918839411E-02  0.10245650797E+01  0.10243820588E+01 0.  0.
     999903    2    3    3    0    0  0.14575549846E-01  0.10705987695E-01  0.13163851284E+00  0.13414371816E+00  0.18405820586E-01 0.  0.
         14    1    1    2    0    0 -0.18085273326E-01  0.61938097977E-02  0.30918839411E-02  0.19364920278E-01  0.00000000000E+00 0. -1.
     999901    1    3    3    0    0  0.35097234804E-02 -0.16899797492E-01 -0.13473039678E+00  0.89042136157E+00  0.88000000000E+00 0.  1.
        -11    1    4    4    0    0  0.15394451190E-01  0.36686080011E-03  0.80671263880E-01  0.82129395780E-01  0.51100000000E-03 0. -1.
         11    1    4    4    0    0 -0.81890134411E-03  0.10339126895E-01  0.50967248963E-01  0.52014322376E-01  0.51100000000E-03 0.  1.
</event>
<event>
 8    1  0.1065239E+005  0.1043930E+01  0.7957747E-01            NaN
         13   -1    0    0    0    0  0.00000000000E+00  0.00000000000E+00  0.74505805969E-08  0.10566000000E+00  0.10566000000E+00 0.  1.
     999900   -1    0    0    0    0 -0.00000000000E+00 -0.00000000000E+00 -0.74505805969E-08  0.93827000000E+00  0.93827000000E+00 0. -1.
     999902    2    1    2    0    0  0.91713051568E-02 -0.46706009352E-02 -0.21582133291E-01  0.10200194202E+01  0.10197391341E+01 0.  0.
     999903    2    3    3    0    0 -0.73475700449E-01  0.90209655867E-01 -0.55219283159E-01  0.13043285971E+00  0.20666424251E-01 0.  0.
         14    1    1    2    0    0 -0.91713051568E-02  0.46706009352E-02  0.21582133291E-01  0.23910579850E-01  0.00000000000E+00 0.  1.
     999901    1    3    3    0    0  0.82647005606E-01 -0.94880256802E-01  0.33637149868E-01  0.88958656044E+00  0.88000000000E+00 0.  1.
        -11    1    4    4    0    0 -0.52458556130E-01  0.74995596523E-01 -0.48709429649E-01  0.10367791118E+00  0.51100000000E-03 0. -1.
         11    1    4    4    0    0 -0.21017144319E-01  0.15214059344E-01 -0.65098535090E-02  0.26754948528E-01  0.51100000000E-03 0.  1.
</event>
<event>
 8    1  0.1065239E+005  0.1043930E+01  0.7957747E-01            NaN
         13   -1    0    0    0    0  0.00000000000E+00  0.00000000000E+00  0.74505805969E-08  0.10566000000E+00  0.10566000000E+00 0. -1.
     999900   -1    0    0    0    0 -0.00000000000E+00 -0.00000000000E+00 -0.74505805969E-08  0.93827000000E+00  0.93827000000E+00 0.  1.
     999902    2    1    2    0    0  0.23177344332E-01 -0.20987544533E-02 -0.51520917058E-02  0.10200943521E+01  0.10198158408E+01 0.  0.
     999903    2    3    3    0    0  0.31865079556E-01 -0.12064922907E+00  0.35310160640E-01  0.13118103485E+00  0.19749346564E-01 0.  0.
         14    1    1    2    0    0 -0.23177344332E-01  0.20987544533E-02  0.51520917058E-02  0.23835647872E-01  0.00000000000E+00 0.  1.
     999901    1    3    3    0    0 -0.86877352243E-02  0.11855047461E+00 -0.40462252346E-01  0.88891331728E+00  0.88000000000E+00 0. -1.
        -11    1    4    4    0    0  0.12948912262E-01 -0.26872372178E-01  0.14955647297E-01  0.33372611859E-01  0.51100000000E-03 0.  1.
         11    1    4    4    0    0  0.18916167295E-01 -0.93776856888E-01  0.20354513344E-01  0.97808422988E-01  0.51100000000E-03 0. -1.
</event>
<event>
 8    1  0.1065239E+005  0.1043930E+01  0.7957747E-01            NaN
         13   -1    0    0    0    0  0.00000000000E+00  0.00000000000E+00  0.74505805969E-08  0.10566000000E+00  0.10566000000E+00 0. -1.
     999900   -1    0    0    0    0 -0.00000000000E+00 -0.00000000000E+00 -0.74505805969E-08  0.93827000000E+00  0.93827000000E+00 0.  1.
     999902    2    1    2    0    0  0.23564364672E-01  0.65619714477E-02  0.29998091880E-02  0.10192857794E+01  0.10189878128E+01 0.  0.
     999903    2    3    3    0    0  0.63319774395E-01  0.11374337786E+00 -0.64047792637E-02  0.13184181346E+00  0.19856805902E-01 0.  0.
         14    1    1    2    0    0 -0.23564364672E-01 -0.65619714477E-02 -0.29998091880E-02  0.24644220556E-01  0.00000000000E+00 0.  1.
     999901    1    3    3    0    0 -0.39755409723E-01 -0.10718140642E+00  0.94045884517E-02  0.88744396599E+00  0.88000000000E+00 0.  1.
        -11    1    4    4    0    0  0.45093079867E-02  0.22197642266E-01  0.17675324682E-02  0.22725634705E-01  0.51100000000E-03 0. -1.
         11    1    4    4    0    0  0.58810466408E-01  0.91545735598E-01 -0.81723117320E-02  0.10911617875E+00  0.51100000000E-03 0.  1.
</event>
<event>
 8    1  0.1065239E+005  0.1043930E+01  0.7957747E-01            NaN
         13   -1    0    0    0    0  0.00000000000E+00  0.00000000000E+00  0.74505805969E-08  0.10566000000E+00  0.10566000000E+00 0. -1.
     999900   -1    0    0    0    0 -0.00000000000E+00 -0.00000000000E+00 -0.74505805969E-08  0.93827000000E+00  0.93827000000E+00 0.  1.
     999902    2    1    2    0    0 -0.65548199718E-02 -0.21724653146E-01  0.93813889453E-02  0.10193752311E+01  0.10190794498E+01 0.  0.
     999903    2    3    3    0    0 -0.49265273620E-01  0.97578060069E-01  0.65727737483E-01  0.12851484288E+00  0.15728457473E-01 0.  0.
         14    1    1    2    0    0  0.65548199718E-02  0.21724653146E-01 -0.93813889453E-02  0.24554768941E-01  0.00000000000E+00 0.  1.
     999901    1    3    3    0    0  0.42710453648E-01 -0.11930271322E+00 -0.56346348538E-01  0.89086038818E+00  0.88000000000E+00 0.  1.
        -11    1    4    4    0    0 -0.38253258020E-01  0.78573307621E-01  0.59341299243E-01  0.10563487746E+00  0.51100000000E-03 0. -1.
         11    1    4    4    0    0 -0.11012015599E-01  0.19004752448E-01  0.63864382404E-02  0.22879965419E-01  0.51100000000E-03 0.  1.
</event>
<event>
 8    1  0.1065239E+005  0.1043930E+01  0.7957747E-01            NaN
         13   -1    0    0    0    0  0.00000000000E+00  0.00000000000E+00  0.74505805969E-08  0.10566000000E+00  0.10566000000E+00 0.  1.
     999900   -1    0    0    0    0 -0.00000000000E+00 -0.00000000000E+00 -0.74505805969E-08  0.93827000000E+00  0.93827000000E+00 0.  1.
     999902    2    1    2    0    0  0.16434962524E-03  0.11782954277E-01 -0.19382896689E-01  0.10212460474E+01  0.10209940879E+01 0.  0.
     999903    2    3    3    0    0 -0.27405626910E-01  0.12220640192E+00  0.36985491794E-01  0.13212803687E+00  0.20110158302E-01 0.  0.
         14    1    1    2    0    0 -0.16434962524E-03 -0.11782954277E-01  0.19382896689E-01  0.22683952617E-01  0.00000000000E+00 0.  1.
     999901    1    3    3    0    0  0.27569976536E-01 -0.11042344765E+00 -0.56368388483E-01  0.88911801051E+00  0.88000000000E+00 0.  1.
        -11    1    4    4    0    0 -0.15508151977E-01  0.37704329066E-01  0.18689471497E-01  0.44851718740E-01  0.51100000000E-03 0. -1.
         11    1    4    4    0    0 -0.11897474934E-01  0.84502072857E-01  0.18296020296E-01  0.87276318131E-01  0.51100000000E-03 0.  1.
</event>
<event>
 8    1  0.1065239E+005  0.1043930E+01  0.7957747E-01            NaN
         13   -1    0    0    0    0  0.00000000000E+00  0.00000000000E+00  0.74505805969E-08  0.10566000000E+00  0.10566000000E+00 0.  1.
     999900   -1    0    0    0    0 -0.00000000000E+00 -0.00000000000E+00 -0.74505805969E-08  0.93827000000E+00  0.93827000000E+00 0. -1.
     999902    2    1    2    0    0 -0.13868336345E-01 -0.11725340926E-01 -0.16271935635E-01  0.10195457784E+01  0.10192541410E+01 0.  0.
     999903    2    3    3    0    0 -0.59869548241E-01  0.64177559719E-02 -0.11635095326E+00  0.13249386718E+00  0.19787120034E-01 0.  0.
         14    1    1    2    0    0  0.13868336345E-01  0.11725340926E-01  0.16271935635E-01  0.24384221581E-01  0.00000000000E+00 0.  1.
     999901    1    3    3    0    0  0.46001211896E-01 -0.18143096897E-01  0.10007901762E+00  0.88705191124E+00  0.88000000000E+00 0.  1.
        -11    1    4    4    0    0 -0.27433573677E-01 -0.44482602217E-02 -0.38773878627E-01  0.47708099611E-01  0.51100000000E-03 0. -1.
         11    1    4    4    0    0 -0.32435974564E-01  0.10866016194E-01 -0.77577074628E-01  0.84785767572E-01  0.51100000000E-03 0.  1.
</event>
<event>
 8    1  0.1065239E+005  0.1043930E+01  0.7957747E-01            NaN
         13   -1    0    0    0    0  0.00000000000E+00  0.00000000000E+00  0.74505805969E-08  0.10566000000E+00  0.10566000000E+00 0. -1.
     999900   -1    0    0    0    0 -0.00000000000E+00 -0.00000000000E+00 -0.74505805969E-08  0.93827000000E+00  0.93827000000E+00 0. -1.
     999902    2    1    2    0    0  0.12864250865E-01 -0.19649325124E-01 -0.22343550605E-03  0.10204430919E+01  0.10201727643E+01 0.  0.
     999903    2    3    3    0    0 -0.11077197355E+00 -0.64669532224E-01  0.13544639529E-01  0.13055416911E+00  0.20207802702E-01 0.  0.
         14    1    1    2    0    0 -0.12864250865E-01  0.19649325124E-01  0.22343550605E-03  0.23486908089E-01  0.00000000000E+00 0. -1.
     999901    1    3    3    0    0  0.12363622441E+00  0.45020207100E-01 -0.13768075035E-01  0.88988892280E+00  0.88000000000E+00 0. -1.
        -11    1    4    4    0    0 -0.62232995612E-01 -0.32308699914E-01 -0.21002154923E-02  0.70153188517E-01  0.51100000000E-03 0. -1.
         11    1    4    4    0    0 -0.48538977937E-01 -0.32360832310E-01  0.15644855022E-01  0.60400980593E-01  0.51100000000E-03 0.  1.
</event>
<event>
 8    1  0.1065239E+005  0.1043930E+01  0.7957747E-01            NaN
         13   -1    0    0    0    0  0.00000000000E+00  0.00000000000E+00  0.74505805969E-08  0.10566000000E+00  0.10566000000E+00 0. -1.
     999900   -1    0    0    0    0 -0.00000000000E+00 -0.00000000000E+00 -0.74505805969E-08  0.93827000000E+00  0.93827000000E+00 0. -1.
     999902    2    1    2    0    0 -0.54997066769E-02 -0.21280909113E-01 -0.10459579483E-01  0.10195881293E+01  0.10192975163E+01 0.  0.
     999903    2    3    3    0    0 -0.88948462188E-01  0.14071292762E-01 -0.93075882718E-01  0.13108437211E+00  0.20252468078E-01 0.  0.
         14    1    1    2    0    0  0.54997066769E-02  0.21280909113E-01  0.10459579483E-01  0.24341870699E-01  0.00000000000E+00 0.  1.
     999901    1    3    3    0    0  0.83448755511E-01 -0.35352201874E-01  0.82616303235E-01  0.88850375719E+00  0.88000000000E+00 0. -1.
        -11    1    4    4    0    0 -0.72397162655E-01  0.18855092613E-01 -0.71693540477E-01  0.10361992349E+00  0.51100000000E-03 0.  1.
         11    1    4    4    0    0 -0.16551299533E-01 -0.47837998516E-02 -0.21382342241E-01  0.27464448620E-01  0.51100000000E-03 0. -1.
</event>
<event>
 8    1  0.1065239E+005  0.1043930E+01  0.7957747E-01            NaN
         13   -1    0    0    0    0  0.00000000000E+00  0.00000000000E+00  0.74505805969E-08  0.10566000000E+00  0.10566000000E+00 0.  1.
     999900   -1    0    0    0    0 -0.00000000000E+00 -0.00000000000E+00 -0.74505805969E-08  0.93827000000E+00  0.93827000000E+00 0.  1.
     999902    2    1    2    0    0 -0.16934780664E-01  0.11863503651E-01 -0.11353480221E-01  0.10203412097E+01  0.10200685042E+01 0.  0.
     999903    2    3    3    0    0 -0.13119546265E-01  0.37267992659E-01  0.12204134478E+00  0.12991764564E+00  0.20578606423E-01 0.  0.
         14    1    1    2    0    0  0.16934780664E-01 -0.11863503651E-01  0.11353480221E-01  0.23588790307E-01  0.00000000000E+00 0.  1.
     999901    1    3    3    0    0 -0.38152343989E-02 -0.25404489009E-01 -0.13339482500E+00  0.89042356405E+00  0.88000000000E+00 0.  1.
        -11    1    4    4    0    0 -0.28117668229E-02  0.19182405090E-01  0.31330050270E-01  0.36847033376E-01  0.51100000000E-03 0. -1.
         11    1    4    4    0    0 -0.10307779442E-01  0.18085587569E-01  0.90711294513E-01  0.93070612268E-01  0.51100000000E-03 0.  1.
</event>
<event>
 8    1  0.1065239E+005  0.1043930E+01  0.7957747E-01            NaN
         13   -1    0    0    0    0  0.00000000000E+00  0.00000000000E+00  0.74505805969E-08  0.10566000000E+00  0.10566000000E+00 0.  1.
     999900   -1    0    0    0    0 -0.00000000000E+00 -0.00000000000E+00 -0.74505805969E-08  0.93827000000E+00  0.93827000000E+00 0.  1.
     999902    2    1    2    0    0  0.18994730994E-01 -0.10634419075E-01 -0.93075437646E-02  0.10202546743E+01  0.10199799407E+01 0.  0.
     999903    2    3    3    0    0 -0.71968012835E-01 -0.55672721943E-01  0.89178193198E-01  0.12896229252E+00  0.19991896106E-01 0.  0.
         14    1    1    2    0    0 -0.18994730994E-01  0.10634419075E-01  0.93075437646E-02  0.23675325669E-01  0.00000000000E+00 0. -1.
     999901    1    3    3    0    0  0.90962743829E-01  0.45038302867E-01 -0.98485736963E-01  0.89129238181E+00  0.88000000000E+00 0.  1.
        -11    1    4    4    0    0 -0.50459580583E-01 -0.33137767348E-01  0.46914586699E-01  0.76456003450E-01  0.51100000000E-03 0. -1.
         11    1    4    4    0    0 -0.21508432252E-01 -0.22534954595E-01  0.42263606500E-01  0.52506289070E-01  0.51100000000E-03 0.  1.
</event>
<event>
 7    1  0.1067621E+005  0.1043930E+01  0.7957747E-01            NaN
         13   -1    0    0    0    0  0.00000000000E+00  0.00000000000E+00  0.74505805969E-08  0.10566000000E+00  0.10566000000E+00 0.  1.
     999900   -1    0    0    0    0 -0.00000000000E+00 -0.00000000000E+00 -0.74505805969E-08  0.93827000000E+00  0.93827000000E+00 0. -1.
     999902    2    1    2    0    0  0.20139254778E-01  0.11961898806E-01 -0.53811548838E-02  0.10198959942E+01  0.10196127724E+01 0.  0.
         14    1    1    2    0    0 -0.20139254778E-01 -0.11961898806E-01  0.53811548838E-02  0.24034005782E-01  0.00000000000E+00 0. -1.
     999901    1    3    3    0    0  0.13232031113E+00  0.46045450932E-01 -0.54501813871E-01  0.89274817054E+00  0.88000000000E+00 0. -1.
        -11    1    3    3    0    0 -0.59214450715E-01 -0.16946076145E-01  0.26638470161E-01  0.67107301269E-01  0.51100000000E-03 0. -1.
         11    1    3    3    0    0 -0.52966605636E-01 -0.17137475980E-01  0.22482188827E-01  0.60040522408E-01  0.51100000000E-03 0.  1.
</event>
<event>
 8    1  0.1065239E+005  0.1043930E+01  0.7957747E-01            NaN
         13   -1    0    0    0    0  0.00000000000E+00  0.00000000000E+00  0.74505805969E-08  0.10566000000E+00  0.10566000000E+00 0. -1.
     999900   -1    0    0    0    0 -0.00000000000E+00 -0.00000000000E+00 -0.74505805969E-08  0.93827000000E+00  0.93827000000E+00 0.  1.
     999902    2    1    2    0    0 -0.20299857374E-01 -0.13125703273E-01  0.59912190999E-02  0.10190249202E+01  0.10187205333E+01 0.  0.
     999903    2    3    3    0    0  0.79211970459E-01  0.74925597514E-01 -0.60761140159E-01  0.12654998330E+00  0.20847078759E-01 0.  0.
         14    1    1    2    0    0  0.20299857374E-01  0.13125703273E-01 -0.59912190999E-02  0.24905079845E-01  0.00000000000E+00 0.  1.
     999901    1    3    3    0    0 -0.99511827833E-01 -0.88051300787E-01  0.66752359259E-01  0.89247493686E+00  0.88000000000E+00 0. -1.
        -11    1    4    4    0    0  0.50273263011E-01  0.33866991926E-01 -0.36551974608E-01  0.70786171564E-01  0.51100000000E-03 0. -1.
         11    1    4    4    0    0  0.28938707447E-01  0.41058605588E-01 -0.24209165551E-01  0.55763811735E-01  0.51100000000E-03 0.  1.
</event>
<event>
 8    1  0.1065239E+005  0.1043930E+01  0.7957747E-01            NaN
         13   -1    0    0    0    0  0.00000000000E+00  0.00000000000E+00  0.74505805969E-08  0.10566000000E+00  0.10566000000E+00 0.  1.
     999900   -1    0    0    0    0 -0.00000000000E+00 -0.00000000000E+00 -0.74505805969E-08  0.93827000000E+00  0.93827000000E+00 0.  1.
     999902    2    1    2    0    0 -0.19029451932E-01 -0.10127657960E-01  0.88598261024E-02  0.10206236486E+01  0.10203575090E+01 0.  0.
     999903    2    3    3    0    0  0.10700577345E-01  0.82022654299E-01  0.99183935539E-01  0.13071691224E+00  0.20180185891E-01 0.  0.
         14    1    1    2    0    0  0.19029451932E-01  0.10127657960E-01 -0.88598261024E-02  0.23306351391E-01  0.00000000000E+00 0.  1.
     999901    1    3    3    0    0 -0.29730029277E-01 -0.92150312259E-01 -0.90324109437E-01  0.88990673637E+00  0.88000000000E+00 0.  1.
        -11    1    4    4    0    0  0.12185233855E-01  0.44973892034E-01  0.67029904535E-01  0.81635777155E-01  0.51100000000E-03 0.  1.
         11    1    4    4    0    0 -0.14846565103E-02  0.37048762265E-01  0.32154031005E-01  0.49081135084E-01  0.51100000000E-03 0. -1.
</event>
<event>
 8    1  0.1065239E+005  0.1043930E+01  0.7957747E-01            NaN
         13   -1    0    0    0    0  0.00000000000E+00  0.00000000000E+00  0.74505805969E-08  0.10566000000E+00  0.10566000000E+00 0.  1.
     999900   -1    0    0    0    0 -0.00000000000E+00 -0.00000000000E+00 -0.74505805969E-08  0.93827000000E+00  0.93827000000E+00 0.  1.
     999902    2    1    2    0    0 -0.23598252921E-01  0.43280328669E-02  0.48351300589E-03  0.10199332670E+01  0.10196509334E+01 0.  0.
     999903    2    3    3    0    0 -0.12277448791E+00  0.47882258356E-01  0.30000110786E-02  0.13328833869E+00  0.19760961979E-01 0.  0.
         14    1    1    2    0    0  0.23598252921E-01 -0.43280328669E-02 -0.48351300589E-03  0.23996732991E-01  0.00000000000E+00 0.  1.
     999901    1    3    3    0    0  0.99176234990E-01 -0.43554225489E-01 -0.25164980727E-02  0.88664492832E+00  0.88000000000E+00 0.  1.
        -11    1    4    4    0    0 -0.76696505082E-01  0.28857408907E-01  0.11385154067E-01  0.82734435362E-01  0.51100000000E-03 0. -1.
         11    1    4    4    0    0 -0.46077982829E-01  0.19024849450E-01 -0.83851429884E-02  0.50553903332E-01  0.51100000000E-03 0.  1.
</event>
<event>
 8    1  0.1065239E+005  0.1043930E+01  0.7957747E-01            NaN
         13   -1    0    0    0    0  0.00000000000E+00  0.00000000000E+00  0.74505805969E-08  0.10566000000E+00  0.10566000000E+00 0.  1.
     999900   -1    0    0    0    0 -0.00000000000E+00 -0.00000000000E+00 -0.74505805969E-08  0.93827000000E+00  0.93827000000E+00 0.  1.
     999902    2    1    2    0    0  0.34430564507E-02  0.13255358623E-01 -0.17268512179E-01  0.10218900208E+01  0.10216523156E+01 0.  0.
     999903    2    3    3    0    0  0.74485109852E-01  0.76682292722E-01  0.74745864503E-01  0.13198182620E+00  0.20101059153E-01 0.  0.
         14    1    1    2    0    0 -0.34430564507E-02 -0.13255358623E-01  0.17268512179E-01  0.22039979193E-01  0.00000000000E+00 0.  1.
     999901    1    3    3    0    0 -0.71042053401E-01 -0.63426934099E-01 -0.92014376681E-01  0.88990819461E+00  0.88000000000E+00 0.  1.
        -11    1    4    4    0    0  0.11541481309E-01  0.33132578788E-02  0.66526209299E-02  0.13736883010E-01  0.51100000000E-03 0. -1.
         11    1    4    4    0    0  0.62943628542E-01  0.73369034843E-01  0.68093243573E-01  0.11824494319E+00  0.51100000000E-03 0.  1.
</event>
<event>
 8    1  0.1065239E+005  0.1043930E+01  0.7957747E-01            NaN
         13   -1    0    0    0    0  0.00000000000E+00  0.00000000000E+00  0.74505805969E-08  0.10566000000E+00  0.10566000000E+00 0. -1.
     999900   -1    0    0    0    0 -0.00000000000E+00 -0.00000000000E+00 -0.74505805969E-08  0.93827000000E+00  0.93827000000E+00 0.  1.
     999902    2    1    2    0    0  0.41724490229E-02  0.22825960301E-01  0.44567296371E-02  0.10203017069E+01  0.10200280765E+01 0.  0.
     999903    2    3    3    0    0 -0.37570146283E-01 -0.31285428330E-01  0.11910572835E+00  0.13023717019E+00  0.19627838845E-01 0.  0.
         14    1    1    2    0    0 -0.41724490229E-02 -0.22825960301E-01 -0.44567296371E-02  0.23628293074E-01  0.00000000000E+00 0.  1.
     999901    1    3    3    0    0  0.41742595306E-01  0.54111388632E-01 -0.11464899871E+00  0.89006453673E+00  0.88000000000E+00 0.  1.
        -11    1    4    4    0    0 -0.29893959868E-01 -0.14403434077E-01  0.64008292552E-01  0.72100141375E-01  0.51100000000E-03 0.  1.
         11    1    4    4    0    0 -0.76761864142E-02 -0.16881994253E-01  0.55097435795E-01  0.58137028820E-01  0.51100000000E-03 0. -1.
</event>
<event>
 8    1  0.1065239E+005  0.1043930E+01  0.7957747E-01            NaN
         13   -1    0    0    0    0  0.00000000000E+00  0.00000000000E+00  0.74505805969E-08  0.10566000000E+00  0.10566000000E+00 0. -1.
     999900   -1    0    0    0    0 -0.00000000000E+00 -0.00000000000E+00 -0.74505805969E-08  0.93827000000E+00  0.93827000000E+00 0. -1.
     999902    2    1    2    0    0  0.23430819739E-01  0.63853620323E-02  0.48353945502E-03  0.10196398791E+01  0.10193505153E+01 0.  0.
     999903    2    3    3    0    0  0.29321546964E-02  0.61773404176E-01  0.11316511498E+00  0.13049131564E+00  0.19927097463E-01 0.  0.
         14    1    1    2    0    0 -0.23430819739E-01 -0.63853620323E-02 -0.48353945502E-03  0.24290120879E-01  0.00000000000E+00 0. -1.
     999901    1    3    3    0    0  0.20498665043E-01 -0.55388042144E-01 -0.11268157553E+00  0.88914856348E+00  0.88000000000E+00 0. -1.
        -11    1    4    4    0    0  0.17730384775E-02 -0.56226061035E-03  0.80352418220E-02  0.82635364448E-02  0.51100000000E-03 0.  1.
         11    1    4    4    0    0  0.11591162190E-02  0.62335664787E-01  0.10512987316E+00  0.12222777919E+00  0.51100000000E-03 0. -1.
</event>
<event>
 8    1  0.1065239E+005  0.1043930E+01  0.7957747E-01            NaN
         13   -1    0    0    0    0  0.00000000000E+00  0.00000000000E+00  0.74505805969E-08  0.10566000000E+00  0.10566000000E+00 0.  1.
     999900   -1    0    0    0    0 -0.00000000000E+00 -0.00000000000E+00 -0.74505805969E-08  0.93827000000E+00  0.93827000000E+00 0.  1.
     999902    2    1    2    0    0 -0.83837283140E-02  0.20972385606E-01  0.49287064434E-02  0.10208124741E+01  0.10205506784E+01 0.  0.
     999903    2    3    3    0    0 -0.27536198423E-01 -0.12394513417E+00  0.90972353527E-02  0.12874449387E+00  0.19280728795E-01 0.  0.
         14    1    1    2    0    0  0.83837283140E-02 -0.20972385606E-01 -0.49287064434E-02  0.23117525941E-01  0.00000000000E+00 0. -1.
     999901    1    3    3    0    0  0.19152470109E-01  0.14491751977E+00 -0.41685289093E-02  0.89206798019E+00  0.88000000000E+00 0. -1.
        -11    1    4    4    0    0 -0.90018283666E-02 -0.82109040329E-01  0.77278972910E-02  0.82963298724E-01  0.51100000000E-03 0. -1.
         11    1    4    4    0    0 -0.18534370056E-01 -0.41836093838E-01  0.13693380618E-02  0.45781195143E-01  0.51100000000E-03 0.  1.
</event>
<event>
 8    1  0.1065239E+005  0.1043930E+01  0.7957747E-01            NaN
         13   -1    0    0    0    0  0.00000000000E+00  0.00000000000E+00  0.74505805969E-08  0.10566000000E+00  0.10566000000E+00 0.  1.
     999900   -1    0    0    0    0 -0.00000000000E+00 -0.00000000000E+00 -0.74505805969E-08  0.93827000000E+00  0.93827000000E+00 0. -1.
     999902    2    1    2    0    0 -0.40989846185E-03 -0.15296887000E-01 -0.17540755176E-01  0.10206525246E+01  0.10203870516E+01 0.  0.
     999903    2    3    3    0    0  0.70313615776E-01 -0.17892432775E-01  0.10516024548E+00  0.12932537485E+00  0.20055713351E-01 0.  0.
         14    1    1    2    0    0  0.40989846185E-03  0.15296887000E-01  0.17540755176E-01  0.23277475395E-01  0.00000000000E+00 0.  1.
     999901    1    3    3    0    0 -0.70723514238E-01  0.25955457752E-02 -0.12270100065E+00  0.89132714975E+00  0.88000000000E+00 0. -1.
        -11    1    4    4    0    0  0.26032303368E-01 -0.13160176649E-01  0.29232718014E-01  0.41299927258E-01  0.51100000000E-03 0.  1.
         11    1    4    4    0    0  0.44281312408E-01 -0.47322561268E-02  0.75927527462E-01  0.88025447594E-01  0.51100000000E-03 0. -1.
</event>
<event>
 8    1  0.1065239E+005  0.1043930E+01  0.7957747E-01            NaN
         13   -1    0    0    0    0  0.00000000000E+00  0.00000000000E+00  0.74505805969E-08  0.10566000000E+00  0.10566000000E+00 0. -1.
     999900   -1    0    0    0    0 -0.00000000000E+00 -0.00000000000E+00 -0.74505805969E-08  0.93827000000E+00  0.93827000000E+00 0.  1.
     999902    2    1    2    0    0  0.70100188587E-02 -0.21365868960E-01  0.55422128228E-02  0.10207706208E+01  0.10205078655E+01 0.  0.
     999903    2    3    3    0    0  0.39614789883E-01  0.12079049124E+00 -0.14363630348E-02  0.12873911782E+00  0.20298348875E-01 0.  0.
         14    1    1    2    0    0 -0.70100188587E-02  0.21365868960E-01 -0.55422128228E-02  0.23159379176E-01  0.00000000000E+00 0.  1.
     999901    1    3    3    0    0 -0.32604771024E-01 -0.14215636020E+00  0.69785758576E-02  0.89203150301E+00  0.88000000000E+00 0. -1.
        -11    1    4    4    0    0  0.11253367012E-01  0.60043226762E-01 -0.68682811874E-02  0.61475700537E-01  0.51100000000E-03 0. -1.
         11    1    4    4    0    0  0.28361422870E-01  0.60747264473E-01  0.54319181526E-02  0.67263417279E-01  0.51100000000E-03 0.  1.
</event>
<event>
 8    1  0.1065239E+005  0.1043930E+01  0.7957747E-01            NaN
         13   -1    0    0    0    0  0.00000000000E+00  0.00000000000E+00  0.74505805969E-08  0.10566000000E+00  0.10566000000E+00 0.  1.
     999900   -1    0    0    0    0 -0.00000000000E+00 -0.00000000000E+00 -0.74505805969E-08  0.93827000000E+00  0.93827000000E+00 0. -1.
     999902    2    1    2    0    0  0.12116414260E-01  0.62632081957E-02  0.19194558676E-01  0.10203828907E+01  0.10201111593E+01 0.  0.
     999903    2    3    3    0    0  0.82703192978E-01  0.67621996503E-01 -0.72598346914E-01  0.13067882099E+00  0.19846454089E-01 0.  0.
         14    1    1    2    0    0 -0.12116414260E-01 -0.62632081957E-02 -0.19194558676E-01  0.23547109253E-01  0.00000000000E+00 0. -1.
     999901    1    3    3    0    0 -0.70586778718E-01 -0.61358788307E-01  0.91792905589E-01  0.88970406976E+00  0.88000000000E+00 0.  1.
        -11    1    4    4    0    0  0.74378794281E-01  0.60398361363E-01 -0.56723454922E-01  0.11134621032E+00  0.51100000000E-03 0. -1.
         11    1    4    4    0    0  0.83243986969E-02  0.72236351402E-02 -0.15874891991E-01  0.19332610663E-01  0.51100000000E-03 0.  1.
</event>
<event>
 8    1  0.1065239E+005  0.1043930E+01  0.7957747E-01            NaN
         13   -1    0    0    0    0  0.00000000000E+00  0.00000000000E+00  0.74505805969E-08  0.10566000000E+00  0.10566000000E+00 0. -1.
     999900   -1    0    0    0    0 -0.00000000000E+00 -0.00000000000E+00 -0.74505805969E-08  0.93827000000E+00  0.93827000000E+00 0.  1.
     999902    2    1    2    0    0  0.48708569276E-02  0.25539501946E-01  0.77187746456E-02  0.10168085898E+01  0.10164468198E+01 0.  0.
     999903    2    3    3    0    0 -0.56961792699E-01 -0.42320071285E-01 -0.10140967445E+00  0.12532823861E+00  0.19687840379E-01 0.  0.
         14    1    1    2    0    0 -0.48708569276E-02 -0.25539501946E-01 -0.77187746456E-02  0.27121410157E-01  0.00000000000E+00 0. -1.
     999901    1    3    3    0    0  0.61832649627E-01  0.67859573231E-01  0.10912844910E+00  0.89148035124E+00  0.88000000000E+00 0. -1.
        -11    1    4    4    0    0 -0.36702723255E-01 -0.25450563758E-01 -0.78869018600E-01  0.90638867523E-01  0.51100000000E-03 0. -1.
         11    1    4    4    0    0 -0.20259069445E-01 -0.16869507527E-01 -0.22540655851E-01  0.34689371084E-01  0.51100000000E-03 0.  1.
</event>
<event>
 8    1  0.1065239E+005  0.1043930E+01  0.7957747E-01            NaN
         13   -1    0    0    0    0  0.00000000000E+00  0.00000000000E+00  0.74505805969E-08  0.10566000000E+00  0.10566000000E+00 0.  1.
     999900   -1    0    0    0    0 -0.00000000000E+00 -0.00000000000E+00 -0.74505805969E-08  0.93827000000E+00  0.93827000000E+00 0. -1.
     999902    2    1    2    0    0  0.12789677824E-01 -0.20833476113E-01 -0.31263624054E-02  0.10192848437E+01  0.10189868541E+01 0.  0.
     999903    2    3    3    0    0 -0.37790291242E-01  0.11121469375E+00  0.43521552122E-01  0.12677653544E+00  0.19528190383E-01 0.  0.
         14    1    1    2    0    0 -0.12789677824E-01  0.20833476113E-01  0.31263624054E-02  0.24645156272E-01  0.00000000000E+00 0.  1.
     999901    1    3    3    0    0  0.50579969066E-01 -0.13204816987E+00 -0.46647914528E-01  0.89250830829E+00  0.88000000000E+00 0.  1.
        -11    1    4    4    0    0 -0.31927158980E-01  0.10069076859E+00  0.44617782023E-01  0.11466901044E+00  0.51100000000E-03 0.  1.
         11    1    4    4    0    0 -0.58631322617E-02  0.10523925160E-01 -0.10962299011E-02  0.12107525003E-01  0.51100000000E-03 0. -1.
</event>
<event>
 8    1  0.1065239E+005  0.1043930E+01  0.7957747E-01            NaN
         13   -1    0    0    0    0  0.00000000000E+00  0.00000000000E+00  0.74505805969E-08  0.10566000000E+00  0.10566000000E+00 0. -1.
     999900   -1    0    0    0    0 -0.00000000000E+00 -0.00000000000E+00 -0.74505805969E-08  0.93827000000E+00  0.93827000000E+00 0.  1.
     999902    2    1    2    0    0  0.42936931595E-03 -0.12062132021E-01  0.20853766804E-01  0.10198352085E+01  0.10195505351E+01 0.  0.
     999903    2    3    3    0    0  0.74185755690E-01 -0.78117843873E-01 -0.69236801491E-01  0.12971180578E+00  0.20627505882E-01 0.  0.
         14    1    1    2    0    0 -0.42936931595E-03  0.12062132021E-01 -0.20853766804E-01  0.24094791487E-01  0.00000000000E+00 0.  1.
     999901    1    3    3    0    0 -0.73756386374E-01  0.66055711852E-01  0.90090568295E-01  0.89012340273E+00  0.88000000000E+00 0. -1.
        -11    1    4    4    0    0  0.69410388272E-01 -0.62700983581E-01 -0.58795960866E-01  0.11048276552E+00  0.51100000000E-03 0. -1.
         11    1    4    4    0    0  0.47753674179E-02 -0.15416860292E-01 -0.10440840625E-01  0.19229040257E-01  0.51100000000E-03 0.  1.
</event>
<event>
 8    1  0.1065239E+005  0.1043930E+01  0.7957747E-01            NaN
         13   -1    0    0    0    0  0.00000000000E+00  0.00000000000E+00  0.74505805969E-08  0.10566000000E+00  0.10566000000E+00 0.  1.
     999900   -1    0    0    0    0 -0.00000000000E+00 -0.00000000000E+00 -0.74505805969E-08  0.93827000000E+00  0.93827000000E+00 0. -1.
     999902    2    1    2    0    0  0.18073711913E-01  0.14855761560E-01  0.67847711953E-02  0.10195704878E+01  0.10192794483E+01 0.  0.
     999903    2    3    3    0    0  0.97296995982E-03 -0.11537747158E+00  0.54658848131E-01  0.12853454149E+00  0.14853654738E-01 0.  0.
         14    1    1    2    0    0 -0.18073711913E-01 -0.14855761560E-01 -0.67847711953E-02  0.24359512188E-01  0.00000000000E+00 0. -1.
     999901    1    3    3    0    0  0.17100741954E-01  0.13023323314E+00 -0.47874076936E-01  0.89103594632E+00  0.88000000000E+00 0. -1.
        -11    1    4    4    0    0 -0.55074242177E-02 -0.23185314166E-01  0.13113260207E-01  0.27204948608E-01  0.51100000000E-03 0.  1.
         11    1    4    4    0    0  0.64803941776E-02 -0.92192157415E-01  0.41545587924E-01  0.10132959289E+00  0.51100000000E-03 0. -1.
</event>
<event>
 8    1  0.1065239E+005  0.1043930E+01  0.7957747E-01            NaN
         13   -1    0    0    0    0  0.00000000000E+00  0.00000000000E+00  0.74505805969E-08  0.10566000000E+00  0.10566000000E+00 0. -1.
     999900   -1    0    0    0    0 -0.00000000000E+00 -0.00000000000E+00 -0.74505805969E-08  0.93827000000E+00  0.93827000000E+00 0. -1.
     999902    2    1    2    0    0  0.19419586649E-01  0.13295020061E-01  0.31115965276E-02  0.10201905826E+01  0.10199143420E+01 0.  0.
     999903    2    3    3    0    0 -0.16601347345E-01 -0.12569232699E+00 -0.64898779822E-02  0.12850275686E+00  0.19916681583E-01 0.  0.
         14    1    1    2    0    0 -0.19419586649E-01 -0.13295020061E-01 -0.31115965276E-02  0.23739417368E-01  0.00000000000E+00 0.  1.
     999901    1    3    3    0    0  0.36020933994E-01  0.13898734705E+00  0.96014745098E-02  0.89168782578E+00  0.88000000000E+00 0.  1.
        -11    1    4    4    0    0 -0.63269650790E-02 -0.60639472702E-01  0.66868118297E-02  0.61336373468E-01  0.51100000000E-03 0.  1.
         11    1    4    4    0    0 -0.10274382266E-01 -0.65052854288E-01 -0.13176689812E-01  0.67166383387E-01  0.51100000000E-03 0. -1.
</event>
<event>
 8    1  0.1065239E+005  0.1043930E+01  0.7957747E-01            NaN
         13   -1    0    0    0    0  0.00000000000E+00  0.00000000000E+00  0.74505805969E-08  0.10566000000E+00  0.10566000000E+00 0.  1.
     999900   -1    0    0    0    0 -0.00000000000E+00 -0.00000000000E+00 -0.74505805969E-08  0.93827000000E+00  0.93827000000E+00 0. -1.
     999902    2    1    2    0    0  0.67248482608E-02  0.66218849239E-02 -0.21574340853E-01  0.10203816428E+01  0.10201098822E+01 0.  0.
     999903    2    3    3    0    0  0.24611401252E-01  0.12457701260E+00  0.24768636534E-01  0.13112295575E+00  0.21321140425E-01 0.  0.
         14    1    1    2    0    0 -0.67248482608E-02 -0.66218849239E-02  0.21574340853E-01  0.23548357210E-01  0.00000000000E+00 0.  1.
     999901    1    3    3    0    0 -0.17886552991E-01 -0.11795512768E+00 -0.46342977386E-01  0.88925868704E+00  0.88000000000E+00 0. -1.
        -11    1    4    4    0    0  0.13615795791E-02  0.60891073976E-01  0.13632458985E-01  0.62415397522E-01  0.51100000000E-03 0. -1.
         11    1    4    4    0    0  0.23249821673E-01  0.63685938624E-01  0.11136177549E-01  0.68707558228E-01  0.51100000000E-03 0.  1.
</event>
<event>
 8    1  0.1065239E+005  0.1043930E+01  0.7957747E-01            NaN
         13   -1    0    0    0    0  0.00000000000E+00  0.00000000000E+00  0.74505805969E-08  0.10566000000E+00  0.10566000000E+00 0. -1.
     999900   -1    0    0    0    0 -0.00000000000E+00 -0.00000000000E+00 -0.74505805969E-08  0.93827000000E+00  0.93827000000E+00 0.  1.
     999902    2    1    2    0    0 -0.21343760505E-01 -0.51713667447E-03 -0.59086894001E-02  0.10217774346E+01  0.10215372679E+01 0.  0.
     999903    2    3    3    0    0 -0.83535205995E-01 -0.68081704627E-02  0.10145777952E+00  0.13305086719E+00  0.19605366844E-01 0.  0.
         14    1    1    2    0    0  0.21343760505E-01  0.51713667447E-03  0.59086894001E-02  0.22152565388E-01  0.00000000000E+00 0. -1.
     999901    1    3    3    0    0  0.62191445491E-01  0.62910337882E-02 -0.10736646892E+00  0.88872656742E+00  0.88000000000E+00 0.  1.
        -11    1    4    4    0    0 -0.41076661024E-01  0.59888247147E-02  0.44393320993E-01  0.60779817144E-01  0.51100000000E-03 0. -1.
         11    1    4    4    0    0 -0.42458544972E-01 -0.12796995177E-01  0.57064458525E-01  0.72271050043E-01  0.51100000000E-03 0.  1.
</event>
<event>
 8    1  0.1065239E+005  0.1043930E+01  0.7957747E-01            NaN
         13   -1    0    0    0    0  0.00000000000E+00  0.00000000000E+00  0.74505805969E-08  0.10566000000E+00  0.10566000000E+00 0.  1.
     999900   -1    0    0    0    0 -0.00000000000E+00 -0.00000000000E+00 -0.74505805969E-08  0.93827000000E+00  0.93827000000E+00 0.  1.
     999902    2    1    2    0    0 -0.22453769231E-01  0.30641684869E-02  0.60984013708E-02  0.10204619072E+01  0.10201920175E+01 0.  0.
     999903    2    3    3    0    0  0.11617351745E+00 -0.32348285019E-01 -0.37558231266E-01  0.12783798411E+00  0.19728957000E-01 0.  0.
         14    1    1    2    0    0  0.22453769231E-01 -0.30641684869E-02 -0.60984013708E-02  0.23468092817E-01  0.00000000000E+00 0. -1.
     999901    1    3    3    0    0 -0.13862728668E+00  0.35412453506E-01  0.43656632637E-01  0.89262392308E+00  0.88000000000E+00 0.  1.
        -11    1    4    4    0    0  0.80472937542E-01 -0.25808933448E-01 -0.34926331552E-01  0.91444543189E-01  0.51100000000E-03 0. -1.
         11    1    4    4    0    0  0.35700579908E-01 -0.65393515703E-02 -0.26318997139E-02  0.36393440918E-01  0.51100000000E-03 0.  1.
</event>
<event>
 8    1  0.1065239E+005  0.1043930E+01  0.7957747E-01            NaN
         13   -1    0    0    0    0  0.00000000000E+00  0.00000000000E+00  0.74505805969E-08  0.10566000000E+00  0.10566000000E+00 0. -1.
     999900   -1    0    0    0    0 -0.00000000000E+00 -0.00000000000E+00 -0.74505805969E-08  0.93827000000E+00  0.93827000000E+00 0.  1.
     999902    2    1    2    0    0  0.19697440941E-01 -0.13212447856E-01 -0.33501489601E-02  0.10199762643E+01  0.10196949535E+01 0.  0.
     999903    2    3    3    0    0 -0.71650277441E-01  0.14777028207E-01 -0.10438585119E+00  0.12905762064E+00  0.20182683042E-01 0.  0.
         14    1    1    2    0    0 -0.19697440941E-01  0.13212447856E-01  0.33501489601E-02  0.23953735743E-01  0.00000000000E+00 0.  1.
     999901    1    3    3    0    0  0.91347718382E-01 -0.27989476063E-01  0.10103570223E+00  0.89091864362E+00  0.88000000000E+00 0. -1.
        -11    1    4    4    0    0 -0.64460398372E-01  0.93673895591E-02 -0.80663168893E-01  0.10368075464E+00  0.51100000000E-03 0. -1.
         11    1    4    4    0    0 -0.71898790684E-02  0.54096386476E-02 -0.23722682302E-01  0.25376865998E-01  0.51100000000E-03 0.  1.
</event>
<event>
 8    1  0.1065239E+005  0.1043930E+01  0.7957747E-01            NaN
         13   -1    0    0    0    0  0.00000000000E+00  0.00000000000E+00  0.74505805969E-08  0.10566000000E+00  0.10566000000E+00 0. -1.
     999900   -1    0    0    0    0 -0.00000000000E+00 -0.00000000000E+00 -0.74505805969E-08  0.93827000000E+00  0.93827000000E+00 0. -1.
     999902    2    1    2    0    0 -0.18079864911E-01 -0.66853342193E-02 -0.13355803596E-01  0.10204789297E+01  0.10202094360E+01 0.  0.
     999903    2    3    3    0    0  0.63058843169E-01  0.99071258030E-01 -0.50962372900E-01  0.12964662179E+00  0.20482949494E-01 0.  0.
         14    1    1    2    0    0  0.18079864911E-01  0.66853342193E-02  0.13355803596E-01  0.23451070307E-01  0.00000000000E+00 0. -1.
     999901    1    3    3    0    0 -0.81138708080E-01 -0.10575659225E+00  0.37606569304E-01  0.89083230791E+00  0.88000000000E+00 0. -1.
        -11    1    4    4    0    0  0.48385478611E-01  0.75815964895E-01 -0.48100629730E-01  0.10199581744E+00  0.51100000000E-03 0. -1.
         11    1    4    4    0    0  0.14673364558E-01  0.23255293135E-01 -0.28617431701E-02  0.27650804350E-01  0.51100000000E-03 0.  1.
</event>
<event>
 8    1  0.1065239E+005  0.1043930E+01  0.7957747E-01            NaN
         13   -1    0    0    0    0  0.00000000000E+00  0.00000000000E+00  0.74505805969E-08  0.10566000000E+00  0.10566000000E+00 0.  1.
     999900   -1    0    0    0    0 -0.00000000000E+00 -0.00000000000E+00 -0.74505805969E-08  0.93827000000E+00  0.93827000000E+00 0.  1.
     999902    2    1    2    0    0 -0.33805303620E-02  0.21087787212E-01  0.10148467588E-01  0.10202844053E+01  0.10200103693E+01 0.  0.
     999903    2    3    3    0    0  0.85804202446E-01 -0.70547573410E-01  0.63426503950E-01  0.12944799772E+00  0.19863067218E-01 0.  0.
         14    1    1    2    0    0  0.33805303620E-02 -0.21087787212E-01 -0.10148467588E-01  0.23645594715E-01  0.00000000000E+00 0. -1.
     999901    1    3    3    0    0 -0.89184732808E-01  0.91635360623E-01 -0.53278036362E-01  0.89083640756E+00  0.88000000000E+00 0.  1.
        -11    1    4    4    0    0  0.10313677651E-01 -0.16413561816E-02  0.80776704424E-02  0.13212716510E-01  0.51100000000E-03 0.  1.
         11    1    4    4    0    0  0.75490524795E-01 -0.68906217229E-01  0.55348833508E-01  0.11623528121E+00  0.51100000000E-03 0. -1.
</event>
<event>
 8    1  0.1065239E+005  0.1043930E+01  0.7957747E-01            NaN
         13   -1    0    0    0    0  0.00000000000E+00  0.00000000000E+00  0.74505805969E-08  0.10566000000E+00  0.10566000000E+00 0. -1.
     999900   -1    0    0    0    0 -0.00000000000E+00 -0.00000000000E+00 -0.74505805969E-08  0.93827000000E+00  0.93827000000E+00 0. -1.
     999902    2    1    2    0    0  0.34616830957E-02  0.16874934118E-01  0.14910393433E-01  0.10211469694E+01  0.10208927792E+01 0.  0.
     999903    2    3    3    0    0 -0.91302892230E-01  0.48416683864E-01 -0.76882100773E-01  0.13075319768E+00  0.22475495054E-01 0.  0.
         14    1    1    2    0    0 -0.34616830957E-02 -0.16874934118E-01 -0.14910393433E-01  0.22783030608E-01  0.00000000000E+00 0.  1.
     999901    1    3    3    0    0  0.94764575326E-01 -0.31541749746E-01  0.91792494206E-01  0.89039377171E+00  0.88000000000E+00 0.  1.
        -11    1    4    4    0    0 -0.80187109269E-01  0.32941203268E-01 -0.62335638636E-01  0.10677587897E+00  0.51100000000E-03 0.  1.
         11    1    4    4    0    0 -0.11115782961E-01  0.15475480596E-01 -0.14546462137E-01  0.23977318704E-01  0.51100000000E-03 0. -1.
</event>
<event>
 8    1  0.1065239E+005  0.1043930E+01  0.7957747E-01            NaN
         13   -1    0    0    0    0  0.00000000000E+00  0.00000000000E+00  0.74505805969E-08  0.10566000000E+00  0.10566000000E+00 0.  1.
     999900   -1    0    0    0    0 -0.00000000000E+00 -0.00000000000E+00 -0.74505805969E-08  0.93827000000E+00  0.93827000000E+00 0. -1.
     999902    2    1    2    0    0  0.74922169465E-02  0.15773476325E-01 -0.15493908442E-01  0.10205848277E+01  0.10203177904E+01 0.  0.
     999903    2    3    3    0    0 -0.11370473744E+00 -0.33463085084E-01 -0.51909266712E-01  0.13016974527E+00  0.14179042031E-01 0.  0.
         14    1    1    2    0    0 -0.74922169465E-02 -0.15773476325E-01  0.15493908442E-01  0.23345172284E-01  0.00000000000E+00 0.  1.
     999901    1    3    3    0    0  0.12119695439E+00  0.49236561408E-01  0.36415358270E-01  0.89041508245E+00  0.88000000000E+00 0.  1.
        -11    1    4    4    0    0 -0.30353798209E-01 -0.11065364050E-01 -0.20786466254E-01  0.38420484739E-01  0.51100000000E-03 0. -1.
         11    1    4    4    0    0 -0.83350939232E-01 -0.22397721033E-01 -0.31122800458E-01  0.91749260529E-01  0.51100000000E-03 0.  1.
</event>
<event>
 8    1  0.1065239E+005  0.1043930E+01  0.7957747E-01            NaN
         13   -1    0    0    0    0  0.00000000000E+00  0.00000000000E+00  0.74505805969E-08  0.10566000000E+00  0.10566000000E+00 0.  1.
     999900   -1    0    0    0    0 -0.00000000000E+00 -0.00000000000E+00 -0.74505805969E-08  0.93827000000E+00  0.93827000000E+00 0. -1.
     999902    2    1    2    0    0 -0.53929487672E-02  0.19050552152E-01 -0.12695970587E-01  0.10204099000E+01  0.10201387989E+01 0.  0.
     999903    2    3    3    0    0 -0.18512814016E-01 -0.12191908051E+00 -0.31439745824E-01  0.12889663747E+00  0.20467023696E-01 0.  0.
         14    1    1    2    0    0  0.53929487672E-02 -0.19050552152E-01  0.12695970587E-01  0.23520099975E-01  0.00000000000E+00 0. -1.
     999901    1    3    3    0    0  0.13119865249E-01  0.14096963266E+00  0.18743775237E-01  0.89151326255E+00  0.88000000000E+00 0.  1.
        -11    1    4    4    0    0 -0.19287839998E-01 -0.72706432635E-01 -0.24930555480E-01  0.79246702366E-01  0.51100000000E-03 0. -1.
         11    1    4    4    0    0  0.77502598183E-03 -0.49212647875E-01 -0.65091903439E-02  0.49649935106E-01  0.51100000000E-03 0.  1.
</event>
<event>
 8    1  0.1065239E+005  0.1043930E+01  0.7957747E-01            NaN
         13   -1    0    0    0    0  0.00000000000E+00  0.00000000000E+00  0.74505805969E-08  0.10566000000E+00  0.10566000000E+00 0.  1.
     999900   -1    0    0    0    0 -0.00000000000E+00 -0.00000000000E+00 -0.74505805969E-08  0.93827000000E+00  0.93827000000E+00 0. -1.
     999902    2    1    2    0    0 -0.31510928314E-02  0.41466413943E-02  0.23743296614E-01  0.10196222203E+01  0.10193324305E+01 0.  0.
     999903    2    3    3    0    0  0.87897974645E-01  0.21234858885E-01  0.93977639771E-01  0.13197656867E+00  0.20224854061E-01 0.  0.
         14    1    1    2    0    0  0.31510928314E-02 -0.41466413943E-02 -0.23743296614E-01  0.24307779721E-01  0.00000000000E+00 0. -1.
     999901    1    3    3    0    0 -0.91049067476E-01 -0.17088217491E-01 -0.70234343157E-01  0.88764565161E+00  0.88000000000E+00 0. -1.
        -11    1    4    4    0    0  0.10887604564E-01  0.49491449339E-03  0.21941812488E-01  0.24504879713E-01  0.51100000000E-03 0. -1.
         11    1    4    4    0    0  0.77010370081E-01  0.20739944392E-01  0.72035827283E-01  0.10747168895E+00  0.51100000000E-03 0.  1.
</event>
<event>
 8    1  0.1065239E+005  0.1043930E+01  0.7957747E-01            NaN
         13   -1    0    0    0    0  0.00000000000E+00  0.00000000000E+00  0.74505805969E-08  0.10566000000E+00  0.10566000000E+00 0.  1.
     999900   -1    0    0    0    0 -0.00000000000E+00 -0.00000000000E+00 -0.74505805969E-08  0.93827000000E+00  0.93827000000E+00 0. -1.
     999902    2    1    2    0    0 -0.72549231405E-02  0.48042826566E-02 -0.22675058875E-01  0.10196426919E+01  0.10193533959E+01 0.  0.
     999903    2    3    3    0    0 -0.12051752679E+00 -0.29596220815E-01 -0.38952639432E-01  0.13156793619E+00  0.19809168750E-01 0.  0.
         14    1    1    2    0    0  0.72549231405E-02 -0.48042826566E-02  0.22675058875E-01  0.24287308138E-01  0.00000000000E+00 0.  1.
     999901    1    3    3    0    0  0.11326260365E+00  0.34400503472E-01  0.16277580557E-01  0.88807475567E+00  0.88000000000E+00 0.  1.
        -11    1    4    4    0    0 -0.55634588675E-01 -0.15918770138E-01 -0.28257872547E-01  0.64400179981E-01  0.51100000000E-03 0.  1.
         11    1    4    4    0    0 -0.64882938112E-01 -0.13677450677E-01 -0.10694766885E-01  0.67167756214E-01  0.51100000000E-03 0. -1.
</event>
<event>
 8    1  0.1065239E+005  0.1043930E+01  0.7957747E-01            NaN
         13   -1    0    0    0    0  0.00000000000E+00  0.00000000000E+00  0.74505805969E-08  0.10566000000E+00  0.10566000000E+00 0.  1.
     999900   -1    0    0    0    0 -0.00000000000E+00 -0.00000000000E+00 -0.74505805969E-08  0.93827000000E+00  0.93827000000E+00 0.  1.
     999902    2    1    2    0    0  0.82009836404E-02 -0.23808187855E-01  0.32262142596E-02  0.10185431057E+01  0.10182266761E+01 0.  0.
     999903    2    3    3    0    0 -0.98925302425E-01 -0.79810290345E-01  0.20035105621E-01  0.13012044986E+00  0.19339806373E-01 0.  0.
         14    1    1    2    0    0 -0.82009836404E-02  0.23808187855E-01 -0.32262142596E-02  0.25386894258E-01  0.00000000000E+00 0. -1.
     999901    1    3    3    0    0  0.10712628607E+00  0.56002102490E-01 -0.16808891361E-01  0.88842265588E+00  0.88000000000E+00 0. -1.
        -11    1    4    4    0    0 -0.20301202665E-01 -0.75504941251E-02  0.54599760493E-02  0.22343259624E-01  0.51100000000E-03 0. -1.
         11    1    4    4    0    0 -0.78624099760E-01 -0.72259796220E-01  0.14575129572E-01  0.10777719024E+00  0.51100000000E-03 0.  1.
</event>
<event>
 7    1  0.1065239E+005  0.1043930E+01  0.7957747E-01            NaN
         13   -1    0    0    0    0  0.00000000000E+00  0.00000000000E+00  0.74505805969E-08  0.10566000000E+00  0.10566000000E+00 0. -1.
     999900   -1    0    0    0    0 -0.00000000000E+00 -0.00000000000E+00 -0.74505805969E-08  0.93827000000E+00  0.93827000000E+00 0.  1.
     999903    2    1    2    0    0 -0.72902186995E-01 -0.66990849869E-01 -0.45173315967E-01  0.11171153402E+00  0.25225691704E-01 0.  0.
         14    1    1    2    0    0 -0.30983996587E-01  0.99239505344E-02 -0.25681976855E-01  0.41449448415E-01  0.00000000000E+00 0. -1.
     999901    1    1    2    0    0  0.10388618358E+00  0.57066899335E-01  0.70855292822E-01  0.89076901757E+00  0.88000000000E+00 0. -1.
        -11    1    3    3    0    0 -0.54035581328E-01 -0.50906035016E-01 -0.45193639369E-01  0.86913719348E-01  0.51100000000E-03 0.  1.
         11    1    3    3    0    0 -0.18866605668E-01 -0.16084814853E-01  0.20323402338E-04  0.24797814669E-01  0.51100000000E-03 0. -1.
</event>
<event>
 8    1  0.1065239E+005  0.1043930E+01  0.7957747E-01            NaN
         13   -1    0    0    0    0  0.00000000000E+00  0.00000000000E+00  0.74505805969E-08  0.10566000000E+00  0.10566000000E+00 0.  1.
     999900   -1    0    0    0    0 -0.00000000000E+00 -0.00000000000E+00 -0.74505805969E-08  0.93827000000E+00  0.93827000000E+00 0. -1.
     999902    2    1    2    0    0 -0.13071395997E-01 -0.20329183871E-01 -0.26919881476E-02  0.10196116137E+01  0.10193215680E+01 0.  0.
     999903    2    3    3    0    0 -0.82365627227E-01 -0.88389711097E-01 -0.52182119590E-01  0.13288550103E+00  0.18405032003E-01 0.  0.
         14    1    1    2    0    0  0.13071395997E-01  0.20329183871E-01  0.26919881476E-02  0.24318386261E-01  0.00000000000E+00 0.  1.
     999901    1    3    3    0    0  0.69294231230E-01  0.68060527226E-01  0.49490131443E-01  0.88672611271E+00  0.88000000000E+00 0. -1.
        -11    1    4    4    0    0 -0.24149348935E-02 -0.73660371106E-02 -0.68632094366E-02  0.10366058944E-01  0.51100000000E-03 0.  1.
         11    1    4    4    0    0 -0.79950692333E-01 -0.81023673986E-01 -0.45318910154E-01  0.12251944209E+00  0.51100000000E-03 0. -1.
</event>
<event>
 8    1  0.1154701E+005  0.1043930E+01  0.7957747E-01            NaN
         13   -1    0    0    0    0  0.00000000000E+00  0.00000000000E+00  0.74505805969E-08  0.10566000000E+00  0.10566000000E+00 0.  1.
     999900   -1    0    0    0    0 -0.00000000000E+00 -0.00000000000E+00 -0.74505805969E-08  0.93827000000E+00  0.93827000000E+00 0.  1.
     999902    2    1    2    0    0  0.53203054115E-02  0.91497187653E-02 -0.21658860250E-01  0.10198233779E+01  0.10195384215E+01 0.  0.
     999903    2    3    3    0    0  0.11059278553E+00  0.57061081899E-02 -0.69142653542E-01  0.13227120242E+00  0.21251836833E-01 0.  0.
         14    1    1    2    0    0 -0.53203054115E-02 -0.91497187653E-02  0.21658860250E-01  0.24106622129E-01  0.00000000000E+00 0.  1.
     999901    1    3    3    0    0 -0.10527248012E+00  0.34436105754E-02  0.47483793293E-01  0.88755217545E+00  0.88000000000E+00 0. -1.
        -11    1    4    4    0    0  0.62619330359E-01 -0.69240785936E-02 -0.35322614392E-01  0.72229298816E-01  0.51100000000E-03 0. -1.
         11    1    4    4    0    0  0.47973455170E-01  0.12630186783E-01 -0.33820039150E-01  0.60041903603E-01  0.51100000000E-03 0.  1.
</event>
<event>
 8    1  0.1065239E+005  0.1043930E+01  0.7957747E-01            NaN
         13   -1    0    0    0    0  0.00000000000E+00  0.00000000000E+00  0.74505805969E-08  0.10566000000E+00  0.10566000000E+00 0.  1.
     999900   -1    0    0    0    0 -0.00000000000E+00 -0.00000000000E+00 -0.74505805969E-08  0.93827000000E+00  0.93827000000E+00 0.  1.
     999902    2    1    2    0    0  0.11017565333E-01 -0.17949988544E-01 -0.12168033663E-01  0.10196061459E+01  0.10193159681E+01 0.  0.
     999903    2    3    3    0    0 -0.93998563886E-01 -0.87536254565E-01  0.96885334975E-02  0.13036582668E+00  0.20076234924E-01 0.  0.
         14    1    1    2    0    0 -0.11017565333E-01  0.17949988544E-01  0.12168033663E-01  0.24323854091E-01  0.00000000000E+00 0.  1.
     999901    1    3    3    0    0  0.10501612922E+00  0.69586266020E-01 -0.21856567161E-01  0.88924031923E+00  0.88000000000E+00 0. -1.
        -11    1    4    4    0    0 -0.66275926388E-01 -0.50040382558E-01  0.17815753611E-02  0.83066078738E-01  0.51100000000E-03 0.  1.
         11    1    4    4    0    0 -0.27722637498E-01 -0.37495872007E-01  0.79069581364E-02  0.47299747942E-01  0.51100000000E-03 0. -1.
</event>
<event>
 8    1  0.1065239E+005  0.1043930E+01  0.7957747E-01            NaN
         13   -1    0    0    0    0  0.00000000000E+00  0.00000000000E+00  0.74505805969E-08  0.10566000000E+00  0.10566000000E+00 0. -1.
     999900   -1    0    0    0    0 -0.00000000000E+00 -0.00000000000E+00 -0.74505805969E-08  0.93827000000E+00  0.93827000000E+00 0.  1.
     999902    2    1    2    0    0 -0.14074022632E-01 -0.69662678453E-02  0.17878131160E-01  0.10201343161E+01  0.10198567489E+01 0.  0.
     999903    2    3    3    0    0 -0.12836953216E+00 -0.15235662441E-02  0.25607395304E-01  0.13269258387E+00  0.21691590055E-01 0.  0.
         14    1    1    2    0    0  0.14074022632E-01  0.69662678453E-02 -0.17878131160E-01  0.23795683947E-01  0.00000000000E+00 0.  1.
     999901    1    3    3    0    0  0.11429550952E+00 -0.54427016012E-02 -0.77292641436E-02  0.88744173218E+00  0.88000000000E+00 0. -1.
        -11    1    4    4    0    0 -0.10161902837E+00 -0.59065468519E-02  0.27719116005E-01  0.10549845846E+00  0.51100000000E-03 0. -1.
         11    1    4    4    0    0 -0.26750503782E-01  0.43829806078E-02 -0.21117207013E-02  0.27194125412E-01  0.51100000000E-03 0.  1.
</event>
<event>
 7    1  0.1065239E+005  0.1043930E+01  0.7957747E-01            NaN
         13   -1    0    0    0    0  0.00000000000E+00  0.00000000000E+00  0.74505805969E-08  0.10566000000E+00  0.10566000000E+00 0. -1.
     999900   -1    0    0    0    0 -0.00000000000E+00 -0.00000000000E+00 -0.74505805969E-08  0.93827000000E+00  0.93827000000E+00 0.  1.
     999903    2    1    2    0    0 -0.58774759509E-01  0.88482998035E-01 -0.34319771736E-02  0.10799971972E+00  0.19194991444E-01 0.  0.
         14    1    1    2    0    0 -0.18122362112E-01  0.76131877978E-02 -0.41824797167E-01  0.46213572628E-01  0.00000000000E+00 0.  1.
     999901    1    1    2    0    0  0.76897121621E-01 -0.96096185832E-01  0.45256774341E-01  0.88971670765E+00  0.88000000000E+00 0. -1.
        -11    1    3    3    0    0 -0.46491571862E-02  0.20553593794E-01 -0.12081897116E-02  0.21113638335E-01  0.51100000000E-03 0.  1.
         11    1    3    3    0    0 -0.54125602322E-01  0.67929404241E-01 -0.22237874620E-02  0.86886081388E-01  0.51100000000E-03 0. -1.
</event>
<event>
 8    1  0.1065239E+005  0.1043930E+01  0.7957747E-01            NaN
         13   -1    0    0    0    0  0.00000000000E+00  0.00000000000E+00  0.74505805969E-08  0.10566000000E+00  0.10566000000E+00 0. -1.
     999900   -1    0    0    0    0 -0.00000000000E+00 -0.00000000000E+00 -0.74505805969E-08  0.93827000000E+00  0.93827000000E+00 0. -1.
     999902    2    1    2    0    0 -0.14950788071E-01 -0.76301926939E-02  0.16830400823E-01  0.10201600968E+01  0.10198831379E+01 0.  0.
     999903    2    3    3    0    0 -0.90385717798E-01  0.55561239310E-01  0.77099914215E-01  0.13262643553E+00  0.19716625851E-01 0.  0.
         14    1    1    2    0    0  0.14950788071E-01  0.76301926939E-02 -0.16830400823E-01  0.23769903163E-01  0.00000000000E+00 0.  1.
     999901    1    3    3    0    0  0.75434929727E-01 -0.63191432004E-01 -0.60269513391E-01  0.88753366130E+00  0.88000000000E+00 0. -1.
        -11    1    4    4    0    0 -0.67359808503E-01  0.49945632750E-01  0.64395127119E-01  0.10573033411E+00  0.51100000000E-03 0.  1.
         11    1    4    4    0    0 -0.23025909295E-01  0.56156065600E-02  0.12704787096E-01  0.26896101429E-01  0.51100000000E-03 0. -1.
</event>
<event>
 8    1  0.1065239E+005  0.1043930E+01  0.7957747E-01            NaN
         13   -1    0    0    0    0  0.00000000000E+00  0.00000000000E+00  0.74505805969E-08  0.10566000000E+00  0.10566000000E+00 0. -1.
     999900   -1    0    0    0    0 -0.00000000000E+00 -0.00000000000E+00 -0.74505805969E-08  0.93827000000E+00  0.93827000000E+00 0. -1.
     999902    2    1    2    0    0  0.65746134831E-02  0.36423138359E-02  0.23674271743E-01  0.10190912574E+01  0.10187885098E+01 0.  0.
     999903    2    3    3    0    0  0.12142139668E+00 -0.43136693156E-01  0.77066554234E-06  0.13008141842E+00  0.17811388203E-01 0.  0.
         14    1    1    2    0    0 -0.65746134831E-02 -0.36423138359E-02 -0.23674271743E-01  0.24838742623E-01  0.00000000000E+00 0.  1.
     999901    1    3    3    0    0 -0.11484678320E+00  0.46779006991E-01  0.23673501078E-01  0.88900983896E+00  0.88000000000E+00 0. -1.
        -11    1    4    4    0    0  0.52494826018E-01 -0.11288828423E-01  0.53479701048E-02  0.53963008729E-01  0.51100000000E-03 0.  1.
         11    1    4    4    0    0  0.68926570663E-01 -0.31847864732E-01 -0.53471994393E-02  0.76118409693E-01  0.51100000000E-03 0. -1.
</event>
<event>
 8    1  0.1065239E+005  0.1043930E+01  0.7957747E-01            NaN
         13   -1    0    0    0    0  0.00000000000E+00  0.00000000000E+00  0.74505805969E-08  0.10566000000E+00  0.10566000000E+00 0. -1.
     999900   -1    0    0    0    0 -0.00000000000E+00 -0.00000000000E+00 -0.74505805969E-08  0.93827000000E+00  0.93827000000E+00 0. -1.
     999902    2    1    2    0    0 -0.16221737182E-01  0.71547980340E-02  0.62732201092E-02  0.10251233740E+01  0.10249508489E+01 0.  0.
     999903    2    3    3    0    0  0.21615651919E-01 -0.12650510468E+00 -0.32407912173E-01  0.13338750074E+00  0.16467381803E-01 0.  0.
         14    1    1    2    0    0  0.16221737182E-01 -0.71547980340E-02 -0.62732201092E-02  0.18806626031E-01  0.00000000000E+00 0.  1.
     999901    1    3    3    0    0 -0.37837389101E-01  0.13365990272E+00  0.38681132283E-01  0.89173587323E+00  0.88000000000E+00 0. -1.
        -11    1    4    4    0    0  0.21845969662E-01 -0.81402269951E-01 -0.21195647836E-01  0.86908529799E-01  0.51100000000E-03 0.  1.
         11    1    4    4    0    0 -0.23031774394E-03 -0.45102834733E-01 -0.11212264337E-01  0.46478970942E-01  0.51100000000E-03 0. -1.
</event>
<event>
 8    1  0.1065239E+005  0.1043930E+01  0.7957747E-01            NaN
         13   -1    0    0    0    0  0.00000000000E+00  0.00000000000E+00  0.74505805969E-08  0.10566000000E+00  0.10566000000E+00 0. -1.
     999900   -1    0    0    0    0 -0.00000000000E+00 -0.00000000000E+00 -0.74505805969E-08  0.93827000000E+00  0.93827000000E+00 0. -1.
     999902    2    1    2    0    0  0.14627388373E-01 -0.45347316097E-02  0.17995526087E-01  0.10203002890E+01  0.10200266254E+01 0.  0.
     999903    2    3    3    0    0 -0.90037062721E-02  0.12494820972E+00  0.31312551161E-01  0.13041175450E+00  0.18265486928E-01 0.  0.
         14    1    1    2    0    0 -0.14627388373E-01  0.45347316097E-02 -0.17995526087E-01  0.23629710970E-01  0.00000000000E+00 0.  1.
     999901    1    3    3    0    0  0.23631094645E-01 -0.12948294133E+00 -0.13317025074E-01  0.88988853453E+00  0.88000000000E+00 0. -1.
        -11    1    4    4    0    0 -0.54004595828E-02  0.81322038476E-01  0.29225826362E-01  0.86584345890E-01  0.51100000000E-03 0. -1.
         11    1    4    4    0    0 -0.36032466893E-02  0.43626171244E-01  0.20867247991E-02  0.43827408611E-01  0.51100000000E-03 0.  1.
</event>
<event>
 8    1  0.1065239E+005  0.1043930E+01  0.7957747E-01            NaN
         13   -1    0    0    0    0  0.00000000000E+00  0.00000000000E+00  0.74505805969E-08  0.10566000000E+00  0.10566000000E+00 0. -1.
     999900   -1    0    0    0    0 -0.00000000000E+00 -0.00000000000E+00 -0.74505805969E-08  0.93827000000E+00  0.93827000000E+00 0. -1.
     999902    2    1    2    0    0  0.17899333636E-01  0.11782338521E-01  0.65069390700E-02  0.10215346902E+01  0.10212891722E+01 0.  0.
     999903    2    3    3    0    0 -0.29495719351E-01  0.31689176107E-01  0.12349421428E+00  0.13230547576E+00  0.19486318564E-01 0.  0.
         14    1    1    2    0    0 -0.17899333636E-01 -0.11782338521E-01 -0.65069390700E-02  0.22395309814E-01  0.00000000000E+00 0. -1.
     999901    1    3    3    0    0  0.47395052987E-01 -0.19906837586E-01 -0.11698727521E+00  0.88922921443E+00  0.88000000000E+00 0. -1.
        -11    1    4    4    0    0 -0.50779714369E-02  0.19275643797E-01  0.47084344866E-01  0.51132503265E-01  0.51100000000E-03 0.  1.
         11    1    4    4    0    0 -0.24417747914E-01  0.12413532310E-01  0.76409869419E-01  0.81172972492E-01  0.51100000000E-03 0. -1.
</event>
<event>
 8    1  0.1065239E+005  0.1043930E+01  0.7957747E-01            NaN
         13   -1    0    0    0    0  0.00000000000E+00  0.00000000000E+00  0.74505805969E-08  0.10566000000E+00  0.10566000000E+00 0.  1.
     999900   -1    0    0    0    0 -0.00000000000E+00 -0.00000000000E+00 -0.74505805969E-08  0.93827000000E+00  0.93827000000E+00 0. -1.
     999902    2    1    2    0    0  0.22991933032E-02  0.23023404486E-01 -0.53691414871E-02  0.10201772923E+01  0.10199007386E+01 0.  0.
     999903    2    3    3    0    0  0.87649261644E-01  0.52315312014E-01  0.80333342115E-01  0.13142110202E+00  0.19969358126E-01 0.  0.
         14    1    1    2    0    0 -0.22991933032E-02 -0.23023404486E-01  0.53691414871E-02  0.23752707725E-01  0.00000000000E+00 0.  1.
     999901    1    3    3    0    0 -0.85350068341E-01 -0.29291907528E-01 -0.85702483602E-01  0.88875619025E+00  0.88000000000E+00 0. -1.
        -11    1    4    4    0    0  0.58925602227E-01  0.40229710080E-01  0.45231897138E-01  0.84479830791E-01  0.51100000000E-03 0. -1.
         11    1    4    4    0    0  0.28723659418E-01  0.12085601935E-01  0.35101444978E-01  0.46941271233E-01  0.51100000000E-03 0.  1.
</event>
<event>
 8    1  0.1065239E+005  0.1043930E+01  0.7957747E-01            NaN
         13   -1    0    0    0    0  0.00000000000E+00  0.00000000000E+00  0.74505805969E-08  0.10566000000E+00  0.10566000000E+00 0. -1.
     999900   -1    0    0    0    0 -0.00000000000E+00 -0.00000000000E+00 -0.74505805969E-08  0.93827000000E+00  0.93827000000E+00 0.  1.
     999902    2    1    2    0    0  0.55300656406E-02 -0.20098788585E-01 -0.11098300870E-01  0.10203140052E+01  0.10200406629E+01 0.  0.
     999903    2    3    3    0    0  0.25853302731E-01  0.11929210250E+00 -0.35782900880E-01  0.12876917516E+00  0.20052069598E-01 0.  0.
         14    1    1    2    0    0 -0.55300656406E-02  0.20098788585E-01  0.11098300870E-01  0.23615994808E-01  0.00000000000E+00 0. -1.
     999901    1    3    3    0    0 -0.20323237090E-01 -0.13939089108E+00  0.24684600010E-01  0.89154483003E+00  0.88000000000E+00 0.  1.
        -11    1    4    4    0    0  0.90867823712E-02  0.26354107529E-01 -0.16445431800E-01  0.32370077936E-01  0.51100000000E-03 0. -1.
         11    1    4    4    0    0  0.16766520359E-01  0.92937994969E-01 -0.19337469079E-01  0.96399097222E-01  0.51100000000E-03 0.  1.
</event>
<event>
 8    1  0.1065239E+005  0.1043930E+01  0.7957747E-01            NaN
         13   -1    0    0    0    0  0.00000000000E+00  0.00000000000E+00  0.74505805969E-08  0.10566000000E+00  0.10566000000E+00 0.  1.
     999900   -1    0    0    0    0 -0.00000000000E+00 -0.00000000000E+00 -0.74505805969E-08  0.93827000000E+00  0.93827000000E+00 0.  1.
     999902    2    1    2    0    0  0.17797607373E-01 -0.12836510150E-01  0.76460378962E-02  0.10206922566E+01  0.10204276996E+01 0.  0.
     999903    2    3    3    0    0 -0.67372131448E-01  0.21241783049E-01 -0.10569865948E+00  0.12869324604E+00  0.19988184448E-01 0.  0.
         14    1    1    2    0    0 -0.17797607373E-01  0.12836510150E-01 -0.76460378962E-02  0.23237743362E-01  0.00000000000E+00 0. -1.
     999901    1    3    3    0    0  0.85169738821E-01 -0.34078293200E-01  0.11334469738E+00  0.89199901059E+00  0.88000000000E+00 0. -1.
        -11    1    4    4    0    0 -0.24623446982E-01  0.15633192861E-01 -0.53982604577E-01  0.61360358362E-01  0.51100000000E-03 0.  1.
         11    1    4    4    0    0 -0.42748684466E-01  0.56085901878E-02 -0.51716054907E-01  0.67332887682E-01  0.51100000000E-03 0. -1.
</event>
<event>
 7    1  0.1065239E+005  0.1043930E+01  0.7957747E-01            NaN
         13   -1    0    0    0    0  0.00000000000E+00  0.00000000000E+00  0.74505805969E-08  0.10566000000E+00  0.10566000000E+00 0. -1.
     999900   -1    0    0    0    0 -0.00000000000E+00 -0.00000000000E+00 -0.74505805969E-08  0.93827000000E+00  0.93827000000E+00 0. -1.
     999903    2    1    2    0    0  0.68926872343E-01 -0.35692125254E-01 -0.90298005506E-01  0.12075014898E+00  0.20050614549E-01 0.  0.
         14    1    1    2    0    0 -0.28651052317E-01 -0.12888861179E-01  0.21852144028E-01  0.38269070279E-01  0.00000000000E+00 0.  1.
     999901    1    1    2    0    0 -0.40275820026E-01  0.48580986433E-01  0.68445861478E-01  0.88491078074E+00  0.88000000000E+00 0.  1.
        -11    1    3    3    0    0  0.17026478365E-01 -0.17850832286E-01 -0.35149965054E-01  0.42945713909E-01  0.51100000000E-03 0.  1.
         11    1    3    3    0    0  0.51900393978E-01 -0.17841292968E-01 -0.55148040452E-01  0.77804435069E-01  0.51100000000E-03 0. -1.
</event>
<event>
 8    1  0.1065239E+005  0.1043930E+01  0.7957747E-01            NaN
         13   -1    0    0    0    0  0.00000000000E+00  0.00000000000E+00  0.74505805969E-08  0.10566000000E+00  0.10566000000E+00 0.  1.
     999900   -1    0    0    0    0 -0.00000000000E+00 -0.00000000000E+00 -0.74505805969E-08  0.93827000000E+00  0.93827000000E+00 0. -1.
     999902    2    1    2    0    0 -0.13637881132E-03 -0.80742807275E-02  0.23225001326E-01  0.10193411144E+01  0.10190445006E+01 0.  0.
     999903    2    3    3    0    0  0.54772641780E-01  0.86901433220E-01  0.78118674329E-01  0.13083185608E+00  0.21506880377E-01 0.  0.
         14    1    1    2    0    0  0.13637881132E-03  0.80742807275E-02 -0.23225001326E-01  0.24588885600E-01  0.00000000000E+00 0. -1.
     999901    1    3    3    0    0 -0.54909020591E-01 -0.94975713948E-01 -0.54893673002E-01  0.88850925832E+00  0.88000000000E+00 0. -1.
        -11    1    4    4    0    0  0.93896014182E-03  0.14195359543E-01  0.76778574233E-02  0.16174068576E-01  0.51100000000E-03 0.  1.
         11    1    4    4    0    0  0.53833681638E-01  0.72706073678E-01  0.70440816905E-01  0.11465778751E+00  0.51100000000E-03 0. -1.
</event>
<event>
 8    1  0.1065239E+005  0.1043930E+01  0.7957747E-01            NaN
         13   -1    0    0    0    0  0.00000000000E+00  0.00000000000E+00  0.74505805969E-08  0.10566000000E+00  0.10566000000E+00 0. -1.
     999900   -1    0    0    0    0 -0.00000000000E+00 -0.00000000000E+00 -0.74505805969E-08  0.93827000000E+00  0.93827000000E+00 0. -1.
     999902    2    1    2    0    0  0.22152187071E-01 -0.48023783289E-02 -0.86284758416E-02  0.10196764884E+01  0.10193880067E+01 0.  0.
     999903    2    3    3    0    0 -0.84837401143E-01  0.63581095723E-01  0.68341309315E-01  0.12723746004E+00  0.16700188996E-01 0.  0.
         14    1    1    2    0    0 -0.22152187071E-01  0.48023783289E-02  0.86284758416E-02  0.24253511601E-01  0.00000000000E+00 0.  1.
     999901    1    3    3    0    0  0.10698958821E+00 -0.68383474052E-01 -0.76969785157E-01  0.89243902836E+00  0.88000000000E+00 0. -1.
        -11    1    4    4    0    0 -0.68474399128E-01  0.44203368063E-01  0.56951107546E-01  0.99430231095E-01  0.51100000000E-03 0.  1.
         11    1    4    4    0    0 -0.16363002016E-01  0.19377727661E-01  0.11390201769E-01  0.27807228945E-01  0.51100000000E-03 0. -1.
</event>
<event>
 7    1  0.1065239E+005  0.1043930E+01  0.7957747E-01            NaN
         13   -1    0    0    0    0  0.00000000000E+00  0.00000000000E+00  0.74505805969E-08  0.10566000000E+00  0.10566000000E+00 0. -1.
     999900   -1    0    0    0    0 -0.00000000000E+00 -0.00000000000E+00 -0.74505805969E-08  0.93827000000E+00  0.93827000000E+00 0.  1.
     999903    2    1    2    0    0 -0.98081709982E-02 -0.51315026958E-01  0.99631954462E-01  0.11447382316E+00  0.21173040130E-01 0.  0.
         14    1    1    2    0    0  0.28581546078E-01 -0.40303274970E-02  0.25711314909E-01  0.38655142353E-01  0.00000000000E+00 0. -1.
     999901    1    1    2    0    0 -0.18773375080E-01  0.55345354455E-01 -0.12534326937E+00  0.89080103449E+00  0.88000000000E+00 0.  1.
        -11    1    3    3    0    0  0.78387225085E-03 -0.41147636797E-01  0.66127421813E-01  0.77889919157E-01  0.51100000000E-03 0. -1.
         11    1    3    3    0    0 -0.10592043249E-01 -0.10167390161E-01  0.33504532649E-01  0.36583904000E-01  0.51100000000E-03 0.  1.
</event>
<event>
 8    1  0.1065239E+005  0.1043930E+01  0.7957747E-01            NaN
         13   -1    0    0    0    0  0.00000000000E+00  0.00000000000E+00  0.74505805969E-08  0.10566000000E+00  0.10566000000E+00 0. -1.
     999900   -1    0    0    0    0 -0.00000000000E+00 -0.00000000000E+00 -0.74505805969E-08  0.93827000000E+00  0.93827000000E+00 0. -1.
     999902    2    1    2    0    0 -0.75463013616E-02 -0.14518180137E-01  0.16484236146E-01  0.10207038453E+01  0.10204395551E+01 0.  0.
     999903    2    3    3    0    0  0.12481991438E+00 -0.23203642254E-01 -0.20094409793E-01  0.13001071656E+00  0.19508487331E-01 0.  0.
         14    1    1    2    0    0  0.75463013616E-02  0.14518180137E-01 -0.16484236146E-01  0.23226154654E-01  0.00000000000E+00 0.  1.
     999901    1    3    3    0    0 -0.13236621574E+00  0.86854621177E-02  0.36578645938E-01  0.89069312878E+00  0.88000000000E+00 0. -1.
        -11    1    4    4    0    0  0.16768342993E-01 -0.81229864863E-02 -0.78530509435E-02  0.20226017065E-01  0.51100000000E-03 0.  1.
         11    1    4    4    0    0  0.10805157138E+00 -0.15080655768E-01 -0.12241358849E-01  0.10978469950E+00  0.51100000000E-03 0. -1.
</event>
<event>
 8    1  0.1065239E+005  0.1043930E+01  0.7957747E-01            NaN
         13   -1    0    0    0    0  0.00000000000E+00  0.00000000000E+00  0.74505805969E-08  0.10566000000E+00  0.10566000000E+00 0. -1.
     999900   -1    0    0    0    0 -0.00000000000E+00 -0.00000000000E+00 -0.74505805969E-08  0.93827000000E+00  0.93827000000E+00 0.  1.
     999902    2    1    2    0    0  0.13088783347E-01  0.32912083179E-02 -0.20556621950E-01  0.10193388836E+01  0.10190422153E+01 0.  0.
     999903    2    3    3    0    0  0.98938364839E-02  0.95559973686E-01  0.84305178733E-01  0.12831714983E+00  0.11328336463E-01 0.  0.
         14    1    1    2    0    0 -0.13088783347E-01 -0.32912083179E-02  0.20556621950E-01  0.24591116438E-01  0.00000000000E+00 0.  1.
     999901    1    3    3    0    0  0.31949468628E-02 -0.92268765368E-01 -0.10486180068E+00  0.89102173374E+00  0.88000000000E+00 0.  1.
        -11    1    4    4    0    0 -0.22265406210E-04  0.45557037161E-01  0.35707555520E-01  0.57885531637E-01  0.51100000000E-03 0. -1.
         11    1    4    4    0    0  0.99161018901E-02  0.50002936524E-01  0.48597623213E-01  0.70431618189E-01  0.51100000000E-03 0.  1.
</event>
<event>
 8    1  0.1065239E+005  0.1043930E+01  0.7957747E-01            NaN
         13   -1    0    0    0    0  0.00000000000E+00  0.00000000000E+00  0.74505805969E-08  0.10566000000E+00  0.10566000000E+00 0.  1.
     999900   -1    0    0    0    0 -0.00000000000E+00 -0.00000000000E+00 -0.74505805969E-08  0.93827000000E+00  0.93827000000E+00 0.  1.
     999902    2    1    2    0    0  0.16680210573E-01 -0.57702165450E-02  0.15758608935E-01  0.10202686691E+01  0.10199942640E+01 0.  0.
     999903    2    3    3    0    0 -0.16412572927E-01 -0.70019939896E-02 -0.12545316254E+00  0.12839568825E+00  0.20701601394E-01 0.  0.
         14    1    1    2    0    0 -0.16680210573E-01  0.57702165450E-02 -0.15758608935E-01  0.23661330886E-01  0.00000000000E+00 0. -1.
     999901    1    3    3    0    0  0.33092783500E-01  0.12317774446E-02  0.14121177147E+00  0.89187298087E+00  0.88000000000E+00 0. -1.
        -11    1    4    4    0    0  0.28727281614E-02 -0.40668398815E-02 -0.56885274811E-01  0.57105055512E-01  0.51100000000E-03 0. -1.
         11    1    4    4    0    0 -0.19285301089E-01 -0.29351541081E-02 -0.68567887727E-01  0.71290632737E-01  0.51100000000E-03 0.  1.
</event>
<event>
 8    1  0.1065239E+005  0.1043930E+01  0.7957747E-01            NaN
         13   -1    0    0    0    0  0.00000000000E+00  0.00000000000E+00  0.74505805969E-08  0.10566000000E+00  0.10566000000E+00 0.  1.
     999900   -1    0    0    0    0 -0.00000000000E+00 -0.00000000000E+00 -0.74505805969E-08  0.93827000000E+00  0.93827000000E+00 0.  1.
     999902    2    1    2    0    0 -0.18846428901E-01  0.65614373313E-02  0.12745898056E-01  0.10202509320E+01  0.10199761105E+01 0.  0.
     999903    2    3    3    0    0 -0.18432140400E-01 -0.14034472802E-01  0.12856946629E+00  0.13242242264E+00  0.21653640051E-01 0.  0.
         14    1    1    2    0    0  0.18846428901E-01 -0.65614373313E-02 -0.12745898056E-01  0.23679067959E-01  0.00000000000E+00 0. -1.
     999901    1    3    3    0    0 -0.41428850085E-03  0.20595910133E-01 -0.11582356824E+00  0.88782850940E+00  0.88000000000E+00 0.  1.
        -11    1    4    4    0    0  0.15456864707E-02  0.42319879306E-02  0.15004524539E-01  0.15674684883E-01  0.51100000000E-03 0. -1.
         11    1    4    4    0    0 -0.19977826871E-01 -0.18266460732E-01  0.11356494176E+00  0.11674773776E+00  0.51100000000E-03 0.  1.
</event>
<event>
 8    1  0.1065239E+005  0.1043930E+01  0.7957747E-01            NaN
         13   -1    0    0    0    0  0.00000000000E+00  0.00000000000E+00  0.74505805969E-08  0.10566000000E+00  0.10566000000E+00 0. -1.
     999900   -1    0    0    0    0 -0.00000000000E+00 -0.00000000000E+00 -0.74505805969E-08  0.93827000000E+00  0.93827000000E+00 0.  1.
     999902    2    1    2    0    0  0.64119867090E-02  0.16825150767E-01 -0.19429258393E-01  0.10174404671E+01  0.10170955750E+01 0.  0.
     999903    2    3    3    0    0 -0.84345148828E-01 -0.23349434772E-01  0.87373100344E-01  0.12544405521E+00  0.21044051180E-01 0.  0.
         14    1    1    2    0    0 -0.64119867090E-02 -0.16825150767E-01  0.19429258393E-01  0.26489532906E-01  0.00000000000E+00 0. -1.
     999901    1    3    3    0    0  0.90757135537E-01  0.40174585539E-01 -0.10680235874E+00  0.89199641188E+00  0.88000000000E+00 0.  1.
        -11    1    4    4    0    0 -0.77436393374E-01 -0.21501666089E-01  0.86736014704E-01  0.11824598949E+00  0.51100000000E-03 0. -1.
         11    1    4    4    0    0 -0.69087554535E-02 -0.18477686826E-02  0.63708563970E-03  0.71980657217E-02  0.51100000000E-03 0.  1.
</event>
<event>
 8    1  0.1065239E+005  0.1043930E+01  0.7957747E-01            NaN
         13   -1    0    0    0    0  0.00000000000E+00  0.00000000000E+00  0.74505805969E-08  0.10566000000E+00  0.10566000000E+00 0. -1.
     999900   -1    0    0    0    0 -0.00000000000E+00 -0.00000000000E+00 -0.74505805969E-08  0.93827000000E+00  0.93827000000E+00 0.  1.
     999902    2    1    2    0    0  0.15922063054E-01 -0.87644622081E-03  0.17081494924E-01  0.10205621221E+01  0.10202945591E+01 0.  0.
     999903    2    3    3    0    0 -0.62409737123E-01 -0.97356591896E-01 -0.53625604821E-01  0.12902200330E+00  0.19942180681E-01 0.  0.
         14    1    1    2    0    0 -0.15922063054E-01  0.87644622081E-03 -0.17081494924E-01  0.23367877925E-01  0.00000000000E+00 0.  1.
     999901    1    3    3    0    0  0.78331800177E-01  0.96480145675E-01  0.70707099744E-01  0.89154011877E+00  0.88000000000E+00 0. -1.
        -11    1    4    4    0    0 -0.48214367434E-01 -0.57612596338E-01 -0.35371315156E-01  0.83037506831E-01  0.51100000000E-03 0.  1.
         11    1    4    4    0    0 -0.14195369689E-01 -0.39743995558E-01 -0.18254289664E-01  0.45984496471E-01  0.51100000000E-03 0. -1.
</event>
<event>
 8    1  0.1065239E+005  0.1043930E+01  0.7957747E-01            NaN
         13   -1    0    0    0    0  0.00000000000E+00  0.00000000000E+00  0.74505805969E-08  0.10566000000E+00  0.10566000000E+00 0.  1.
     999900   -1    0    0    0    0 -0.00000000000E+00 -0.00000000000E+00 -0.74505805969E-08  0.93827000000E+00  0.93827000000E+00 0. -1.
     999902    2    1    2    0    0  0.54754650205E-02  0.22188224984E-01 -0.54593704961E-02  0.10204331327E+01  0.10201625731E+01 0.  0.
     999903    2    3    3    0    0 -0.89036175841E-01 -0.89445923895E-01 -0.95945032173E-02  0.12835032672E+00  0.21301125988E-01 0.  0.
         14    1    1    2    0    0 -0.54754650205E-02 -0.22188224984E-01  0.54593704961E-02  0.23496867267E-01  0.00000000000E+00 0. -1.
     999901    1    3    3    0    0  0.94511640862E-01  0.11163414888E+00  0.41351327212E-02  0.89208280601E+00  0.88000000000E+00 0. -1.
        -11    1    4    4    0    0 -0.68819031379E-01 -0.56268506367E-01 -0.10285581084E-01  0.89488871867E-01  0.51100000000E-03 0.  1.
         11    1    4    4    0    0 -0.20217144462E-01 -0.33177417528E-01  0.69107786720E-03  0.38861454858E-01  0.51100000000E-03 0. -1.
</event>
<event>
 8    1  0.1065239E+005  0.1043930E+01  0.7957747E-01            NaN
         13   -1    0    0    0    0  0.00000000000E+00  0.00000000000E+00  0.74505805969E-08  0.10566000000E+00  0.10566000000E+00 0.  1.
     999900   -1    0    0    0    0 -0.00000000000E+00 -0.00000000000E+00 -0.74505805969E-08  0.93827000000E+00  0.93827000000E+00 0.  1.
     999902    2    1    2    0    0 -0.10115303359E-01 -0.17850042074E-01 -0.93624026243E-02  0.10213778838E+01  0.10211288770E+01 0.  0.
     999903    2    3    3    0    0 -0.25376821021E-01 -0.56364348212E-01  0.11435539153E+00  0.13175866280E+00  0.21500392032E-01 0.  0.
         14    1    1    2    0    0  0.10115303359E-01  0.17850042074E-01  0.93624026243E-02  0.22552116242E-01  0.00000000000E+00 0.  1.
     999901    1    3    3    0    0  0.15261517662E-01  0.38514306137E-01 -0.12371779416E+00  0.88961922095E+00  0.88000000000E+00 0.  1.
        -11    1    4    4    0    0 -0.26326792862E-01 -0.34080435755E-01  0.72441387363E-01  0.84276876115E-01  0.51100000000E-03 0. -1.
         11    1    4    4    0    0  0.94997184112E-03 -0.22283912456E-01  0.41914004168E-01  0.47481786690E-01  0.51100000000E-03 0.  1.
</event>
<event>
 8    1  0.1065239E+005  0.1043930E+01  0.7957747E-01            NaN
         13   -1    0    0    0    0  0.00000000000E+00  0.00000000000E+00  0.74505805969E-08  0.10566000000E+00  0.10566000000E+00 0. -1.
     999900   -1    0    0    0    0 -0.00000000000E+00 -0.00000000000E+00 -0.74505805969E-08  0.93827000000E+00  0.93827000000E+00 0.  1.
     999902    2    1    2    0    0 -0.10220296862E-01  0.14913301472E-01 -0.30737605272E-01  0.10082696382E+01  0.10076388251E+01 0.  0.
     999903    2    3    3    0    0 -0.32452989456E-01 -0.88962755377E-01 -0.72430632655E-01  0.12090114856E+00  0.20082898360E-01 0.  0.
         14    1    1    2    0    0  0.10220296862E-01 -0.14913301472E-01  0.30737605272E-01  0.35660361841E-01  0.00000000000E+00 0. -1.
     999901    1    3    3    0    0  0.22232692594E-01  0.10387605685E+00  0.41693027383E-01  0.88736848960E+00  0.88000000000E+00 0.  1.
        -11    1    4    4    0    0 -0.15381552285E-01 -0.19462057777E-01 -0.23743170940E-01  0.34341856835E-01  0.51100000000E-03 0.  1.
         11    1    4    4    0    0 -0.17071437171E-01 -0.69500697601E-01 -0.48687461715E-01  0.86559291721E-01  0.51100000000E-03 0. -1.
</event>
<event>
 7    1  0.1065239E+005  0.1043930E+01  0.7957747E-01            NaN
         13   -1    0    0    0    0  0.00000000000E+00  0.00000000000E+00  0.74505805969E-08  0.10566000000E+00  0.10566000000E+00 0.  1.
     999900   -1    0    0    0    0 -0.00000000000E+00 -0.00000000000E+00 -0.74505805969E-08  0.93827000000E+00  0.93827000000E+00 0.  1.
     999903    2    1    2    0    0 -0.12502451816E-01 -0.98037164151E-01 -0.67335690502E-02  0.10090098635E+00  0.19185182781E-01 0.  0.
         14    1    1    2    0    0 -0.24885715315E-02  0.27536451922E-01  0.52031116825E-01  0.58921017394E-01  0.00000000000E+00 0. -1.
     999901    1    1    2    0    0  0.14991023348E-01  0.70500712230E-01 -0.45297547775E-01  0.88410799625E+00  0.88000000000E+00 0. -1.
        -11    1    3    3    0    0 -0.77844810495E-02 -0.55039204935E-01 -0.13269070613E-01  0.57151041819E-01  0.51100000000E-03 0. -1.
         11    1    3    3    0    0 -0.47179707670E-02 -0.42997959217E-01  0.65355015629E-02  0.43749944533E-01  0.51100000000E-03 0.  1.
</event>
<event>
 8    1  0.1065239E+005  0.1043930E+01  0.7957747E-01            NaN
         13   -1    0    0    0    0  0.00000000000E+00  0.00000000000E+00  0.74505805969E-08  0.10566000000E+00  0.10566000000E+00 0.  1.
     999900   -1    0    0    0    0 -0.00000000000E+00 -0.00000000000E+00 -0.74505805969E-08  0.93827000000E+00  0.93827000000E+00 0. -1.
     999902    2    1    2    0    0 -0.22291007253E-01 -0.11066624966E-01 -0.15913055151E-02  0.10189922486E+01  0.10186870526E+01 0.  0.
     999903    2    3    3    0    0 -0.63146207225E-01  0.10951941144E+00 -0.21150455470E-01  0.12961454485E+00  0.19252103835E-01 0.  0.
         14    1    1    2    0    0  0.22291007253E-01  0.11066624966E-01  0.15913055151E-02  0.24937751417E-01  0.00000000000E+00 0.  1.
     999901    1    3    3    0    0  0.40855199971E-01 -0.12058603641E+00  0.19559149955E-01  0.88937770373E+00  0.88000000000E+00 0. -1.
        -11    1    4    4    0    0 -0.56990409948E-01  0.85397301203E-01 -0.20560011850E-01  0.10470712052E+00  0.51100000000E-03 0.  1.
         11    1    4    4    0    0 -0.61557972766E-02  0.24122110238E-01 -0.59044362000E-03  0.24907424337E-01  0.51100000000E-03 0. -1.
</event>
<event>
 8    1  0.1065239E+005  0.1043930E+01  0.7957747E-01            NaN
         13   -1    0    0    0    0  0.00000000000E+00  0.00000000000E+00  0.74505805969E-08  0.10566000000E+00  0.10566000000E+00 0. -1.
     999900   -1    0    0    0    0 -0.00000000000E+00 -0.00000000000E+00 -0.74505805969E-08  0.93827000000E+00  0.93827000000E+00 0. -1.
     999902    2    1    2    0    0 -0.13447303593E-01 -0.29878799328E-02  0.18720081489E-01  0.10206878217E+01  0.10204231625E+01 0.  0.
     999903    2    3    3    0    0 -0.17254794606E-01  0.12163909306E+00  0.42817878772E-01  0.13157192195E+00  0.19595994593E-01 0.  0.
         14    1    1    2    0    0  0.13447303593E-01  0.29878799328E-02 -0.18720081489E-01  0.23242178284E-01  0.00000000000E+00 0.  1.
     999901    1    3    3    0    0  0.38074910123E-02 -0.12462697300E+00 -0.24097797283E-01  0.88911589977E+00  0.88000000000E+00 0. -1.
        -11    1    4    4    0    0 -0.13066572069E-01  0.47367710127E-01  0.94499241283E-02  0.50039958587E-01  0.51100000000E-03 0. -1.
         11    1    4    4    0    0 -0.41882225369E-02  0.74271382937E-01  0.33367954644E-01  0.81531963361E-01  0.51100000000E-03 0.  1.
</event>
<event>
 8    1  0.1065239E+005  0.1043930E+01  0.7957747E-01            NaN
         13   -1    0    0    0    0  0.00000000000E+00  0.00000000000E+00  0.74505805969E-08  0.10566000000E+00  0.10566000000E+00 0.  1.
     999900   -1    0    0    0    0 -0.00000000000E+00 -0.00000000000E+00 -0.74505805969E-08  0.93827000000E+00  0.93827000000E+00 0. -1.
     999902    2    1    2    0    0 -0.21983423686E-01 -0.43189432900E-03  0.66839653348E-02  0.10209488590E+01  0.10206901782E+01 0.  0.
     999903    2    3    3    0    0 -0.12969032597E+00 -0.20002731910E-01  0.19092179578E-01  0.13407921904E+00  0.19825128541E-01 0.  0.
         14    1    1    2    0    0  0.21983423686E-01  0.43189432900E-03 -0.66839653348E-02  0.22981141014E-01  0.00000000000E+00 0.  1.
     999901    1    3    3    0    0  0.10770690229E+00  0.19570837581E-01 -0.12408214244E-01  0.88686963995E+00  0.88000000000E+00 0.  1.
        -11    1    4    4    0    0 -0.11883627432E+00 -0.23147782804E-01  0.20077684699E-01  0.12272430276E+00  0.51100000000E-03 0.  1.
         11    1    4    4    0    0 -0.10854051650E-01  0.31450508938E-02 -0.98550512073E-03  0.11354916279E-01  0.51100000000E-03 0. -1.
</event>
<event>
 8    1  0.1065239E+005  0.1043930E+01  0.7957747E-01            NaN
         13   -1    0    0    0    0  0.00000000000E+00  0.00000000000E+00  0.74505805969E-08  0.10566000000E+00  0.10566000000E+00 0. -1.
     999900   -1    0    0    0    0 -0.00000000000E+00 -0.00000000000E+00 -0.74505805969E-08  0.93827000000E+00  0.93827000000E+00 0.  1.
     999902    2    1    2    0    0 -0.33611283220E-02  0.83443761141E-02 -0.21285060705E-01  0.10208220013E+01  0.10205604238E+01 0.  0.
     999903    2    3    3    0    0 -0.12768494991E+00  0.25216536604E-01  0.33535386215E-02  0.13158179581E+00  0.19057875413E-01 0.  0.
         14    1    1    2    0    0  0.33611283220E-02 -0.83443761141E-02  0.21285060705E-01  0.23107998736E-01  0.00000000000E+00 0. -1.
     999901    1    3    3    0    0  0.12432382159E+00 -0.16872160490E-01 -0.24638599327E-01  0.88924020545E+00  0.88000000000E+00 0.  1.
        -11    1    4    4    0    0 -0.11283136308E-01 -0.27176534732E-02  0.24397860121E-02  0.11870487864E-01  0.51100000000E-03 0.  1.
         11    1    4    4    0    0 -0.11640181361E+00  0.27934190077E-01  0.91375260934E-03  0.11971130795E+00  0.51100000000E-03 0. -1.
</event>
<event>
 8    1  0.1065239E+005  0.1043930E+01  0.7957747E-01            NaN
         13   -1    0    0    0    0  0.00000000000E+00  0.00000000000E+00  0.74505805969E-08  0.10566000000E+00  0.10566000000E+00 0.  1.
     999900   -1    0    0    0    0 -0.00000000000E+00 -0.00000000000E+00 -0.74505805969E-08  0.93827000000E+00  0.93827000000E+00 0.  1.
     999902    2    1    2    0    0  0.22013548468E-01  0.14775277751E-02  0.81317787871E-02  0.10204160631E+01  0.10201451056E+01 0.  0.
     999903    2    3    3    0    0  0.90793116702E-01  0.92895613923E-01 -0.17035122956E-01  0.13265411950E+00  0.20831103644E-01 0.  0.
         14    1    1    2    0    0 -0.22013548468E-01 -0.14775277751E-02 -0.81317787871E-02  0.23513936947E-01  0.00000000000E+00 0.  1.
     999901    1    3    3    0    0 -0.68779568234E-01 -0.91418086148E-01  0.25166901743E-01  0.88776194356E+00  0.88000000000E+00 0. -1.
        -11    1    4    4    0    0  0.29359564212E-01  0.35664715550E-01  0.31315257743E-02  0.46303601595E-01  0.51100000000E-03 0. -1.
         11    1    4    4    0    0  0.61433552490E-01  0.57230898373E-01 -0.20166648730E-01  0.86350517903E-01  0.51100000000E-03 0.  1.
</event>
<event>
 8    1  0.1065239E+005  0.1043930E+01  0.7957747E-01            NaN
         13   -1    0    0    0    0  0.00000000000E+00  0.00000000000E+00  0.74505805969E-08  0.10566000000E+00  0.10566000000E+00 0.  1.
     999900   -1    0    0    0    0 -0.00000000000E+00 -0.00000000000E+00 -0.74505805969E-08  0.93827000000E+00  0.93827000000E+00 0.  1.
     999902    2    1    2    0    0 -0.28835283427E-02  0.84688107381E-02  0.21171335208E-01  0.10209460725E+01  0.10206873282E+01 0.  0.
     999903    2    3    3    0    0  0.62222017199E-01  0.10021294300E+00  0.57411697476E-01  0.13304456794E+00  0.22148153003E-01 0.  0.
         14    1    1    2    0    0  0.28835283427E-02 -0.84688107381E-02 -0.21171335208E-01  0.22983927547E-01  0.00000000000E+00 0. -1.
     999901    1    3    3    0    0 -0.65105545542E-01 -0.91744132261E-01 -0.36240362268E-01  0.88790150452E+00  0.88000000000E+00 0.  1.
        -11    1    4    4    0    0  0.12893803314E-01  0.39944698250E-01  0.23399091546E-01  0.48058377920E-01  0.51100000000E-03 0. -1.
         11    1    4    4    0    0  0.49328213886E-01  0.60268244749E-01  0.34012605930E-01  0.84986190016E-01  0.51100000000E-03 0.  1.
</event>
<event>
 8    1  0.1065239E+005  0.1043930E+01  0.7957747E-01            NaN
         13   -1    0    0    0    0  0.00000000000E+00  0.00000000000E+00  0.74505805969E-08  0.10566000000E+00  0.10566000000E+00 0.  1.
     999900   -1    0    0    0    0 -0.00000000000E+00 -0.00000000000E+00 -0.74505805969E-08  0.93827000000E+00  0.93827000000E+00 0. -1.
     999902    2    1    2    0    0  0.58857632379E-02  0.19204162436E-01 -0.11138203647E-01  0.10209625960E+01  0.10207042279E+01 0.  0.
     999903    2    3    3    0    0  0.43367149819E-01  0.48714054992E-02 -0.12378959854E+00  0.13287441404E+00  0.20671355171E-01 0.  0.
         14    1    1    2    0    0 -0.58857632379E-02 -0.19204162436E-01  0.11138203647E-01  0.22967403951E-01  0.00000000000E+00 0.  1.
     999901    1    3    3    0    0 -0.37481386581E-01  0.14332756937E-01  0.11265139489E+00  0.88808818201E+00  0.88000000000E+00 0.  1.
        -11    1    4    4    0    0  0.21267751347E-01  0.12770438274E-01 -0.64111514262E-01  0.68745536022E-01  0.51100000000E-03 0. -1.
         11    1    4    4    0    0  0.22099398471E-01 -0.78990327745E-02 -0.59678084274E-01  0.64128878013E-01  0.51100000000E-03 0.  1.
</event>
<event>
 8    1  0.1065239E+005  0.1043930E+01  0.7957747E-01            NaN
         13   -1    0    0    0    0  0.00000000000E+00  0.00000000000E+00  0.74505805969E-08  0.10566000000E+00  0.10566000000E+00 0. -1.
     999900   -1    0    0    0    0 -0.00000000000E+00 -0.00000000000E+00 -0.74505805969E-08  0.93827000000E+00  0.93827000000E+00 0.  1.
     999902    2    1    2    0    0 -0.22594365878E-01  0.17215268499E-02  0.52225911724E-03  0.10212641274E+01  0.10210125740E+01 0.  0.
     999903    2    3    3    0    0 -0.34291864721E-01  0.24965739184E-01  0.12391706812E+00  0.13227402414E+00  0.18486686292E-01 0.  0.
         14    1    1    2    0    0  0.22594365878E-01 -0.17215268499E-02 -0.52225911724E-03  0.22665872556E-01  0.00000000000E+00 0.  1.
     999901    1    3    3    0    0  0.11697498844E-01 -0.23244212334E-01 -0.12339480901E+00  0.88899010331E+00  0.88000000000E+00 0.  1.
        -11    1    4    4    0    0 -0.19649370651E-01  0.18326742943E-01  0.99262645402E-01  0.10283628332E+00  0.51100000000E-03 0. -1.
         11    1    4    4    0    0 -0.14642494071E-01  0.66389962406E-02  0.24654422723E-01  0.29437740818E-01  0.51100000000E-03 0.  1.
</event>
<event>
 8    1  0.1065239E+005  0.1043930E+01  0.7957747E-01            NaN
         13   -1    0    0    0    0  0.00000000000E+00  0.00000000000E+00  0.74505805969E-08  0.10566000000E+00  0.10566000000E+00 0. -1.
     999900   -1    0    0    0    0 -0.00000000000E+00 -0.00000000000E+00 -0.74505805969E-08  0.93827000000E+00  0.93827000000E+00 0.  1.
     999902    2    1    2    0    0  0.73154006184E-02  0.19988244030E-01  0.11168340998E-01  0.10198930113E+01  0.10196097183E+01 0.  0.
     999903    2    3    3    0    0  0.99882070085E-01  0.40266627242E-01 -0.71673099216E-01  0.13093716012E+00  0.20240492926E-01 0.  0.
         14    1    1    2    0    0 -0.73154006184E-02 -0.19988244030E-01 -0.11168340998E-01  0.24036988710E-01  0.00000000000E+00 0. -1.
     999901    1    3    3    0    0 -0.92566669466E-01 -0.20278383212E-01  0.82841440214E-01  0.88895585118E+00  0.88000000000E+00 0. -1.
        -11    1    4    4    0    0  0.26746047827E-01  0.17645269608E-01 -0.29377162157E-01  0.43473962222E-01  0.51100000000E-03 0. -1.
         11    1    4    4    0    0  0.73136022258E-01  0.22621357633E-01 -0.42295937059E-01  0.87463197893E-01  0.51100000000E-03 0.  1.
</event>
<event>
 8    1  0.1065239E+005  0.1043930E+01  0.7957747E-01            NaN
         13   -1    0    0    0    0  0.00000000000E+00  0.00000000000E+00  0.74505805969E-08  0.10566000000E+00  0.10566000000E+00 0.  1.
     999900   -1    0    0    0    0 -0.00000000000E+00 -0.00000000000E+00 -0.74505805969E-08  0.93827000000E+00  0.93827000000E+00 0.  1.
     999902    2    1    2    0    0 -0.78745418504E-02 -0.50971836680E-02 -0.22009100195E-01  0.10200053227E+01  0.10197247022E+01 0.  0.
     999903    2    3    3    0    0 -0.24069487105E-01 -0.11835392061E+00  0.44736956354E-01  0.13009274232E+00  0.18323089469E-01 0.  0.
         14    1    1    2    0    0  0.78745418504E-02  0.50971836680E-02  0.22009100195E-01  0.23924677262E-01  0.00000000000E+00 0.  1.
     999901    1    3    3    0    0  0.16194945255E-01  0.11325673694E+00 -0.66746056549E-01  0.88991258041E+00  0.88000000000E+00 0.  1.
        -11    1    4    4    0    0 -0.16264907733E-01 -0.41741543748E-01  0.11763909856E-01  0.46320129470E-01  0.51100000000E-03 0.  1.
         11    1    4    4    0    0 -0.78045793722E-02 -0.76612376864E-01  0.32973046498E-01  0.83772612853E-01  0.51100000000E-03 0. -1.
</event>
<event>
 8    1  0.1065239E+005  0.1043930E+01  0.7957747E-01            NaN
         13   -1    0    0    0    0  0.00000000000E+00  0.00000000000E+00  0.74505805969E-08  0.10566000000E+00  0.10566000000E+00 0. -1.
     999900   -1    0    0    0    0 -0.00000000000E+00 -0.00000000000E+00 -0.74505805969E-08  0.93827000000E+00  0.93827000000E+00 0. -1.
     999902    2    1    2    0    0  0.18676524777E-04 -0.20790266957E-01 -0.86464834930E-02  0.10214134011E+01  0.10211651868E+01 0.  0.
     999903    2    3    3    0    0 -0.10826846337E+00 -0.20309639423E-01  0.67962981965E-01  0.13147219751E+00  0.23052769596E-01 0.  0.
         14    1    1    2    0    0 -0.18676524777E-04  0.20790266957E-01  0.86464834930E-02  0.22516598894E-01  0.00000000000E+00 0. -1.
     999901    1    3    3    0    0  0.10828713989E+00 -0.48062753389E-03 -0.76609465458E-01  0.88994120360E+00  0.88000000000E+00 0.  1.
        -11    1    4    4    0    0 -0.40953211944E-02  0.36568439718E-02  0.47955280971E-02  0.73076928130E-02  0.51100000000E-03 0.  1.
         11    1    4    4    0    0 -0.10417314217E+00 -0.23966483395E-01  0.63167453868E-01  0.12416450469E+00  0.51100000000E-03 0. -1.
</event>
<event>
 8    1  0.1065239E+005  0.1043930E+01  0.7957747E-01            NaN
         13   -1    0    0    0    0  0.00000000000E+00  0.00000000000E+00  0.74505805969E-08  0.10566000000E+00  0.10566000000E+00 0.  1.
     999900   -1    0    0    0    0 -0.00000000000E+00 -0.00000000000E+00 -0.74505805969E-08  0.93827000000E+00  0.93827000000E+00 0.  1.
     999902    2    1    2    0    0  0.56814043687E-02  0.12460609583E-01 -0.19758115792E-01  0.10198898609E+01  0.10196064928E+01 0.  0.
     999903    2    3    3    0    0  0.93946515627E-01  0.84380397802E-01 -0.32533559137E-01  0.13246302014E+00  0.23281320905E-01 0.  0.
         14    1    1    2    0    0 -0.56814043687E-02 -0.12460609583E-01  0.19758115792E-01  0.24040139069E-01  0.00000000000E+00 0.  1.
     999901    1    3    3    0    0 -0.88265111258E-01 -0.71919788219E-01  0.12775443345E-01  0.88742684079E+00  0.88000000000E+00 0. -1.
        -11    1    4    4    0    0  0.58079953985E-01  0.44065377866E-01 -0.85330780409E-02  0.73403767773E-01  0.51100000000E-03 0. -1.
         11    1    4    4    0    0  0.35866561642E-01  0.40315019936E-01 -0.24000481096E-01  0.59059252368E-01  0.51100000000E-03 0.  1.
</event>
<event>
 8    1  0.1065239E+005  0.1043930E+01  0.7957747E-01            NaN
         13   -1    0    0    0    0  0.00000000000E+00  0.00000000000E+00  0.74505805969E-08  0.10566000000E+00  0.10566000000E+00 0.  1.
     999900   -1    0    0    0    0 -0.00000000000E+00 -0.00000000000E+00 -0.74505805969E-08  0.93827000000E+00  0.93827000000E+00 0.  1.
     999902    2    1    2    0    0 -0.93791138199E-02 -0.22146270761E-01 -0.52374358416E-02  0.10193158614E+01  0.10190186306E+01 0.  0.
     999903    2    3    3    0    0 -0.32975056209E-02  0.10379934438E+00  0.70499660795E-01  0.12710770647E+00  0.20024720585E-01 0.  0.
         14    1    1    2    0    0  0.93791138199E-02  0.22146270761E-01  0.52374358416E-02  0.24614138597E-01  0.00000000000E+00 0. -1.
     999901    1    3    3    0    0 -0.60816081990E-02 -0.12594561514E+00 -0.75737096637E-01  0.89220815494E+00  0.88000000000E+00 0.  1.
        -11    1    4    4    0    0  0.70257522443E-02  0.18089611176E-01  0.11966356238E-01  0.22804605449E-01  0.51100000000E-03 0. -1.
         11    1    4    4    0    0 -0.10323257865E-01  0.85709733200E-01  0.58533304557E-01  0.10430310102E+00  0.51100000000E-03 0.  1.
</event>
<event>
 8    1  0.1065239E+005  0.1043930E+01  0.7957747E-01            NaN
         13   -1    0    0    0    0  0.00000000000E+00  0.00000000000E+00  0.74505805969E-08  0.10566000000E+00  0.10566000000E+00 0.  1.
     999900   -1    0    0    0    0 -0.00000000000E+00 -0.00000000000E+00 -0.74505805969E-08  0.93827000000E+00  0.93827000000E+00 0. -1.
     999902    2    1    2    0    0  0.25252585130E-01  0.27593721193E-02  0.18237237981E-01  0.10126585427E+01  0.10121755876E+01 0.  0.
     999903    2    3    3    0    0 -0.39159810291E-01 -0.95929125463E-01  0.64341599217E-01  0.12360624486E+00  0.20069243229E-01 0.  0.
         14    1    1    2    0    0 -0.25252585130E-01 -0.27593721193E-02 -0.18237237981E-01  0.31271457264E-01  0.00000000000E+00 0. -1.
     999901    1    3    3    0    0  0.64412395421E-01  0.98688497582E-01 -0.46104361236E-01  0.88905229788E+00  0.88000000000E+00 0.  1.
        -11    1    4    4    0    0 -0.17081082193E-01 -0.44833229698E-01  0.41501195678E-01  0.63438097526E-01  0.51100000000E-03 0.  1.
         11    1    4    4    0    0 -0.22078728098E-01 -0.51095895764E-01  0.22840403539E-01  0.60168147331E-01  0.51100000000E-03 0. -1.
</event>
<event>
 8    1  0.1065239E+005  0.1043930E+01  0.7957747E-01            NaN
         13   -1    0    0    0    0  0.00000000000E+00  0.00000000000E+00  0.74505805969E-08  0.10566000000E+00  0.10566000000E+00 0.  1.
     999900   -1    0    0    0    0 -0.00000000000E+00 -0.00000000000E+00 -0.74505805969E-08  0.93827000000E+00  0.93827000000E+00 0. -1.
     999902    2    1    2    0    0 -0.11911271463E-01  0.20729429718E-01 -0.47843456550E-02  0.10195480885E+01  0.10192565071E+01 0.  0.
     999903    2    3    3    0    0  0.73000651527E-01 -0.51864913685E-01  0.88847570178E-01  0.12755766871E+00  0.18920986379E-01 0.  0.
         14    1    1    2    0    0  0.11911271463E-01 -0.20729429718E-01  0.47843456550E-02  0.24381911485E-01  0.00000000000E+00 0.  1.
     999901    1    3    3    0    0 -0.84911922990E-01  0.72594343404E-01 -0.93631915833E-01  0.89199041980E+00  0.88000000000E+00 0. -1.
        -11    1    4    4    0    0  0.27574249104E-01 -0.13013867139E-01  0.20435593618E-01  0.36709325234E-01  0.51100000000E-03 0.  1.
         11    1    4    4    0    0  0.45426402422E-01 -0.38851046546E-01  0.68411976559E-01  0.90848343477E-01  0.51100000000E-03 0. -1.
</event>
<event>
 8    1  0.1065239E+005  0.1043930E+01  0.7957747E-01            NaN
         13   -1    0    0    0    0  0.00000000000E+00  0.00000000000E+00  0.74505805969E-08  0.10566000000E+00  0.10566000000E+00 0.  1.
     999900   -1    0    0    0    0 -0.00000000000E+00 -0.00000000000E+00 -0.74505805969E-08  0.93827000000E+00  0.93827000000E+00 0. -1.
     999902    2    1    2    0    0 -0.79065076710E-02  0.10397778978E-01 -0.20308908762E-01  0.10197829827E+01  0.10194970590E+01 0.  0.
     999903    2    3    3    0    0  0.38880352300E-01 -0.75022747892E-01 -0.98030595566E-01  0.13100498042E+00  0.20303022690E-01 0.  0.
         14    1    1    2    0    0  0.79065076710E-02 -0.10397778978E-01  0.20308908762E-01  0.24147017339E-01  0.00000000000E+00 0.  1.
     999901    1    3    3    0    0 -0.46786859971E-01  0.85420526870E-01  0.77721686804E-01  0.88877800225E+00  0.88000000000E+00 0.  1.
        -11    1    4    4    0    0  0.38194670893E-01 -0.60483099649E-01 -0.74137813022E-01  0.10302288420E+00  0.51100000000E-03 0.  1.
         11    1    4    4    0    0  0.68568140696E-03 -0.14539648243E-01 -0.23892782544E-01  0.27982096217E-01  0.51100000000E-03 0. -1.
</event>
<event>
 8    1  0.1065239E+005  0.1043930E+01  0.7957747E-01            NaN
         13   -1    0    0    0    0  0.00000000000E+00  0.00000000000E+00  0.74505805969E-08  0.10566000000E+00  0.10566000000E+00 0. -1.
     999900   -1    0    0    0    0 -0.00000000000E+00 -0.00000000000E+00 -0.74505805969E-08  0.93827000000E+00  0.93827000000E+00 0.  1.
     999902    2    1    2    0    0  0.94061698772E-02 -0.17849189421E-01  0.11298922993E-01  0.10208056566E+01  0.10205437048E+01 0.  0.
     999903    2    3    3    0    0  0.95410345052E-01  0.15740720494E-02 -0.86774807088E-01  0.13097846119E+00  0.22800844412E-01 0.  0.
         14    1    1    2    0    0 -0.94061698772E-02  0.17849189421E-01 -0.11298922993E-01  0.23124343354E-01  0.00000000000E+00 0. -1.
     999901    1    3    3    0    0 -0.86004175175E-01 -0.19423261470E-01  0.98073730081E-01  0.88982719545E+00  0.88000000000E+00 0.  1.
        -11    1    4    4    0    0  0.17800721556E-01  0.47457441961E-02 -0.28218134646E-01  0.33703293901E-01  0.51100000000E-03 0.  1.
         11    1    4    4    0    0  0.77609623496E-01 -0.31716721467E-02 -0.58556672442E-01  0.97275167293E-01  0.51100000000E-03 0. -1.
</event>
<event>
 8    1  0.1065239E+005  0.1043930E+01  0.7957747E-01            NaN
         13   -1    0    0    0    0  0.00000000000E+00  0.00000000000E+00  0.74505805969E-08  0.10566000000E+00  0.10566000000E+00 0. -1.
     999900   -1    0    0    0    0 -0.00000000000E+00 -0.00000000000E+00 -0.74505805969E-08  0.93827000000E+00  0.93827000000E+00 0. -1.
     999902    2    1    2    0    0  0.24974646776E-02  0.23457467624E-01 -0.20625686099E-02  0.10202499597E+01  0.10199751154E+01 0.  0.
     999903    2    3    3    0    0 -0.89445874325E-01 -0.45646472192E-01  0.78726159373E-01  0.12909579202E+00  0.19589550544E-01 0.  0.
         14    1    1    2    0    0 -0.24974646776E-02 -0.23457467624E-01  0.20625686099E-02  0.23680040254E-01  0.00000000000E+00 0.  1.
     999901    1    3    3    0    0  0.91943339003E-01  0.69103939816E-01 -0.80788727983E-01  0.89115416773E+00  0.88000000000E+00 0. -1.
        -11    1    4    4    0    0 -0.57920385715E-01 -0.26889452521E-01  0.61148907970E-01  0.88415291693E-01  0.51100000000E-03 0.  1.
         11    1    4    4    0    0 -0.31525488610E-01 -0.18757019671E-01  0.17577251403E-01  0.40680500328E-01  0.51100000000E-03 0. -1.
</event>
<event>
 8    1  0.1065239E+005  0.1043930E+01  0.7957747E-01            NaN
         13   -1    0    0    0    0  0.00000000000E+00  0.00000000000E+00  0.74505805969E-08  0.10566000000E+00  0.10566000000E+00 0. -1.
     999900   -1    0    0    0    0 -0.00000000000E+00 -0.00000000000E+00 -0.74505805969E-08  0.93827000000E+00  0.93827000000E+00 0. -1.
     999902    2    1    2    0    0  0.46579976360E-02 -0.32962301818E-02  0.23960110411E-01  0.10192997550E+01  0.10190021304E+01 0.  0.
     999903    2    3    3    0    0 -0.95915967742E-01  0.71420874604E-01 -0.41166673802E-01  0.12804262813E+00  0.19985129223E-01 0.  0.
         14    1    1    2    0    0 -0.46579976360E-02  0.32962301818E-02 -0.23960110411E-01  0.24630244950E-01  0.00000000000E+00 0.  1.
     999901    1    3    3    0    0  0.10057396538E+00 -0.74717104786E-01  0.65126784213E-01  0.89125712692E+00  0.88000000000E+00 0. -1.
        -11    1    4    4    0    0 -0.37204054892E-01  0.39579718769E-01 -0.15526522202E-01  0.56498051745E-01  0.51100000000E-03 0. -1.
         11    1    4    4    0    0 -0.58711912850E-01  0.31841155834E-01 -0.25640151601E-01  0.71544576388E-01  0.51100000000E-03 0.  1.
</event>
<event>
 8    1  0.1065239E+005  0.1043930E+01  0.7957747E-01            NaN
         13   -1    0    0    0    0  0.00000000000E+00  0.00000000000E+00  0.74505805969E-08  0.10566000000E+00  0.10566000000E+00 0. -1.
     999900   -1    0    0    0    0 -0.00000000000E+00 -0.00000000000E+00 -0.74505805969E-08  0.93827000000E+00  0.93827000000E+00 0.  1.
     999902    2    1    2    0    0  0.18639155490E-01 -0.10286470315E-01  0.98466517465E-02  0.10204739530E+01  0.10202043436E+01 0.  0.
     999903    2    3    3    0    0  0.61003859960E-01 -0.52034872975E-01  0.10474968028E+00  0.13337515237E+00  0.19680874361E-01 0.  0.
         14    1    1    2    0    0 -0.18639155490E-01  0.10286470315E-01 -0.98466517465E-02  0.23456046972E-01  0.00000000000E+00 0. -1.
     999901    1    3    3    0    0 -0.42364704470E-01  0.41748402660E-01 -0.94903028529E-01  0.88709880066E+00  0.88000000000E+00 0.  1.
        -11    1    4    4    0    0  0.34834802078E-01 -0.19813103439E-01  0.41283043444E-01  0.57537581638E-01  0.51100000000E-03 0. -1.
         11    1    4    4    0    0  0.26169057882E-01 -0.32221769535E-01  0.63466636832E-01  0.75837570729E-01  0.51100000000E-03 0.  1.
</event>
<event>
 8    1  0.1065239E+005  0.1043930E+01  0.7957747E-01            NaN
         13   -1    0    0    0    0  0.00000000000E+00  0.00000000000E+00  0.74505805969E-08  0.10566000000E+00  0.10566000000E+00 0.  1.
     999900   -1    0    0    0    0 -0.00000000000E+00 -0.00000000000E+00 -0.74505805969E-08  0.93827000000E+00  0.93827000000E+00 0. -1.
     999902    2    1    2    0    0  0.36500116851E-02 -0.23427857539E-01  0.23559973816E-02  0.10201027505E+01  0.10198244377E+01 0.  0.
     999903    2    3    3    0    0  0.44558859373E-01 -0.99248861445E-01 -0.73400845693E-01  0.13265615622E+00  0.19342781316E-01 0.  0.
         14    1    1    2    0    0 -0.36500116851E-02  0.23427857539E-01 -0.23559973816E-02  0.23827249481E-01  0.00000000000E+00 0.  1.
     999901    1    3    3    0    0 -0.40908847688E-01  0.75821003907E-01  0.75756843075E-01  0.88744659429E+00  0.88000000000E+00 0.  1.
        -11    1    4    4    0    0  0.13463220490E-02 -0.54893490208E-02  0.49319005141E-03  0.56964807696E-02  0.51100000000E-03 0.  1.
         11    1    4    4    0    0  0.43212537324E-01 -0.93759512424E-01 -0.73894035745E-01  0.12695967546E+00  0.51100000000E-03 0. -1.
</event>
<event>
 8    1  0.1065239E+005  0.1043930E+01  0.7957747E-01            NaN
         13   -1    0    0    0    0  0.00000000000E+00  0.00000000000E+00  0.74505805969E-08  0.10566000000E+00  0.10566000000E+00 0. -1.
     999900   -1    0    0    0    0 -0.00000000000E+00 -0.00000000000E+00 -0.74505805969E-08  0.93827000000E+00  0.93827000000E+00 0.  1.
     999902    2    1    2    0    0  0.12517386139E-01  0.19615763414E-01 -0.88479076693E-02  0.10190352495E+01  0.10187311182E+01 0.  0.
     999903    2    3    3    0    0  0.43460059034E-01  0.99948176297E-01 -0.72647405927E-01  0.13253588601E+00  0.20241067586E-01 0.  0.
         14    1    1    2    0    0 -0.12517386139E-01 -0.19615763414E-01  0.88479076693E-02  0.24894750455E-01  0.00000000000E+00 0. -1.
     999901    1    3    3    0    0 -0.30942672896E-01 -0.80332412882E-01  0.63799498258E-01  0.88649936353E+00  0.88000000000E+00 0. -1.
        -11    1    4    4    0    0  0.22802609396E-01  0.28851618824E-01 -0.22550151871E-01  0.43140994129E-01  0.51100000000E-03 0.  1.
         11    1    4    4    0    0  0.20657449639E-01  0.71096557473E-01 -0.50097254057E-01  0.89394891884E-01  0.51100000000E-03 0. -1.
</event>
<event>
 8    1  0.1065239E+005  0.1043930E+01  0.7957747E-01            NaN
         13   -1    0    0    0    0  0.00000000000E+00  0.00000000000E+00  0.74505805969E-08  0.10566000000E+00  0.10566000000E+00 0. -1.
     999900   -1    0    0    0    0 -0.00000000000E+00 -0.00000000000E+00 -0.74505805969E-08  0.93827000000E+00  0.93827000000E+00 0. -1.
     999902    2    1    2    0    0  0.70133009770E-02 -0.18960725063E-02 -0.22251977064E-01  0.10205220534E+01  0.10202535614E+01 0.  0.
     999903    2    3    3    0    0  0.73347400617E-01  0.73244136662E-01 -0.80765263784E-01  0.13290160041E+00  0.19881217914E-01 0.  0.
         14    1    1    2    0    0 -0.70133009770E-02  0.18960725063E-02  0.22251977064E-01  0.23407946616E-01  0.00000000000E+00 0. -1.
     999901    1    3    3    0    0 -0.66334099640E-01 -0.75140209168E-01  0.58513286720E-01  0.88762045297E+00  0.88000000000E+00 0.  1.
        -11    1    4    4    0    0  0.10094765120E-01  0.15675801769E-01 -0.68873689013E-02  0.19882957912E-01  0.51100000000E-03 0.  1.
         11    1    4    4    0    0  0.63252635497E-01  0.57568334892E-01 -0.73877894883E-01  0.11301864250E+00  0.51100000000E-03 0. -1.
</event>
<event>
 8    1  0.1065239E+005  0.1043930E+01  0.7957747E-01            NaN
         13   -1    0    0    0    0  0.00000000000E+00  0.00000000000E+00  0.74505805969E-08  0.10566000000E+00  0.10566000000E+00 0.  1.
     999900   -1    0    0    0    0 -0.00000000000E+00 -0.00000000000E+00 -0.74505805969E-08  0.93827000000E+00  0.93827000000E+00 0. -1.
     999902    2    1    2    0    0  0.38536157732E-02  0.11384649063E-02 -0.22797456843E-01  0.10207811232E+01  0.10205186089E+01 0.  0.
     999903    2    3    3    0    0 -0.38687103380E-01  0.24678513085E-01 -0.12390000883E+00  0.13365905009E+00  0.20194269102E-01 0.  0.
         14    1    1    2    0    0 -0.38536157732E-02 -0.11384649063E-02  0.22797456843E-01  0.23148876763E-01  0.00000000000E+00 0.  1.
     999901    1    3    3    0    0  0.42540719153E-01 -0.23540048179E-01  0.10110255199E+00  0.88712207315E+00  0.88000000000E+00 0.  1.
        -11    1    4    4    0    0 -0.20922717387E-01  0.83417934799E-02 -0.84500523911E-01  0.87452531601E-01  0.51100000000E-03 0.  1.
         11    1    4    4    0    0 -0.17764385993E-01  0.16336719605E-01 -0.39399484924E-01  0.46206518484E-01  0.51100000000E-03 0. -1.
</event>
<event>
 8    1  0.1065239E+005  0.1043930E+01  0.7957747E-01            NaN
         13   -1    0    0    0    0  0.00000000000E+00  0.00000000000E+00  0.74505805969E-08  0.10566000000E+00  0.10566000000E+00 0. -1.
     999900   -1    0    0    0    0 -0.00000000000E+00 -0.00000000000E+00 -0.74505805969E-08  0.93827000000E+00  0.93827000000E+00 0. -1.
     999902    2    1    2    0    0 -0.72334427366E-02 -0.10473185769E-01 -0.19970812535E-01  0.10202478619E+01  0.10199729682E+01 0.  0.
     999903    2    3    3    0    0 -0.11146067004E+00 -0.67770027481E-01 -0.36467378618E-02  0.13209656934E+00  0.20492616787E-01 0.  0.
         14    1    1    2    0    0  0.72334427366E-02  0.10473185769E-01  0.19970812535E-01  0.23682138148E-01  0.00000000000E+00 0. -1.
     999901    1    3    3    0    0  0.10422722730E+00  0.57296841712E-01 -0.16324074673E-01  0.88815129251E+00  0.88000000000E+00 0.  1.
        -11    1    4    4    0    0 -0.41740695178E-01 -0.37202061667E-01 -0.19318396965E-02  0.55948835125E-01  0.51100000000E-03 0. -1.
         11    1    4    4    0    0 -0.69719974863E-01 -0.30567965814E-01 -0.17148981653E-02  0.76147734212E-01  0.51100000000E-03 0.  1.
</event>
<event>
 8    1  0.1065239E+005  0.1043930E+01  0.7957747E-01            NaN
         13   -1    0    0    0    0  0.00000000000E+00  0.00000000000E+00  0.74505805969E-08  0.10566000000E+00  0.10566000000E+00 0. -1.
     999900   -1    0    0    0    0 -0.00000000000E+00 -0.00000000000E+00 -0.74505805969E-08  0.93827000000E+00  0.93827000000E+00 0.  1.
     999902    2    1    2    0    0 -0.72255523570E-02  0.16316321078E-01 -0.23527238154E-01  0.10144009994E+01  0.10139711168E+01 0.  0.
     999903    2    3    3    0    0  0.78102090554E-01  0.81799211199E-01  0.49613237008E-01  0.12484024002E+00  0.18236357668E-01 0.  0.
         14    1    1    2    0    0  0.72255523570E-02 -0.16316321078E-01  0.23527238154E-01  0.29529000584E-01  0.00000000000E+00 0. -1.
     999901    1    3    3    0    0 -0.85327642911E-01 -0.65482890121E-01 -0.73140475162E-01  0.88956075939E+00  0.88000000000E+00 0.  1.
        -11    1    4    4    0    0  0.14072244608E-01  0.22700866878E-01  0.17692977350E-01  0.32041535447E-01  0.51100000000E-03 0. -1.
         11    1    4    4    0    0  0.64029845946E-01  0.59098344321E-01  0.31920259659E-01  0.92798704576E-01  0.51100000000E-03 0.  1.
</event>
<event>
 8    1  0.1065239E+005  0.1043930E+01  0.7957747E-01            NaN
         13   -1    0    0    0    0  0.00000000000E+00  0.00000000000E+00  0.74505805969E-08  0.10566000000E+00  0.10566000000E+00 0. -1.
     999900   -1    0    0    0    0 -0.00000000000E+00 -0.00000000000E+00 -0.74505805969E-08  0.93827000000E+00  0.93827000000E+00 0.  1.
     999902    2    1    2    0    0  0.22846283734E-01 -0.14718912240E-01 -0.10611897006E-01  0.10147544723E+01  0.10143349682E+01 0.  0.
     999903    2    3    3    0    0  0.66750383432E-01 -0.35703530452E-01 -0.10210894205E+00  0.12867341878E+00  0.20006420915E-01 0.  0.
         14    1    1    2    0    0 -0.22846283734E-01  0.14718912240E-01  0.10611897006E-01  0.29175527691E-01  0.00000000000E+00 0. -1.
     999901    1    3    3    0    0 -0.43904099698E-01  0.20984618212E-01  0.91497045049E-01  0.88608105353E+00  0.88000000000E+00 0. -1.
        -11    1    4    4    0    0  0.10882251692E-01 -0.11868857431E-01 -0.12379456654E-01  0.20317609275E-01  0.51100000000E-03 0.  1.
         11    1    4    4    0    0  0.55868131740E-01 -0.23834673022E-01 -0.89729485400E-01  0.10835580950E+00  0.51100000000E-03 0. -1.
</event>
<event>
 8    1  0.1065239E+005  0.1043930E+01  0.7957747E-01            NaN
         13   -1    0    0    0    0  0.00000000000E+00  0.00000000000E+00  0.74505805969E-08  0.10566000000E+00  0.10566000000E+00 0.  1.
     999900   -1    0    0    0    0 -0.00000000000E+00 -0.00000000000E+00 -0.74505805969E-08  0.93827000000E+00  0.93827000000E+00 0.  1.
     999902    2    1    2    0    0  0.19108292236E-02 -0.30593212834E-02  0.23022567460E-01  0.10206265812E+01  0.10203605093E+01 0.  0.
     999903    2    3    3    0    0  0.36122310280E-02 -0.11645601054E+00 -0.53835670277E-01  0.13002628219E+00  0.20820760343E-01 0.  0.
         14    1    1    2    0    0 -0.19108292236E-02  0.30593212834E-02 -0.23022567460E-01  0.23303418793E-01  0.00000000000E+00 0. -1.
     999901    1    3    3    0    0 -0.17014018044E-02  0.11339668926E+00  0.76858237736E-01  0.89060029902E+00  0.88000000000E+00 0. -1.
        -11    1    4    4    0    0  0.96048282771E-02 -0.96366822312E-01 -0.39325631194E-01  0.10452551630E+00  0.51100000000E-03 0.  1.
         11    1    4    4    0    0 -0.59925972491E-02 -0.20089188230E-01 -0.14510039082E-01  0.25500765885E-01  0.51100000000E-03 0. -1.
</event>
<event>
 8    1  0.1065239E+005  0.1043930E+01  0.7957747E-01            NaN
         13   -1    0    0    0    0  0.00000000000E+00  0.00000000000E+00  0.74505805969E-08  0.10566000000E+00  0.10566000000E+00 0. -1.
     999900   -1    0    0    0    0 -0.00000000000E+00 -0.00000000000E+00 -0.74505805969E-08  0.93827000000E+00  0.93827000000E+00 0.  1.
     999902    2    1    2    0    0 -0.19709292415E-01  0.24216247279E-01 -0.15821393720E-01  0.10089271524E+01  0.10083197903E+01 0.  0.
     999903    2    3    3    0    0  0.11318493387E+00  0.29007210998E-01 -0.95383637302E-02  0.11891405971E+00  0.19933029618E-01 0.  0.
         14    1    1    2    0    0  0.19709292415E-01 -0.24216247279E-01  0.15821393720E-01  0.35002847585E-01  0.00000000000E+00 0. -1.
     999901    1    3    3    0    0 -0.13289422629E+00 -0.47909637186E-02 -0.62830299901E-02  0.89001309270E+00  0.88000000000E+00 0.  1.
        -11    1    4    4    0    0  0.14301345254E-01  0.10766120990E-01 -0.29056101039E-02  0.18142258082E-01  0.51100000000E-03 0.  1.
         11    1    4    4    0    0  0.98883588617E-01  0.18241090008E-01 -0.66327536263E-02  0.10077180163E+00  0.51100000000E-03 0. -1.
</event>
<event>
 8    1  0.1065239E+005  0.1043930E+01  0.7957747E-01            NaN
         13   -1    0    0    0    0  0.00000000000E+00  0.00000000000E+00  0.74505805969E-08  0.10566000000E+00  0.10566000000E+00 0.  1.
     999900   -1    0    0    0    0 -0.00000000000E+00 -0.00000000000E+00 -0.74505805969E-08  0.93827000000E+00  0.93827000000E+00 0.  1.
     999902    2    1    2    0    0 -0.28602366296E-02 -0.17410195304E-01 -0.15684708561E-01  0.10203226720E+01  0.10200495326E+01 0.  0.
     999903    2    3    3    0    0 -0.31465979915E-02 -0.39078520403E-01  0.12178236645E+00  0.12938676236E+00  0.19312111799E-01 0.  0.
         14    1    1    2    0    0  0.28602366296E-02  0.17410195304E-01  0.15684708561E-01  0.23607328030E-01  0.00000000000E+00 0.  1.
     999901    1    3    3    0    0  0.28636136191E-03  0.21668325099E-01 -0.13746707501E+00  0.89093590961E+00  0.88000000000E+00 0.  1.
        -11    1    4    4    0    0 -0.30937694315E-03 -0.40311346159E-01  0.10874702716E+00  0.11597964209E+00  0.51100000000E-03 0. -1.
         11    1    4    4    0    0 -0.28372210484E-02  0.12328257563E-02  0.13035339287E-01  0.13407120270E-01  0.51100000000E-03 0.  1.
</event>
<event>
 8    1  0.1065239E+005  0.1043930E+01  0.7957747E-01            NaN
         13   -1    0    0    0    0  0.00000000000E+00  0.00000000000E+00  0.74505805969E-08  0.10566000000E+00  0.10566000000E+00 0.  1.
     999900   -1    0    0    0    0 -0.00000000000E+00 -0.00000000000E+00 -0.74505805969E-08  0.93827000000E+00  0.93827000000E+00 0. -1.
     999902    2    1    2    0    0 -0.14007972980E-01  0.45474922382E-02  0.20758875194E-01  0.10184774188E+01  0.10181593287E+01 0.  0.
     999903    2    3    3    0    0  0.35026980708E-01 -0.11571405458E+00 -0.34168727975E-01  0.12725112431E+00  0.20216697604E-01 0.  0.
         14    1    1    2    0    0  0.14007972980E-01 -0.45474922382E-02 -0.20758875194E-01  0.25452581244E-01  0.00000000000E+00 0. -1.
     999901    1    3    3    0    0 -0.49034953688E-01  0.12026154682E+00  0.54927603169E-01  0.89122629445E+00  0.88000000000E+00 0.  1.
        -11    1    4    4    0    0  0.24419766664E-01 -0.63722269266E-01 -0.28241382371E-01  0.73855869120E-01  0.51100000000E-03 0.  1.
         11    1    4    4    0    0  0.10607214044E-01 -0.51991785312E-01 -0.59273456040E-02  0.53395255188E-01  0.51100000000E-03 0. -1.
</event>
<event>
 8    1  0.1065239E+005  0.1043930E+01  0.7957747E-01            NaN
         13   -1    0    0    0    0  0.00000000000E+00  0.00000000000E+00  0.74505805969E-08  0.10566000000E+00  0.10566000000E+00 0.  1.
     999900   -1    0    0    0    0 -0.00000000000E+00 -0.00000000000E+00 -0.74505805969E-08  0.93827000000E+00  0.93827000000E+00 0.  1.
     999902    2    1    2    0    0  0.77739777149E-02  0.22406539323E-01  0.39616400380E-02  0.10198845779E+01  0.10196010837E+01 0.  0.
     999903    2    3    3    0    0  0.25121860101E-01 -0.12284683509E+00 -0.13689025696E-01  0.12763403132E+00  0.19509069215E-01 0.  0.
         14    1    1    2    0    0 -0.77739777149E-02 -0.22406539323E-01 -0.39616400380E-02  0.24045422136E-01  0.00000000000E+00 0. -1.
     999901    1    3    3    0    0 -0.17347882386E-01  0.14525337441E+00  0.17650665734E-01  0.89225054654E+00  0.88000000000E+00 0. -1.
        -11    1    4    4    0    0 -0.31829127449E-02 -0.13705191018E-01 -0.28116286246E-02  0.14357213202E-01  0.51100000000E-03 0. -1.
         11    1    4    4    0    0  0.28304772846E-01 -0.10914164407E+00 -0.10877397071E-01  0.11327681812E+00  0.51100000000E-03 0.  1.
</event>
<event>
 8    1  0.1200935E+005  0.1043930E+01  0.7957747E-01            NaN
         13   -1    0    0    0    0  0.00000000000E+00  0.00000000000E+00  0.74505805969E-08  0.10566000000E+00  0.10566000000E+00 0. -1.
     999900   -1    0    0    0    0 -0.00000000000E+00 -0.00000000000E+00 -0.74505805969E-08  0.93827000000E+00  0.93827000000E+00 0. -1.
     999902    2    1    2    0    0  0.23627816396E-01  0.56868139975E-02 -0.44873698596E-02  0.10192166423E+01  0.10189169809E+01 0.  0.
     999903    2    3    3    0    0  0.74238463619E-01  0.28751506595E-02  0.10587677201E+00  0.13087572413E+00  0.19973691319E-01 0.  0.
         14    1    1    2    0    0 -0.23627816396E-01 -0.56868139975E-02  0.44873698596E-02  0.24713357710E-01  0.00000000000E+00 0. -1.
     999901    1    3    3    0    0 -0.50610647224E-01  0.28116633380E-02 -0.11036414187E+00  0.88834091816E+00  0.88000000000E+00 0. -1.
        -11    1    4    4    0    0  0.42888910797E-01  0.28595554916E-02  0.77321031274E-01  0.88467161847E-01  0.51100000000E-03 0. -1.
         11    1    4    4    0    0  0.31349552822E-01  0.15595167950E-04  0.28555740731E-01  0.42408562285E-01  0.51100000000E-03 0.  1.
</event>
<event>
 8    1  0.1065239E+005  0.1043930E+01  0.7957747E-01            NaN
         13   -1    0    0    0    0  0.00000000000E+00  0.00000000000E+00  0.74505805969E-08  0.10566000000E+00  0.10566000000E+00 0.  1.
     999900   -1    0    0    0    0 -0.00000000000E+00 -0.00000000000E+00 -0.74505805969E-08  0.93827000000E+00  0.93827000000E+00 0.  1.
     999902    2    1    2    0    0 -0.17660024398E-01  0.14290793754E-01  0.46174510066E-03  0.10212074021E+01  0.10209545737E+01 0.  0.
     999903    2    3    3    0    0  0.26550185519E-01  0.97992631263E-02 -0.12641645282E+00  0.13099799210E+00  0.19452929870E-01 0.  0.
         14    1    1    2    0    0  0.17660024398E-01 -0.14290793754E-01 -0.46174510066E-03  0.22722597924E-01  0.00000000000E+00 0. -1.
     999901    1    3    3    0    0 -0.44210209917E-01  0.44915306277E-02  0.12687819792E+00  0.89020940998E+00  0.88000000000E+00 0. -1.
        -11    1    4    4    0    0  0.15818752677E-01  0.14851346437E-01 -0.94079245040E-01  0.96550302411E-01  0.51100000000E-03 0. -1.
         11    1    4    4    0    0  0.10731432841E-01 -0.50520833112E-02 -0.32337207781E-01  0.34447689686E-01  0.51100000000E-03 0.  1.
</event>
<event>
 8    1  0.1065239E+005  0.1043930E+01  0.7957747E-01            NaN
         13   -1    0    0    0    0  0.00000000000E+00  0.00000000000E+00  0.74505805969E-08  0.10566000000E+00  0.10566000000E+00 0. -1.
     999900   -1    0    0    0    0 -0.00000000000E+00 -0.00000000000E+00 -0.74505805969E-08  0.93827000000E+00  0.93827000000E+00 0.  1.
     999902    2    1    2    0    0  0.81593239278E-02 -0.14095786292E-01  0.17225905417E-01  0.10202235120E+01  0.10199480461E+01 0.  0.
     999903    2    3    3    0    0 -0.58704802608E-01 -0.89753474937E-02  0.11627722974E+00  0.13213106453E+00  0.20283326816E-01 0.  0.
         14    1    1    2    0    0 -0.81593239278E-02  0.14095786292E-01 -0.17225905417E-01  0.23706488048E-01  0.00000000000E+00 0.  1.
     999901    1    3    3    0    0  0.66864126536E-01 -0.51204387986E-02 -0.99051324324E-01  0.88809244742E+00  0.88000000000E+00 0.  1.
        -11    1    4    4    0    0 -0.31329926662E-01  0.53791261670E-02  0.61547642118E-01  0.69273896052E-01  0.51100000000E-03 0.  1.
         11    1    4    4    0    0 -0.27374875946E-01 -0.14354473661E-01  0.54729587623E-01  0.62857168481E-01  0.51100000000E-03 0. -1.
</event>
<event>
 8    1  0.1065239E+005  0.1043930E+01  0.7957747E-01            NaN
         13   -1    0    0    0    0  0.00000000000E+00  0.00000000000E+00  0.74505805969E-08  0.10566000000E+00  0.10566000000E+00 0.  1.
     999900   -1    0    0    0    0 -0.00000000000E+00 -0.00000000000E+00 -0.74505805969E-08  0.93827000000E+00  0.93827000000E+00 0. -1.
     999902    2    1    2    0    0  0.11852325752E-01 -0.19835323971E-01  0.65848829176E-02  0.10199033817E+01  0.10196203360E+01 0.  0.
     999903    2    3    3    0    0  0.81968856059E-02 -0.41208826115E-01  0.12331574091E+00  0.13193025035E+00  0.20819767459E-01 0.  0.
         14    1    1    2    0    0 -0.11852325752E-01  0.19835323971E-01 -0.65848829176E-02  0.24026618276E-01  0.00000000000E+00 0.  1.
     999901    1    3    3    0    0  0.36554401456E-02  0.21373502144E-01 -0.11673085799E+00  0.88797313138E+00  0.88000000000E+00 0. -1.
        -11    1    4    4    0    0 -0.31119356744E-02 -0.19193778269E-01  0.33221595305E-01  0.38497023047E-01  0.51100000000E-03 0. -1.
         11    1    4    4    0    0  0.11308821280E-01 -0.22015047846E-01  0.90094145606E-01  0.93433227301E-01  0.51100000000E-03 0.  1.
</event>
<event>
 8    1  0.1065239E+005  0.1043930E+01  0.7957747E-01            NaN
         13   -1    0    0    0    0  0.00000000000E+00  0.00000000000E+00  0.74505805969E-08  0.10566000000E+00  0.10566000000E+00 0.  1.
     999900   -1    0    0    0    0 -0.00000000000E+00 -0.00000000000E+00 -0.74505805969E-08  0.93827000000E+00  0.93827000000E+00 0. -1.
     999902    2    1    2    0    0  0.65318662779E-02 -0.22483603575E-01 -0.37226237782E-02  0.10202227093E+01  0.10199472245E+01 0.  0.
     999903    2    3    3    0    0 -0.68826207729E-01 -0.93101941653E-01 -0.61923242626E-01  0.13227389258E+00  0.16027360102E-01 0.  0.
         14    1    1    2    0    0 -0.65318662779E-02  0.22483603575E-01  0.37226237782E-02  0.23707290748E-01  0.00000000000E+00 0.  1.
     999901    1    3    3    0    0  0.75358074007E-01  0.70618338078E-01  0.58200618848E-01  0.88794881667E+00  0.88000000000E+00 0.  1.
        -11    1    4    4    0    0 -0.56595394227E-01 -0.68103531682E-01 -0.52186257228E-01  0.10278519465E+00  0.51100000000E-03 0.  1.
         11    1    4    4    0    0 -0.12230813501E-01 -0.24998409971E-01 -0.97369853980E-02  0.29488697930E-01  0.51100000000E-03 0. -1.
</event>
<event>
 8    1  0.1065239E+005  0.1043930E+01  0.7957747E-01            NaN
         13   -1    0    0    0    0  0.00000000000E+00  0.00000000000E+00  0.74505805969E-08  0.10566000000E+00  0.10566000000E+00 0. -1.
     999900   -1    0    0    0    0 -0.00000000000E+00 -0.00000000000E+00 -0.74505805969E-08  0.93827000000E+00  0.93827000000E+00 0.  1.
     999902    2    1    2    0    0 -0.92534621119E-02 -0.62458365962E-02  0.17621612918E-01  0.10230695523E+01  0.10228568573E+01 0.  0.
     999903    2    3    3    0    0 -0.12375810658E+00 -0.10795909928E-02  0.50221642619E-01  0.13503759026E+00  0.19892283312E-01 0.  0.
         14    1    1    2    0    0  0.92534621119E-02  0.62458365962E-02 -0.17621612918E-01  0.20860447686E-01  0.00000000000E+00 0.  1.
     999901    1    3    3    0    0  0.11450464446E+00 -0.51662456034E-02 -0.32600029702E-01  0.88803196206E+00  0.88000000000E+00 0. -1.
        -11    1    4    4    0    0 -0.60961642002E-01 -0.57513027940E-02  0.15662844071E-01  0.63205894383E-01  0.51100000000E-03 0. -1.
         11    1    4    4    0    0 -0.62796464574E-01  0.46717118012E-02  0.34558798548E-01  0.71831695875E-01  0.51100000000E-03 0.  1.
</event>
<event>
 8    1  0.1065239E+005  0.1043930E+01  0.7957747E-01            NaN
         13   -1    0    0    0    0  0.00000000000E+00  0.00000000000E+00  0.74505805969E-08  0.10566000000E+00  0.10566000000E+00 0. -1.
     999900   -1    0    0    0    0 -0.00000000000E+00 -0.00000000000E+00 -0.74505805969E-08  0.93827000000E+00  0.93827000000E+00 0.  1.
     999902    2    1    2    0    0 -0.82851704617E-02  0.21738706793E-01  0.32453543657E-02  0.10204406887E+01  0.10201703051E+01 0.  0.
     999903    2    3    3    0    0  0.29609629741E-01  0.10891630321E+00 -0.66581529724E-01  0.13257147365E+00  0.20065000587E-01 0.  0.
         14    1    1    2    0    0  0.82851704617E-02 -0.21738706793E-01 -0.32453543657E-02  0.23489311347E-01  0.00000000000E+00 0. -1.
     999901    1    3    3    0    0 -0.37894800203E-01 -0.87177596416E-01  0.69826884090E-01  0.88786921500E+00  0.88000000000E+00 0. -1.
        -11    1    4    4    0    0  0.27021430720E-01  0.74817319042E-01 -0.53924810913E-01  0.96103773598E-01  0.51100000000E-03 0.  1.
         11    1    4    4    0    0  0.25881990212E-02  0.34098984167E-01 -0.12656718812E-01  0.36467700057E-01  0.51100000000E-03 0. -1.
</event>
<event>
 8    1  0.1065239E+005  0.1043930E+01  0.7957747E-01            NaN
         13   -1    0    0    0    0  0.00000000000E+00  0.00000000000E+00  0.74505805969E-08  0.10566000000E+00  0.10566000000E+00 0.  1.
     999900   -1    0    0    0    0 -0.00000000000E+00 -0.00000000000E+00 -0.74505805969E-08  0.93827000000E+00  0.93827000000E+00 0.  1.
     999902    2    1    2    0    0 -0.66366401743E-04 -0.27804789639E-02  0.23955983610E-01  0.10198131051E+01  0.10195279029E+01 0.  0.
     999903    2    3    3    0    0  0.44307228137E-01 -0.72704390113E-01 -0.93980334648E-01  0.12809154297E+00  0.18057720606E-01 0.  0.
         14    1    1    2    0    0  0.66366401743E-04  0.27804789639E-02 -0.23955983610E-01  0.24116894877E-01  0.00000000000E+00 0. -1.
     999901    1    3    3    0    0 -0.44373594538E-01  0.69923911149E-01  0.11793631826E+00  0.89172156215E+00  0.88000000000E+00 0. -1.
        -11    1    4    4    0    0  0.26606335679E-01 -0.56532429150E-01 -0.74209820331E-01  0.97011191099E-01  0.51100000000E-03 0.  1.
         11    1    4    4    0    0  0.17700892457E-01 -0.16171960963E-01 -0.19770514316E-01  0.31080351872E-01  0.51100000000E-03 0. -1.
</event>
<event>
 8    1  0.1065239E+005  0.1043930E+01  0.7957747E-01            NaN
         13   -1    0    0    0    0  0.00000000000E+00  0.00000000000E+00  0.74505805969E-08  0.10566000000E+00  0.10566000000E+00 0.  1.
     999900   -1    0    0    0    0 -0.00000000000E+00 -0.00000000000E+00 -0.74505805969E-08  0.93827000000E+00  0.93827000000E+00 0. -1.
     999902    2    1    2    0    0  0.19084275336E-01  0.13307930835E-01 -0.46046507290E-02  0.10202126351E+01  0.10199369135E+01 0.  0.
     999903    2    3    3    0    0  0.35524851937E-01 -0.98031857292E-02 -0.12475590392E+00  0.13159531597E+00  0.19878985566E-01 0.  0.
         14    1    1    2    0    0 -0.19084275336E-01 -0.13307930835E-01  0.46046507290E-02  0.23717364874E-01  0.00000000000E+00 0. -1.
     999901    1    3    3    0    0 -0.16440576602E-01  0.23111116565E-01  0.12015125319E+00  0.88861731916E+00  0.88000000000E+00 0.  1.
        -11    1    4    4    0    0  0.17700372804E-01 -0.30063891410E-02 -0.91560593111E-01  0.93305653124E-01  0.51100000000E-03 0. -1.
         11    1    4    4    0    0  0.17824479133E-01 -0.67967965883E-02 -0.33195310804E-01  0.38289662843E-01  0.51100000000E-03 0.  1.
</event>
<event>
 7    1  0.1065239E+005  0.1043930E+01  0.7957747E-01            NaN
         13   -1    0    0    0    0  0.00000000000E+00  0.00000000000E+00  0.74505805969E-08  0.10566000000E+00  0.10566000000E+00 0.  1.
     999900   -1    0    0    0    0 -0.00000000000E+00 -0.00000000000E+00 -0.74505805969E-08  0.93827000000E+00  0.93827000000E+00 0. -1.
     999903    2    1    2    0    0 -0.85226073307E-01 -0.48317623322E-01 -0.21634336210E-01  0.10265101488E+00  0.21705069846E-01 0.  0.
         14    1    1    2    0    0  0.49051902784E-01 -0.27804428916E-01  0.94351851769E-02  0.57168156813E-01  0.00000000000E+00 0.  1.
     999901    1    1    2    0    0  0.36174170523E-01  0.76122052238E-01  0.12199151033E-01  0.88411082831E+00  0.88000000000E+00 0.  1.
        -11    1    3    3    0    0 -0.29637190689E-01 -0.27223133300E-01 -0.30759238369E-02  0.40363157545E-01  0.51100000000E-03 0. -1.
         11    1    3    3    0    0 -0.55588882619E-01 -0.21094490023E-01 -0.18558412373E-01  0.62287857331E-01  0.51100000000E-03 0.  1.
</event>
<event>
 8    1  0.1065239E+005  0.1043930E+01  0.7957747E-01            NaN
         13   -1    0    0    0    0  0.00000000000E+00  0.00000000000E+00  0.74505805969E-08  0.10566000000E+00  0.10566000000E+00 0.  1.
     999900   -1    0    0    0    0 -0.00000000000E+00 -0.00000000000E+00 -0.74505805969E-08  0.93827000000E+00  0.93827000000E+00 0. -1.
     999902    2    1    2    0    0 -0.87366626409E-02  0.12800420114E-01  0.17984636657E-01  0.10201891663E+01  0.10199128923E+01 0.  0.
     999903    2    3    3    0    0  0.10808151434E+00  0.69545035705E-01  0.12220503542E-01  0.13063890740E+00  0.19976428272E-01 0.  0.
         14    1    1    2    0    0  0.87366626409E-02 -0.12800420114E-01 -0.17984636657E-01  0.23740833703E-01  0.00000000000E+00 0. -1.
     999901    1    3    3    0    0 -0.11681817698E+00 -0.56744615590E-01  0.57641331157E-02  0.88955025890E+00  0.88000000000E+00 0. -1.
        -11    1    4    4    0    0  0.63314982280E-02 -0.74242662221E-03  0.40198841950E-03  0.64079468467E-02  0.51100000000E-03 0.  1.
         11    1    4    4    0    0  0.10175001611E+00  0.70287462327E-01  0.11818515122E-01  0.12423096055E+00  0.51100000000E-03 0. -1.
</event>
<event>
 7    1  0.1065239E+005  0.1043930E+01  0.7957747E-01            NaN
         13   -1    0    0    0    0  0.00000000000E+00  0.00000000000E+00  0.74505805969E-08  0.10566000000E+00  0.10566000000E+00 0. -1.
     999900   -1    0    0    0    0 -0.00000000000E+00 -0.00000000000E+00 -0.74505805969E-08  0.93827000000E+00  0.93827000000E+00 0.  1.
     999902    2    1    2    0    0  0.32812511509E-02  0.13945221167E-02  0.23803136541E-01  0.10198613355E+01  0.10195772865E+01 0.  0.
         14    1    1    2    0    0 -0.32812511509E-02 -0.13945221167E-02 -0.23803136541E-01  0.24068664488E-01  0.00000000000E+00 0.  1.
     999901    1    3    3    0    0  0.40281161283E-01 -0.67844598784E-01 -0.75886847686E-01  0.88678310493E+00  0.88000000000E+00 0.  1.
        -11    1    3    3    0    0 -0.61911388951E-02  0.48136705442E-01  0.41110866305E-01  0.63606894760E-01  0.51100000000E-03 0. -1.
         11    1    3    3    0    0 -0.30808771237E-01  0.21102415458E-01  0.58579117922E-01  0.69471335821E-01  0.51100000000E-03 0.  1.
</event>
<event>
 8    1  0.1065239E+005  0.1043930E+01  0.7957747E-01            NaN
         13   -1    0    0    0    0  0.00000000000E+00  0.00000000000E+00  0.74505805969E-08  0.10566000000E+00  0.10566000000E+00 0.  1.
     999900   -1    0    0    0    0 -0.00000000000E+00 -0.00000000000E+00 -0.74505805969E-08  0.93827000000E+00  0.93827000000E+00 0. -1.
     999902    2    1    2    0    0 -0.13915922371E-01  0.17265605581E-01 -0.77833146067E-02  0.10204282125E+01  0.10201575382E+01 0.  0.
     999903    2    3    3    0    0  0.10171298596E-01 -0.49893694381E-01 -0.11875801404E+00  0.13059342459E+00  0.18929886243E-01 0.  0.
         14    1    1    2    0    0  0.13915922371E-01 -0.17265605581E-01  0.77833146067E-02  0.23501787544E-01  0.00000000000E+00 0. -1.
     999901    1    3    3    0    0 -0.24087220966E-01  0.67159299962E-01  0.11097469943E+00  0.88983478787E+00  0.88000000000E+00 0.  1.
        -11    1    4    4    0    0  0.56078491230E-02 -0.86641489088E-02 -0.42964167748E-01  0.44189323137E-01  0.51100000000E-03 0. -1.
         11    1    4    4    0    0  0.45634494725E-02 -0.41229545472E-01 -0.75793846291E-01  0.86404101451E-01  0.51100000000E-03 0.  1.
</event>
<event>
 8    1  0.1065239E+005  0.1043930E+01  0.7957747E-01            NaN
         13   -1    0    0    0    0  0.00000000000E+00  0.00000000000E+00  0.74505805969E-08  0.10566000000E+00  0.10566000000E+00 0. -1.
     999900   -1    0    0    0    0 -0.00000000000E+00 -0.00000000000E+00 -0.74505805969E-08  0.93827000000E+00  0.93827000000E+00 0. -1.
     999902    2    1    2    0    0 -0.13235658107E-01 -0.15377864806E-01  0.13640560308E-01  0.10194815592E+01  0.10191883650E+01 0.  0.
     999903    2    3    3    0    0 -0.10384194169E+00  0.51415227639E-01 -0.54918909822E-01  0.12966628806E+00  0.19250587456E-01 0.  0.
         14    1    1    2    0    0  0.13235658107E-01  0.15377864806E-01 -0.13640560308E-01  0.24448440789E-01  0.00000000000E+00 0.  1.
     999901    1    3    3    0    0  0.90606283581E-01 -0.66793092445E-01  0.68559470130E-01  0.88981527115E+00  0.88000000000E+00 0.  1.
        -11    1    4    4    0    0 -0.15299535795E-01  0.94503914873E-02 -0.14664919844E-02  0.18049859128E-01  0.51100000000E-03 0.  1.
         11    1    4    4    0    0 -0.88542405893E-01  0.41964836152E-01 -0.53452417838E-01  0.11161642894E+00  0.51100000000E-03 0. -1.
</event>
<event>
 8    1  0.1065239E+005  0.1043930E+01  0.7957747E-01            NaN
         13   -1    0    0    0    0  0.00000000000E+00  0.00000000000E+00  0.74505805969E-08  0.10566000000E+00  0.10566000000E+00 0.  1.
     999900   -1    0    0    0    0 -0.00000000000E+00 -0.00000000000E+00 -0.74505805969E-08  0.93827000000E+00  0.93827000000E+00 0.  1.
     999902    2    1    2    0    0  0.23521898259E-01  0.29345739586E-02 -0.81949940998E-02  0.10188491437E+01  0.10185403911E+01 0.  0.
     999903    2    3    3    0    0 -0.12440694250E+00  0.76526188882E-02 -0.78480890273E-02  0.12648973061E+00  0.20060147782E-01 0.  0.
         14    1    1    2    0    0 -0.23521898259E-01 -0.29345739586E-02  0.81949940998E-02  0.25080856252E-01  0.00000000000E+00 0.  1.
     999901    1    3    3    0    0  0.14792884076E+00 -0.47180449296E-02 -0.34690507252E-03  0.89235941314E+00  0.88000000000E+00 0. -1.
        -11    1    4    4    0    0 -0.11033341973E+00  0.24416593158E-02 -0.20132929431E-02  0.11037997862E+00  0.51100000000E-03 0.  1.
         11    1    4    4    0    0 -0.14073522768E-01  0.52109595724E-02 -0.58347960842E-02  0.16109751988E-01  0.51100000000E-03 0. -1.
</event>
<event>
 8    1  0.1065239E+005  0.1043930E+01  0.7957747E-01            NaN
         13   -1    0    0    0    0  0.00000000000E+00  0.00000000000E+00  0.74505805969E-08  0.10566000000E+00  0.10566000000E+00 0.  1.
     999900   -1    0    0    0    0 -0.00000000000E+00 -0.00000000000E+00 -0.74505805969E-08  0.93827000000E+00  0.93827000000E+00 0.  1.
     999902    2    1    2    0    0 -0.23934200353E-01  0.98067146198E-03 -0.88691667017E-02  0.10183865120E+01  0.10180661167E+01 0.  0.
     999903    2    3    3    0    0 -0.11532905938E+00 -0.30963264887E-01  0.50464259121E-01  0.13109068151E+00  0.19457893473E-01 0.  0.
         14    1    1    2    0    0  0.23934200353E-01 -0.98067146198E-03  0.88691667017E-02  0.25543488036E-01  0.00000000000E+00 0.  1.
     999901    1    3    3    0    0  0.91394859031E-01  0.31943936349E-01 -0.59333425823E-01  0.88729583046E+00  0.88000000000E+00 0. -1.
        -11    1    4    4    0    0 -0.63787035504E-01 -0.16020492979E-01  0.38133688949E-01  0.76025531551E-01  0.51100000000E-03 0.  1.
         11    1    4    4    0    0 -0.51542023880E-01 -0.14942771908E-01  0.12330570172E-01  0.55065149956E-01  0.51100000000E-03 0. -1.
</event>
<event>
 8    1  0.1065239E+005  0.1043930E+01  0.7957747E-01            NaN
         13   -1    0    0    0    0  0.00000000000E+00  0.00000000000E+00  0.74505805969E-08  0.10566000000E+00  0.10566000000E+00 0. -1.
     999900   -1    0    0    0    0 -0.00000000000E+00 -0.00000000000E+00 -0.74505805969E-08  0.93827000000E+00  0.93827000000E+00 0. -1.
     999902    2    1    2    0    0 -0.12593558926E-01 -0.13279501652E-01  0.25839421723E-01  0.10122658467E+01  0.10117704906E+01 0.  0.
     999903    2    3    3    0    0 -0.33369181916E-01  0.24287190841E-01  0.11761777788E+00  0.12645201209E+00  0.21279091772E-01 0.  0.
         14    1    1    2    0    0  0.12593558926E-01  0.13279501652E-01 -0.25839421723E-01  0.31664153321E-01  0.00000000000E+00 0.  1.
     999901    1    3    3    0    0  0.20775622989E-01 -0.37566692493E-01 -0.91778356157E-01  0.88581383459E+00  0.88000000000E+00 0.  1.
        -11    1    4    4    0    0 -0.27212703933E-01  0.15978585085E-01  0.58848005218E-01  0.66777206260E-01  0.51100000000E-03 0. -1.
         11    1    4    4    0    0 -0.61564779821E-02  0.83086057556E-02  0.58769772662E-01  0.59674805827E-01  0.51100000000E-03 0.  1.
</event>
<event>
 8    1  0.1065239E+005  0.1043930E+01  0.7957747E-01            NaN
         13   -1    0    0    0    0  0.00000000000E+00  0.00000000000E+00  0.74505805969E-08  0.10566000000E+00  0.10566000000E+00 0. -1.
     999900   -1    0    0    0    0 -0.00000000000E+00 -0.00000000000E+00 -0.74505805969E-08  0.93827000000E+00  0.93827000000E+00 0. -1.
     999902    2    1    2    0    0  0.16310260146E-02 -0.22209031622E-01  0.70090179461E-02  0.10205841724E+01  0.10203171200E+01 0.  0.
     999903    2    3    3    0    0 -0.11412255161E+00  0.22246270897E-01  0.55857041419E-01  0.13054973825E+00  0.20108996186E-01 0.  0.
         14    1    1    2    0    0 -0.16310260146E-02  0.22209031622E-01 -0.70090179461E-02  0.23345827551E-01  0.00000000000E+00 0.  1.
     999901    1    3    3    0    0  0.11575357762E+00 -0.44455302519E-01 -0.48848023473E-01  0.89003443419E+00  0.88000000000E+00 0. -1.
        -11    1    4    4    0    0 -0.87698711307E-01  0.12093838837E-01  0.49876591992E-01  0.10161328876E+00  0.51100000000E-03 0.  1.
         11    1    4    4    0    0 -0.26423840303E-01  0.10152432060E-01  0.59804494271E-02  0.28936449496E-01  0.51100000000E-03 0. -1.
</event>
<event>
 8    1  0.1065239E+005  0.1043930E+01  0.7957747E-01            NaN
         13   -1    0    0    0    0  0.00000000000E+00  0.00000000000E+00  0.74505805969E-08  0.10566000000E+00  0.10566000000E+00 0. -1.
     999900   -1    0    0    0    0 -0.00000000000E+00 -0.00000000000E+00 -0.74505805969E-08  0.93827000000E+00  0.93827000000E+00 0.  1.
     999902    2    1    2    0    0  0.14319940242E-02  0.16832301463E-01  0.15369441358E-01  0.10210915082E+01  0.10208360649E+01 0.  0.
     999903    2    3    3    0    0 -0.30254856001E-02  0.42702000173E-01 -0.12128699474E+00  0.13015711559E+00  0.19943050528E-01 0.  0.
         14    1    1    2    0    0 -0.14319940242E-02 -0.16832301463E-01 -0.15369441358E-01  0.22838491786E-01  0.00000000000E+00 0.  1.
     999901    1    3    3    0    0  0.44574796243E-02 -0.25869698711E-01  0.13665643609E+00  0.89093439262E+00  0.88000000000E+00 0. -1.
        -11    1    4    4    0    0 -0.60488419469E-02  0.32215161971E-01 -0.64767940531E-01  0.72591682659E-01  0.51100000000E-03 0.  1.
         11    1    4    4    0    0  0.30233563468E-02  0.10486838202E-01 -0.56519054205E-01  0.57565432929E-01  0.51100000000E-03 0. -1.
</event>
<event>
 8    1  0.1065239E+005  0.1043930E+01  0.7957747E-01            NaN
         13   -1    0    0    0    0  0.00000000000E+00  0.00000000000E+00  0.74505805969E-08  0.10566000000E+00  0.10566000000E+00 0. -1.
     999900   -1    0    0    0    0 -0.00000000000E+00 -0.00000000000E+00 -0.74505805969E-08  0.93827000000E+00  0.93827000000E+00 0.  1.
     999902    2    1    2    0    0  0.11208231951E-01  0.12997652855E-01 -0.15104336896E-01  0.10210672697E+01  0.10208112778E+01 0.  0.
     999903    2    3    3    0    0  0.51526675143E-01  0.11050264806E+00  0.47930435459E-01  0.13252566490E+00  0.19997293182E-01 0.  0.
         14    1    1    2    0    0 -0.11208231951E-01 -0.12997652855E-01  0.15104336896E-01  0.22862730289E-01  0.00000000000E+00 0. -1.
     999901    1    3    3    0    0 -0.40318443192E-01 -0.97504995205E-01 -0.63034772355E-01  0.88854160481E+00  0.88000000000E+00 0.  1.
        -11    1    4    4    0    0  0.40496869051E-01  0.70730879587E-01  0.24721246930E-01  0.85171913802E-01  0.51100000000E-03 0.  1.
         11    1    4    4    0    0  0.11029806093E-01  0.39771768474E-01  0.23209188529E-01  0.47353751099E-01  0.51100000000E-03 0. -1.
</event>
<event>
 7    1  0.1065239E+005  0.1043930E+01  0.7957747E-01            NaN
         13   -1    0    0    0    0  0.00000000000E+00  0.00000000000E+00  0.74505805969E-08  0.10566000000E+00  0.10566000000E+00 0. -1.
     999900   -1    0    0    0    0 -0.00000000000E+00 -0.00000000000E+00 -0.74505805969E-08  0.93827000000E+00  0.93827000000E+00 0.  1.
     999903    2    1    2    0    0 -0.25290004477E-01 -0.23957789018E-01  0.99896840033E-01  0.10597882904E+00  0.62107628824E-02 0.  0.
         14    1    1    2    0    0  0.24561794894E-01  0.33942328394E-01  0.25436929414E-01  0.49014291826E-01  0.00000000000E+00 0. -1.
     999901    1    1    2    0    0  0.72820958292E-03 -0.99845393764E-02 -0.12533376945E+00  0.88893687913E+00  0.88000000000E+00 0.  1.
        -11    1    3    3    0    0 -0.20649713869E-02 -0.47876090235E-02  0.16340881554E-01  0.17160152620E-01  0.51100000000E-03 0. -1.
         11    1    3    3    0    0 -0.23225033090E-01 -0.19170179994E-01  0.83555958479E-01  0.88818676422E-01  0.51100000000E-03 0.  1.
</event>
<event>
 8    1  0.1065239E+005  0.1043930E+01  0.7957747E-01            NaN
         13   -1    0    0    0    0  0.00000000000E+00  0.00000000000E+00  0.74505805969E-08  0.10566000000E+00  0.10566000000E+00 0. -1.
     999900   -1    0    0    0    0 -0.00000000000E+00 -0.00000000000E+00 -0.74505805969E-08  0.93827000000E+00  0.93827000000E+00 0.  1.
     999902    2    1    2    0    0  0.40481154823E-02 -0.18303871387E-01  0.14084213728E-01  0.10204825263E+01  0.10202131162E+01 0.  0.
     999903    2    3    3    0    0 -0.10920786578E+00 -0.51604524755E-01 -0.45496851031E-01  0.13060289731E+00  0.19944132202E-01 0.  0.
         14    1    1    2    0    0 -0.40481154823E-02  0.18303871387E-01 -0.14084213728E-01  0.23447473703E-01  0.00000000000E+00 0.  1.
     999901    1    3    3    0    0  0.11325598126E+00  0.33300653367E-01  0.59581064759E-01  0.88987962899E+00  0.88000000000E+00 0. -1.
        -11    1    4    4    0    0 -0.27705621047E-01 -0.78843770662E-02 -0.34896419652E-02  0.29020743639E-01  0.51100000000E-03 0.  1.
         11    1    4    4    0    0 -0.81502244732E-01 -0.43720147689E-01 -0.42007209066E-01  0.10158215367E+00  0.51100000000E-03 0. -1.
</event>
<event>
 8    1  0.1065239E+005  0.1043930E+01  0.7957747E-01            NaN
         13   -1    0    0    0    0  0.00000000000E+00  0.00000000000E+00  0.74505805969E-08  0.10566000000E+00  0.10566000000E+00 0. -1.
     999900   -1    0    0    0    0 -0.00000000000E+00 -0.00000000000E+00 -0.74505805969E-08  0.93827000000E+00  0.93827000000E+00 0. -1.
     999902    2    1    2    0    0  0.20585252141E-01 -0.95360868769E-02  0.35968131501E-02  0.10209598754E+01  0.10207014454E+01 0.  0.
     999903    2    3    3    0    0 -0.88809722345E-01 -0.14279122917E-01 -0.90736409896E-01  0.12917037458E+00  0.18995511401E-01 0.  0.
         14    1    1    2    0    0 -0.20585252141E-01  0.95360868769E-02 -0.35968131501E-02  0.22970124585E-01  0.00000000000E+00 0. -1.
     999901    1    3    3    0    0  0.10939497449E+00  0.47430360398E-02  0.94333223046E-01  0.89178950084E+00  0.88000000000E+00 0. -1.
        -11    1    4    4    0    0 -0.40564258386E-01 -0.95214835981E-02 -0.54691791159E-01  0.68757333059E-01  0.51100000000E-03 0. -1.
         11    1    4    4    0    0 -0.48245463960E-01 -0.47576393187E-02 -0.36044618737E-01  0.60413041518E-01  0.51100000000E-03 0.  1.
</event>
<event>
 8    1  0.1065239E+005  0.1043930E+01  0.7957747E-01            NaN
         13   -1    0    0    0    0  0.00000000000E+00  0.00000000000E+00  0.74505805969E-08  0.10566000000E+00  0.10566000000E+00 0. -1.
     999900   -1    0    0    0    0 -0.00000000000E+00 -0.00000000000E+00 -0.74505805969E-08  0.93827000000E+00  0.93827000000E+00 0.  1.
     999902    2    1    2    0    0  0.16310390751E-02  0.13707742950E-02  0.23078018753E-01  0.10207538429E+01  0.10204907023E+01 0.  0.
     999903    2    3    3    0    0  0.69558038288E-01 -0.10215103045E+00 -0.36929820668E-01  0.13006209928E+00  0.16708809075E-01 0.  0.
         14    1    1    2    0    0 -0.16310390751E-02 -0.13707742950E-02 -0.23078018753E-01  0.23176157149E-01  0.00000000000E+00 0.  1.
     999901    1    3    3    0    0 -0.67926999213E-01  0.10352180475E+00  0.60007839421E-01  0.89069174357E+00  0.88000000000E+00 0.  1.
        -11    1    4    4    0    0  0.63205168461E-01 -0.91420750426E-01 -0.27710927671E-01  0.11454607615E+00  0.51100000000E-03 0.  1.
         11    1    4    4    0    0  0.63528698267E-02 -0.10730280027E-01 -0.92188929973E-02  0.15516023124E-01  0.51100000000E-03 0. -1.
</event>
<event>
 8    1  0.1065239E+005  0.1043930E+01  0.7957747E-01            NaN
         13   -1    0    0    0    0  0.00000000000E+00  0.00000000000E+00  0.74505805969E-08  0.10566000000E+00  0.10566000000E+00 0. -1.
     999900   -1    0    0    0    0 -0.00000000000E+00 -0.00000000000E+00 -0.74505805969E-08  0.93827000000E+00  0.93827000000E+00 0. -1.
     999902    2    1    2    0    0  0.18291668107E-01 -0.10670750295E-01  0.95296340653E-02  0.10207079424E+01  0.10204437465E+01 0.  0.
     999903    2    3    3    0    0  0.48042353361E-01 -0.72340851265E-01 -0.96899596070E-01  0.13165480245E+00  0.20054645606E-01 0.  0.
         14    1    1    2    0    0 -0.18291668107E-01  0.10670750295E-01 -0.95296340653E-02  0.23222057605E-01  0.00000000000E+00 0.  1.
     999901    1    3    3    0    0 -0.29750685254E-01  0.61670100970E-01  0.10642923014E+00  0.88905313995E+00  0.88000000000E+00 0.  1.
        -11    1    4    4    0    0  0.31545151085E-01 -0.47195584300E-01 -0.76698334345E-01  0.95422300049E-01  0.51100000000E-03 0. -1.
         11    1    4    4    0    0  0.16497202275E-01 -0.25145266964E-01 -0.20201261726E-01  0.36232502397E-01  0.51100000000E-03 0.  1.
</event>
<event>
 8    1  0.1065239E+005  0.1043930E+01  0.7957747E-01            NaN
         13   -1    0    0    0    0  0.00000000000E+00  0.00000000000E+00  0.74505805969E-08  0.10566000000E+00  0.10566000000E+00 0. -1.
     999900   -1    0    0    0    0 -0.00000000000E+00 -0.00000000000E+00 -0.74505805969E-08  0.93827000000E+00  0.93827000000E+00 0. -1.
     999902    2    1    2    0    0 -0.13019936779E-01 -0.21022884473E-01 -0.48691954379E-02  0.10187270341E+01  0.10184152299E+01 0.  0.
     999903    2    3    3    0    0  0.13009818632E-01 -0.12069299557E+00 -0.47075716304E-01  0.13171346622E+00  0.19906269306E-01 0.  0.
         14    1    1    2    0    0  0.13019936779E-01  0.21022884473E-01  0.48691954379E-02  0.25202965888E-01  0.00000000000E+00 0. -1.
     999901    1    3    3    0    0 -0.26029755411E-01  0.99670111101E-01  0.42206520866E-01  0.88701356789E+00  0.88000000000E+00 0.  1.
        -11    1    4    4    0    0  0.16668759430E-01 -0.75363553213E-01 -0.24810852395E-01  0.81076212365E-01  0.51100000000E-03 0.  1.
         11    1    4    4    0    0 -0.36589407976E-02 -0.45329442361E-01 -0.22264863909E-01  0.50637253860E-01  0.51100000000E-03 0. -1.
</event>
<event>
 8    1  0.1065239E+005  0.1043930E+01  0.7957747E-01            NaN
         13   -1    0    0    0    0  0.00000000000E+00  0.00000000000E+00  0.74505805969E-08  0.10566000000E+00  0.10566000000E+00 0. -1.
     999900   -1    0    0    0    0 -0.00000000000E+00 -0.00000000000E+00 -0.74505805969E-08  0.93827000000E+00  0.93827000000E+00 0.  1.
     999902    2    1    2    0    0  0.20315520864E-02  0.12984661698E-02 -0.24819614604E-01  0.10189935510E+01  0.10186883874E+01 0.  0.
     999903    2    3    3    0    0 -0.49597120772E-01  0.11233684092E+00  0.32620581681E-01  0.12865967170E+00  0.20242740848E-01 0.  0.
         14    1    1    2    0    0 -0.20315520864E-02 -0.12984661698E-02  0.24819614604E-01  0.24936448973E-01  0.00000000000E+00 0. -1.
     999901    1    3    3    0    0  0.51628672858E-01 -0.11103837475E+00 -0.57440196285E-01  0.89033387933E+00  0.88000000000E+00 0. -1.
        -11    1    4    4    0    0 -0.27109160693E-01  0.37638961507E-01  0.14039856974E-01  0.48466243115E-01  0.51100000000E-03 0.  1.
         11    1    4    4    0    0 -0.22487960079E-01  0.74697879409E-01  0.18580724707E-01  0.80193428586E-01  0.51100000000E-03 0. -1.
</event>
<event>
 8    1  0.1065239E+005  0.1043930E+01  0.7957747E-01            NaN
         13   -1    0    0    0    0  0.00000000000E+00  0.00000000000E+00  0.74505805969E-08  0.10566000000E+00  0.10566000000E+00 0.  1.
     999900   -1    0    0    0    0 -0.00000000000E+00 -0.00000000000E+00 -0.74505805969E-08  0.93827000000E+00  0.93827000000E+00 0. -1.
     999902    2    1    2    0    0 -0.16547017474E-01  0.16165701355E-01 -0.44808720986E-02  0.10203670651E+01  0.10200949640E+01 0.  0.
     999903    2    3    3    0    0  0.11039494604E+00  0.55171630598E-01  0.33654031959E-01  0.12958651100E+00  0.20715140145E-01 0.  0.
         14    1    1    2    0    0  0.16547017474E-01 -0.16165701355E-01  0.44808720986E-02  0.23562934927E-01  0.00000000000E+00 0. -1.
     999901    1    3    3    0    0 -0.12694196351E+00 -0.39005929243E-01 -0.38134904057E-01  0.89078055408E+00  0.88000000000E+00 0. -1.
        -11    1    4    4    0    0  0.60720374131E-01  0.39731769138E-01  0.13576334293E-01  0.73825167032E-01  0.51100000000E-03 0. -1.
         11    1    4    4    0    0  0.49674571907E-01  0.15439861460E-01  0.20077697666E-01  0.55761343963E-01  0.51100000000E-03 0.  1.
</event>
<event>
 8    1  0.1065239E+005  0.1043930E+01  0.7957747E-01            NaN
         13   -1    0    0    0    0  0.00000000000E+00  0.00000000000E+00  0.74505805969E-08  0.10566000000E+00  0.10566000000E+00 0.  1.
     999900   -1    0    0    0    0 -0.00000000000E+00 -0.00000000000E+00 -0.74505805969E-08  0.93827000000E+00  0.93827000000E+00 0. -1.
     999902    2    1    2    0    0 -0.34350985578E-02 -0.28287339457E-02  0.23230645379E-01  0.10202769976E+01  0.10200027879E+01 0.  0.
     999903    2    3    3    0    0  0.26198345058E-01 -0.12174420434E+00 -0.32043096656E-01  0.13006678836E+00  0.19560286741E-01 0.  0.
         14    1    1    2    0    0  0.34350985578E-02  0.28287339457E-02 -0.23230645379E-01  0.23653002401E-01  0.00000000000E+00 0. -1.
     999901    1    3    3    0    0 -0.29633443616E-01  0.11891547039E+00  0.55273742035E-01  0.89021020924E+00  0.88000000000E+00 0.  1.
        -11    1    4    4    0    0  0.28145170151E-01 -0.91856706921E-01 -0.23224529957E-01  0.98840503449E-01  0.51100000000E-03 0. -1.
         11    1    4    4    0    0 -0.19468250925E-02 -0.29887497414E-01 -0.88185666987E-02  0.31226284909E-01  0.51100000000E-03 0.  1.
</event>
<event>
 8    1  0.1065239E+005  0.1043930E+01  0.7957747E-01            NaN
         13   -1    0    0    0    0  0.00000000000E+00  0.00000000000E+00  0.74505805969E-08  0.10566000000E+00  0.10566000000E+00 0.  1.
     999900   -1    0    0    0    0 -0.00000000000E+00 -0.00000000000E+00 -0.74505805969E-08  0.93827000000E+00  0.93827000000E+00 0.  1.
     999902    2    1    2    0    0 -0.21099791869E-01 -0.21468055615E-01  0.37962272882E-02  0.10135904224E+01  0.10131362467E+01 0.  0.
     999903    2    3    3    0    0  0.65199336091E-01  0.55902865215E-01  0.84806955369E-01  0.12230116689E+00  0.19729976637E-01 0.  0.
         14    1    1    2    0    0  0.21099791869E-01  0.21468055615E-01 -0.37962272882E-02  0.30339577624E-01  0.00000000000E+00 0.  1.
     999901    1    3    3    0    0 -0.86299127960E-01 -0.77370920830E-01 -0.81010728081E-01  0.89128925548E+00  0.88000000000E+00 0.  1.
        -11    1    4    4    0    0  0.56938228110E-01  0.43204349227E-01  0.60441569953E-01  0.93605673502E-01  0.51100000000E-03 0. -1.
         11    1    4    4    0    0  0.82611079808E-02  0.12698515989E-01  0.24365385416E-01  0.28695493389E-01  0.51100000000E-03 0.  1.
</event>
<event>
 8    1  0.1065239E+005  0.1043930E+01  0.7957747E-01            NaN
         13   -1    0    0    0    0  0.00000000000E+00  0.00000000000E+00  0.74505805969E-08  0.10566000000E+00  0.10566000000E+00 0. -1.
     999900   -1    0    0    0    0 -0.00000000000E+00 -0.00000000000E+00 -0.74505805969E-08  0.93827000000E+00  0.93827000000E+00 0. -1.
     999902    2    1    2    0    0  0.46313466119E-02  0.33027578262E-01  0.97650687768E-02  0.10091790739E+01  0.10085805750E+01 0.  0.
     999903    2    3    3    0    0 -0.46271495020E-01  0.10924020469E+00  0.30782605361E-01  0.12416992108E+00  0.19902937856E-01 0.  0.
         14    1    1    2    0    0 -0.46313466119E-02 -0.33027578262E-01 -0.97650687768E-02  0.34750926110E-01  0.00000000000E+00 0. -1.
     999901    1    3    3    0    0  0.50902841632E-01 -0.76212626432E-01 -0.21017536584E-01  0.88500915281E+00  0.88000000000E+00 0. -1.
        -11    1    4    4    0    0 -0.26407491067E-01  0.51767423630E-01  0.24380655223E-01  0.63023005354E-01  0.51100000000E-03 0. -1.
         11    1    4    4    0    0 -0.19864003954E-01  0.57472781064E-01  0.64019501379E-02  0.61146915726E-01  0.51100000000E-03 0.  1.
</event>
<event>
 8    1  0.1065239E+005  0.1043930E+01  0.7957747E-01            NaN
         13   -1    0    0    0    0  0.00000000000E+00  0.00000000000E+00  0.74505805969E-08  0.10566000000E+00  0.10566000000E+00 0. -1.
     999900   -1    0    0    0    0 -0.00000000000E+00 -0.00000000000E+00 -0.74505805969E-08  0.93827000000E+00  0.93827000000E+00 0.  1.
     999902    2    1    2    0    0 -0.39288839233E-02 -0.96967675803E-03 -0.23093025860E-01  0.10204850806E+01  0.10202157299E+01 0.  0.
     999903    2    3    3    0    0 -0.10387046091E+00  0.50174274732E-01 -0.61513221338E-01  0.13252104192E+00  0.21712200647E-01 0.  0.
         14    1    1    2    0    0  0.39288839233E-02  0.96967675803E-03  0.23093025860E-01  0.23444919392E-01  0.00000000000E+00 0. -1.
     999901    1    3    3    0    0  0.99941576988E-01 -0.51143951490E-01  0.38420195478E-01  0.88796403869E+00  0.88000000000E+00 0. -1.
        -11    1    4    4    0    0 -0.77576959994E-01  0.41595621632E-01 -0.36735036813E-01  0.95383984565E-01  0.51100000000E-03 0. -1.
         11    1    4    4    0    0 -0.26293500918E-01  0.85786531000E-02 -0.24778184525E-01  0.37137057354E-01  0.51100000000E-03 0.  1.
</event>
<event>
 8    1  0.1065239E+005  0.1043930E+01  0.7957747E-01            NaN
         13   -1    0    0    0    0  0.00000000000E+00  0.00000000000E+00  0.74505805969E-08  0.10566000000E+00  0.10566000000E+00 0.  1.
     999900   -1    0    0    0    0 -0.00000000000E+00 -0.00000000000E+00 -0.74505805969E-08  0.93827000000E+00  0.93827000000E+00 0.  1.
     999902    2    1    2    0    0 -0.22661452006E-01 -0.57285407176E-02 -0.22797251435E-02  0.10204447976E+01  0.10201745097E+01 0.  0.
     999903    2    3    3    0    0 -0.23286058921E-02 -0.12719485043E+00 -0.26820910643E-01  0.13152986419E+00  0.19919627114E-01 0.  0.
         14    1    1    2    0    0  0.22661452006E-01  0.57285407176E-02  0.22797251435E-02  0.23485202416E-01  0.00000000000E+00 0. -1.
     999901    1    3    3    0    0 -0.20332846114E-01  0.12146630971E+00  0.24541185500E-01  0.88891493339E+00  0.88000000000E+00 0. -1.
        -11    1    4    4    0    0  0.77538328422E-02 -0.85106192541E-01 -0.18990988490E-01  0.87544872479E-01  0.51100000000E-03 0. -1.
         11    1    4    4    0    0 -0.10082438734E-01 -0.42088657890E-01 -0.78299221531E-02  0.43984991710E-01  0.51100000000E-03 0.  1.
</event>
<event>
 8    1  0.1065239E+005  0.1043930E+01  0.7957747E-01            NaN
         13   -1    0    0    0    0  0.00000000000E+00  0.00000000000E+00  0.74505805969E-08  0.10566000000E+00  0.10566000000E+00 0.  1.
     999900   -1    0    0    0    0 -0.00000000000E+00 -0.00000000000E+00 -0.74505805969E-08  0.93827000000E+00  0.93827000000E+00 0. -1.
     999902    2    1    2    0    0 -0.12487505805E-01 -0.16867422783E-01  0.11562246636E-01  0.10199689211E+01  0.10196874358E+01 0.  0.
     999903    2    3    3    0    0 -0.96321660755E-01  0.19105681081E-01  0.85993570175E-01  0.13212757740E+00  0.20491784169E-01 0.  0.
         14    1    1    2    0    0  0.12487505805E-01  0.16867422783E-01 -0.11562246636E-01  0.23961078854E-01  0.00000000000E+00 0. -1.
     999901    1    3    3    0    0  0.83834154950E-01 -0.35973103864E-01 -0.74431323539E-01  0.88784134374E+00  0.88000000000E+00 0. -1.
        -11    1    4    4    0    0 -0.25570636870E-01  0.78831705633E-02  0.35613490161E-01  0.44548666092E-01  0.51100000000E-03 0. -1.
         11    1    4    4    0    0 -0.70751023884E-01  0.11222510518E-01  0.50380080014E-01  0.87578911310E-01  0.51100000000E-03 0.  1.
</event>
<event>
 8    1  0.1065239E+005  0.1043930E+01  0.7957747E-01            NaN
         13   -1    0    0    0    0  0.00000000000E+00  0.00000000000E+00  0.74505805969E-08  0.10566000000E+00  0.10566000000E+00 0.  1.
     999900   -1    0    0    0    0 -0.00000000000E+00 -0.00000000000E+00 -0.74505805969E-08  0.93827000000E+00  0.93827000000E+00 0. -1.
     999902    2    1    2    0    0 -0.28592063828E-02  0.12160660584E-01 -0.20749181976E-01  0.10197104773E+01  0.10194228133E+01 0.  0.
     999903    2    3    3    0    0  0.66377992193E-01 -0.27407669709E-01 -0.10858016354E+00  0.13175004814E+00  0.20278191884E-01 0.  0.
         14    1    1    2    0    0  0.28592063828E-02 -0.12160660584E-01  0.20749181976E-01  0.24219522697E-01  0.00000000000E+00 0.  1.
     999901    1    3    3    0    0 -0.69237198575E-01  0.39568330293E-01  0.87830981560E-01  0.88796042916E+00  0.88000000000E+00 0.  1.
        -11    1    4    4    0    0  0.33191085932E-01 -0.23605616390E-01 -0.52149323380E-01  0.66171643175E-01  0.51100000000E-03 0. -1.
         11    1    4    4    0    0  0.33186906261E-01 -0.38020533194E-02 -0.56430840157E-01  0.65578404970E-01  0.51100000000E-03 0.  1.
</event>
<event>
 8    1  0.1065239E+005  0.1043930E+01  0.7957747E-01            NaN
         13   -1    0    0    0    0  0.00000000000E+00  0.00000000000E+00  0.74505805969E-08  0.10566000000E+00  0.10566000000E+00 0.  1.
     999900   -1    0    0    0    0 -0.00000000000E+00 -0.00000000000E+00 -0.74505805969E-08  0.93827000000E+00  0.93827000000E+00 0.  1.
     999902    2    1    2    0    0 -0.48008264291E-02 -0.81497753589E-02  0.22727376333E-01  0.10193129245E+01  0.10190156219E+01 0.  0.
     999903    2    3    3    0    0  0.10066572061E+00  0.69147718804E-01 -0.30796608507E-01  0.12804253222E+00  0.23053516859E-01 0.  0.
         14    1    1    2    0    0  0.48008264291E-02  0.81497753589E-02 -0.22727376333E-01  0.24617075532E-01  0.00000000000E+00 0. -1.
     999901    1    3    3    0    0 -0.10546654704E+00 -0.77297494163E-01  0.53523984840E-01  0.89127039225E+00  0.88000000000E+00 0. -1.
        -11    1    4    4    0    0  0.62220464356E-01  0.36821077680E-01 -0.75578205941E-02  0.72694977264E-01  0.51100000000E-03 0. -1.
         11    1    4    4    0    0  0.38445256253E-01  0.32326641124E-01 -0.23238787913E-01  0.55347554954E-01  0.51100000000E-03 0.  1.
</event>
<event>
 8    1  0.1065239E+005  0.1043930E+01  0.7957747E-01            NaN
         13   -1    0    0    0    0  0.00000000000E+00  0.00000000000E+00  0.74505805969E-08  0.10566000000E+00  0.10566000000E+00 0. -1.
     999900   -1    0    0    0    0 -0.00000000000E+00 -0.00000000000E+00 -0.74505805969E-08  0.93827000000E+00  0.93827000000E+00 0. -1.
     999902    2    1    2    0    0  0.15021748827E-01  0.14062232850E-01 -0.14878128852E-01  0.10185379137E+01  0.10182213529E+01 0.  0.
     999903    2    3    3    0    0 -0.74705969957E-01  0.10286519201E+00  0.11671647311E-01  0.12913253944E+00  0.19410196233E-01 0.  0.
         14    1    1    2    0    0 -0.15021748827E-01 -0.14062232850E-01  0.14878128852E-01  0.25392086340E-01  0.00000000000E+00 0. -1.
     999901    1    3    3    0    0  0.89727718784E-01 -0.88802959157E-01 -0.26549776163E-01  0.88940537422E+00  0.88000000000E+00 0. -1.
        -11    1    4    4    0    0 -0.12511008363E-01  0.23502657750E-01 -0.45164240792E-02  0.27010358366E-01  0.51100000000E-03 0. -1.
         11    1    4    4    0    0 -0.62194961595E-01  0.79362534257E-01  0.16188071390E-01  0.10212218108E+00  0.51100000000E-03 0.  1.
</event>
<event>
 8    1  0.1065239E+005  0.1043930E+01  0.7957747E-01            NaN
         13   -1    0    0    0    0  0.00000000000E+00  0.00000000000E+00  0.74505805969E-08  0.10566000000E+00  0.10566000000E+00 0. -1.
     999900   -1    0    0    0    0 -0.00000000000E+00 -0.00000000000E+00 -0.74505805969E-08  0.93827000000E+00  0.93827000000E+00 0.  1.
     999902    2    1    2    0    0  0.19076802675E-01  0.10618822435E-03  0.13231412908E-01  0.10207134980E+01  0.10204494300E+01 0.  0.
     999903    2    3    3    0    0  0.95222211821E-01 -0.43166769277E-03 -0.88482042776E-01  0.13158806273E+00  0.20466812130E-01 0.  0.
         14    1    1    2    0    0 -0.19076802675E-01 -0.10618822435E-03 -0.13231412908E-01  0.23216501971E-01  0.00000000000E+00 0.  1.
     999901    1    3    3    0    0 -0.76145409146E-01  0.53785591713E-03  0.10171345568E+00  0.88912543530E+00  0.88000000000E+00 0. -1.
        -11    1    4    4    0    0  0.24738086468E-01  0.23111614167E-03 -0.36101354496E-01  0.43767513686E-01  0.51100000000E-03 0.  1.
         11    1    4    4    0    0  0.70484125353E-01 -0.66278383445E-03 -0.52380688280E-01  0.87820549047E-01  0.51100000000E-03 0. -1.
</event>
<event>
 8    1  0.1065239E+005  0.1043930E+01  0.7957747E-01            NaN
         13   -1    0    0    0    0  0.00000000000E+00  0.00000000000E+00  0.74505805969E-08  0.10566000000E+00  0.10566000000E+00 0.  1.
     999900   -1    0    0    0    0 -0.00000000000E+00 -0.00000000000E+00 -0.74505805969E-08  0.93827000000E+00  0.93827000000E+00 0.  1.
     999902    2    1    2    0    0 -0.10591329047E-01 -0.19897809245E-01  0.75831936948E-02  0.10201475718E+01  0.10198703174E+01 0.  0.
     999903    2    3    3    0    0 -0.12330156858E+00  0.26844763680E-01 -0.28839703230E-01  0.13098218020E+00  0.20017115136E-01 0.  0.
         14    1    1    2    0    0  0.10591329047E-01  0.19897809245E-01 -0.75831936948E-02  0.23782428185E-01  0.00000000000E+00 0. -1.
     999901    1    3    3    0    0  0.11271023953E+00 -0.46742572925E-01  0.36422896925E-01  0.88916539161E+00  0.88000000000E+00 0. -1.
        -11    1    4    4    0    0 -0.69151776253E-01  0.19981143127E-01 -0.25235718362E-01  0.76277892222E-01  0.51100000000E-03 0. -1.
         11    1    4    4    0    0 -0.54149792323E-01  0.68636205526E-02 -0.36039848684E-02  0.54704287982E-01  0.51100000000E-03 0.  1.
</event>
<event>
 8    1  0.1065239E+005  0.1043930E+01  0.7957747E-01            NaN
         13   -1    0    0    0    0  0.00000000000E+00  0.00000000000E+00  0.74505805969E-08  0.10566000000E+00  0.10566000000E+00 0.  1.
     999900   -1    0    0    0    0 -0.00000000000E+00 -0.00000000000E+00 -0.74505805969E-08  0.93827000000E+00  0.93827000000E+00 0. -1.
     999902    2    1    2    0    0  0.17278809424E-01 -0.89635260655E-02 -0.12232164167E-01  0.10209402654E+01  0.10206813889E+01 0.  0.
     999903    2    3    3    0    0  0.39260564345E-02  0.98142337494E-01 -0.85119135629E-01  0.13135470316E+00  0.19012061011E-01 0.  0.
         14    1    1    2    0    0 -0.17278809424E-01  0.89635260655E-02  0.12232164167E-01  0.22989734554E-01  0.00000000000E+00 0.  1.
     999901    1    3    3    0    0  0.13352752990E-01 -0.10710586356E+00  0.72886971462E-01  0.88958556229E+00  0.88000000000E+00 0. -1.
        -11    1    4    4    0    0  0.80964592511E-02  0.25771780894E-01 -0.29348511624E-01  0.39891522889E-01  0.51100000000E-03 0. -1.
         11    1    4    4    0    0 -0.41704028166E-02  0.72370556600E-01 -0.55770624005E-01  0.91463180270E-01  0.51100000000E-03 0.  1.
</event>
<event>
 8    1  0.1065239E+005  0.1043930E+01  0.7957747E-01            NaN
         13   -1    0    0    0    0  0.00000000000E+00  0.00000000000E+00  0.74505805969E-08  0.10566000000E+00  0.10566000000E+00 0. -1.
     999900   -1    0    0    0    0 -0.00000000000E+00 -0.00000000000E+00 -0.74505805969E-08  0.93827000000E+00  0.93827000000E+00 0.  1.
     999902    2    1    2    0    0  0.15202330990E-01 -0.14407445536E-01 -0.11945068711E-01  0.10198183841E+01  0.10195333082E+01 0.  0.
     999903    2    3    3    0    0 -0.12547681672E+00  0.14084504682E-01 -0.32197475785E-02  0.12814661431E+00  0.21642162035E-01 0.  0.
         14    1    1    2    0    0 -0.15202330990E-01  0.14407445536E-01  0.11945068711E-01  0.24111615891E-01  0.00000000000E+00 0. -1.
     999901    1    3    3    0    0  0.14067914771E+00 -0.28491950218E-01 -0.87253211321E-02  0.89167176980E+00  0.88000000000E+00 0.  1.
        -11    1    4    4    0    0 -0.84643271905E-01  0.91768279079E-02  0.79926145707E-02  0.85515148704E-01  0.51100000000E-03 0.  1.
         11    1    4    4    0    0 -0.40833544817E-01  0.49076767744E-02 -0.11212362149E-01  0.42631465605E-01  0.51100000000E-03 0. -1.
</event>
<event>
 8    1  0.1065239E+005  0.1043930E+01  0.7957747E-01            NaN
         13   -1    0    0    0    0  0.00000000000E+00  0.00000000000E+00  0.74505805969E-08  0.10566000000E+00  0.10566000000E+00 0.  1.
     999900   -1    0    0    0    0 -0.00000000000E+00 -0.00000000000E+00 -0.74505805969E-08  0.93827000000E+00  0.93827000000E+00 0. -1.
     999902    2    1    2    0    0  0.20066551416E-01 -0.44227345402E-02 -0.11424151741E-01  0.10204196127E+01  0.10201487380E+01 0.  0.
     999903    2    3    3    0    0  0.10429483547E+00 -0.80396017737E-01 -0.20270040193E-02  0.13308954450E+00  0.19177740645E-01 0.  0.
         14    1    1    2    0    0 -0.20066551416E-01  0.44227345402E-02  0.11424151741E-01  0.23510387269E-01  0.00000000000E+00 0.  1.
     999901    1    3    3    0    0 -0.84228284059E-01  0.75973283196E-01 -0.93971477216E-02  0.88733006823E+00  0.88000000000E+00 0.  1.
        -11    1    4    4    0    0  0.40773962840E-01 -0.43441978882E-01 -0.13124450532E-02  0.59596184508E-01  0.51100000000E-03 0. -1.
         11    1    4    4    0    0  0.63520872635E-01 -0.36954038854E-01 -0.71455896613E-03  0.73493359996E-01  0.51100000000E-03 0.  1.
</event>
<event>
 8    1  0.1065239E+005  0.1043930E+01  0.7957747E-01            NaN
         13   -1    0    0    0    0  0.00000000000E+00  0.00000000000E+00  0.74505805969E-08  0.10566000000E+00  0.10566000000E+00 0. -1.
     999900   -1    0    0    0    0 -0.00000000000E+00 -0.00000000000E+00 -0.74505805969E-08  0.93827000000E+00  0.93827000000E+00 0. -1.
     999902    2    1    2    0    0 -0.44309787550E-02 -0.36270081833E-02 -0.21453511800E-01  0.10217254525E+01  0.10214841449E+01 0.  0.
     999903    2    3    3    0    0  0.39375483166E-01 -0.10142283268E+00 -0.74491600192E-01  0.13363983263E+00  0.21762047302E-01 0.  0.
         14    1    1    2    0    0  0.44309787550E-02  0.36270081833E-02  0.21453511800E-01  0.22204547499E-01  0.00000000000E+00 0. -1.
     999901    1    3    3    0    0 -0.43806461921E-01  0.97795824500E-01  0.53038088392E-01  0.88808561987E+00  0.88000000000E+00 0. -1.
        -11    1    4    4    0    0  0.34939908540E-01 -0.76386205891E-01 -0.66004765862E-01  0.10682948983E+00  0.51100000000E-03 0.  1.
         11    1    4    4    0    0  0.44355746261E-02 -0.25036626792E-01 -0.84868343304E-02  0.26810342806E-01  0.51100000000E-03 0. -1.
</event>
<event>
 8    1  0.1065239E+005  0.1043930E+01  0.7957747E-01            NaN
         13   -1    0    0    0    0  0.00000000000E+00  0.00000000000E+00  0.74505805969E-08  0.10566000000E+00  0.10566000000E+00 0.  1.
     999900   -1    0    0    0    0 -0.00000000000E+00 -0.00000000000E+00 -0.74505805969E-08  0.93827000000E+00  0.93827000000E+00 0.  1.
     999902    2    1    2    0    0  0.18822845059E-01  0.13541143011E-01 -0.23149175805E-02  0.10206271913E+01  0.10203611335E+01 0.  0.
     999903    2    3    3    0    0 -0.10334294695E+00  0.73295658594E-01 -0.20954574967E-01  0.12998555759E+00  0.20127908891E-01 0.  0.
         14    1    1    2    0    0 -0.18822845059E-01 -0.13541143011E-01  0.23149175805E-02  0.23302808705E-01  0.00000000000E+00 0. -1.
     999901    1    3    3    0    0  0.12216579201E+00 -0.59754515582E-01  0.18639657387E-01  0.89064163371E+00  0.88000000000E+00 0.  1.
        -11    1    4    4    0    0 -0.82082135007E-01  0.47476393366E-01 -0.14763323042E-01  0.95967190449E-01  0.51100000000E-03 0. -1.
         11    1    4    4    0    0 -0.21260811940E-01  0.25819265228E-01 -0.61912519252E-02  0.34018367136E-01  0.51100000000E-03 0.  1.
</event>
<event>
 8    1  0.1065239E+005  0.1043930E+01  0.7957747E-01            NaN
         13   -1    0    0    0    0  0.00000000000E+00  0.00000000000E+00  0.74505805969E-08  0.10566000000E+00  0.10566000000E+00 0.  1.
     999900   -1    0    0    0    0 -0.00000000000E+00 -0.00000000000E+00 -0.74505805969E-08  0.93827000000E+00  0.93827000000E+00 0. -1.
     999902    2    1    2    0    0 -0.22236100984E-01 -0.20102442613E-02 -0.73344781860E-02  0.10204293651E+01  0.10201587177E+01 0.  0.
     999903    2    3    3    0    0 -0.10144740535E+00  0.64844595926E-01  0.50060859589E-01  0.13248892502E+00  0.23469723372E-01 0.  0.
         14    1    1    2    0    0  0.22236100984E-01  0.20102442613E-02  0.73344781860E-02  0.23500634868E-01  0.00000000000E+00 0.  1.
     999901    1    3    3    0    0  0.79211304370E-01 -0.66854840188E-01 -0.57395337775E-01  0.88794044012E+00  0.88000000000E+00 0.  1.
        -11    1    4    4    0    0 -0.72585838095E-01  0.39754467598E-01  0.23869931729E-01  0.86134524714E-01  0.51100000000E-03 0.  1.
         11    1    4    4    0    0 -0.28861567258E-01  0.25090128328E-01  0.26190927859E-01  0.46354400301E-01  0.51100000000E-03 0. -1.
</event>
<event>
 8    1  0.1065239E+005  0.1043930E+01  0.7957747E-01            NaN
         13   -1    0    0    0    0  0.00000000000E+00  0.00000000000E+00  0.74505805969E-08  0.10566000000E+00  0.10566000000E+00 0. -1.
     999900   -1    0    0    0    0 -0.00000000000E+00 -0.00000000000E+00 -0.74505805969E-08  0.93827000000E+00  0.93827000000E+00 0.  1.
     999902    2    1    2    0    0 -0.20577764952E-01 -0.45903328597E-02  0.10440366082E-01  0.10204030620E+01  0.10201318014E+01 0.  0.
     999903    2    3    3    0    0  0.12933770383E-01 -0.87454737484E-01  0.94750136395E-01  0.13186624798E+00  0.24402981072E-01 0.  0.
         14    1    1    2    0    0  0.20577764952E-01  0.45903328597E-02 -0.10440366082E-01  0.23526937967E-01  0.00000000000E+00 0. -1.
     999901    1    3    3    0    0 -0.33511535334E-01  0.82864404624E-01 -0.84309770313E-01  0.88853681405E+00  0.88000000000E+00 0. -1.
        -11    1    4    4    0    0 -0.37319546558E-02 -0.54069787803E-01  0.51862267103E-01  0.75016166982E-01  0.51100000000E-03 0.  1.
         11    1    4    4    0    0  0.16665725038E-01 -0.33384949681E-01  0.42887869292E-01  0.56850081000E-01  0.51100000000E-03 0. -1.
</event>
<event>
 8    1  0.1065239E+005  0.1043930E+01  0.7957747E-01            NaN
         13   -1    0    0    0    0  0.00000000000E+00  0.00000000000E+00  0.74505805969E-08  0.10566000000E+00  0.10566000000E+00 0.  1.
     999900   -1    0    0    0    0 -0.00000000000E+00 -0.00000000000E+00 -0.74505805969E-08  0.93827000000E+00  0.93827000000E+00 0.  1.
     999902    2    1    2    0    0 -0.59244124866E-02 -0.19848628652E-01  0.57060429921E-02  0.10224445247E+01  0.10222187537E+01 0.  0.
     999903    2    3    3    0    0  0.45297675815E-01  0.11650295190E+00  0.30700831030E-01  0.13012160373E+00  0.19085950204E-01 0.  0.
         14    1    1    2    0    0  0.59244124866E-02  0.19848628652E-01 -0.57060429921E-02  0.21485475310E-01  0.00000000000E+00 0. -1.
     999901    1    3    3    0    0 -0.51222088302E-01 -0.13635158055E+00 -0.24994788038E-01  0.89232292096E+00  0.88000000000E+00 0. -1.
        -11    1    4    4    0    0  0.40064817170E-01  0.10083893002E+00  0.33057168677E-01  0.11343155163E+00  0.51100000000E-03 0. -1.
         11    1    4    4    0    0  0.52328586447E-02  0.15664021879E-01 -0.23563376466E-02  0.16690052101E-01  0.51100000000E-03 0.  1.
</event>
<event>
 8    1  0.1065239E+005  0.1043930E+01  0.7957747E-01            NaN
         13   -1    0    0    0    0  0.00000000000E+00  0.00000000000E+00  0.74505805969E-08  0.10566000000E+00  0.10566000000E+00 0.  1.
     999900   -1    0    0    0    0 -0.00000000000E+00 -0.00000000000E+00 -0.74505805969E-08  0.93827000000E+00  0.93827000000E+00 0.  1.
     999902    2    1    2    0    0  0.12836072334E-01 -0.61827829835E-02  0.18751102116E-01  0.10203801510E+01  0.10201083556E+01 0.  0.
     999903    2    3    3    0    0 -0.65585349642E-01  0.71014570398E-01 -0.81368421617E-01  0.12789302512E+00  0.19781267420E-01 0.  0.
         14    1    1    2    0    0 -0.12836072334E-01  0.61827829835E-02 -0.18751102116E-01  0.23549849022E-01  0.00000000000E+00 0. -1.
     999901    1    3    3    0    0  0.78421421976E-01 -0.77197353381E-01  0.10011952373E+00  0.89248712586E+00  0.88000000000E+00 0.  1.
        -11    1    4    4    0    0 -0.57652695613E-01  0.51144149185E-01 -0.60244151055E-01  0.97822166019E-01  0.51100000000E-03 0. -1.
         11    1    4    4    0    0 -0.79326540286E-02  0.19870421213E-01 -0.21124270562E-01  0.30070859098E-01  0.51100000000E-03 0.  1.
</event>
<event>
 8    1  0.1151969E+005  0.1043930E+01  0.7957747E-01            NaN
         13   -1    0    0    0    0  0.00000000000E+00  0.00000000000E+00  0.74505805969E-08  0.10566000000E+00  0.10566000000E+00 0.  1.
     999900   -1    0    0    0    0 -0.00000000000E+00 -0.00000000000E+00 -0.74505805969E-08  0.93827000000E+00  0.93827000000E+00 0. -1.
     999902    2    1    2    0    0  0.15505062430E-01 -0.89609589135E-02 -0.16339161729E-01  0.10196880126E+01  0.10193998083E+01 0.  0.
     999903    2    3    3    0    0  0.48746522626E-01 -0.48214714611E-01  0.10802603478E+00  0.12945627083E+00  0.19708366095E-01 0.  0.
         14    1    1    2    0    0 -0.15505062430E-01  0.89609589135E-02  0.16339161729E-01  0.24241987369E-01  0.00000000000E+00 0.  1.
     999901    1    3    3    0    0 -0.33241460196E-01  0.39253755698E-01 -0.12436519650E+00  0.89023174180E+00  0.88000000000E+00 0. -1.
        -11    1    4    4    0    0  0.13753588531E-01 -0.19225272642E-01  0.53390089915E-01  0.58391224750E-01  0.51100000000E-03 0.  1.
         11    1    4    4    0    0  0.34992934095E-01 -0.28989441969E-01  0.54635944860E-01  0.71065046078E-01  0.51100000000E-03 0. -1.
</event>
<event>
 8    1  0.1065239E+005  0.1043930E+01  0.7957747E-01            NaN
         13   -1    0    0    0    0  0.00000000000E+00  0.00000000000E+00  0.74505805969E-08  0.10566000000E+00  0.10566000000E+00 0.  1.
     999900   -1    0    0    0    0 -0.00000000000E+00 -0.00000000000E+00 -0.74505805969E-08  0.93827000000E+00  0.93827000000E+00 0.  1.
     999902    2    1    2    0    0  0.18970903028E-01  0.38191504758E-02 -0.13968965996E-01  0.10200634317E+01  0.10197841887E+01 0.  0.
     999903    2    3    3    0    0  0.10145397603E+00 -0.50621594915E-01  0.62862743542E-01  0.13120440817E+00  0.20184575150E-01 0.  0.
         14    1    1    2    0    0 -0.18970903028E-01 -0.38191504758E-02  0.13968965996E-01  0.23866568314E-01  0.00000000000E+00 0.  1.
     999901    1    3    3    0    0 -0.82483073004E-01  0.54440745391E-01 -0.76831709538E-01  0.88885902351E+00  0.88000000000E+00 0.  1.
        -11    1    4    4    0    0  0.35170641073E-01 -0.27571676153E-01  0.29056044093E-01  0.53307467945E-01  0.51100000000E-03 0. -1.
         11    1    4    4    0    0  0.66283334959E-01 -0.23049918761E-01  0.33806699448E-01  0.77896940228E-01  0.51100000000E-03 0.  1.
</event>
<event>
 8    1  0.1065239E+005  0.1043930E+01  0.7957747E-01            NaN
         13   -1    0    0    0    0  0.00000000000E+00  0.00000000000E+00  0.74505805969E-08  0.10566000000E+00  0.10566000000E+00 0. -1.
     999900   -1    0    0    0    0 -0.00000000000E+00 -0.00000000000E+00 -0.74505805969E-08  0.93827000000E+00  0.93827000000E+00 0. -1.
     999902    2    1    2    0    0 -0.18589021031E-01 -0.10279619442E-01 -0.10752375850E-01  0.10201216850E+01  0.10198438195E+01 0.  0.
     999903    2    3    3    0    0 -0.27729185576E-01 -0.47439311707E-01 -0.11909859082E+00  0.13265152341E+00  0.19813033568E-01 0.  0.
         14    1    1    2    0    0  0.18589021031E-01  0.10279619442E-01  0.10752375850E-01  0.23808315043E-01  0.00000000000E+00 0. -1.
     999901    1    3    3    0    0  0.91401645455E-02  0.37159692265E-01  0.10834621497E+00  0.88747016155E+00  0.88000000000E+00 0.  1.
        -11    1    4    4    0    0 -0.55367282322E-02 -0.98498330038E-02 -0.47211239772E-01  0.48547264100E-01  0.51100000000E-03 0.  1.
         11    1    4    4    0    0 -0.22192457344E-01 -0.37589478703E-01 -0.71887351050E-01  0.84104259311E-01  0.51100000000E-03 0. -1.
</event>
<event>
 8    1  0.1065239E+005  0.1043930E+01  0.7957747E-01            NaN
         13   -1    0    0    0    0  0.00000000000E+00  0.00000000000E+00  0.74505805969E-08  0.10566000000E+00  0.10566000000E+00 0. -1.
     999900   -1    0    0    0    0 -0.00000000000E+00 -0.00000000000E+00 -0.74505805969E-08  0.93827000000E+00  0.93827000000E+00 0.  1.
     999902    2    1    2    0    0 -0.80795332443E-02 -0.26119707683E-01  0.73434290499E-02  0.10156202148E+01  0.10152255793E+01 0.  0.
     999903    2    3    3    0    0  0.17599670606E-01 -0.10634077087E+00 -0.66981581782E-01  0.12847927465E+00  0.20057012777E-01 0.  0.
         14    1    1    2    0    0  0.80795332443E-02  0.26119707683E-01 -0.73434290499E-02  0.28309785183E-01  0.00000000000E+00 0.  1.
     999901    1    3    3    0    0 -0.25679203850E-01  0.80221063187E-01  0.74325010832E-01  0.88714094017E+00  0.88000000000E+00 0. -1.
        -11    1    4    4    0    0  0.46308057029E-04 -0.60992041489E-01 -0.36275822980E-01  0.70966384460E-01  0.51100000000E-03 0. -1.
         11    1    4    4    0    0  0.17553362549E-01 -0.45348729380E-01 -0.30705758802E-01  0.57512890188E-01  0.51100000000E-03 0.  1.
</event>
<event>
 8    1  0.1065239E+005  0.1043930E+01  0.7957747E-01            NaN
         13   -1    0    0    0    0  0.00000000000E+00  0.00000000000E+00  0.74505805969E-08  0.10566000000E+00  0.10566000000E+00 0.  1.
     999900   -1    0    0    0    0 -0.00000000000E+00 -0.00000000000E+00 -0.74505805969E-08  0.93827000000E+00  0.93827000000E+00 0.  1.
     999902    2    1    2    0    0  0.18626943732E-01 -0.12802008763E-01  0.72697402885E-02  0.10201875573E+01  0.10199112454E+01 0.  0.
     999903    2    3    3    0    0  0.31853481039E-01  0.11570923236E+00  0.45499436166E-01  0.12993389119E+00  0.20232317734E-01 0.  0.
         14    1    1    2    0    0 -0.18626943732E-01  0.12802008763E-01 -0.72697402885E-02  0.23742442693E-01  0.00000000000E+00 0.  1.
     999901    1    3    3    0    0 -0.13226537306E-01 -0.12851124112E+00 -0.38229695877E-01  0.89025366612E+00  0.88000000000E+00 0.  1.
        -11    1    4    4    0    0  0.21689350595E-01  0.10134460934E+00  0.42770495017E-01  0.11211928530E+00  0.51100000000E-03 0.  1.
         11    1    4    4    0    0  0.10164130444E-01  0.14364623019E-01  0.27289411486E-02  0.17814605888E-01  0.51100000000E-03 0. -1.
</event>
<event>
 8    1  0.1065239E+005  0.1043930E+01  0.7957747E-01            NaN
         13   -1    0    0    0    0  0.00000000000E+00  0.00000000000E+00  0.74505805969E-08  0.10566000000E+00  0.10566000000E+00 0. -1.
     999900   -1    0    0    0    0 -0.00000000000E+00 -0.00000000000E+00 -0.74505805969E-08  0.93827000000E+00  0.93827000000E+00 0. -1.
     999902    2    1    2    0    0 -0.13354362396E-01 -0.16540106703E-01  0.88072246700E-02  0.10209195387E+01  0.10206601898E+01 0.  0.
     999903    2    3    3    0    0  0.85492137932E-01 -0.11086854939E-01 -0.94430900487E-01  0.12937117818E+00  0.19694739827E-01 0.  0.
         14    1    1    2    0    0  0.13354362396E-01  0.16540106703E-01 -0.88072246700E-02  0.23010461341E-01  0.00000000000E+00 0. -1.
     999901    1    3    3    0    0 -0.98846500328E-01 -0.54532517645E-02  0.10323812516E+00  0.89154836048E+00  0.88000000000E+00 0.  1.
        -11    1    4    4    0    0  0.18792552332E-01  0.48958438218E-02 -0.26277855719E-01  0.32678986093E-01  0.51100000000E-03 0.  1.
         11    1    4    4    0    0  0.66699585600E-01 -0.15982698760E-01 -0.68153044769E-01  0.96692192090E-01  0.51100000000E-03 0. -1.
</event>
<event>
 8    1  0.1065239E+005  0.1043930E+01  0.7957747E-01            NaN
         13   -1    0    0    0    0  0.00000000000E+00  0.00000000000E+00  0.74505805969E-08  0.10566000000E+00  0.10566000000E+00 0.  1.
     999900   -1    0    0    0    0 -0.00000000000E+00 -0.00000000000E+00 -0.74505805969E-08  0.93827000000E+00  0.93827000000E+00 0. -1.
     999902    2    1    2    0    0  0.78092447936E-03  0.21186484283E-01  0.47200407044E-02  0.10222100612E+01  0.10219792823E+01 0.  0.
     999903    2    3    3    0    0 -0.69492480030E-01  0.97375127075E-01 -0.56226130793E-01  0.13403356040E+00  0.22192281886E-01 0.  0.
         14    1    1    2    0    0 -0.78092447936E-03 -0.21186484283E-01 -0.47200407044E-02  0.21719938848E-01  0.00000000000E+00 0.  1.
     999901    1    3    3    0    0  0.70273404509E-01 -0.76188642792E-01  0.60946171498E-01  0.88817650075E+00  0.88000000000E+00 0.  1.
        -11    1    4    4    0    0 -0.63631045897E-01  0.87860819845E-01 -0.57490734408E-01  0.12277572777E+00  0.51100000000E-03 0.  1.
         11    1    4    4    0    0 -0.58614341329E-02  0.95143072297E-02  0.12646036146E-02  0.11257832627E-01  0.51100000000E-03 0. -1.
</event>
<event>
 8    1  0.1065239E+005  0.1043930E+01  0.7957747E-01            NaN
         13   -1    0    0    0    0  0.00000000000E+00  0.00000000000E+00  0.74505805969E-08  0.10566000000E+00  0.10566000000E+00 0. -1.
     999900   -1    0    0    0    0 -0.00000000000E+00 -0.00000000000E+00 -0.74505805969E-08  0.93827000000E+00  0.93827000000E+00 0.  1.
     999902    2    1    2    0    0  0.12797820527E-01 -0.31725318328E-02 -0.17325716258E-01  0.10221577789E+01  0.10219258756E+01 0.  0.
     999903    2    3    3    0    0 -0.11680413831E+00 -0.20672902913E-01  0.48997479634E-01  0.13002455059E+00  0.20857974571E-01 0.  0.
         14    1    1    2    0    0 -0.12797820527E-01  0.31725318328E-02  0.17325716258E-01  0.21772221116E-01  0.00000000000E+00 0. -1.
     999901    1    3    3    0    0  0.12960195884E+00  0.17500371080E-01 -0.66323195891E-01  0.89213322830E+00  0.88000000000E+00 0.  1.
        -11    1    4    4    0    0 -0.73930670318E-01 -0.83081084304E-02  0.40120990477E-01  0.84526467318E-01  0.51100000000E-03 0.  1.
         11    1    4    4    0    0 -0.42873467992E-01 -0.12364794483E-01  0.88764891568E-02  0.45498083267E-01  0.51100000000E-03 0. -1.
</event>
<event>
 8    1  0.1065239E+005  0.1043930E+01  0.7957747E-01            NaN
         13   -1    0    0    0    0  0.00000000000E+00  0.00000000000E+00  0.74505805969E-08  0.10566000000E+00  0.10566000000E+00 0.  1.
     999900   -1    0    0    0    0 -0.00000000000E+00 -0.00000000000E+00 -0.74505805969E-08  0.93827000000E+00  0.93827000000E+00 0.  1.
     999902    2    1    2    0    0 -0.16876813558E-01 -0.13831933848E-01 -0.10776139585E-01  0.10195933114E+01  0.10193028236E+01 0.  0.
     999903    2    3    3    0    0  0.96962045360E-01  0.66489864106E-02 -0.82609167040E-01  0.12912223505E+00  0.20060654169E-01 0.  0.
         14    1    1    2    0    0  0.16876813558E-01  0.13831933848E-01  0.10776139585E-01  0.24336688645E-01  0.00000000000E+00 0. -1.
     999901    1    3    3    0    0 -0.11383885892E+00 -0.20480920259E-01  0.71833027455E-01  0.89047107630E+00  0.88000000000E+00 0.  1.
        -11    1    4    4    0    0  0.41907968193E-01 -0.12699497111E-02 -0.47436004594E-01  0.63311343558E-01  0.51100000000E-03 0. -1.
         11    1    4    4    0    0  0.55054077168E-01  0.79189361217E-02 -0.35173162446E-01  0.65810891496E-01  0.51100000000E-03 0.  1.
</event>
<event>
 8    1  0.1065239E+005  0.1043930E+01  0.7957747E-01            NaN
         13   -1    0    0    0    0  0.00000000000E+00  0.00000000000E+00  0.74505805969E-08  0.10566000000E+00  0.10566000000E+00 0. -1.
     999900   -1    0    0    0    0 -0.00000000000E+00 -0.00000000000E+00 -0.74505805969E-08  0.93827000000E+00  0.93827000000E+00 0.  1.
     999902    2    1    2    0    0 -0.12150627680E-01  0.14091335598E-01  0.15905687062E-01  0.10194515529E+01  0.10191576298E+01 0.  0.
     999903    2    3    3    0    0  0.54125798250E-01  0.75641731326E-01 -0.87032984101E-01  0.12884648561E+00  0.19375318787E-01 0.  0.
         14    1    1    2    0    0  0.12150627680E-01 -0.14091335598E-01 -0.15905687062E-01  0.24478447109E-01  0.00000000000E+00 0.  1.
     999901    1    3    3    0    0 -0.66276425929E-01 -0.61550395727E-01  0.10293867116E+00  0.89060506728E+00  0.88000000000E+00 0. -1.
        -11    1    4    4    0    0  0.61802286716E-02  0.96425494687E-02 -0.32678081046E-02  0.11921144135E-01  0.51100000000E-03 0. -1.
         11    1    4    4    0    0  0.47945569578E-01  0.65999181857E-01 -0.83765175996E-01  0.11692534147E+00  0.51100000000E-03 0.  1.
</event>
<event>
 8    1  0.1065239E+005  0.1043930E+01  0.7957747E-01            NaN
         13   -1    0    0    0    0  0.00000000000E+00  0.00000000000E+00  0.74505805969E-08  0.10566000000E+00  0.10566000000E+00 0.  1.
     999900   -1    0    0    0    0 -0.00000000000E+00 -0.00000000000E+00 -0.74505805969E-08  0.93827000000E+00  0.93827000000E+00 0. -1.
     999902    2    1    2    0    0 -0.18530752193E-01  0.12556859892E-01 -0.70870057761E-02  0.10204504523E+01  0.10201802961E+01 0.  0.
     999903    2    3    3    0    0 -0.57645271546E-01 -0.13336685466E-01  0.11495270244E+00  0.13079090415E+00  0.19781109665E-01 0.  0.
         14    1    1    2    0    0  0.18530752193E-01 -0.12556859892E-01  0.70870057761E-02  0.23479547654E-01  0.00000000000E+00 0.  1.
     999901    1    3    3    0    0  0.39114519353E-01  0.25893545357E-01 -0.12203970821E+00  0.88965954820E+00  0.88000000000E+00 0. -1.
        -11    1    4    4    0    0 -0.12879718010E-01  0.16801004184E-02  0.41334697052E-01  0.43330453203E-01  0.51100000000E-03 0. -1.
         11    1    4    4    0    0 -0.44765553536E-01 -0.15016785884E-01  0.73618005387E-01  0.87460450946E-01  0.51100000000E-03 0.  1.
</event>
<event>
 8    1  0.1065239E+005  0.1043930E+01  0.7957747E-01            NaN
         13   -1    0    0    0    0  0.00000000000E+00  0.00000000000E+00  0.74505805969E-08  0.10566000000E+00  0.10566000000E+00 0.  1.
     999900   -1    0    0    0    0 -0.00000000000E+00 -0.00000000000E+00 -0.74505805969E-08  0.93827000000E+00  0.93827000000E+00 0.  1.
     999902    2    1    2    0    0 -0.12342851311E-01 -0.16807238823E-01 -0.10295425412E-01  0.10206743547E+01  0.10204093851E+01 0.  0.
     999903    2    3    3    0    0  0.35606906284E-01  0.65889978649E-01  0.10014849714E+00  0.12863407023E+00  0.30127420808E-01 0.  0.
         14    1    1    2    0    0  0.12342851311E-01  0.16807238823E-01  0.10295425412E-01  0.23255645330E-01  0.00000000000E+00 0. -1.
     999901    1    3    3    0    0 -0.47949757595E-01 -0.82697217471E-01 -0.11044392255E+00  0.89204028444E+00  0.88000000000E+00 0.  1.
        -11    1    4    4    0    0  0.83765988192E-02  0.10260870026E-01  0.40616148528E-01  0.42724530468E-01  0.51100000000E-03 0.  1.
         11    1    4    4    0    0  0.27230307465E-01  0.55629108622E-01  0.59532348608E-01  0.85909539765E-01  0.51100000000E-03 0. -1.
</event>
<event>
 8    1  0.1065239E+005  0.1043930E+01  0.7957747E-01            NaN
         13   -1    0    0    0    0  0.00000000000E+00  0.00000000000E+00  0.74505805969E-08  0.10566000000E+00  0.10566000000E+00 0. -1.
     999900   -1    0    0    0    0 -0.00000000000E+00 -0.00000000000E+00 -0.74505805969E-08  0.93827000000E+00  0.93827000000E+00 0.  1.
     999902    2    1    2    0    0  0.15854180670E-01  0.76735067100E-02 -0.16412193544E-01  0.10198551615E+01  0.10195709650E+01 0.  0.
     999903    2    3    3    0    0  0.99998439308E-01  0.58851998778E-01 -0.62327783344E-01  0.13317160147E+00  0.19664110384E-01 0.  0.
         14    1    1    2    0    0 -0.15854180670E-01 -0.76735067100E-02  0.16412193544E-01  0.24074838460E-01  0.00000000000E+00 0. -1.
     999901    1    3    3    0    0 -0.84144258638E-01 -0.51178492068E-01  0.45915589799E-01  0.88668356007E+00  0.88000000000E+00 0. -1.
        -11    1    4    4    0    0  0.14615008533E-01  0.18355099027E-02 -0.10958641863E-01  0.18366287690E-01  0.51100000000E-03 0. -1.
         11    1    4    4    0    0  0.85383430775E-01  0.57016488875E-01 -0.51369141480E-01  0.11480531378E+00  0.51100000000E-03 0.  1.
</event>
<event>
 8    1  0.1065239E+005  0.1043930E+01  0.7957747E-01            NaN
         13   -1    0    0    0    0  0.00000000000E+00  0.00000000000E+00  0.74505805969E-08  0.10566000000E+00  0.10566000000E+00 0.  1.
     999900   -1    0    0    0    0 -0.00000000000E+00 -0.00000000000E+00 -0.74505805969E-08  0.93827000000E+00  0.93827000000E+00 0.  1.
     999902    2    1    2    0    0 -0.73782747540E-03  0.57131460647E-02  0.27399512080E-01  0.10159314699E+01  0.10155455843E+01 0.  0.
     999903    2    3    3    0    0  0.10357214045E+00  0.38183170100E-01 -0.55674213587E-01  0.12529343129E+00  0.20339201306E-01 0.  0.
         14    1    1    2    0    0  0.73782747540E-03 -0.57131460647E-02 -0.27399512080E-01  0.27998530133E-01  0.00000000000E+00 0. -1.
     999901    1    3    3    0    0 -0.10430996792E+00 -0.32470024035E-01  0.83073725667E-01  0.89063803858E+00  0.88000000000E+00 0. -1.
        -11    1    4    4    0    0  0.42107736783E-01  0.25768470194E-01 -0.27929760608E-01  0.56722202018E-01  0.51100000000E-03 0. -1.
         11    1    4    4    0    0  0.61464403664E-01  0.12414699906E-01 -0.27744452979E-01  0.68571229270E-01  0.51100000000E-03 0.  1.
</event>
<event>
 8    1  0.1065239E+005  0.1043930E+01  0.7957747E-01            NaN
         13   -1    0    0    0    0  0.00000000000E+00  0.00000000000E+00  0.74505805969E-08  0.10566000000E+00  0.10566000000E+00 0.  1.
     999900   -1    0    0    0    0 -0.00000000000E+00 -0.00000000000E+00 -0.74505805969E-08  0.93827000000E+00  0.93827000000E+00 0. -1.
     999902    2    1    2    0    0  0.12400278963E-01  0.18427994648E-01 -0.63135761954E-02  0.10208384615E+01  0.10205772609E+01 0.  0.
     999903    2    3    3    0    0 -0.18877904236E-01  0.12997844131E+00 -0.11314699477E-01  0.13323109442E+00  0.19280342882E-01 0.  0.
         14    1    1    2    0    0 -0.12400278963E-01 -0.18427994648E-01  0.63135761954E-02  0.23091538482E-01  0.00000000000E+00 0. -1.
     999901    1    3    3    0    0  0.31278183199E-01 -0.11155044666E+00  0.50011232819E-02  0.88760736710E+00  0.88000000000E+00 0.  1.
        -11    1    4    4    0    0 -0.10793135081E-01  0.95477846402E-01 -0.19127512955E-03  0.96087505045E-01  0.51100000000E-03 0.  1.
         11    1    4    4    0    0 -0.80847691551E-02  0.34500594909E-01 -0.11123424348E-01  0.37143589374E-01  0.51100000000E-03 0. -1.
</event>
<event>
 8    1  0.1065239E+005  0.1043930E+01  0.7957747E-01            NaN
         13   -1    0    0    0    0  0.00000000000E+00  0.00000000000E+00  0.74505805969E-08  0.10566000000E+00  0.10566000000E+00 0. -1.
     999900   -1    0    0    0    0 -0.00000000000E+00 -0.00000000000E+00 -0.74505805969E-08  0.93827000000E+00  0.93827000000E+00 0. -1.
     999902    2    1    2    0    0  0.17889682249E-01 -0.74344982123E-02 -0.12234674749E-01  0.10210171267E+01  0.10207599979E+01 0.  0.
     999903    2    3    3    0    0 -0.73784513487E-01 -0.51259928592E-01  0.90917396437E-01  0.12918464455E+00  0.18734051936E-01 0.  0.
         14    1    1    2    0    0 -0.17889682249E-01  0.74344982123E-02  0.12234674749E-01  0.22912873256E-01  0.00000000000E+00 0. -1.
     999901    1    3    3    0    0  0.91674195736E-01  0.43825430380E-01 -0.10315207119E+00  0.89183248220E+00  0.88000000000E+00 0. -1.
        -11    1    4    4    0    0 -0.23787740953E-01 -0.16499847987E-01  0.42309510006E-01  0.51268483118E-01  0.51100000000E-03 0. -1.
         11    1    4    4    0    0 -0.49996772535E-01 -0.34760080605E-01  0.48607886431E-01  0.77916161429E-01  0.51100000000E-03 0.  1.
</event>
<event>
 8    1  0.1065239E+005  0.1043930E+01  0.7957747E-01            NaN
         13   -1    0    0    0    0  0.00000000000E+00  0.00000000000E+00  0.74505805969E-08  0.10566000000E+00  0.10566000000E+00 0.  1.
     999900   -1    0    0    0    0 -0.00000000000E+00 -0.00000000000E+00 -0.74505805969E-08  0.93827000000E+00  0.93827000000E+00 0.  1.
     999902    2    1    2    0    0 -0.10687822768E-01  0.32333740694E-02  0.21002211873E-01  0.10201439291E+01  0.10198665888E+01 0.  0.
     999903    2    3    3    0    0  0.79890762453E-01  0.30070201838E-01  0.98621742586E-01  0.13169050494E+00  0.18149105121E-01 0.  0.
         14    1    1    2    0    0  0.10687822768E-01 -0.32333740694E-02 -0.21002211873E-01  0.23786070860E-01  0.00000000000E+00 0. -1.
     999901    1    3    3    0    0 -0.90578585221E-01 -0.26836827769E-01 -0.77619530713E-01  0.88845342420E+00  0.88000000000E+00 0.  1.
        -11    1    4    4    0    0  0.66785158556E-01  0.25781435830E-01  0.71072637187E-01  0.10087874263E+00  0.51100000000E-03 0.  1.
         11    1    4    4    0    0  0.13105603897E-01  0.42887660081E-02  0.27549105399E-01  0.30811762310E-01  0.51100000000E-03 0. -1.
</event>
<event>
 8    1  0.1065239E+005  0.1043930E+01  0.7957747E-01            NaN
         13   -1    0    0    0    0  0.00000000000E+00  0.00000000000E+00  0.74505805969E-08  0.10566000000E+00  0.10566000000E+00 0. -1.
     999900   -1    0    0    0    0 -0.00000000000E+00 -0.00000000000E+00 -0.74505805969E-08  0.93827000000E+00  0.93827000000E+00 0.  1.
     999902    2    1    2    0    0 -0.19581749432E-01  0.90920597725E-02 -0.11203871812E-01  0.10196064064E+01  0.10193162349E+01 0.  0.
     999903    2    3    3    0    0 -0.47223529988E-01 -0.21313758941E-01  0.11760298193E+00  0.12928074272E+00  0.14096488022E-01 0.  0.
         14    1    1    2    0    0  0.19581749432E-01 -0.90920597725E-02  0.11203871812E-01  0.24323593593E-01  0.00000000000E+00 0. -1.
     999901    1    3    3    0    0  0.27641780556E-01  0.30405818713E-01 -0.12880685374E+00  0.89032566368E+00  0.88000000000E+00 0.  1.
        -11    1    4    4    0    0 -0.16959375382E-01 -0.51920828902E-02  0.56390793491E-01  0.59116502346E-01  0.51100000000E-03 0. -1.
         11    1    4    4    0    0 -0.30264154607E-01 -0.16121676051E-01  0.61212188441E-01  0.70164240376E-01  0.51100000000E-03 0.  1.
</event>
<event>
 8    1  0.1065239E+005  0.1043930E+01  0.7957747E-01            NaN
         13   -1    0    0    0    0  0.00000000000E+00  0.00000000000E+00  0.74505805969E-08  0.10566000000E+00  0.10566000000E+00 0.  1.
     999900   -1    0    0    0    0 -0.00000000000E+00 -0.00000000000E+00 -0.74505805969E-08  0.93827000000E+00  0.93827000000E+00 0. -1.
     999902    2    1    2    0    0  0.21650772198E-01  0.10408961577E-01  0.92433096527E-03  0.10198892678E+01  0.10196058855E+01 0.  0.
     999903    2    3    3    0    0 -0.28867070167E-01  0.12610452345E+00  0.33897345949E-02  0.13087656053E+00  0.19532670644E-01 0.  0.
         14    1    1    2    0    0 -0.21650772198E-01 -0.10408961577E-01 -0.92433096527E-03  0.24040732218E-01  0.00000000000E+00 0. -1.
     999901    1    3    3    0    0  0.50517842365E-01 -0.11569556187E+00 -0.24654036297E-02  0.88901270725E+00  0.88000000000E+00 0. -1.
        -11    1    4    4    0    0 -0.24301359902E-01  0.90237153599E-01 -0.55810212373E-02  0.93620024043E-01  0.51100000000E-03 0. -1.
         11    1    4    4    0    0 -0.45657102649E-02  0.35867369848E-01  0.89707558323E-02  0.37256536490E-01  0.51100000000E-03 0.  1.
</event>
<event>
 8    1  0.1065239E+005  0.1043930E+01  0.7957747E-01            NaN
         13   -1    0    0    0    0  0.00000000000E+00  0.00000000000E+00  0.74505805969E-08  0.10566000000E+00  0.10566000000E+00 0.  1.
     999900   -1    0    0    0    0 -0.00000000000E+00 -0.00000000000E+00 -0.74505805969E-08  0.93827000000E+00  0.93827000000E+00 0. -1.
     999902    2    1    2    0    0 -0.22045149074E-01  0.10189670929E-01 -0.25918884467E-02  0.10195059160E+01  0.10192133128E+01 0.  0.
     999903    2    3    3    0    0  0.30582158096E-01 -0.69501126371E-01 -0.10205344738E+00  0.12876866054E+00  0.20019661698E-01 0.  0.
         14    1    1    2    0    0  0.22045149074E-01 -0.10189670929E-01  0.25918884467E-02  0.24424083955E-01  0.00000000000E+00 0.  1.
     999901    1    3    3    0    0 -0.52627307170E-01  0.79690797299E-01  0.99461558936E-01  0.89073725550E+00  0.88000000000E+00 0.  1.
        -11    1    4    4    0    0  0.54142638402E-02 -0.13777773460E-01 -0.35092040512E-01  0.38090073809E-01  0.51100000000E-03 0. -1.
         11    1    4    4    0    0  0.25167894256E-01 -0.55723352911E-01 -0.66961406871E-01  0.90678586734E-01  0.51100000000E-03 0.  1.
</event>
<event>
 8    1  0.1065239E+005  0.1043930E+01  0.7957747E-01            NaN
         13   -1    0    0    0    0  0.00000000000E+00  0.00000000000E+00  0.74505805969E-08  0.10566000000E+00  0.10566000000E+00 0.  1.
     999900   -1    0    0    0    0 -0.00000000000E+00 -0.00000000000E+00 -0.74505805969E-08  0.93827000000E+00  0.93827000000E+00 0.  1.
     999902    2    1    2    0    0  0.34046916041E-02  0.17223847501E-02  0.23465694369E-01  0.10201561205E+01  0.10198790678E+01 0.  0.
     999903    2    3    3    0    0  0.10421114965E+00 -0.16065698333E-02  0.79683823628E-01  0.13261259933E+00  0.19340242357E-01 0.  0.
         14    1    1    2    0    0 -0.34046916041E-02 -0.17223847501E-02 -0.23465694369E-01  0.23773879498E-01  0.00000000000E+00 0. -1.
     999901    1    3    3    0    0 -0.10080645805E+00  0.33289545834E-02 -0.56218129259E-01  0.88754352117E+00  0.88000000000E+00 0.  1.
        -11    1    4    4    0    0  0.49974441781E-01 -0.10403083905E-01  0.37632786750E-01  0.63420475760E-01  0.51100000000E-03 0.  1.
         11    1    4    4    0    0  0.54236707869E-01  0.87965140717E-02  0.42051036877E-01  0.69192123567E-01  0.51100000000E-03 0. -1.
</event>
<event>
 8    1  0.1065239E+005  0.1043930E+01  0.7957747E-01            NaN
         13   -1    0    0    0    0  0.00000000000E+00  0.00000000000E+00  0.74505805969E-08  0.10566000000E+00  0.10566000000E+00 0. -1.
     999900   -1    0    0    0    0 -0.00000000000E+00 -0.00000000000E+00 -0.74505805969E-08  0.93827000000E+00  0.93827000000E+00 0.  1.
     999902    2    1    2    0    0 -0.23687072343E-01 -0.74179484215E-02  0.52067464160E-02  0.10185683446E+01  0.10182525517E+01 0.  0.
     999903    2    3    3    0    0 -0.72543329410E-02  0.86321029707E-01  0.93350649581E-01  0.12905927856E+00  0.20928642820E-01 0.  0.
         14    1    1    2    0    0  0.23687072343E-01  0.74179484215E-02 -0.52067464160E-02  0.25361655372E-01  0.00000000000E+00 0. -1.
     999901    1    3    3    0    0 -0.16432739402E-01 -0.93738978128E-01 -0.88143903165E-01  0.88950906606E+00  0.88000000000E+00 0.  1.
        -11    1    4    4    0    0  0.41436261550E-02  0.50948308996E-01  0.62599441007E-01  0.80819867376E-01  0.51100000000E-03 0. -1.
         11    1    4    4    0    0 -0.11397959096E-01  0.35372720711E-01  0.30751208574E-01  0.48239411188E-01  0.51100000000E-03 0.  1.
</event>
<event>
 8    1  0.1065239E+005  0.1043930E+01  0.7957747E-01            NaN
         13   -1    0    0    0    0  0.00000000000E+00  0.00000000000E+00  0.74505805969E-08  0.10566000000E+00  0.10566000000E+00 0.  1.
     999900   -1    0    0    0    0 -0.00000000000E+00 -0.00000000000E+00 -0.74505805969E-08  0.93827000000E+00  0.93827000000E+00 0. -1.
     999902    2    1    2    0    0 -0.14311738433E-01  0.11203598601E-01 -0.15506607236E-01  0.10200385508E+01  0.10197587184E+01 0.  0.
     999903    2    3    3    0    0 -0.55796177463E-02  0.10834784996E+00 -0.73829831025E-01  0.13273090742E+00  0.19906308315E-01 0.  0.
         14    1    1    2    0    0  0.14311738433E-01 -0.11203598601E-01  0.15506607236E-01  0.23891449235E-01  0.00000000000E+00 0.  1.
     999901    1    3    3    0    0 -0.87321206865E-02 -0.97144251359E-01  0.58323223789E-01  0.88730764334E+00  0.88000000000E+00 0.  1.
        -11    1    4    4    0    0 -0.31287354842E-02  0.59696938833E-01 -0.28657156239E-01  0.66294850603E-01  0.51100000000E-03 0.  1.
         11    1    4    4    0    0 -0.24508822620E-02  0.48650911126E-01 -0.45172674786E-01  0.66436056818E-01  0.51100000000E-03 0. -1.
</event>
<event>
 8    1  0.1065239E+005  0.1043930E+01  0.7957747E-01            NaN
         13   -1    0    0    0    0  0.00000000000E+00  0.00000000000E+00  0.74505805969E-08  0.10566000000E+00  0.10566000000E+00 0. -1.
     999900   -1    0    0    0    0 -0.00000000000E+00 -0.00000000000E+00 -0.74505805969E-08  0.93827000000E+00  0.93827000000E+00 0.  1.
     999902    2    1    2    0    0 -0.18174833814E-01 -0.11081017763E-01 -0.11216983957E-01  0.10198689471E+01  0.10195850798E+01 0.  0.
     999903    2    3    3    0    0 -0.12109965142E+00  0.30995133378E-01  0.36099159103E-01  0.13161068622E+00  0.19809078062E-01 0.  0.
         14    1    1    2    0    0  0.18174833814E-01  0.11081017763E-01  0.11216983957E-01  0.24061052926E-01  0.00000000000E+00 0. -1.
     999901    1    3    3    0    0  0.10292481760E+00 -0.42076151142E-01 -0.47316143060E-01  0.88825826085E+00  0.88000000000E+00 0.  1.
        -11    1    4    4    0    0 -0.67211650881E-01  0.19081526857E-01  0.30157329509E-01  0.76100172966E-01  0.51100000000E-03 0.  1.
         11    1    4    4    0    0 -0.53888000537E-01  0.11913606521E-01  0.59418295939E-02  0.55510513258E-01  0.51100000000E-03 0. -1.
</event>
<event>
 8    1  0.1065239E+005  0.1043930E+01  0.7957747E-01            NaN
         13   -1    0    0    0    0  0.00000000000E+00  0.00000000000E+00  0.74505805969E-08  0.10566000000E+00  0.10566000000E+00 0. -1.
     999900   -1    0    0    0    0 -0.00000000000E+00 -0.00000000000E+00 -0.74505805969E-08  0.93827000000E+00  0.93827000000E+00 0. -1.
     999902    2    1    2    0    0 -0.92882299713E-02 -0.20566912399E-01  0.64326786106E-02  0.10204641002E+01  0.10201942615E+01 0.  0.
     999903    2    3    3    0    0  0.11439334287E+00 -0.15658132098E-01  0.57077417633E-01  0.13035954608E+00  0.20118788651E-01 0.  0.
         14    1    1    2    0    0  0.92882299713E-02  0.20566912399E-01 -0.64326786106E-02  0.23465899849E-01  0.00000000000E+00 0.  1.
     999901    1    3    3    0    0 -0.12368157284E+00 -0.49087803008E-02 -0.50644739022E-01  0.89010455407E+00  0.88000000000E+00 0. -1.
        -11    1    4    4    0    0  0.74511275915E-01 -0.16516926034E-02  0.31225348099E-01  0.80808055365E-01  0.51100000000E-03 0. -1.
         11    1    4    4    0    0  0.39882066956E-01 -0.14006439495E-01  0.25852069534E-01  0.49551490716E-01  0.51100000000E-03 0.  1.
</event>
<event>
 8    1  0.1065239E+005  0.1043930E+01  0.7957747E-01            NaN
         13   -1    0    0    0    0  0.00000000000E+00  0.00000000000E+00  0.74505805969E-08  0.10566000000E+00  0.10566000000E+00 0. -1.
     999900   -1    0    0    0    0 -0.00000000000E+00 -0.00000000000E+00 -0.74505805969E-08  0.93827000000E+00  0.93827000000E+00 0.  1.
     999902    2    1    2    0    0  0.16366936397E-01 -0.29786329848E-02 -0.13516365226E-01  0.10224954254E+01  0.10222707341E+01 0.  0.
     999903    2    3    3    0    0 -0.14739952586E-01 -0.48783980960E-02 -0.13146836160E+00  0.13407890080E+00  0.21263973440E-01 0.  0.
         14    1    1    2    0    0 -0.16366936397E-01  0.29786329848E-02  0.13516365226E-01  0.21434574649E-01  0.00000000000E+00 0.  1.
     999901    1    3    3    0    0  0.31106888983E-01  0.18997651112E-02  0.11795199638E+00  0.88841652455E+00  0.88000000000E+00 0. -1.
        -11    1    4    4    0    0 -0.11875108314E-01 -0.12897627852E-01 -0.79192284808E-01  0.81111319159E-01  0.51100000000E-03 0. -1.
         11    1    4    4    0    0 -0.28648442724E-02  0.80192297560E-02 -0.52276076795E-01  0.52967581639E-01  0.51100000000E-03 0.  1.
</event>
<event>
 8    1  0.1065239E+005  0.1043930E+01  0.7957747E-01            NaN
         13   -1    0    0    0    0  0.00000000000E+00  0.00000000000E+00  0.74505805969E-08  0.10566000000E+00  0.10566000000E+00 0. -1.
     999900   -1    0    0    0    0 -0.00000000000E+00 -0.00000000000E+00 -0.74505805969E-08  0.93827000000E+00  0.93827000000E+00 0.  1.
     999902    2    1    2    0    0 -0.21234746229E-02 -0.11358594185E-01  0.20406553568E-01  0.10204788969E+01  0.10202094025E+01 0.  0.
     999903    2    3    3    0    0 -0.89988371655E-01  0.50311243960E-01 -0.74448343207E-01  0.12889555226E+00  0.21032814449E-01 0.  0.
         14    1    1    2    0    0  0.21234746229E-02  0.11358594185E-01 -0.20406553568E-01  0.23451103063E-01  0.00000000000E+00 0.  1.
     999901    1    3    3    0    0  0.87864897032E-01 -0.61669838145E-01  0.94854896775E-01  0.89158334468E+00  0.88000000000E+00 0. -1.
        -11    1    4    4    0    0 -0.85774042822E-01  0.42445257788E-01 -0.63927157445E-01  0.11509009041E+00  0.51100000000E-03 0.  1.
         11    1    4    4    0    0 -0.42143288328E-02  0.78659861717E-02 -0.10521185763E-01  0.13805461847E-01  0.51100000000E-03 0. -1.
</event>
<event>
 8    1  0.1065239E+005  0.1043930E+01  0.7957747E-01            NaN
         13   -1    0    0    0    0  0.00000000000E+00  0.00000000000E+00  0.74505805969E-08  0.10566000000E+00  0.10566000000E+00 0.  1.
     999900   -1    0    0    0    0 -0.00000000000E+00 -0.00000000000E+00 -0.74505805969E-08  0.93827000000E+00  0.93827000000E+00 0. -1.
     999902    2    1    2    0    0 -0.15364191696E-01  0.10837814623E-02 -0.17925617163E-01  0.10202961108E+01  0.10200223492E+01 0.  0.
     999903    2    3    3    0    0 -0.25147843172E-01 -0.74104867913E-01 -0.10525770748E+00  0.13272867851E+00  0.20341377840E-01 0.  0.
         14    1    1    2    0    0  0.15364191696E-01 -0.10837814623E-02  0.17925617163E-01  0.23633889214E-01  0.00000000000E+00 0.  1.
     999901    1    3    3    0    0  0.97836514763E-02  0.75188649375E-01  0.87332090313E-01  0.88756743227E+00  0.88000000000E+00 0.  1.
        -11    1    4    4    0    0 -0.10940116919E-02 -0.31007833108E-01 -0.47705444148E-01  0.56910043912E-01  0.51100000000E-03 0.  1.
         11    1    4    4    0    0 -0.24053831480E-01 -0.43097034805E-01 -0.57552263327E-01  0.75818634602E-01  0.51100000000E-03 0. -1.
</event>
<event>
 8    1  0.1065239E+005  0.1043930E+01  0.7957747E-01            NaN
         13   -1    0    0    0    0  0.00000000000E+00  0.00000000000E+00  0.74505805969E-08  0.10566000000E+00  0.10566000000E+00 0.  1.
     999900   -1    0    0    0    0 -0.00000000000E+00 -0.00000000000E+00 -0.74505805969E-08  0.93827000000E+00  0.93827000000E+00 0.  1.
     999902    2    1    2    0    0  0.10878439692E-01 -0.20464509214E-01 -0.38003173175E-02  0.10204442810E+01  0.10201739810E+01 0.  0.
     999903    2    3    3    0    0  0.66954178182E-01  0.74609974297E-01 -0.80878416454E-01  0.13020572909E+00  0.19044773507E-01 0.  0.
         14    1    1    2    0    0 -0.10878439692E-01  0.20464509214E-01  0.38003173175E-02  0.23485719048E-01  0.00000000000E+00 0.  1.
     999901    1    3    3    0    0 -0.56075738489E-01 -0.95074483511E-01  0.77078099137E-01  0.89023855187E+00  0.88000000000E+00 0.  1.
        -11    1    4    4    0    0  0.23327721664E-01  0.39651991576E-01 -0.39732504196E-01  0.60789769243E-01  0.51100000000E-03 0.  1.
         11    1    4    4    0    0  0.43626456518E-01  0.34957982721E-01 -0.41145912258E-01  0.69415959842E-01  0.51100000000E-03 0. -1.
</event>
<event>
 8    1  0.1065239E+005  0.1043930E+01  0.7957747E-01            NaN
         13   -1    0    0    0    0  0.00000000000E+00  0.00000000000E+00  0.74505805969E-08  0.10566000000E+00  0.10566000000E+00 0.  1.
     999900   -1    0    0    0    0 -0.00000000000E+00 -0.00000000000E+00 -0.74505805969E-08  0.93827000000E+00  0.93827000000E+00 0. -1.
     999902    2    1    2    0    0  0.10907684899E-01  0.11889711891E-01  0.17328510467E-01  0.10202525822E+01  0.10199777994E+01 0.  0.
     999903    2    3    3    0    0  0.56109684235E-01  0.11729937282E+00  0.18201739428E-01  0.13280952493E+00  0.19990674486E-01 0.  0.
         14    1    1    2    0    0 -0.10907684899E-01 -0.11889711891E-01 -0.17328510467E-01  0.23677417801E-01  0.00000000000E+00 0.  1.
     999901    1    3    3    0    0 -0.45201999336E-01 -0.10540966093E+00 -0.87322896070E-03  0.88744305727E+00  0.88000000000E+00 0.  1.
        -11    1    4    4    0    0  0.45512723321E-01  0.73444723138E-01  0.13342182120E-01  0.87428887020E-01  0.51100000000E-03 0. -1.
         11    1    4    4    0    0  0.10596960914E-01  0.43854649680E-01  0.48595573081E-02  0.45380637913E-01  0.51100000000E-03 0.  1.
</event>
<event>
 8    1  0.1065239E+005  0.1043930E+01  0.7957747E-01            NaN
         13   -1    0    0    0    0  0.00000000000E+00  0.00000000000E+00  0.74505805969E-08  0.10566000000E+00  0.10566000000E+00 0. -1.
     999900   -1    0    0    0    0 -0.00000000000E+00 -0.00000000000E+00 -0.74505805969E-08  0.93827000000E+00  0.93827000000E+00 0. -1.
     999902    2    1    2    0    0 -0.11071805040E-02  0.22887087372E-01 -0.75197373641E-03  0.10210038123E+01  0.10207463812E+01 0.  0.
     999903    2    3    3    0    0  0.92847635531E-01  0.32379175057E-01 -0.85498444940E-01  0.13190338404E+00  0.20479849442E-01 0.  0.
         14    1    1    2    0    0  0.11071805040E-02 -0.22887087372E-01  0.75197373641E-03  0.22926187680E-01  0.00000000000E+00 0. -1.
     999901    1    3    3    0    0 -0.93954816035E-01 -0.94920876849E-02  0.84746471203E-01  0.88910042828E+00  0.88000000000E+00 0.  1.
        -11    1    4    4    0    0  0.37908690570E-01  0.15674425820E-01 -0.48802848307E-01  0.63755278757E-01  0.51100000000E-03 0.  1.
         11    1    4    4    0    0  0.54938944961E-01  0.16704749237E-01 -0.36695596633E-01  0.68148105284E-01  0.51100000000E-03 0. -1.
</event>
<event>
 8    1  0.1065239E+005  0.1043930E+01  0.7957747E-01            NaN
         13   -1    0    0    0    0  0.00000000000E+00  0.00000000000E+00  0.74505805969E-08  0.10566000000E+00  0.10566000000E+00 0.  1.
     999900   -1    0    0    0    0 -0.00000000000E+00 -0.00000000000E+00 -0.74505805969E-08  0.93827000000E+00  0.93827000000E+00 0.  1.
     999902    2    1    2    0    0 -0.26386589231E-02 -0.22882317065E-01 -0.26738188640E-02  0.10207413764E+01  0.10204779495E+01 0.  0.
     999903    2    3    3    0    0  0.10638708453E-01 -0.12547717541E+00  0.40127312416E-01  0.13364841047E+00  0.19849250688E-01 0.  0.
         14    1    1    2    0    0  0.26386589231E-02  0.22882317065E-01  0.26738188640E-02  0.23188623557E-01  0.00000000000E+00 0. -1.
     999901    1    3    3    0    0 -0.13277367376E-01  0.10259485834E+00 -0.42801131280E-01  0.88709296597E+00  0.88000000000E+00 0. -1.
        -11    1    4    4    0    0  0.12146301419E-01 -0.44552615101E-01  0.19439926961E-01  0.50106287348E-01  0.51100000000E-03 0.  1.
         11    1    4    4    0    0 -0.15075929664E-02 -0.80924560307E-01  0.20687385455E-01  0.83542123120E-01  0.51100000000E-03 0. -1.
</event>
<event>
 8    1  0.1224038E+005  0.1043930E+01  0.7957747E-01            NaN
         13   -1    0    0    0    0  0.00000000000E+00  0.00000000000E+00  0.74505805969E-08  0.10566000000E+00  0.10566000000E+00 0.  1.
     999900   -1    0    0    0    0 -0.00000000000E+00 -0.00000000000E+00 -0.74505805969E-08  0.93827000000E+00  0.93827000000E+00 0. -1.
     999902    2    1    2    0    0  0.12368199126E-01 -0.46397490001E-02 -0.19966174072E-01  0.10199894961E+01  0.10197084997E+01 0.  0.
     999903    2    3    3    0    0  0.12340931802E+00  0.15013405835E-01  0.36600389665E-01  0.13099222235E+00  0.19081710222E-01 0.  0.
         14    1    1    2    0    0 -0.12368199126E-01  0.46397490001E-02  0.19966174072E-01  0.23940503911E-01  0.00000000000E+00 0.  1.
     999901    1    3    3    0    0 -0.11104111889E+00 -0.19653154836E-01 -0.56566563737E-01  0.88899727374E+00  0.88000000000E+00 0. -1.
        -11    1    4    4    0    0  0.58217876321E-01  0.15506016325E-01  0.22321279802E-01  0.64251523862E-01  0.51100000000E-03 0. -1.
         11    1    4    4    0    0  0.65191441696E-01 -0.49261048936E-03  0.14279109862E-01  0.66740698490E-01  0.51100000000E-03 0.  1.
</event>
<event>
 8    1  0.1065239E+005  0.1043930E+01  0.7957747E-01            NaN
         13   -1    0    0    0    0  0.00000000000E+00  0.00000000000E+00  0.74505805969E-08  0.10566000000E+00  0.10566000000E+00 0. -1.
     999900   -1    0    0    0    0 -0.00000000000E+00 -0.00000000000E+00 -0.74505805969E-08  0.93827000000E+00  0.93827000000E+00 0.  1.
     999902    2    1    2    0    0  0.67162846776E-02  0.19483559889E-01  0.11069584906E-01  0.10205365544E+01  0.10202683988E+01 0.  0.
     999903    2    3    3    0    0  0.11607812028E+00  0.33284639849E-01  0.51383405849E-01  0.13274396319E+00  0.19967676635E-01 0.  0.
         14    1    1    2    0    0 -0.67162846776E-02 -0.19483559889E-01 -0.11069584906E-01  0.23393445573E-01  0.00000000000E+00 0.  1.
     999901    1    3    3    0    0 -0.10936183560E+00 -0.13801079960E-01 -0.40313820944E-01  0.88779259124E+00  0.88000000000E+00 0. -1.
        -11    1    4    4    0    0  0.79566992276E-01  0.18043305320E-01  0.25575531618E-01  0.85503427214E-01  0.51100000000E-03 0. -1.
         11    1    4    4    0    0  0.36511128000E-01  0.15241334529E-01  0.25807874232E-01  0.47240535977E-01  0.51100000000E-03 0.  1.
</event>
<event>
 8    1  0.1187045E+005  0.1043930E+01  0.7957747E-01            NaN
         13   -1    0    0    0    0  0.00000000000E+00  0.00000000000E+00  0.74505805969E-08  0.10566000000E+00  0.10566000000E+00 0.  1.
     999900   -1    0    0    0    0 -0.00000000000E+00 -0.00000000000E+00 -0.74505805969E-08  0.93827000000E+00  0.93827000000E+00 0. -1.
     999902    2    1    2    0    0  0.12084038857E-01  0.87748171909E-06 -0.20735071908E-01  0.10199306833E+01  0.10196482881E+01 0.  0.
     999903    2    3    3    0    0  0.98250068122E-01  0.16608628492E-01 -0.86119133488E-01  0.13315253882E+00  0.19600280978E-01 0.  0.
         14    1    1    2    0    0 -0.12084038857E-01 -0.87748171908E-06  0.20735071908E-01  0.23999316717E-01  0.00000000000E+00 0.  1.
     999901    1    3    3    0    0 -0.86166029265E-01 -0.16607751010E-01  0.65384061580E-01  0.88677814447E+00  0.88000000000E+00 0.  1.
        -11    1    4    4    0    0  0.51683498014E-01 -0.78297921396E-03 -0.47521280770E-01  0.70216310573E-01  0.51100000000E-03 0. -1.
         11    1    4    4    0    0  0.46566570108E-01  0.17391607706E-01 -0.38597852718E-01  0.62936228245E-01  0.51100000000E-03 0.  1.
</event>
<event>
 8    1  0.1065239E+005  0.1043930E+01  0.7957747E-01            NaN
         13   -1    0    0    0    0  0.00000000000E+00  0.00000000000E+00  0.74505805969E-08  0.10566000000E+00  0.10566000000E+00 0. -1.
     999900   -1    0    0    0    0 -0.00000000000E+00 -0.00000000000E+00 -0.74505805969E-08  0.93827000000E+00  0.93827000000E+00 0. -1.
     999902    2    1    2    0    0 -0.22747904479E-01  0.89419747850E-03  0.51500596146E-02  0.10205892660E+01  0.10203223315E+01 0.  0.
     999903    2    3    3    0    0  0.60571025930E-02  0.11288887752E+00 -0.60941334552E-01  0.13056645220E+00  0.23519460549E-01 0.  0.
         14    1    1    2    0    0  0.22747904479E-01 -0.89419747850E-03 -0.51500596146E-02  0.23340733950E-01  0.00000000000E+00 0.  1.
     999901    1    3    3    0    0 -0.28805007072E-01 -0.11199468004E+00  0.66091394167E-01  0.89002281385E+00  0.88000000000E+00 0.  1.
        -11    1    4    4    0    0  0.60441938138E-02  0.40909788973E-01 -0.34584252745E-01  0.53911731299E-01  0.51100000000E-03 0. -1.
         11    1    4    4    0    0  0.12908779245E-04  0.71979088543E-01 -0.26357081807E-01  0.76654720902E-01  0.51100000000E-03 0.  1.
</event>
<event>
 8    1  0.1065239E+005  0.1043930E+01  0.7957747E-01            NaN
         13   -1    0    0    0    0  0.00000000000E+00  0.00000000000E+00  0.74505805969E-08  0.10566000000E+00  0.10566000000E+00 0. -1.
     999900   -1    0    0    0    0 -0.00000000000E+00 -0.00000000000E+00 -0.74505805969E-08  0.93827000000E+00  0.93827000000E+00 0.  1.
     999902    2    1    2    0    0 -0.18812220809E-01  0.12524302018E-01 -0.83386055426E-02  0.10198407880E+01  0.10195562479E+01 0.  0.
     999903    2    3    3    0    0 -0.42029357927E-01 -0.68321562568E-01 -0.10152026208E+00  0.13093251916E+00  0.20066343018E-01 0.  0.
         14    1    1    2    0    0  0.18812220809E-01 -0.12524302018E-01  0.83386055426E-02  0.24089212009E-01  0.00000000000E+00 0. -1.
     999901    1    3    3    0    0  0.23217137118E-01  0.80845864586E-01  0.93181656537E-01  0.88890826883E+00  0.88000000000E+00 0. -1.
        -11    1    4    4    0    0 -0.80895588945E-02 -0.31627836761E-01 -0.42348077271E-01  0.53473187588E-01  0.51100000000E-03 0. -1.
         11    1    4    4    0    0 -0.33939799032E-01 -0.36693725807E-01 -0.59172184809E-01  0.77459331574E-01  0.51100000000E-03 0.  1.
</event>
<event>
 8    1  0.1137110E+005  0.1043930E+01  0.7957747E-01            NaN
         13   -1    0    0    0    0  0.00000000000E+00  0.00000000000E+00  0.74505805969E-08  0.10566000000E+00  0.10566000000E+00 0.  1.
     999900   -1    0    0    0    0 -0.00000000000E+00 -0.00000000000E+00 -0.74505805969E-08  0.93827000000E+00  0.93827000000E+00 0. -1.
     999902    2    1    2    0    0  0.75975443436E-02  0.19526684043E-01  0.11900137919E-01  0.10198337897E+01  0.10195490823E+01 0.  0.
     999903    2    3    3    0    0  0.10428659419E+00  0.16289800125E-01 -0.75238489306E-01  0.13025389436E+00  0.12813875586E-01 0.  0.
         14    1    1    2    0    0 -0.75975443436E-02 -0.19526684043E-01 -0.11900137919E-01  0.24096210330E-01  0.00000000000E+00 0. -1.
     999901    1    3    3    0    0 -0.96689049849E-01  0.32368839175E-02  0.87138627225E-01  0.88957989531E+00  0.88000000000E+00 0.  1.
        -11    1    4    4    0    0  0.81247285208E-01  0.84325070048E-02 -0.53779845055E-01  0.97799598073E-01  0.51100000000E-03 0. -1.
         11    1    4    4    0    0  0.23039308985E-01  0.78572931204E-02 -0.21458644251E-01  0.32454296291E-01  0.51100000000E-03 0.  1.
</event>
<event>
 8    1  0.1065239E+005  0.1043930E+01  0.7957747E-01            NaN
         13   -1    0    0    0    0  0.00000000000E+00  0.00000000000E+00  0.74505805969E-08  0.10566000000E+00  0.10566000000E+00 0. -1.
     999900   -1    0    0    0    0 -0.00000000000E+00 -0.00000000000E+00 -0.74505805969E-08  0.93827000000E+00  0.93827000000E+00 0. -1.
     999902    2    1    2    0    0 -0.12862350447E-01  0.19974817939E-01  0.79740208308E-02  0.10188697043E+01  0.10185614640E+01 0.  0.
     999903    2    3    3    0    0 -0.11516264973E-01  0.79529496242E-03 -0.12641067101E+00  0.12846029768E+00  0.19726466526E-01 0.  0.
         14    1    1    2    0    0  0.12862350447E-01 -0.19974817939E-01 -0.79740208308E-02  0.25060295667E-01  0.00000000000E+00 0.  1.
     999901    1    3    3    0    0 -0.13460854742E-02  0.19179522976E-01  0.13438469184E+00  0.89040940665E+00  0.88000000000E+00 0.  1.
        -11    1    4    4    0    0  0.30151822527E-02  0.57915073895E-02 -0.56537837337E-01  0.56915912130E-01  0.51100000000E-03 0.  1.
         11    1    4    4    0    0 -0.14531447226E-01 -0.49962124271E-02 -0.69872833677E-01  0.71544385553E-01  0.51100000000E-03 0. -1.
</event>
<event>
 8    1  0.1065239E+005  0.1043930E+01  0.7957747E-01            NaN
         13   -1    0    0    0    0  0.00000000000E+00  0.00000000000E+00  0.74505805969E-08  0.10566000000E+00  0.10566000000E+00 0.  1.
     999900   -1    0    0    0    0 -0.00000000000E+00 -0.00000000000E+00 -0.74505805969E-08  0.93827000000E+00  0.93827000000E+00 0. -1.
     999902    2    1    2    0    0 -0.17498287295E-01 -0.13936892076E-02  0.15652384811E-01  0.10204112930E+01  0.10201402244E+01 0.  0.
     999903    2    3    3    0    0 -0.45616140972E-01 -0.37239732289E-01  0.11800532738E+00  0.13330832416E+00  0.19447931092E-01 0.  0.
         14    1    1    2    0    0  0.17498287295E-01  0.13936892076E-02 -0.15652384811E-01  0.23518706983E-01  0.00000000000E+00 0. -1.
     999901    1    3    3    0    0  0.28117853677E-01  0.35846043082E-01 -0.10235294256E+00  0.88710296886E+00  0.88000000000E+00 0. -1.
        -11    1    4    4    0    0 -0.98238588754E-02 -0.23992830687E-02  0.34965501415E-01  0.36402090224E-01  0.51100000000E-03 0.  1.
         11    1    4    4    0    0 -0.35792282097E-01 -0.34840449221E-01  0.83039825960E-01  0.96906233938E-01  0.51100000000E-03 0. -1.
</event>
<event>
 8    1  0.1065239E+005  0.1043930E+01  0.7957747E-01            NaN
         13   -1    0    0    0    0  0.00000000000E+00  0.00000000000E+00  0.74505805969E-08  0.10566000000E+00  0.10566000000E+00 0.  1.
     999900   -1    0    0    0    0 -0.00000000000E+00 -0.00000000000E+00 -0.74505805969E-08  0.93827000000E+00  0.93827000000E+00 0.  1.
     999902    2    1    2    0    0 -0.15621525791E-02 -0.16462218161E-01 -0.16240411624E-01  0.10207525127E+01  0.10204893416E+01 0.  0.
     999903    2    3    3    0    0 -0.89248898384E-01 -0.71037400954E-01 -0.66042187532E-01  0.13331370758E+00  0.19982389672E-01 0.  0.
         14    1    1    2    0    0  0.15621525791E-02  0.16462218161E-01  0.16240411624E-01  0.23177487292E-01  0.00000000000E+00 0. -1.
     999901    1    3    3    0    0  0.87686745805E-01  0.54575182793E-01  0.49801775909E-01  0.88743880513E+00  0.88000000000E+00 0.  1.
        -11    1    4    4    0    0 -0.35998562040E-01 -0.25551522086E-01 -0.14902730329E-01  0.46595377905E-01  0.51100000000E-03 0. -1.
         11    1    4    4    0    0 -0.53250336344E-01 -0.45485878868E-01 -0.51139457204E-01  0.86718329673E-01  0.51100000000E-03 0.  1.
</event>
<event>
 8    1  0.1065239E+005  0.1043930E+01  0.7957747E-01            NaN
         13   -1    0    0    0    0  0.00000000000E+00  0.00000000000E+00  0.74505805969E-08  0.10566000000E+00  0.10566000000E+00 0.  1.
     999900   -1    0    0    0    0 -0.00000000000E+00 -0.00000000000E+00 -0.74505805969E-08  0.93827000000E+00  0.93827000000E+00 0. -1.
     999902    2    1    2    0    0  0.16661901940E-01  0.12820342933E-01  0.88576686684E-02  0.10211168796E+01  0.10208620099E+01 0.  0.
     999903    2    3    3    0    0 -0.80914735853E-01  0.82633433027E-01  0.58949259132E-01  0.13156405078E+00  0.21415078159E-01 0.  0.
         14    1    1    2    0    0 -0.16661901940E-01 -0.12820342933E-01 -0.88576686684E-02  0.22813120423E-01  0.00000000000E+00 0.  1.
     999901    1    3    3    0    0  0.97576637793E-01 -0.69813090094E-01 -0.50091590464E-01  0.88955282880E+00  0.88000000000E+00 0.  1.
        -11    1    4    4    0    0 -0.18121371801E-01  0.76549498793E-02  0.75317997470E-02  0.21070631268E-01  0.51100000000E-03 0. -1.
         11    1    4    4    0    0 -0.62793364052E-01  0.74978483148E-01  0.51417459385E-01  0.11049341951E+00  0.51100000000E-03 0.  1.
</event>
<event>
 8    1  0.1065239E+005  0.1043930E+01  0.7957747E-01            NaN
         13   -1    0    0    0    0  0.00000000000E+00  0.00000000000E+00  0.74505805969E-08  0.10566000000E+00  0.10566000000E+00 0. -1.
     999900   -1    0    0    0    0 -0.00000000000E+00 -0.00000000000E+00 -0.74505805969E-08  0.93827000000E+00  0.93827000000E+00 0. -1.
     999902    2    1    2    0    0  0.25701535495E-01  0.47519892067E-02 -0.92308554482E-02  0.10162107103E+01  0.10158325889E+01 0.  0.
     999903    2    3    3    0    0  0.39997233353E-01 -0.11374200613E+00  0.34345338700E-01  0.12708525314E+00  0.20833546065E-01 0.  0.
         14    1    1    2    0    0 -0.25701535495E-01 -0.47519892067E-02  0.92308554482E-02  0.27719289683E-01  0.00000000000E+00 0.  1.
     999901    1    3    3    0    0 -0.14295697858E-01  0.11849399533E+00 -0.43576194148E-01  0.88912545718E+00  0.88000000000E+00 0. -1.
        -11    1    4    4    0    0  0.29848945122E-01 -0.69497989581E-01  0.12345281254E-01  0.76639396990E-01  0.51100000000E-03 0.  1.
         11    1    4    4    0    0  0.10148288230E-01 -0.44244016544E-01  0.22000057446E-01  0.50445856149E-01  0.51100000000E-03 0. -1.
</event>
<event>
 8    1  0.1065239E+005  0.1043930E+01  0.7957747E-01            NaN
         13   -1    0    0    0    0  0.00000000000E+00  0.00000000000E+00  0.74505805969E-08  0.10566000000E+00  0.10566000000E+00 0. -1.
     999900   -1    0    0    0    0 -0.00000000000E+00 -0.00000000000E+00 -0.74505805969E-08  0.93827000000E+00  0.93827000000E+00 0. -1.
     999902    2    1    2    0    0  0.41197482817E-02  0.20895445789E-01  0.95278380156E-02  0.10205982260E+01  0.10203314987E+01 0.  0.
     999903    2    3    3    0    0 -0.31286029516E-02 -0.12431791604E+00  0.25365310923E-01  0.12852744148E+00  0.20277371857E-01 0.  0.
         14    1    1    2    0    0 -0.41197482817E-02 -0.20895445789E-01 -0.95278380156E-02  0.23331773997E-01  0.00000000000E+00 0. -1.
     999901    1    3    3    0    0  0.72483512332E-02  0.14521336183E+00 -0.15837472907E-01  0.89207078452E+00  0.88000000000E+00 0.  1.
        -11    1    4    4    0    0  0.66678162004E-02 -0.90020034018E-01  0.19937942472E-01  0.92443761112E-01  0.51100000000E-03 0.  1.
         11    1    4    4    0    0 -0.97964191520E-02 -0.34297882026E-01  0.54273684510E-02  0.36083680369E-01  0.51100000000E-03 0. -1.
</event>
<event>
 8    1  0.1065239E+005  0.1043930E+01  0.7957747E-01            NaN
         13   -1    0    0    0    0  0.00000000000E+00  0.00000000000E+00  0.74505805969E-08  0.10566000000E+00  0.10566000000E+00 0.  1.
     999900   -1    0    0    0    0 -0.00000000000E+00 -0.00000000000E+00 -0.74505805969E-08  0.93827000000E+00  0.93827000000E+00 0. -1.
     999902    2    1    2    0    0 -0.16309707563E-01  0.16094577737E-01 -0.74505623846E-02  0.10198353352E+01  0.10195506647E+01 0.  0.
     999903    2    3    3    0    0  0.79117830486E-01  0.61875047273E-01 -0.80978422506E-01  0.13044868550E+00  0.19266604786E-01 0.  0.
         14    1    1    2    0    0  0.16309707563E-01 -0.16094577737E-01  0.74505623846E-02  0.24094664828E-01  0.00000000000E+00 0. -1.
     999901    1    3    3    0    0 -0.95427538050E-01 -0.45780469536E-01  0.73527860121E-01  0.88938664968E+00  0.88000000000E+00 0.  1.
        -11    1    4    4    0    0  0.25327474263E-01  0.11672534881E-01 -0.29822640322E-01  0.40833564869E-01  0.51100000000E-03 0. -1.
         11    1    4    4    0    0  0.53790356224E-01  0.50202512392E-01 -0.51155782183E-01  0.89615120627E-01  0.51100000000E-03 0.  1.
</event>
<event>
 8    1  0.1065239E+005  0.1043930E+01  0.7957747E-01            NaN
         13   -1    0    0    0    0  0.00000000000E+00  0.00000000000E+00  0.74505805969E-08  0.10566000000E+00  0.10566000000E+00 0. -1.
     999900   -1    0    0    0    0 -0.00000000000E+00 -0.00000000000E+00 -0.74505805969E-08  0.93827000000E+00  0.93827000000E+00 0. -1.
     999902    2    1    2    0    0  0.11912997510E-02  0.63980950085E-02  0.22086614402E-01  0.10209045065E+01  0.10206448148E+01 0.  0.
     999903    2    3    3    0    0 -0.10564223979E+00  0.60685432523E-01  0.47812415353E-01  0.13241008502E+00  0.20084795327E-01 0.  0.
         14    1    1    2    0    0 -0.11912997510E-02 -0.63980950085E-02 -0.22086614402E-01  0.23025493493E-01  0.00000000000E+00 0.  1.
     999901    1    3    3    0    0  0.10683353954E+00 -0.54287337515E-01 -0.25725800951E-01  0.88849442149E+00  0.88000000000E+00 0.  1.
        -11    1    4    4    0    0 -0.77067521481E-01  0.52722317612E-01  0.31462698060E-01  0.98535314136E-01  0.51100000000E-03 0. -1.
         11    1    4    4    0    0 -0.28574718311E-01  0.79631149110E-02  0.16349717294E-01  0.33874770881E-01  0.51100000000E-03 0.  1.
</event>
<event>
 7    1  0.1694441E+005  0.1043930E+01  0.7957747E-01            NaN
         13   -1    0    0    0    0  0.00000000000E+00  0.00000000000E+00  0.74505805969E-08  0.10566000000E+00  0.10566000000E+00 0. -1.
     999900   -1    0    0    0    0 -0.00000000000E+00 -0.00000000000E+00 -0.74505805969E-08  0.93827000000E+00  0.93827000000E+00 0.  1.
     999902    2    1    2    0    0  0.68234365986E-02  0.18522351504E-02  0.23447789998E-01  0.10194394116E+01  0.10191451933E+01 0.  0.
         14    1    1    2    0    0 -0.68234365986E-02 -0.18522351504E-02 -0.23447789998E-01  0.24490588353E-01  0.00000000000E+00 0.  1.
     999901    1    3    3    0    0 -0.76235270215E-01  0.85543829095E-01 -0.34270696907E-01  0.88809011017E+00  0.88000000000E+00 0.  1.
        -11    1    3    3    0    0  0.25512091159E-01 -0.26596925056E-01  0.20060030376E-01  0.41963426427E-01  0.51100000000E-03 0. -1.
         11    1    3    3    0    0  0.57546615654E-01 -0.57094668888E-01  0.37658456530E-01  0.89385875047E-01  0.51100000000E-03 0.  1.
</event>
<event>
 8    1  0.1065239E+005  0.1043930E+01  0.7957747E-01            NaN
         13   -1    0    0    0    0  0.00000000000E+00  0.00000000000E+00  0.74505805969E-08  0.10566000000E+00  0.10566000000E+00 0.  1.
     999900   -1    0    0    0    0 -0.00000000000E+00 -0.00000000000E+00 -0.74505805969E-08  0.93827000000E+00  0.93827000000E+00 0. -1.
     999902    2    1    2    0    0 -0.97183434144E-02  0.10348055512E-01 -0.18251034391E-01  0.10208079606E+01  0.10205460615E+01 0.  0.
     999903    2    3    3    0    0 -0.61287530037E-01 -0.10459470667E+00 -0.46558930940E-01  0.13138536325E+00  0.19954087930E-01 0.  0.
         14    1    1    2    0    0  0.97183434144E-02 -0.10348055512E-01  0.18251034391E-01  0.23122039442E-01  0.00000000000E+00 0.  1.
     999901    1    3    3    0    0  0.51569186623E-01  0.11494276219E+00  0.28307896549E-01  0.88942259730E+00  0.88000000000E+00 0.  1.
        -11    1    4    4    0    0 -0.34989145984E-01 -0.69552053168E-01 -0.38410668552E-01  0.86818022416E-01  0.51100000000E-03 0. -1.
         11    1    4    4    0    0 -0.26298384053E-01 -0.35042653505E-01 -0.81482623884E-02  0.44567340839E-01  0.51100000000E-03 0.  1.
</event>
<event>
 8    1  0.1065239E+005  0.1043930E+01  0.7957747E-01            NaN
         13   -1    0    0    0    0  0.00000000000E+00  0.00000000000E+00  0.74505805969E-08  0.10566000000E+00  0.10566000000E+00 0.  1.
     999900   -1    0    0    0    0 -0.00000000000E+00 -0.00000000000E+00 -0.74505805969E-08  0.93827000000E+00  0.93827000000E+00 0.  1.
     999902    2    1    2    0    0 -0.38560186185E-02 -0.78574935639E-02 -0.21946152944E-01  0.10203028395E+01  0.10200292356E+01 0.  0.
     999903    2    3    3    0    0  0.31447184280E-01 -0.12555683047E+00  0.60403357102E-02  0.13132438441E+00  0.21358024459E-01 0.  0.
         14    1    1    2    0    0  0.38560186185E-02  0.78574935639E-02  0.21946152944E-01  0.23627160509E-01  0.00000000000E+00 0.  1.
     999901    1    3    3    0    0 -0.35303202899E-01  0.11769933691E+00 -0.27986488654E-01  0.88897845508E+00  0.88000000000E+00 0.  1.
        -11    1    4    4    0    0  0.27265368350E-01 -0.73301859765E-01 -0.22818803212E-02  0.78243409020E-01  0.51100000000E-03 0. -1.
         11    1    4    4    0    0  0.41818159304E-02 -0.52254970707E-01  0.83222160314E-02  0.53080975394E-01  0.51100000000E-03 0.  1.
</event>
<event>
 8    1  0.1065239E+005  0.1043930E+01  0.7957747E-01            NaN
         13   -1    0    0    0    0  0.00000000000E+00  0.00000000000E+00  0.74505805969E-08  0.10566000000E+00  0.10566000000E+00 0. -1.
     999900   -1    0    0    0    0 -0.00000000000E+00 -0.00000000000E+00 -0.74505805969E-08  0.93827000000E+00  0.93827000000E+00 0. -1.
     999902    2    1    2    0    0 -0.11075834001E-01 -0.14155622609E-01  0.15484859396E-01  0.10202058220E+01  0.10199299401E+01 0.  0.
     999903    2    3    3    0    0  0.93117432971E-01 -0.85352950738E-01  0.28711572656E-01  0.13110501651E+00  0.20203673611E-01 0.  0.
         14    1    1    2    0    0  0.11075834001E-01  0.14155622609E-01 -0.15484859396E-01  0.23724177979E-01  0.00000000000E+00 0.  1.
     999901    1    3    3    0    0 -0.10419326697E+00  0.71197328129E-01 -0.13226713261E-01  0.88910080551E+00  0.88000000000E+00 0.  1.
        -11    1    4    4    0    0  0.62215992851E-01 -0.48682950775E-01  0.10016895014E-01  0.79633276771E-01  0.51100000000E-03 0.  1.
         11    1    4    4    0    0  0.30901440120E-01 -0.36669999963E-01  0.18694677643E-01  0.51471739741E-01  0.51100000000E-03 0. -1.
</event>
<event>
 8    1  0.1065239E+005  0.1043930E+01  0.7957747E-01            NaN
         13   -1    0    0    0    0  0.00000000000E+00  0.00000000000E+00  0.74505805969E-08  0.10566000000E+00  0.10566000000E+00 0. -1.
     999900   -1    0    0    0    0 -0.00000000000E+00 -0.00000000000E+00 -0.74505805969E-08  0.93827000000E+00  0.93827000000E+00 0. -1.
     999902    2    1    2    0    0  0.59480827077E-02  0.19600868107E-01  0.11649977419E-01  0.10203652871E+01  0.10200931445E+01 0.  0.
     999903    2    3    3    0    0 -0.26066414620E-01 -0.11888316671E+00 -0.33465070121E-01  0.12781942084E+00  0.20130278848E-01 0.  0.
         14    1    1    2    0    0 -0.59480827077E-02 -0.19600868107E-01 -0.11649977419E-01  0.23564712863E-01  0.00000000000E+00 0.  1.
     999901    1    3    3    0    0  0.32014497328E-01  0.13848403482E+00  0.45115047540E-01  0.89254586630E+00  0.88000000000E+00 0. -1.
        -11    1    4    4    0    0 -0.13954628470E-01 -0.37464843378E-01 -0.31787291884E-02  0.40108746992E-01  0.51100000000E-03 0.  1.
         11    1    4    4    0    0 -0.12111786150E-01 -0.81418323332E-01 -0.30286340933E-01  0.87710673843E-01  0.51100000000E-03 0. -1.
</event>
<event>
 8    1  0.1065239E+005  0.1043930E+01  0.7957747E-01            NaN
         13   -1    0    0    0    0  0.00000000000E+00  0.00000000000E+00  0.74505805969E-08  0.10566000000E+00  0.10566000000E+00 0. -1.
     999900   -1    0    0    0    0 -0.00000000000E+00 -0.00000000000E+00 -0.74505805969E-08  0.93827000000E+00  0.93827000000E+00 0. -1.
     999902    2    1    2    0    0 -0.29270530797E-02 -0.19955357161E-01  0.12959801782E-01  0.10199562564E+01  0.10196744699E+01 0.  0.
     999903    2    3    3    0    0  0.10214415868E+00  0.11503473689E-01 -0.74981983622E-01  0.12879781080E+00  0.20020467992E-01 0.  0.
         14    1    1    2    0    0  0.29270530797E-02  0.19955357161E-01 -0.12959801782E-01  0.23973743583E-01  0.00000000000E+00 0.  1.
     999901    1    3    3    0    0 -0.10507121176E+00 -0.31458830850E-01  0.87941785405E-01  0.89115844562E+00  0.88000000000E+00 0.  1.
        -11    1    4    4    0    0  0.67502285764E-01  0.70874908399E-02 -0.37418407944E-01  0.77506060949E-01  0.51100000000E-03 0. -1.
         11    1    4    4    0    0  0.34641872916E-01  0.44159828487E-02 -0.37563575679E-01  0.51291749848E-01  0.51100000000E-03 0.  1.
</event>
<event>
 8    1  0.1065239E+005  0.1043930E+01  0.7957747E-01            NaN
         13   -1    0    0    0    0  0.00000000000E+00  0.00000000000E+00  0.74505805969E-08  0.10566000000E+00  0.10566000000E+00 0. -1.
     999900   -1    0    0    0    0 -0.00000000000E+00 -0.00000000000E+00 -0.74505805969E-08  0.93827000000E+00  0.93827000000E+00 0.  1.
     999902    2    1    2    0    0  0.11146512925E-01  0.17061241908E-01 -0.11936573643E-01  0.10203119451E+01  0.10200385546E+01 0.  0.
     999903    2    3    3    0    0  0.82919313589E-01 -0.83755952150E-01  0.49069967044E-01  0.12956100376E+00  0.22079853778E-01 0.  0.
         14    1    1    2    0    0 -0.11146512925E-01 -0.17061241908E-01  0.11936573643E-01  0.23618054877E-01  0.00000000000E+00 0. -1.
     999901    1    3    3    0    0 -0.71772800664E-01  0.10081719406E+00 -0.61006540687E-01  0.89075094136E+00  0.88000000000E+00 0.  1.
        -11    1    4    4    0    0  0.18891315922E-01 -0.19770916210E-01  0.21939320327E-01  0.35062313707E-01  0.51100000000E-03 0.  1.
         11    1    4    4    0    0  0.64027997667E-01 -0.63985035940E-01  0.27130646717E-01  0.94498690053E-01  0.51100000000E-03 0. -1.
</event>
<event>
 8    1  0.1065239E+005  0.1043930E+01  0.7957747E-01            NaN
         13   -1    0    0    0    0  0.00000000000E+00  0.00000000000E+00  0.74505805969E-08  0.10566000000E+00  0.10566000000E+00 0.  1.
     999900   -1    0    0    0    0 -0.00000000000E+00 -0.00000000000E+00 -0.74505805969E-08  0.93827000000E+00  0.93827000000E+00 0.  1.
     999902    2    1    2    0    0  0.17384058664E-01  0.14664714161E-01 -0.78515365694E-02  0.10198695353E+01  0.10195856820E+01 0.  0.
     999903    2    3    3    0    0  0.46110345692E-01  0.12230586176E+00 -0.77870297912E-02  0.13284539783E+00  0.22413703187E-01 0.  0.
         14    1    1    2    0    0 -0.17384058664E-01 -0.14664714161E-01  0.78515365694E-02  0.24060464741E-01  0.00000000000E+00 0.  1.
     999901    1    3    3    0    0 -0.28726287028E-01 -0.10764114760E+00 -0.64506778179E-04  0.88702413743E+00  0.88000000000E+00 0.  1.
        -11    1    4    4    0    0  0.34126293081E-01  0.61365123810E-01  0.24459018535E-03  0.70218254358E-01  0.51100000000E-03 0. -1.
         11    1    4    4    0    0  0.11984052611E-01  0.60940737950E-01 -0.80316199766E-02  0.62627143471E-01  0.51100000000E-03 0.  1.
</event>
<event>
 8    1  0.1065239E+005  0.1043930E+01  0.7957747E-01            NaN
         13   -1    0    0    0    0  0.00000000000E+00  0.00000000000E+00  0.74505805969E-08  0.10566000000E+00  0.10566000000E+00 0. -1.
     999900   -1    0    0    0    0 -0.00000000000E+00 -0.00000000000E+00 -0.74505805969E-08  0.93827000000E+00  0.93827000000E+00 0. -1.
     999902    2    1    2    0    0 -0.56148161944E-03 -0.59820022549E-02  0.22862993183E-01  0.10202907092E+01  0.10200168210E+01 0.  0.
     999903    2    3    3    0    0  0.73291144978E-03  0.19060434739E-01 -0.12462550070E+00  0.12766444085E+00  0.20071290473E-01 0.  0.
         14    1    1    2    0    0  0.56148161944E-03  0.59820022549E-02 -0.22862993183E-01  0.23639290808E-01  0.00000000000E+00 0.  1.
     999901    1    3    3    0    0 -0.12943930692E-02 -0.25042436994E-01  0.14748849388E+00  0.89262626834E+00  0.88000000000E+00 0.  1.
        -11    1    4    4    0    0  0.14675888804E-02  0.50652613947E-02 -0.92002353215E-01  0.92154787223E-01  0.51100000000E-03 0. -1.
         11    1    4    4    0    0 -0.73467743063E-03  0.13995173345E-01 -0.32623147486E-01  0.35509653628E-01  0.51100000000E-03 0.  1.
</event>
<event>
 8    1  0.1065239E+005  0.1043930E+01  0.7957747E-01            NaN
         13   -1    0    0    0    0  0.00000000000E+00  0.00000000000E+00  0.74505805969E-08  0.10566000000E+00  0.10566000000E+00 0. -1.
     999900   -1    0    0    0    0 -0.00000000000E+00 -0.00000000000E+00 -0.74505805969E-08  0.93827000000E+00  0.93827000000E+00 0. -1.
     999902    2    1    2    0    0 -0.52618856890E-02  0.16252200870E-01  0.27676480614E-01  0.10114060234E+01  0.10108829483E+01 0.  0.
     999903    2    3    3    0    0  0.29544103346E-01  0.17716379543E-01 -0.11255887117E+00  0.11962154576E+00  0.21285924546E-01 0.  0.
         14    1    1    2    0    0  0.52618856890E-02 -0.16252200870E-01 -0.27676480614E-01  0.32523976591E-01  0.00000000000E+00 0.  1.
     999901    1    3    3    0    0 -0.34805989035E-01 -0.14641786724E-02  0.14023535178E+00  0.89178447765E+00  0.88000000000E+00 0.  1.
        -11    1    4    4    0    0 -0.11018154985E-02  0.38905618918E-03 -0.27950766584E-01  0.27979846958E-01  0.51100000000E-03 0.  1.
         11    1    4    4    0    0  0.30645918845E-01  0.17327323353E-01 -0.84608104584E-01  0.91641698799E-01  0.51100000000E-03 0. -1.
</event>
