<event>
 8    1  0.1123450E+005  0.1043930E+01  0.7957747E-01            NaN
         13   -1    0    0    0    0  0.00000000000E+00  0.00000000000E+00  0.74505805969E-08  0.10566000000E+00  0.10566000000E+00 0.  1.
     999900   -1    0    0    0    0 -0.00000000000E+00 -0.00000000000E+00 -0.74505805969E-08  0.93827000000E+00  0.93827000000E+00 0. -1.
     999902    2    1    2    0    0 -0.16808918377E-01 -0.60437686169E-02  0.14132531925E-01  0.10211529208E+01  0.10208988649E+01 0.  0.
     999903    2    3    3    0    0  0.40732064854E-01 -0.12289256911E+00 -0.67138609937E-02  0.13132193744E+00  0.20944943913E-01 0.  0.
         14    1    1    2    0    0  0.16808918377E-01  0.60437686169E-02 -0.14132531925E-01  0.22777079152E-01  0.00000000000E+00 0. -1.
     999901    1    3    3    0    0 -0.57540983231E-01  0.11684880049E+00  0.20846392919E-01  0.88983098340E+00  0.88000000000E+00 0.  1.
        -11    1    4    4    0    0  0.16578725033E-01 -0.65863328669E-01  0.56868422518E-02  0.68157416932E-01  0.51100000000E-03 0. -1.
         11    1    4    4    0    0  0.24153339821E-01 -0.57029240439E-01 -0.12400703245E-01  0.63164520512E-01  0.51100000000E-03 0.  1.
</event>
<event>
 8    1  0.1123450E+005  0.1043930E+01  0.7957747E-01            NaN
         13   -1    0    0    0    0  0.00000000000E+00  0.00000000000E+00  0.74505805969E-08  0.10566000000E+00  0.10566000000E+00 0.  1.
     999900   -1    0    0    0    0 -0.00000000000E+00 -0.00000000000E+00 -0.74505805969E-08  0.93827000000E+00  0.93827000000E+00 0.  1.
     999902    2    1    2    0    0  0.15155555204E-01 -0.64698498775E-02  0.17741309240E-01  0.10197162877E+01  0.10194287633E+01 0.  0.
     999903    2    3    3    0    0 -0.18389194580E-01 -0.28000215581E-01 -0.12164432779E+00  0.12785466013E+00  0.20671165467E-01 0.  0.
         14    1    1    2    0    0 -0.15155555204E-01  0.64698498775E-02 -0.17741309240E-01  0.24213712325E-01  0.00000000000E+00 0.  1.
     999901    1    3    3    0    0  0.33544749784E-01  0.21530365703E-01  0.13938563703E+00  0.89186162755E+00  0.88000000000E+00 0. -1.
        -11    1    4    4    0    0 -0.21717418381E-01 -0.20297641172E-01 -0.10605308025E+00  0.11014153372E+00  0.51100000000E-03 0.  1.
         11    1    4    4    0    0  0.33282238010E-02 -0.77025744082E-02 -0.15591247545E-01  0.17713126410E-01  0.51100000000E-03 0. -1.
</event>
<event>
 8    1  0.1123450E+005  0.1043930E+01  0.7957747E-01            NaN
         13   -1    0    0    0    0  0.00000000000E+00  0.00000000000E+00  0.74505805969E-08  0.10566000000E+00  0.10566000000E+00 0. -1.
     999900   -1    0    0    0    0 -0.00000000000E+00 -0.00000000000E+00 -0.74505805969E-08  0.93827000000E+00  0.93827000000E+00 0.  1.
     999902    2    1    2    0    0  0.13073178442E-01  0.19660403857E-01 -0.28126453390E-02  0.10201529008E+01  0.10198757721E+01 0.  0.
     999903    2    3    3    0    0 -0.12463435595E-01  0.78825394593E-01 -0.10339181032E+00  0.13208264272E+00  0.19676839364E-01 0.  0.
         14    1    1    2    0    0 -0.13073178442E-01 -0.19660403857E-01  0.28126453390E-02  0.23777099238E-01  0.00000000000E+00 0.  1.
     999901    1    3    3    0    0  0.25536614037E-01 -0.59164990737E-01  0.10057916498E+00  0.88807025804E+00  0.88000000000E+00 0. -1.
        -11    1    4    4    0    0 -0.68864111786E-02  0.26230086403E-01 -0.21576745819E-01  0.34659157127E-01  0.51100000000E-03 0. -1.
         11    1    4    4    0    0 -0.55770244163E-02  0.52595308190E-01 -0.81815064503E-01  0.97423485596E-01  0.51100000000E-03 0.  1.
</event>
<event>
 8    1  0.1123450E+005  0.1043930E+01  0.7957747E-01            NaN
         13   -1    0    0    0    0  0.00000000000E+00  0.00000000000E+00  0.74505805969E-08  0.10566000000E+00  0.10566000000E+00 0. -1.
     999900   -1    0    0    0    0 -0.00000000000E+00 -0.00000000000E+00 -0.74505805969E-08  0.93827000000E+00  0.93827000000E+00 0. -1.
     999902    2    1    2    0    0  0.73288695431E-02 -0.15432932668E-01 -0.16458164152E-01  0.10202074599E+01  0.10199316165E+01 0.  0.
     999903    2    3    3    0    0  0.11758644526E+00  0.49532308484E-01 -0.22057402713E-01  0.13093328005E+00  0.19415795550E-01 0.  0.
         14    1    1    2    0    0 -0.73288695431E-02  0.15432932668E-01  0.16458164152E-01  0.23722540057E-01  0.00000000000E+00 0.  1.
     999901    1    3    3    0    0 -0.11025757571E+00 -0.64965241152E-01  0.55992385607E-02  0.88927417990E+00  0.88000000000E+00 0. -1.
        -11    1    4    4    0    0  0.48011722241E-01  0.11561841415E-01 -0.33997077630E-02  0.49503745144E-01  0.51100000000E-03 0. -1.
         11    1    4    4    0    0  0.69574723017E-01  0.37970467069E-01 -0.18657694950E-01  0.81429534901E-01  0.51100000000E-03 0.  1.
</event>
<event>
 8    1  0.1123450E+005  0.1043930E+01  0.7957747E-01            NaN
         13   -1    0    0    0    0  0.00000000000E+00  0.00000000000E+00  0.74505805969E-08  0.10566000000E+00  0.10566000000E+00 0. -1.
     999900   -1    0    0    0    0 -0.00000000000E+00 -0.00000000000E+00 -0.74505805969E-08  0.93827000000E+00  0.93827000000E+00 0.  1.
     999902    2    1    2    0    0  0.21492894570E-01  0.12052005510E-01  0.62656442528E-02  0.10185045472E+01  0.10181871434E+01 0.  0.
     999903    2    3    3    0    0  0.10409052745E-01  0.12818705288E+00 -0.12218633087E-01  0.13061273547E+00  0.19238574976E-01 0.  0.
         14    1    1    2    0    0 -0.21492894570E-01 -0.12052005510E-01 -0.62656442528E-02  0.25425452832E-01  0.00000000000E+00 0.  1.
     999901    1    3    3    0    0  0.11083841826E-01 -0.11613504737E+00  0.18484277340E-01  0.88789181170E+00  0.88000000000E+00 0.  1.
        -11    1    4    4    0    0 -0.29747928571E-03  0.93325268168E-01 -0.52054780218E-02  0.93472200654E-01  0.51100000000E-03 0. -1.
         11    1    4    4    0    0  0.10706532030E-01  0.34861784709E-01 -0.70131550649E-02  0.37140534813E-01  0.51100000000E-03 0.  1.
</event>
<event>
 8    1  0.1123450E+005  0.1043930E+01  0.7957747E-01            NaN
         13   -1    0    0    0    0  0.00000000000E+00  0.00000000000E+00  0.74505805969E-08  0.10566000000E+00  0.10566000000E+00 0. -1.
     999900   -1    0    0    0    0 -0.00000000000E+00 -0.00000000000E+00 -0.74505805969E-08  0.93827000000E+00  0.93827000000E+00 0.  1.
     999902    2    1    2    0    0 -0.23287440715E-01 -0.18301327435E-02  0.32175150659E-02  0.10203502060E+01  0.10200777109E+01 0.  0.
     999903    2    3    3    0    0 -0.42873084531E-01  0.10638582885E+00 -0.60082538776E-01  0.13124886838E+00  0.21454790305E-01 0.  0.
         14    1    1    2    0    0  0.23287440715E-01  0.18301327435E-02 -0.32175150659E-02  0.23579793979E-01  0.00000000000E+00 0. -1.
     999901    1    3    3    0    0  0.19585643816E-01 -0.10821596159E+00  0.63300053842E-01  0.88910133765E+00  0.88000000000E+00 0. -1.
        -11    1    4    4    0    0 -0.50050302055E-02  0.13827146125E-01 -0.16644384261E-01  0.22215691431E-01  0.51100000000E-03 0.  1.
         11    1    4    4    0    0 -0.37868054325E-01  0.92558682724E-01 -0.43438154515E-01  0.10903317694E+00  0.51100000000E-03 0. -1.
</event>
<event>
 8    1  0.1123450E+005  0.1043930E+01  0.7957747E-01            NaN
         13   -1    0    0    0    0  0.00000000000E+00  0.00000000000E+00  0.74505805969E-08  0.10566000000E+00  0.10566000000E+00 0.  1.
     999900   -1    0    0    0    0 -0.00000000000E+00 -0.00000000000E+00 -0.74505805969E-08  0.93827000000E+00  0.93827000000E+00 0.  1.
     999902    2    1    2    0    0  0.16824244616E-01 -0.16509705553E-01 -0.25462009896E-02  0.10202211678E+01  0.10199456468E+01 0.  0.
     999903    2    3    3    0    0  0.58931525385E-01 -0.57339021087E-01 -0.10275303297E+00  0.13259429503E+00  0.16197940188E-01 0.  0.
         14    1    1    2    0    0 -0.16824244616E-01  0.16509705553E-01  0.25462009896E-02  0.23708832191E-01  0.00000000000E+00 0. -1.
     999901    1    3    3    0    0 -0.42107280769E-01  0.40829315534E-01  0.10020683198E+00  0.88762687278E+00  0.88000000000E+00 0. -1.
        -11    1    4    4    0    0  0.35711771076E-01 -0.31184139181E-01 -0.70854734265E-01  0.85255120776E-01  0.51100000000E-03 0.  1.
         11    1    4    4    0    0  0.23219754309E-01 -0.26154881907E-01 -0.31898298708E-01  0.47339174255E-01  0.51100000000E-03 0. -1.
</event>
<event>
 8    1  0.1123450E+005  0.1043930E+01  0.7957747E-01            NaN
         13   -1    0    0    0    0  0.00000000000E+00  0.00000000000E+00  0.74505805969E-08  0.10566000000E+00  0.10566000000E+00 0. -1.
     999900   -1    0    0    0    0 -0.00000000000E+00 -0.00000000000E+00 -0.74505805969E-08  0.93827000000E+00  0.93827000000E+00 0. -1.
     999902    2    1    2    0    0 -0.77294295040E-02  0.55777529837E-02  0.21236646934E-01  0.10206523158E+01  0.10203868380E+01 0.  0.
     999903    2    3    3    0    0  0.35444779041E-01  0.53880983987E-01  0.11486592388E+00  0.13331717285E+00  0.20488907014E-01 0.  0.
         14    1    1    2    0    0  0.77294295040E-02 -0.55777529837E-02 -0.21236646934E-01  0.23277684202E-01  0.00000000000E+00 0.  1.
     999901    1    3    3    0    0 -0.43174208545E-01 -0.48303231003E-01 -0.93629276949E-01  0.88733514295E+00  0.88000000000E+00 0. -1.
        -11    1    4    4    0    0  0.69864517461E-02  0.23207977499E-01  0.56686310153E-01  0.61652409583E-01  0.51100000000E-03 0.  1.
         11    1    4    4    0    0  0.28458327295E-01  0.30673006488E-01  0.58179613730E-01  0.71664763267E-01  0.51100000000E-03 0. -1.
</event>
<event>
 8    1  0.1123450E+005  0.1043930E+01  0.7957747E-01            NaN
         13   -1    0    0    0    0  0.00000000000E+00  0.00000000000E+00  0.74505805969E-08  0.10566000000E+00  0.10566000000E+00 0.  1.
     999900   -1    0    0    0    0 -0.00000000000E+00 -0.00000000000E+00 -0.74505805969E-08  0.93827000000E+00  0.93827000000E+00 0. -1.
     999902    2    1    2    0    0  0.26624115121E-01  0.68513451133E-02  0.54489078381E-02  0.10159036725E+01  0.10155170096E+01 0.  0.
     999903    2    3    3    0    0  0.10434253553E+00 -0.72522380539E-01 -0.81878118055E-02  0.12881500653E+00  0.19478327541E-01 0.  0.
         14    1    1    2    0    0 -0.26624115121E-01 -0.68513451133E-02 -0.54489078381E-02  0.28026327488E-01  0.00000000000E+00 0.  1.
     999901    1    3    3    0    0 -0.77718420412E-01  0.79373725652E-01  0.13636719644E-01  0.88708866598E+00  0.88000000000E+00 0.  1.
        -11    1    4    4    0    0  0.85072160961E-01 -0.51909802364E-01 -0.88826322318E-03  0.99664187573E-01  0.51100000000E-03 0.  1.
         11    1    4    4    0    0  0.19270374573E-01 -0.20612578175E-01 -0.72995485823E-02  0.29150818954E-01  0.51100000000E-03 0. -1.
</event>
<event>
 8    1  0.1123450E+005  0.1043930E+01  0.7957747E-01            NaN
         13   -1    0    0    0    0  0.00000000000E+00  0.00000000000E+00  0.74505805969E-08  0.10566000000E+00  0.10566000000E+00 0.  1.
     999900   -1    0    0    0    0 -0.00000000000E+00 -0.00000000000E+00 -0.74505805969E-08  0.93827000000E+00  0.93827000000E+00 0.  1.
     999902    2    1    2    0    0 -0.10098153846E-01 -0.82997104200E-02 -0.16120653724E-01  0.10231758828E+01  0.10229653727E+01 0.  0.
     999903    2    3    3    0    0  0.73767710072E-01  0.61265921700E-01  0.86331277172E-01  0.13055655832E+00  0.19918265242E-01 0.  0.
         14    1    1    2    0    0  0.10098153846E-01  0.82997104200E-02  0.16120653724E-01  0.20754117197E-01  0.00000000000E+00 0.  1.
     999901    1    3    3    0    0 -0.83865863917E-01 -0.69565632121E-01 -0.10245193090E+00  0.89261932449E+00  0.88000000000E+00 0.  1.
        -11    1    4    4    0    0  0.58503336504E-01  0.38860991085E-01  0.68464905182E-01  0.98084256498E-01  0.51100000000E-03 0.  1.
         11    1    4    4    0    0  0.15264373568E-01  0.22404930615E-01  0.17866371990E-01  0.32472301818E-01  0.51100000000E-03 0. -1.
</event>
<event>
 8    1  0.1123450E+005  0.1043930E+01  0.7957747E-01            NaN
         13   -1    0    0    0    0  0.00000000000E+00  0.00000000000E+00  0.74505805969E-08  0.10566000000E+00  0.10566000000E+00 0.  1.
     999900   -1    0    0    0    0 -0.00000000000E+00 -0.00000000000E+00 -0.74505805969E-08  0.93827000000E+00  0.93827000000E+00 0.  1.
     999902    2    1    2    0    0  0.53674273440E-02 -0.13893334506E-01  0.18584524346E-01  0.10201136492E+01  0.10198355940E+01 0.  0.
     999903    2    3    3    0    0 -0.42838249930E-01 -0.70363777093E-01  0.10061944672E+00  0.13318500118E+00  0.28771421522E-01 0.  0.
         14    1    1    2    0    0 -0.53674273440E-02  0.13893334506E-01 -0.18584524346E-01  0.23816350794E-01  0.00000000000E+00 0.  1.
     999901    1    3    3    0    0  0.48205677274E-01  0.56470442586E-01 -0.82034922373E-01  0.88692864803E+00  0.88000000000E+00 0.  1.
        -11    1    4    4    0    0 -0.24899235932E-01 -0.62442901067E-01  0.72189925638E-01  0.98644484530E-01  0.51100000000E-03 0.  1.
         11    1    4    4    0    0 -0.17939013999E-01 -0.79208760260E-02  0.28429521081E-01  0.34540516646E-01  0.51100000000E-03 0. -1.
</event>
<event>
 8    1  0.1123450E+005  0.1043930E+01  0.7957747E-01            NaN
         13   -1    0    0    0    0  0.00000000000E+00  0.00000000000E+00  0.74505805969E-08  0.10566000000E+00  0.10566000000E+00 0.  1.
     999900   -1    0    0    0    0 -0.00000000000E+00 -0.00000000000E+00 -0.74505805969E-08  0.93827000000E+00  0.93827000000E+00 0.  1.
     999902    2    1    2    0    0 -0.10291142479E-01 -0.12677262254E-01 -0.12267577340E-01  0.10235066299E+01  0.10233028425E+01 0.  0.
     999903    2    3    3    0    0  0.64671428801E-01  0.11181411042E+00  0.61430914523E-02  0.13139876554E+00  0.23304699532E-01 0.  0.
         14    1    1    2    0    0  0.10291142479E-01  0.12677262254E-01  0.12267577340E-01  0.20423370083E-01  0.00000000000E+00 0. -1.
     999901    1    3    3    0    0 -0.74962571280E-01 -0.12449137267E+00 -0.18410668792E-01  0.89210786438E+00  0.88000000000E+00 0.  1.
        -11    1    4    4    0    0  0.25325197053E-01  0.29773093551E-01 -0.61885171973E-02  0.39577286055E-01  0.51100000000E-03 0.  1.
         11    1    4    4    0    0  0.39346231748E-01  0.82041016867E-01  0.12331608650E-01  0.91821479482E-01  0.51100000000E-03 0. -1.
</event>
<event>
 8    1  0.1123450E+005  0.1043930E+01  0.7957747E-01            NaN
         13   -1    0    0    0    0  0.00000000000E+00  0.00000000000E+00  0.74505805969E-08  0.10566000000E+00  0.10566000000E+00 0. -1.
     999900   -1    0    0    0    0 -0.00000000000E+00 -0.00000000000E+00 -0.74505805969E-08  0.93827000000E+00  0.93827000000E+00 0.  1.
     999902    2    1    2    0    0 -0.18136267961E-01 -0.82843279444E-02 -0.11783899446E-01  0.10207693741E+01  0.10205065902E+01 0.  0.
     999903    2    3    3    0    0  0.64472600321E-01  0.89685376434E-01  0.62652084073E-01  0.12837764190E+00  0.18850792089E-01 0.  0.
         14    1    1    2    0    0  0.18136267961E-01  0.82843279444E-02  0.11783899446E-01  0.23160625881E-01  0.00000000000E+00 0.  1.
     999901    1    3    3    0    0 -0.82608868282E-01 -0.97969704378E-01 -0.74435983519E-01  0.89239173222E+00  0.88000000000E+00 0.  1.
        -11    1    4    4    0    0  0.33224418943E-02  0.64108325705E-02 -0.55577771797E-03  0.72599865193E-02  0.51100000000E-03 0. -1.
         11    1    4    4    0    0  0.61150158427E-01  0.83274543863E-01  0.63207861791E-01  0.12111765538E+00  0.51100000000E-03 0.  1.
</event>
<event>
 8    1  0.1123450E+005  0.1043930E+01  0.7957747E-01            NaN
         13   -1    0    0    0    0  0.00000000000E+00  0.00000000000E+00  0.74505805969E-08  0.10566000000E+00  0.10566000000E+00 0.  1.
     999900   -1    0    0    0    0 -0.00000000000E+00 -0.00000000000E+00 -0.74505805969E-08  0.93827000000E+00  0.93827000000E+00 0. -1.
     999902    2    1    2    0    0  0.59606962709E-02 -0.19962455020E-01 -0.11511789722E-01  0.10201276721E+01  0.10198499481E+01 0.  0.
     999903    2    3    3    0    0  0.10274450337E+00 -0.75149480460E-01 -0.32263479022E-01  0.13286032474E+00  0.20175639400E-01 0.  0.
         14    1    1    2    0    0 -0.59606962709E-02  0.19962455020E-01  0.11511789722E-01  0.23802327892E-01  0.00000000000E+00 0.  1.
     999901    1    3    3    0    0 -0.96783807101E-01  0.55187025440E-01  0.20751689300E-01  0.88726734737E+00  0.88000000000E+00 0.  1.
        -11    1    4    4    0    0  0.96444470224E-01 -0.63199588851E-01 -0.27658832594E-01  0.11857907070E+00  0.51100000000E-03 0.  1.
         11    1    4    4    0    0  0.63000331482E-02 -0.11949891609E-01 -0.46046464285E-02  0.14281254037E-01  0.51100000000E-03 0. -1.
</event>
<event>
 8    1  0.1123450E+005  0.1043930E+01  0.7957747E-01            NaN
         13   -1    0    0    0    0  0.00000000000E+00  0.00000000000E+00  0.74505805969E-08  0.10566000000E+00  0.10566000000E+00 0. -1.
     999900   -1    0    0    0    0 -0.00000000000E+00 -0.00000000000E+00 -0.74505805969E-08  0.93827000000E+00  0.93827000000E+00 0.  1.
     999902    2    1    2    0    0  0.10717802648E-01  0.79776301634E-02  0.19258830098E-01  0.10204903666E+01  0.10202211387E+01 0.  0.
     999903    2    3    3    0    0  0.78428355146E-01 -0.18272034098E-01 -0.99406528850E-01  0.12956094673E+00  0.20481865618E-01 0.  0.
         14    1    1    2    0    0 -0.10717802648E-01 -0.79776301634E-02 -0.19258830098E-01  0.23439633388E-01  0.00000000000E+00 0.  1.
     999901    1    3    3    0    0 -0.67710552498E-01  0.26249664262E-01  0.11866535895E+00  0.89092941988E+00  0.88000000000E+00 0. -1.
        -11    1    4    4    0    0  0.16628521897E-01 -0.12284172257E-01 -0.29960681046E-01  0.36404837018E-01  0.51100000000E-03 0. -1.
         11    1    4    4    0    0  0.61799833249E-01 -0.59878618416E-02 -0.69445847804E-01  0.93156109715E-01  0.51100000000E-03 0.  1.
</event>
<event>
 8    1  0.1123450E+005  0.1043930E+01  0.7957747E-01            NaN
         13   -1    0    0    0    0  0.00000000000E+00  0.00000000000E+00  0.74505805969E-08  0.10566000000E+00  0.10566000000E+00 0. -1.
     999900   -1    0    0    0    0 -0.00000000000E+00 -0.00000000000E+00 -0.74505805969E-08  0.93827000000E+00  0.93827000000E+00 0.  1.
     999902    2    1    2    0    0 -0.50157091678E-02  0.10430194211E-02 -0.23688727097E-01  0.10196936426E+01  0.10194055737E+01 0.  0.
     999903    2    3    3    0    0  0.11272645906E+00 -0.25608482367E-01 -0.57712814606E-01  0.13080042109E+00  0.20369885779E-01 0.  0.
         14    1    1    2    0    0  0.50157091678E-02 -0.10430194211E-02  0.23688727097E-01  0.24236357389E-01  0.00000000000E+00 0. -1.
     999901    1    3    3    0    0 -0.11774216823E+00  0.26651501789E-01  0.34024087508E-01  0.88889322152E+00  0.88000000000E+00 0.  1.
        -11    1    4    4    0    0  0.28124533024E-01 -0.15442348385E-01 -0.13674669024E-01  0.34881415903E-01  0.51100000000E-03 0.  1.
         11    1    4    4    0    0  0.84601926040E-01 -0.10166133982E-01 -0.44038145581E-01  0.95919005192E-01  0.51100000000E-03 0. -1.
</event>
<event>
 8    1  0.1123450E+005  0.1043930E+01  0.7957747E-01            NaN
         13   -1    0    0    0    0  0.00000000000E+00  0.00000000000E+00  0.74505805969E-08  0.10566000000E+00  0.10566000000E+00 0. -1.
     999900   -1    0    0    0    0 -0.00000000000E+00 -0.00000000000E+00 -0.74505805969E-08  0.93827000000E+00  0.93827000000E+00 0. -1.
     999902    2    1    2    0    0 -0.16555800387E-01  0.10152849152E-01 -0.13514175629E-01  0.10202697419E+01  0.10199953619E+01 0.  0.
     999903    2    3    3    0    0 -0.95796423779E-01 -0.54563771052E-01 -0.70830997487E-01  0.13249018848E+00  0.19556582493E-01 0.  0.
         14    1    1    2    0    0  0.16555800387E-01 -0.10152849152E-01  0.13514175629E-01  0.23660258141E-01  0.00000000000E+00 0. -1.
     999901    1    3    3    0    0  0.79240623392E-01  0.64716620203E-01  0.57316821858E-01  0.88777955338E+00  0.88000000000E+00 0.  1.
        -11    1    4    4    0    0 -0.45684174721E-01 -0.34787573475E-01 -0.43750698980E-01  0.72191439039E-01  0.51100000000E-03 0.  1.
         11    1    4    4    0    0 -0.50112249058E-01 -0.19776197577E-01 -0.27080298507E-01  0.60298749444E-01  0.51100000000E-03 0. -1.
</event>
<event>
 8    1  0.1123450E+005  0.1043930E+01  0.7957747E-01            NaN
         13   -1    0    0    0    0  0.00000000000E+00  0.00000000000E+00  0.74505805969E-08  0.10566000000E+00  0.10566000000E+00 0.  1.
     999900   -1    0    0    0    0 -0.00000000000E+00 -0.00000000000E+00 -0.74505805969E-08  0.93827000000E+00  0.93827000000E+00 0.  1.
     999902    2    1    2    0    0  0.53693710303E-02  0.11507036415E-01  0.19521544151E-01  0.10206419619E+01  0.10203762452E+01 0.  0.
     999903    2    3    3    0    0  0.99800433092E-01 -0.85803352123E-02  0.85457034821E-01  0.13290989821E+00  0.18121469149E-01 0.  0.
         14    1    1    2    0    0 -0.53693710303E-02 -0.11507036415E-01 -0.19521544151E-01  0.23288038096E-01  0.00000000000E+00 0. -1.
     999901    1    3    3    0    0 -0.94431062062E-01  0.20087371627E-01 -0.65935490669E-01  0.88773206369E+00  0.88000000000E+00 0.  1.
        -11    1    4    4    0    0  0.31875916449E-01  0.26788842588E-02  0.18961779200E-01  0.37189523548E-01  0.51100000000E-03 0. -1.
         11    1    4    4    0    0  0.67924516643E-01 -0.11259219471E-01  0.66495255620E-01  0.95720374662E-01  0.51100000000E-03 0.  1.
</event>
<event>
 8    1  0.1123450E+005  0.1043930E+01  0.7957747E-01            NaN
         13   -1    0    0    0    0  0.00000000000E+00  0.00000000000E+00  0.74505805969E-08  0.10566000000E+00  0.10566000000E+00 0. -1.
     999900   -1    0    0    0    0 -0.00000000000E+00 -0.00000000000E+00 -0.74505805969E-08  0.93827000000E+00  0.93827000000E+00 0. -1.
     999902    2    1    2    0    0 -0.19813019731E-01  0.12749438916E-01 -0.66987006543E-02  0.10194355816E+01  0.10191412701E+01 0.  0.
     999903    2    3    3    0    0 -0.83129689153E-01  0.10151177071E+00  0.32374786552E-03  0.13267909473E+00  0.19709199789E-01 0.  0.
         14    1    1    2    0    0  0.19813019731E-01 -0.12749438916E-01  0.66987006543E-02  0.24494418425E-01  0.00000000000E+00 0. -1.
     999901    1    3    3    0    0  0.63316669422E-01 -0.88762331790E-01 -0.70224485198E-02  0.88675648684E+00  0.88000000000E+00 0. -1.
        -11    1    4    4    0    0 -0.82179606079E-01  0.98313541751E-01  0.32981497322E-02  0.12818026002E+00  0.51100000000E-03 0. -1.
         11    1    4    4    0    0 -0.95008307415E-03  0.31982289545E-02 -0.29744018667E-02  0.44988347111E-02  0.51100000000E-03 0.  1.
</event>
<event>
 8    1  0.1123450E+005  0.1043930E+01  0.7957747E-01            NaN
         13   -1    0    0    0    0  0.00000000000E+00  0.00000000000E+00  0.74505805969E-08  0.10566000000E+00  0.10566000000E+00 0.  1.
     999900   -1    0    0    0    0 -0.00000000000E+00 -0.00000000000E+00 -0.74505805969E-08  0.93827000000E+00  0.93827000000E+00 0.  1.
     999902    2    1    2    0    0 -0.30737336574E-02  0.22780601177E-01 -0.41797285350E-02  0.10205660586E+01  0.10202985868E+01 0.  0.
     999903    2    3    3    0    0  0.79267111689E-01  0.80242109420E-01 -0.66866048023E-01  0.13264071576E+00  0.20010496764E-01 0.  0.
         14    1    1    2    0    0  0.30737336574E-02 -0.22780601177E-01  0.41797285350E-02  0.23363941432E-01  0.00000000000E+00 0. -1.
     999901    1    3    3    0    0 -0.82340845346E-01 -0.57461508242E-01  0.62686319488E-01  0.88792534280E+00  0.88000000000E+00 0. -1.
        -11    1    4    4    0    0  0.58586815050E-01  0.57974915704E-01 -0.38142159838E-01  0.90821755250E-01  0.51100000000E-03 0. -1.
         11    1    4    4    0    0  0.20680296639E-01  0.22267193715E-01 -0.28723888186E-01  0.41818960515E-01  0.51100000000E-03 0.  1.
</event>
<event>
 7    1  0.1123450E+005  0.1043930E+01  0.7957747E-01            NaN
         13   -1    0    0    0    0  0.00000000000E+00  0.00000000000E+00  0.74505805969E-08  0.10566000000E+00  0.10566000000E+00 0.  1.
     999900   -1    0    0    0    0 -0.00000000000E+00 -0.00000000000E+00 -0.74505805969E-08  0.93827000000E+00  0.93827000000E+00 0. -1.
     999902    2    1    2    0    0  0.17984125667E-01 -0.93118256293E-04  0.13189653375E-01  0.10216274351E+01  0.10213839688E+01 0.  0.
         14    1    1    2    0    0 -0.17984125667E-01  0.93118256293E-04 -0.13189653375E-01  0.22302564946E-01  0.00000000000E+00 0. -1.
     999901    1    3    3    0    0 -0.84965052206E-01 -0.13742156340E-01  0.80847109878E-01  0.88788747155E+00  0.88000000000E+00 0.  1.
        -11    1    3    3    0    0  0.52216033616E-01  0.12625858287E-01 -0.62616407166E-02  0.54086927529E-01  0.51100000000E-03 0.  1.
         11    1    3    3    0    0  0.50733144257E-01  0.10231797962E-02 -0.61395815787E-01  0.79653035977E-01  0.51100000000E-03 0. -1.
</event>
<event>
 8    1  0.1123450E+005  0.1043930E+01  0.7957747E-01            NaN
         13   -1    0    0    0    0  0.00000000000E+00  0.00000000000E+00  0.74505805969E-08  0.10566000000E+00  0.10566000000E+00 0. -1.
     999900   -1    0    0    0    0 -0.00000000000E+00 -0.00000000000E+00 -0.74505805969E-08  0.93827000000E+00  0.93827000000E+00 0. -1.
     999902    2    1    2    0    0 -0.63974221621E-02  0.22446291352E-02 -0.16825723721E-01  0.10257897037E+01  0.10256292926E+01 0.  0.
     999903    2    3    3    0    0  0.63440122773E-01 -0.88766325619E-01 -0.80256058639E-01  0.13607981620E+00  0.13136654358E-01 0.  0.
         14    1    1    2    0    0  0.63974221621E-02 -0.22446291352E-02  0.16825723721E-01  0.18140296276E-01  0.00000000000E+00 0. -1.
     999901    1    3    3    0    0 -0.69837544935E-01  0.91010954754E-01  0.63430334919E-01  0.88970988752E+00  0.88000000000E+00 0.  1.
        -11    1    4    4    0    0  0.43317533785E-01 -0.59028802694E-01 -0.46118526522E-01  0.86533160640E-01  0.51100000000E-03 0.  1.
         11    1    4    4    0    0  0.20122588988E-01 -0.29737522924E-01 -0.34137532117E-01  0.49546655561E-01  0.51100000000E-03 0. -1.
</event>
<event>
 8    1  0.1123450E+005  0.1043930E+01  0.7957747E-01            NaN
         13   -1    0    0    0    0  0.00000000000E+00  0.00000000000E+00  0.74505805969E-08  0.10566000000E+00  0.10566000000E+00 0. -1.
     999900   -1    0    0    0    0 -0.00000000000E+00 -0.00000000000E+00 -0.74505805969E-08  0.93827000000E+00  0.93827000000E+00 0.  1.
     999902    2    1    2    0    0  0.61108927028E-02  0.15552628861E-01  0.16993458158E-01  0.10200971467E+01  0.10198187015E+01 0.  0.
     999903    2    3    3    0    0 -0.10523558966E+00 -0.42453661014E-02 -0.69911292380E-01  0.12861386849E+00  0.23693583555E-01 0.  0.
         14    1    1    2    0    0 -0.61108927028E-02 -0.15552628861E-01 -0.16993458158E-01  0.23832853255E-01  0.00000000000E+00 0.  1.
     999901    1    3    3    0    0  0.11134648236E+00  0.19797994963E-01  0.86904750538E-01  0.89148327825E+00  0.88000000000E+00 0. -1.
        -11    1    4    4    0    0 -0.87738910452E-01 -0.88810456677E-02 -0.48762248085E-01  0.10077205634E+00  0.51100000000E-03 0.  1.
         11    1    4    4    0    0 -0.17496679208E-01  0.46356795662E-02 -0.21149044295E-01  0.27841812152E-01  0.51100000000E-03 0. -1.
</event>
<event>
 8    1  0.1123450E+005  0.1043930E+01  0.7957747E-01            NaN
         13   -1    0    0    0    0  0.00000000000E+00  0.00000000000E+00  0.74505805969E-08  0.10566000000E+00  0.10566000000E+00 0.  1.
     999900   -1    0    0    0    0 -0.00000000000E+00 -0.00000000000E+00 -0.74505805969E-08  0.93827000000E+00  0.93827000000E+00 0.  1.
     999902    2    1    2    0    0  0.60680064471E-02  0.17268729812E-01  0.26752644753E-01  0.10115149767E+01  0.10109954572E+01 0.  0.
     999903    2    3    3    0    0  0.69372443540E-01  0.11093781642E-01 -0.96226814449E-01  0.12068978114E+00  0.19256571290E-01 0.  0.
         14    1    1    2    0    0 -0.60680064471E-02 -0.17268729812E-01 -0.26752644753E-01  0.32415023258E-01  0.00000000000E+00 0. -1.
     999901    1    3    3    0    0 -0.63304437092E-01  0.61749481699E-02  0.12297945920E+00  0.89082519561E+00  0.88000000000E+00 0. -1.
        -11    1    4    4    0    0  0.24599719297E-01  0.12626739721E-01 -0.42890651222E-01  0.51033810643E-01  0.51100000000E-03 0.  1.
         11    1    4    4    0    0  0.44772724242E-01 -0.15329580788E-02 -0.53336163227E-01  0.69655970493E-01  0.51100000000E-03 0. -1.
</event>
<event>
 8    1  0.1123450E+005  0.1043930E+01  0.7957747E-01            NaN
         13   -1    0    0    0    0  0.00000000000E+00  0.00000000000E+00  0.74505805969E-08  0.10566000000E+00  0.10566000000E+00 0.  1.
     999900   -1    0    0    0    0 -0.00000000000E+00 -0.00000000000E+00 -0.74505805969E-08  0.93827000000E+00  0.93827000000E+00 0. -1.
     999902    2    1    2    0    0  0.20409278567E-01 -0.10988775875E-01  0.50105398499E-03  0.10207450285E+01  0.10204816855E+01 0.  0.
     999903    2    3    3    0    0 -0.12433343129E-01  0.20100903068E-01 -0.12656704119E+00  0.13046894397E+00  0.21078308716E-01 0.  0.
         14    1    1    2    0    0 -0.20409278567E-01  0.10988775875E-01 -0.50105398499E-03  0.23184971468E-01  0.00000000000E+00 0.  1.
     999901    1    3    3    0    0  0.32842621696E-01 -0.31089678944E-01  0.12706809518E+00  0.89027608457E+00  0.88000000000E+00 0.  1.
        -11    1    4    4    0    0 -0.98230892787E-02 -0.87615672890E-03 -0.28948510578E-01  0.30586567628E-01  0.51100000000E-03 0.  1.
         11    1    4    4    0    0 -0.26102538502E-02  0.20977059797E-01 -0.97618530614E-01  0.99882376339E-01  0.51100000000E-03 0. -1.
</event>
<event>
 8    1  0.1123450E+005  0.1043930E+01  0.7957747E-01            NaN
         13   -1    0    0    0    0  0.00000000000E+00  0.00000000000E+00  0.74505805969E-08  0.10566000000E+00  0.10566000000E+00 0.  1.
     999900   -1    0    0    0    0 -0.00000000000E+00 -0.00000000000E+00 -0.74505805969E-08  0.93827000000E+00  0.93827000000E+00 0. -1.
     999902    2    1    2    0    0  0.11920913820E-03  0.48957324760E-02  0.27648177435E-01  0.10158514651E+01  0.10154633401E+01 0.  0.
     999903    2    3    3    0    0 -0.95706330826E-01 -0.72892877468E-01 -0.28895873051E-01  0.12544098020E+00  0.20673526294E-01 0.  0.
         14    1    1    2    0    0 -0.11920913820E-03 -0.48957324760E-02 -0.27648177435E-01  0.28078534912E-01  0.00000000000E+00 0. -1.
     999901    1    3    3    0    0  0.95825539964E-01  0.77788609944E-01  0.56544050486E-01  0.89041048488E+00  0.88000000000E+00 0.  1.
        -11    1    4    4    0    0 -0.60298419518E-01 -0.35678199256E-01 -0.22949020324E-01  0.73727552200E-01  0.51100000000E-03 0.  1.
         11    1    4    4    0    0 -0.35407911308E-01 -0.37214678212E-01 -0.59468527274E-02  0.51713428005E-01  0.51100000000E-03 0. -1.
</event>
<event>
 8    1  0.1123450E+005  0.1043930E+01  0.7957747E-01            NaN
         13   -1    0    0    0    0  0.00000000000E+00  0.00000000000E+00  0.74505805969E-08  0.10566000000E+00  0.10566000000E+00 0. -1.
     999900   -1    0    0    0    0 -0.00000000000E+00 -0.00000000000E+00 -0.74505805969E-08  0.93827000000E+00  0.93827000000E+00 0.  1.
     999902    2    1    2    0    0 -0.92280991855E-02 -0.13557982457E-01 -0.95499591720E-02  0.10249516328E+01  0.10247759126E+01 0.  0.
     999903    2    3    3    0    0 -0.55821961358E-01 -0.94956188861E-01  0.76590304698E-01  0.13578528103E+00  0.20947520060E-01 0.  0.
         14    1    1    2    0    0  0.92280991855E-02  0.13557982457E-01  0.95499591720E-02  0.18978367239E-01  0.00000000000E+00 0. -1.
     999901    1    3    3    0    0  0.46593862172E-01  0.81398206404E-01 -0.86140263870E-01  0.88916635173E+00  0.88000000000E+00 0. -1.
        -11    1    4    4    0    0 -0.38720362596E-01 -0.45272386255E-01  0.40361360260E-01  0.71959404944E-01  0.51100000000E-03 0.  1.
         11    1    4    4    0    0 -0.17101598762E-01 -0.49683802605E-01  0.36228944438E-01  0.63825876082E-01  0.51100000000E-03 0. -1.
</event>
<event>
 8    1  0.1123450E+005  0.1043930E+01  0.7957747E-01            NaN
         13   -1    0    0    0    0  0.00000000000E+00  0.00000000000E+00  0.74505805969E-08  0.10566000000E+00  0.10566000000E+00 0.  1.
     999900   -1    0    0    0    0 -0.00000000000E+00 -0.00000000000E+00 -0.74505805969E-08  0.93827000000E+00  0.93827000000E+00 0. -1.
     999902    2    1    2    0    0 -0.22231405082E-02 -0.13415218186E-01  0.19444143315E-01  0.10202026921E+01  0.10199267365E+01 0.  0.
     999903    2    3    3    0    0 -0.78314078627E-01  0.44051302642E-01 -0.89500488381E-01  0.12837245897E+00  0.19888152915E-01 0.  0.
         14    1    1    2    0    0  0.22231405082E-02  0.13415218186E-01 -0.19444143315E-01  0.23727307937E-01  0.00000000000E+00 0. -1.
     999901    1    3    3    0    0  0.76090938119E-01 -0.57466520827E-01  0.10894463170E+00  0.89183023309E+00  0.88000000000E+00 0.  1.
        -11    1    4    4    0    0 -0.40805517713E-01  0.15793311759E-01 -0.32447685915E-01  0.54475980160E-01  0.51100000000E-03 0. -1.
         11    1    4    4    0    0 -0.37508560914E-01  0.28257990883E-01 -0.57052802466E-01  0.73896478812E-01  0.51100000000E-03 0.  1.
</event>
<event>
 8    1  0.1123450E+005  0.1043930E+01  0.7957747E-01            NaN
         13   -1    0    0    0    0  0.00000000000E+00  0.00000000000E+00  0.74505805969E-08  0.10566000000E+00  0.10566000000E+00 0. -1.
     999900   -1    0    0    0    0 -0.00000000000E+00 -0.00000000000E+00 -0.74505805969E-08  0.93827000000E+00  0.93827000000E+00 0.  1.
     999902    2    1    2    0    0  0.23086951231E-02  0.72554755801E-02 -0.23746228782E-01  0.10189929717E+01  0.10186877937E+01 0.  0.
     999903    2    3    3    0    0 -0.30975952374E-02  0.53410308154E-01  0.11351784351E+00  0.12714044909E+00  0.20399433482E-01 0.  0.
         14    1    1    2    0    0 -0.23086951231E-02 -0.72554755801E-02  0.23746228782E-01  0.24937028300E-01  0.00000000000E+00 0. -1.
     999901    1    3    3    0    0  0.54062903605E-02 -0.46154832574E-01 -0.13726407229E+00  0.89185252261E+00  0.88000000000E+00 0.  1.
        -11    1    4    4    0    0 -0.80213057768E-02  0.50011394896E-01  0.94812028220E-01  0.10749447791E+00  0.51100000000E-03 0.  1.
         11    1    4    4    0    0  0.49237105394E-02  0.33989132584E-02  0.18705815288E-01  0.19645971175E-01  0.51100000000E-03 0. -1.
</event>
<event>
 8    1  0.1123450E+005  0.1043930E+01  0.7957747E-01            NaN
         13   -1    0    0    0    0  0.00000000000E+00  0.00000000000E+00  0.74505805969E-08  0.10566000000E+00  0.10566000000E+00 0. -1.
     999900   -1    0    0    0    0 -0.00000000000E+00 -0.00000000000E+00 -0.74505805969E-08  0.93827000000E+00  0.93827000000E+00 0. -1.
     999902    2    1    2    0    0 -0.10353938674E-01 -0.19581582795E-01  0.87925496393E-02  0.10200982699E+01  0.10198198512E+01 0.  0.
     999903    2    3    3    0    0  0.12447704563E+00  0.21913475992E-01 -0.13753435613E-01  0.12857734715E+00  0.19189629769E-01 0.  0.
         14    1    1    2    0    0  0.10353938674E-01  0.19581582795E-01 -0.87925496393E-02  0.23831730109E-01  0.00000000000E+00 0.  1.
     999901    1    3    3    0    0 -0.13483098430E+00 -0.41495058788E-01  0.22545985252E-01  0.89152092274E+00  0.88000000000E+00 0.  1.
        -11    1    4    4    0    0  0.36009645589E-01  0.10400145496E-01  0.37143131706E-02  0.37668486101E-01  0.51100000000E-03 0. -1.
         11    1    4    4    0    0  0.88467400040E-01  0.11513330496E-01 -0.17467748783E-01  0.90908861050E-01  0.51100000000E-03 0.  1.
</event>
<event>
 8    1  0.1123450E+005  0.1043930E+01  0.7957747E-01            NaN
         13   -1    0    0    0    0  0.00000000000E+00  0.00000000000E+00  0.74505805969E-08  0.10566000000E+00  0.10566000000E+00 0.  1.
     999900   -1    0    0    0    0 -0.00000000000E+00 -0.00000000000E+00 -0.74505805969E-08  0.93827000000E+00  0.93827000000E+00 0.  1.
     999902    2    1    2    0    0  0.32927342348E-02 -0.19691182299E-01  0.11062673355E-01  0.10211052875E+01  0.10208501558E+01 0.  0.
     999903    2    3    3    0    0 -0.10243852945E+00  0.41074124950E-01 -0.64340101649E-01  0.12950161929E+00  0.21219911924E-01 0.  0.
         14    1    1    2    0    0 -0.32927342348E-02  0.19691182299E-01 -0.11062673355E-01  0.22824712503E-01  0.00000000000E+00 0. -1.
     999901    1    3    3    0    0  0.10573126368E+00 -0.60765307249E-01  0.75402775005E-01  0.89160366821E+00  0.88000000000E+00 0.  1.
        -11    1    4    4    0    0 -0.67524985747E-01  0.17395433532E-01 -0.34301449905E-01  0.77711488176E-01  0.51100000000E-03 0.  1.
         11    1    4    4    0    0 -0.34913543702E-01  0.23678691417E-01 -0.30038651744E-01  0.51790131112E-01  0.51100000000E-03 0. -1.
</event>
<event>
 8    1  0.1123450E+005  0.1043930E+01  0.7957747E-01            NaN
         13   -1    0    0    0    0  0.00000000000E+00  0.00000000000E+00  0.74505805969E-08  0.10566000000E+00  0.10566000000E+00 0. -1.
     999900   -1    0    0    0    0 -0.00000000000E+00 -0.00000000000E+00 -0.74505805969E-08  0.93827000000E+00  0.93827000000E+00 0. -1.
     999902    2    1    2    0    0  0.11480256001E-01 -0.22904617882E-01  0.15553939454E-01  0.10139576322E+01  0.10135145471E+01 0.  0.
     999903    2    3    3    0    0 -0.85445709070E-01  0.14182538339E-01 -0.84063019265E-01  0.12227739899E+00  0.19571854872E-01 0.  0.
         14    1    1    2    0    0 -0.11480256001E-01  0.22904617882E-01 -0.15553939454E-01  0.29972367786E-01  0.00000000000E+00 0.  1.
     999901    1    3    3    0    0  0.96925965071E-01 -0.37087156220E-01  0.99616958719E-01  0.89168023323E+00  0.88000000000E+00 0.  1.
        -11    1    4    4    0    0 -0.56345105967E-01  0.86813920264E-02 -0.41914649278E-01  0.70761829252E-01  0.51100000000E-03 0.  1.
         11    1    4    4    0    0 -0.29100603103E-01  0.55011463122E-02 -0.42148369987E-01  0.51515569736E-01  0.51100000000E-03 0. -1.
</event>
<event>
 8    1  0.1123450E+005  0.1043930E+01  0.7957747E-01            NaN
         13   -1    0    0    0    0  0.00000000000E+00  0.00000000000E+00  0.74505805969E-08  0.10566000000E+00  0.10566000000E+00 0.  1.
     999900   -1    0    0    0    0 -0.00000000000E+00 -0.00000000000E+00 -0.74505805969E-08  0.93827000000E+00  0.93827000000E+00 0.  1.
     999902    2    1    2    0    0 -0.15526104929E-01 -0.17429316859E-01  0.23918702498E-02  0.10204659410E+01  0.10201961452E+01 0.  0.
     999903    2    3    3    0    0  0.62282345731E-02  0.43743572937E-01 -0.12021238076E+00  0.12959716500E+00  0.19801959698E-01 0.  0.
         14    1    1    2    0    0  0.15526104929E-01  0.17429316859E-01 -0.23918702498E-02  0.23464058978E-01  0.00000000000E+00 0. -1.
     999901    1    3    3    0    0 -0.21754339502E-01 -0.61172889796E-01  0.12260425101E+00  0.89086877603E+00  0.88000000000E+00 0. -1.
        -11    1    4    4    0    0 -0.21455964281E-02  0.87274104110E-02 -0.48770715901E-01  0.49594507025E-01  0.51100000000E-03 0. -1.
         11    1    4    4    0    0  0.83738310011E-02  0.35016162526E-01 -0.71441664858E-01  0.80002657971E-01  0.51100000000E-03 0.  1.
</event>
<event>
 8    1  0.1123450E+005  0.1043930E+01  0.7957747E-01            NaN
         13   -1    0    0    0    0  0.00000000000E+00  0.00000000000E+00  0.74505805969E-08  0.10566000000E+00  0.10566000000E+00 0. -1.
     999900   -1    0    0    0    0 -0.00000000000E+00 -0.00000000000E+00 -0.74505805969E-08  0.93827000000E+00  0.93827000000E+00 0. -1.
     999902    2    1    2    0    0  0.74681949294E-02  0.15455835123E-01 -0.11425471618E-01  0.10233096659E+01  0.10231018885E+01 0.  0.
     999903    2    3    3    0    0 -0.16863405298E-01 -0.99550426414E-01 -0.83537955410E-01  0.13256914409E+00  0.20033125871E-01 0.  0.
         14    1    1    2    0    0 -0.74681949294E-02 -0.15455835123E-01  0.11425471618E-01  0.20620334055E-01  0.00000000000E+00 0. -1.
     999901    1    3    3    0    0  0.24331600227E-01  0.11500626154E+00  0.72112483792E-01  0.89074052186E+00  0.88000000000E+00 0. -1.
        -11    1    4    4    0    0 -0.57605071881E-02 -0.60297258480E-01 -0.38366934084E-01  0.71702340096E-01  0.51100000000E-03 0. -1.
         11    1    4    4    0    0 -0.11102898110E-01 -0.39253167934E-01 -0.45171021327E-01  0.60866803990E-01  0.51100000000E-03 0.  1.
</event>
<event>
 8    1  0.1123450E+005  0.1043930E+01  0.7957747E-01            NaN
         13   -1    0    0    0    0  0.00000000000E+00  0.00000000000E+00  0.74505805969E-08  0.10566000000E+00  0.10566000000E+00 0. -1.
     999900   -1    0    0    0    0 -0.00000000000E+00 -0.00000000000E+00 -0.74505805969E-08  0.93827000000E+00  0.93827000000E+00 0. -1.
     999902    2    1    2    0    0  0.20473718245E-03 -0.81937471456E-02 -0.22416627734E-01  0.10200619333E+01  0.10197826549E+01 0.  0.
     999903    2    3    3    0    0 -0.60754578382E-01  0.10949838702E+00 -0.28944208577E-01  0.13011244826E+00  0.20259971023E-01 0.  0.
         14    1    1    2    0    0 -0.20473718245E-03  0.81937471456E-02  0.22416627734E-01  0.23868066712E-01  0.00000000000E+00 0.  1.
     999901    1    3    3    0    0  0.60959315564E-01 -0.11769213417E+00  0.65275808439E-02  0.88994948503E+00  0.88000000000E+00 0. -1.
        -11    1    4    4    0    0 -0.29565167210E-01  0.33971585690E-01 -0.78293102152E-02  0.45713531540E-01  0.51100000000E-03 0. -1.
         11    1    4    4    0    0 -0.31189411172E-01  0.75526801333E-01 -0.21114898362E-01  0.84398916715E-01  0.51100000000E-03 0.  1.
</event>
<event>
 7    1  0.1123450E+005  0.1043930E+01  0.7957747E-01            NaN
         13   -1    0    0    0    0  0.00000000000E+00  0.00000000000E+00  0.74505805969E-08  0.10566000000E+00  0.10566000000E+00 0. -1.
     999900   -1    0    0    0    0 -0.00000000000E+00 -0.00000000000E+00 -0.74505805969E-08  0.93827000000E+00  0.93827000000E+00 0. -1.
     999903    2    1    2    0    0 -0.33654688980E-02 -0.61738564168E-01  0.97668928956E-01  0.11671156324E+00  0.16105670574E-01 0.  0.
         14    1    1    2    0    0  0.52553603554E-02  0.39535572949E-01 -0.16638370240E-01  0.43214762583E-01  0.00000000000E+00 0.  1.
     999901    1    1    2    0    0 -0.18898914574E-02  0.22202991219E-01 -0.81030558716E-01  0.88400367417E+00  0.88000000000E+00 0. -1.
        -11    1    3    3    0    0 -0.15568413385E-02 -0.31523656811E-01  0.64465054061E-01  0.71778611088E-01  0.51100000000E-03 0.  1.
         11    1    3    3    0    0 -0.18086275594E-02 -0.30214907357E-01  0.33203874895E-01  0.44932952154E-01  0.51100000000E-03 0. -1.
</event>
<event>
 8    1  0.1123450E+005  0.1043930E+01  0.7957747E-01            NaN
         13   -1    0    0    0    0  0.00000000000E+00  0.00000000000E+00  0.74505805969E-08  0.10566000000E+00  0.10566000000E+00 0.  1.
     999900   -1    0    0    0    0 -0.00000000000E+00 -0.00000000000E+00 -0.74505805969E-08  0.93827000000E+00  0.93827000000E+00 0.  1.
     999902    2    1    2    0    0  0.10562054317E-01  0.18509968770E-01 -0.10112325426E-01  0.10203411242E+01  0.10200684167E+01 0.  0.
     999903    2    3    3    0    0  0.67664488095E-01 -0.23975012638E-01  0.10628583962E+00  0.12982767995E+00  0.20131135045E-01 0.  0.
         14    1    1    2    0    0 -0.10562054317E-01 -0.18509968770E-01  0.10112325426E-01  0.23588875785E-01  0.00000000000E+00 0. -1.
     999901    1    3    3    0    0 -0.57102433778E-01  0.42484981408E-01 -0.11639816504E+00  0.89051344426E+00  0.88000000000E+00 0.  1.
        -11    1    4    4    0    0  0.44797404706E-01 -0.20440025280E-01  0.85763278666E-01  0.98894909830E-01  0.51100000000E-03 0.  1.
         11    1    4    4    0    0  0.22867083389E-01 -0.35349873585E-02  0.20522560952E-01  0.30932770121E-01  0.51100000000E-03 0. -1.
</event>
<event>
 7    1  0.1123450E+005  0.1043930E+01  0.7957747E-01            NaN
         13   -1    0    0    0    0  0.00000000000E+00  0.00000000000E+00  0.74505805969E-08  0.10566000000E+00  0.10566000000E+00 0.  1.
     999900   -1    0    0    0    0 -0.00000000000E+00 -0.00000000000E+00 -0.74505805969E-08  0.93827000000E+00  0.93827000000E+00 0. -1.
     999902    2    1    2    0    0  0.92076931385E-02  0.27859017334E-01 -0.73272134029E-02  0.10136877363E+01  0.10132365134E+01 0.  0.
         14    1    1    2    0    0 -0.92076931385E-02 -0.27859017334E-01  0.73272134029E-02  0.30242263738E-01  0.00000000000E+00 0. -1.
     999901    1    3    3    0    0  0.11155526903E+00  0.57677610464E-01  0.33105301681E-02  0.88892195631E+00  0.88000000000E+00 0. -1.
        -11    1    3    3    0    0 -0.24845257609E-01 -0.22099178045E-02  0.24805467314E-01  0.35181570347E-01  0.51100000000E-03 0.  1.
         11    1    3    3    0    0 -0.77502318281E-01 -0.27608675326E-01 -0.35443210885E-01  0.89584209607E-01  0.51100000000E-03 0. -1.
</event>
<event>
 8    1  0.1123450E+005  0.1043930E+01  0.7957747E-01            NaN
         13   -1    0    0    0    0  0.00000000000E+00  0.00000000000E+00  0.74505805969E-08  0.10566000000E+00  0.10566000000E+00 0. -1.
     999900   -1    0    0    0    0 -0.00000000000E+00 -0.00000000000E+00 -0.74505805969E-08  0.93827000000E+00  0.93827000000E+00 0.  1.
     999902    2    1    2    0    0  0.14507388099E-01 -0.72776186221E-02  0.14249576840E-01  0.10223318871E+01  0.10221037173E+01 0.  0.
     999903    2    3    3    0    0  0.22215856942E-01  0.12069987589E+00 -0.42477408379E-01  0.13123390679E+00  0.18868061107E-01 0.  0.
         14    1    1    2    0    0 -0.14507388099E-01  0.72776186221E-02 -0.14249576840E-01  0.21598112936E-01  0.00000000000E+00 0.  1.
     999901    1    3    3    0    0 -0.77084688425E-02 -0.12797749451E+00  0.56726985219E-01  0.89109798027E+00  0.88000000000E+00 0. -1.
        -11    1    4    4    0    0  0.48204414885E-02  0.64069799441E-01 -0.28905575787E-01  0.70455441871E-01  0.51100000000E-03 0. -1.
         11    1    4    4    0    0  0.17395415453E-01  0.56630076448E-01 -0.13571832592E-01  0.60778464922E-01  0.51100000000E-03 0.  1.
</event>
<event>
 8    1  0.1123450E+005  0.1043930E+01  0.7957747E-01            NaN
         13   -1    0    0    0    0  0.00000000000E+00  0.00000000000E+00  0.74505805969E-08  0.10566000000E+00  0.10566000000E+00 0.  1.
     999900   -1    0    0    0    0 -0.00000000000E+00 -0.00000000000E+00 -0.74505805969E-08  0.93827000000E+00  0.93827000000E+00 0. -1.
     999902    2    1    2    0    0 -0.14644589955E-01  0.88706011223E-02  0.16975950280E-01  0.10198191214E+01  0.10195340631E+01 0.  0.
     999903    2    3    3    0    0  0.12802150391E-01 -0.93291388721E-01 -0.83500693871E-01  0.12780681669E+00  0.22249455080E-01 0.  0.
         14    1    1    2    0    0  0.14644589955E-01 -0.88706011223E-02 -0.16975950280E-01  0.24110878605E-01  0.00000000000E+00 0. -1.
     999901    1    3    3    0    0 -0.27446740346E-01  0.10216198984E+00  0.10047664415E+00  0.89201230470E+00  0.88000000000E+00 0.  1.
        -11    1    4    4    0    0  0.75086351531E-02 -0.79818049177E-02 -0.12982866642E-01  0.16997198559E-01  0.51100000000E-03 0.  1.
         11    1    4    4    0    0  0.52935152378E-02 -0.85309583803E-01 -0.70517827229E-01  0.11080961813E+00  0.51100000000E-03 0. -1.
</event>
<event>
 8    1  0.1123450E+005  0.1043930E+01  0.7957747E-01            NaN
         13   -1    0    0    0    0  0.00000000000E+00  0.00000000000E+00  0.74505805969E-08  0.10566000000E+00  0.10566000000E+00 0.  1.
     999900   -1    0    0    0    0 -0.00000000000E+00 -0.00000000000E+00 -0.74505805969E-08  0.93827000000E+00  0.93827000000E+00 0. -1.
     999902    2    1    2    0    0  0.23125658984E-01  0.24505564646E-03 -0.91938048253E-03  0.10207847755E+01  0.10205223449E+01 0.  0.
     999903    2    3    3    0    0  0.99379244601E-01  0.36799523913E-01 -0.78400779512E-01  0.13334226715E+00  0.20075825332E-01 0.  0.
         14    1    1    2    0    0 -0.23125658984E-01 -0.24505564646E-03  0.91938048253E-03  0.23145224479E-01  0.00000000000E+00 0.  1.
     999901    1    3    3    0    0 -0.76253585617E-01 -0.36554468266E-01  0.77481399029E-01  0.88744250837E+00  0.88000000000E+00 0.  1.
        -11    1    4    4    0    0  0.16584726067E-01  0.14577159449E-01 -0.14512792561E-01  0.26427807045E-01  0.51100000000E-03 0. -1.
         11    1    4    4    0    0  0.82794518534E-01  0.22222364464E-01 -0.63887986951E-01  0.10691446010E+00  0.51100000000E-03 0.  1.
</event>
<event>
 8    1  0.1123450E+005  0.1043930E+01  0.7957747E-01            NaN
         13   -1    0    0    0    0  0.00000000000E+00  0.00000000000E+00  0.74505805969E-08  0.10566000000E+00  0.10566000000E+00 0. -1.
     999900   -1    0    0    0    0 -0.00000000000E+00 -0.00000000000E+00 -0.74505805969E-08  0.93827000000E+00  0.93827000000E+00 0.  1.
     999902    2    1    2    0    0 -0.94844287638E-02  0.21056200706E-01 -0.41606895744E-02  0.10204645080E+01  0.10201946789E+01 0.  0.
     999903    2    3    3    0    0 -0.27095834722E-01  0.66836889104E-01 -0.10914638377E+00  0.13286773635E+00  0.23228178329E-01 0.  0.
         14    1    1    2    0    0  0.94844287638E-02 -0.21056200706E-01  0.41606895744E-02  0.23465492002E-01  0.00000000000E+00 0.  1.
     999901    1    3    3    0    0  0.17611405958E-01 -0.45780688398E-01  0.10498569420E+00  0.88759677165E+00  0.88000000000E+00 0. -1.
        -11    1    4    4    0    0 -0.14144981095E-01  0.19145721313E-01 -0.20697110259E-01  0.31547910055E-01  0.51100000000E-03 0.  1.
         11    1    4    4    0    0 -0.12950853628E-01  0.47691167791E-01 -0.88449273513E-01  0.10131982630E+00  0.51100000000E-03 0. -1.
</event>
<event>
 8    1  0.1123450E+005  0.1043930E+01  0.7957747E-01            NaN
         13   -1    0    0    0    0  0.00000000000E+00  0.00000000000E+00  0.74505805969E-08  0.10566000000E+00  0.10566000000E+00 0.  1.
     999900   -1    0    0    0    0 -0.00000000000E+00 -0.00000000000E+00 -0.74505805969E-08  0.93827000000E+00  0.93827000000E+00 0. -1.
     999902    2    1    2    0    0  0.69881681949E-02  0.12308106055E-01 -0.18576480712E-01  0.10205759938E+01  0.10203087521E+01 0.  0.
     999903    2    3    3    0    0 -0.11467018456E+00  0.28695869523E-01  0.50202905802E-01  0.12939704568E+00  0.15829072122E-01 0.  0.
         14    1    1    2    0    0 -0.69881681949E-02 -0.12308106055E-01  0.18576480712E-01  0.23354006188E-01  0.00000000000E+00 0.  1.
     999901    1    3    3    0    0  0.12165835276E+00 -0.16387763468E-01 -0.68779386514E-01  0.89117894813E+00  0.88000000000E+00 0. -1.
        -11    1    4    4    0    0 -0.75637441630E-01  0.26533700804E-01  0.34415681811E-01  0.87233939096E-01  0.51100000000E-03 0. -1.
         11    1    4    4    0    0 -0.39032742932E-01  0.21621687190E-02  0.15787223992E-01  0.42163106583E-01  0.51100000000E-03 0.  1.
</event>
<event>
 8    1  0.1123450E+005  0.1043930E+01  0.7957747E-01            NaN
         13   -1    0    0    0    0  0.00000000000E+00  0.00000000000E+00  0.74505805969E-08  0.10566000000E+00  0.10566000000E+00 0. -1.
     999900   -1    0    0    0    0 -0.00000000000E+00 -0.00000000000E+00 -0.74505805969E-08  0.93827000000E+00  0.93827000000E+00 0. -1.
     999902    2    1    2    0    0  0.12769625048E-01 -0.18334779130E-01 -0.75526690974E-02  0.10203446177E+01  0.10200719918E+01 0.  0.
     999903    2    3    3    0    0  0.95014994477E-01  0.28307727117E-01 -0.84651155943E-01  0.13192804822E+00  0.20248829963E-01 0.  0.
         14    1    1    2    0    0 -0.12769625048E-01  0.18334779130E-01  0.75526690974E-02  0.23585382339E-01  0.00000000000E+00 0.  1.
     999901    1    3    3    0    0 -0.82245369429E-01 -0.46642506247E-01  0.77098486846E-01  0.88841656944E+00  0.88000000000E+00 0.  1.
        -11    1    4    4    0    0  0.90244298657E-01  0.21855788574E-01 -0.80438948447E-01  0.12285110697E+00  0.51100000000E-03 0. -1.
         11    1    4    4    0    0  0.47706958199E-02  0.64519385429E-02 -0.42122074958E-02  0.90769412555E-02  0.51100000000E-03 0.  1.
</event>
<event>
 8    1  0.1123450E+005  0.1043930E+01  0.7957747E-01            NaN
         13   -1    0    0    0    0  0.00000000000E+00  0.00000000000E+00  0.74505805969E-08  0.10566000000E+00  0.10566000000E+00 0. -1.
     999900   -1    0    0    0    0 -0.00000000000E+00 -0.00000000000E+00 -0.74505805969E-08  0.93827000000E+00  0.93827000000E+00 0.  1.
     999902    2    1    2    0    0  0.12596892980E-01 -0.62718660949E-02 -0.20257545327E-01  0.10192645148E+01  0.10189660274E+01 0.  0.
     999903    2    3    3    0    0  0.11082791752E+00 -0.47471311912E-01  0.46217647700E-01  0.13035187579E+00  0.17865827911E-01 0.  0.
         14    1    1    2    0    0 -0.12596892980E-01  0.62718660949E-02  0.20257545327E-01  0.24665485192E-01  0.00000000000E+00 0. -1.
     999901    1    3    3    0    0 -0.98231024538E-01  0.41199445817E-01 -0.66475193027E-01  0.88891263902E+00  0.88000000000E+00 0.  1.
        -11    1    4    4    0    0  0.55155567433E-01 -0.27134973770E-01  0.14631585412E-01  0.63188510293E-01  0.51100000000E-03 0. -1.
         11    1    4    4    0    0  0.55672350086E-01 -0.20336338141E-01  0.31586062288E-01  0.67163365497E-01  0.51100000000E-03 0.  1.
</event>
<event>
 8    1  0.1123450E+005  0.1043930E+01  0.7957747E-01            NaN
         13   -1    0    0    0    0  0.00000000000E+00  0.00000000000E+00  0.74505805969E-08  0.10566000000E+00  0.10566000000E+00 0. -1.
     999900   -1    0    0    0    0 -0.00000000000E+00 -0.00000000000E+00 -0.74505805969E-08  0.93827000000E+00  0.93827000000E+00 0.  1.
     999902    2    1    2    0    0  0.11245470232E-02  0.23650710014E-01 -0.10259518064E-02  0.10202303530E+01  0.10199550480E+01 0.  0.
     999903    2    3    3    0    0 -0.32035512468E-02 -0.12512230389E+00  0.15313443216E-01  0.12758310021E+00  0.19418863153E-01 0.  0.
         14    1    1    2    0    0 -0.11245470232E-02 -0.23650710014E-01  0.10259518064E-02  0.23699646986E-01  0.00000000000E+00 0. -1.
     999901    1    3    3    0    0  0.43280982700E-02  0.14877301390E+00 -0.16339395023E-01  0.89264725280E+00  0.88000000000E+00 0.  1.
        -11    1    4    4    0    0 -0.21085575666E-02 -0.78976879188E-01  0.19049961568E-01  0.81270878044E-01  0.51100000000E-03 0.  1.
         11    1    4    4    0    0 -0.10949936802E-02 -0.46145424701E-01 -0.37365183516E-02  0.46312222170E-01  0.51100000000E-03 0. -1.
</event>
<event>
 8    1  0.1123450E+005  0.1043930E+01  0.7957747E-01            NaN
         13   -1    0    0    0    0  0.00000000000E+00  0.00000000000E+00  0.74505805969E-08  0.10566000000E+00  0.10566000000E+00 0. -1.
     999900   -1    0    0    0    0 -0.00000000000E+00 -0.00000000000E+00 -0.74505805969E-08  0.93827000000E+00  0.93827000000E+00 0. -1.
     999902    2    1    2    0    0  0.58702927888E-02  0.11684805192E-01  0.20147952865E-01  0.10199105284E+01  0.10196276531E+01 0.  0.
     999903    2    3    3    0    0 -0.84559675322E-01 -0.77352256964E-01 -0.52743395788E-01  0.12782402686E+00  0.20576824255E-01 0.  0.
         14    1    1    2    0    0 -0.58702927888E-02 -0.11684805192E-01 -0.20147952865E-01  0.24019471569E-01  0.00000000000E+00 0.  1.
     999901    1    3    3    0    0  0.90429968111E-01  0.89037062156E-01  0.72891348653E-01  0.89208650157E+00  0.88000000000E+00 0. -1.
        -11    1    4    4    0    0 -0.39662734172E-01 -0.46383552826E-01 -0.20090535346E-01  0.64253071415E-01  0.51100000000E-03 0. -1.
         11    1    4    4    0    0 -0.44896941150E-01 -0.30968704138E-01 -0.32652860443E-01  0.63570955449E-01  0.51100000000E-03 0.  1.
</event>
<event>
 8    1  0.1123450E+005  0.1043930E+01  0.7957747E-01            NaN
         13   -1    0    0    0    0  0.00000000000E+00  0.00000000000E+00  0.74505805969E-08  0.10566000000E+00  0.10566000000E+00 0.  1.
     999900   -1    0    0    0    0 -0.00000000000E+00 -0.00000000000E+00 -0.74505805969E-08  0.93827000000E+00  0.93827000000E+00 0.  1.
     999902    2    1    2    0    0  0.19872930063E-01 -0.13956903138E-01 -0.15967719375E-02  0.10195932341E+01  0.10193027444E+01 0.  0.
     999903    2    3    3    0    0 -0.50133654865E-01 -0.11592156278E+00  0.26132345981E-01  0.13051133812E+00  0.19977932968E-01 0.  0.
         14    1    1    2    0    0 -0.19872930063E-01  0.13956903138E-01  0.15967719375E-02  0.24336765913E-01  0.00000000000E+00 0.  1.
     999901    1    3    3    0    0  0.70006584928E-01  0.10196465964E+00 -0.27729117919E-01  0.88908189596E+00  0.88000000000E+00 0.  1.
        -11    1    4    4    0    0 -0.32757455871E-01 -0.93669034991E-01  0.24574683172E-01  0.10223069600E+00  0.51100000000E-03 0. -1.
         11    1    4    4    0    0 -0.17376198994E-01 -0.22252527786E-01  0.15576628097E-02  0.28280642121E-01  0.51100000000E-03 0.  1.
</event>
<event>
 8    1  0.1123450E+005  0.1043930E+01  0.7957747E-01            NaN
         13   -1    0    0    0    0  0.00000000000E+00  0.00000000000E+00  0.74505805969E-08  0.10566000000E+00  0.10566000000E+00 0.  1.
     999900   -1    0    0    0    0 -0.00000000000E+00 -0.00000000000E+00 -0.74505805969E-08  0.93827000000E+00  0.93827000000E+00 0. -1.
     999902    2    1    2    0    0 -0.91442727098E-03 -0.34769013377E-02  0.24941571357E-01  0.10187306547E+01  0.10184189412E+01 0.  0.
     999903    2    3    3    0    0  0.11223778520E+00  0.15426351762E-02 -0.57437638270E-01  0.12765548781E+00  0.19928399988E-01 0.  0.
         14    1    1    2    0    0  0.91442727098E-03  0.34769013377E-02 -0.24941571357E-01  0.25199345267E-01  0.00000000000E+00 0. -1.
     999901    1    3    3    0    0 -0.11315221248E+00 -0.50195365139E-02  0.82379209627E-01  0.89107516693E+00  0.88000000000E+00 0.  1.
        -11    1    4    4    0    0  0.10731725033E+00 -0.28925412413E-02 -0.53903973077E-01  0.12013017293E+00  0.51100000000E-03 0.  1.
         11    1    4    4    0    0  0.49205348712E-02  0.44351764175E-02 -0.35336651927E-02  0.75253148750E-02  0.51100000000E-03 0. -1.
</event>
<event>
 8    1  0.1123450E+005  0.1043930E+01  0.7957747E-01            NaN
         13   -1    0    0    0    0  0.00000000000E+00  0.00000000000E+00  0.74505805969E-08  0.10566000000E+00  0.10566000000E+00 0.  1.
     999900   -1    0    0    0    0 -0.00000000000E+00 -0.00000000000E+00 -0.74505805969E-08  0.93827000000E+00  0.93827000000E+00 0. -1.
     999902    2    1    2    0    0  0.49332856551E-02  0.94067181098E-02 -0.20620575086E-01  0.10207344882E+01  0.10204709028E+01 0.  0.
     999903    2    3    3    0    0 -0.18590079247E-01  0.97579754891E-01 -0.87045322153E-01  0.13352533574E+00  0.19614473316E-01 0.  0.
         14    1    1    2    0    0 -0.49332856551E-02 -0.94067181098E-02  0.20620575086E-01  0.23195511847E-01  0.00000000000E+00 0.  1.
     999901    1    3    3    0    0  0.23523364902E-01 -0.88173036781E-01  0.66424747067E-01  0.88720915242E+00  0.88000000000E+00 0. -1.
        -11    1    4    4    0    0 -0.18880893618E-01  0.70528552355E-01 -0.53985283092E-01  0.90804387298E-01  0.51100000000E-03 0.  1.
         11    1    4    4    0    0  0.29081437074E-03  0.27051202536E-01 -0.33060039060E-01  0.42720948437E-01  0.51100000000E-03 0. -1.
</event>
<event>
 8    1  0.1123450E+005  0.1043930E+01  0.7957747E-01            NaN
         13   -1    0    0    0    0  0.00000000000E+00  0.00000000000E+00  0.74505805969E-08  0.10566000000E+00  0.10566000000E+00 0. -1.
     999900   -1    0    0    0    0 -0.00000000000E+00 -0.00000000000E+00 -0.74505805969E-08  0.93827000000E+00  0.93827000000E+00 0.  1.
     999902    2    1    2    0    0 -0.15563858898E-01  0.15861263186E-01 -0.79257622663E-02  0.10203369696E+01  0.10200641649E+01 0.  0.
     999903    2    3    3    0    0 -0.26590136672E-01 -0.17803592230E-01 -0.12595392322E+00  0.13175070593E+00  0.21676126842E-01 0.  0.
         14    1    1    2    0    0  0.15563858898E-01 -0.15861263186E-01  0.79257622663E-02  0.23593030352E-01  0.00000000000E+00 0. -1.
     999901    1    3    3    0    0  0.11026277773E-01  0.33664855417E-01  0.11802816095E+00  0.88858626372E+00  0.88000000000E+00 0. -1.
        -11    1    4    4    0    0 -0.25284029019E-01 -0.50173383454E-02 -0.82985977528E-01  0.86898730685E-01  0.51100000000E-03 0. -1.
         11    1    4    4    0    0 -0.13061076527E-02 -0.12786253885E-01 -0.42967945689E-01  0.44851975245E-01  0.51100000000E-03 0.  1.
</event>
<event>
 8    1  0.1123450E+005  0.1043930E+01  0.7957747E-01            NaN
         13   -1    0    0    0    0  0.00000000000E+00  0.00000000000E+00  0.74505805969E-08  0.10566000000E+00  0.10566000000E+00 0. -1.
     999900   -1    0    0    0    0 -0.00000000000E+00 -0.00000000000E+00 -0.74505805969E-08  0.93827000000E+00  0.93827000000E+00 0. -1.
     999902    2    1    2    0    0  0.50392510479E-02  0.36357711121E-02  0.23674558264E-01  0.10194535298E+01  0.10191596548E+01 0.  0.
     999903    2    3    3    0    0  0.13970317405E-01  0.23575194665E-01 -0.12246514068E+00  0.12713399281E+00  0.20356371774E-01 0.  0.
         14    1    1    2    0    0 -0.50392510479E-02 -0.36357711121E-02 -0.23674558264E-01  0.24476470164E-01  0.00000000000E+00 0.  1.
     999901    1    3    3    0    0 -0.89310663576E-02 -0.19939423553E-01  0.14613969895E+00  0.89231953703E+00  0.88000000000E+00 0.  1.
        -11    1    4    4    0    0 -0.17839636373E-02  0.12234699326E-01 -0.26814081346E-01  0.29531787506E-01  0.51100000000E-03 0. -1.
         11    1    4    4    0    0  0.15754281043E-01  0.11340495339E-01 -0.95651059339E-01  0.97602205299E-01  0.51100000000E-03 0.  1.
</event>
<event>
 8    1  0.1123450E+005  0.1043930E+01  0.7957747E-01            NaN
         13   -1    0    0    0    0  0.00000000000E+00  0.00000000000E+00  0.74505805969E-08  0.10566000000E+00  0.10566000000E+00 0.  1.
     999900   -1    0    0    0    0 -0.00000000000E+00 -0.00000000000E+00 -0.74505805969E-08  0.93827000000E+00  0.93827000000E+00 0.  1.
     999902    2    1    2    0    0 -0.16726211582E-01  0.17044932850E-02  0.20006060345E-01  0.10177973786E+01  0.10174618371E+01 0.  0.
     999903    2    3    3    0    0 -0.11401204106E+00  0.51867863362E-01 -0.28666314723E-01  0.12968145349E+00  0.17507170662E-01 0.  0.
         14    1    1    2    0    0  0.16726211582E-01 -0.17044932850E-02 -0.20006060345E-01  0.26132621410E-01  0.00000000000E+00 0. -1.
     999901    1    3    3    0    0  0.97285829476E-01 -0.50163370077E-01  0.48672375068E-01  0.88811592510E+00  0.88000000000E+00 0. -1.
        -11    1    4    4    0    0 -0.33321479175E-01  0.15116929766E-01 -0.32572934365E-03  0.36595214995E-01  0.51100000000E-03 0.  1.
         11    1    4    4    0    0 -0.80690561883E-01  0.36750933596E-01 -0.28340585379E-01  0.93086238499E-01  0.51100000000E-03 0. -1.
</event>
<event>
 8    1  0.1123450E+005  0.1043930E+01  0.7957747E-01            NaN
         13   -1    0    0    0    0  0.00000000000E+00  0.00000000000E+00  0.74505805969E-08  0.10566000000E+00  0.10566000000E+00 0.  1.
     999900   -1    0    0    0    0 -0.00000000000E+00 -0.00000000000E+00 -0.74505805969E-08  0.93827000000E+00  0.93827000000E+00 0.  1.
     999902    2    1    2    0    0  0.13949084196E-01 -0.19776857117E-01  0.84184631214E-03  0.10197141017E+01  0.10194265248E+01 0.  0.
     999903    2    3    3    0    0 -0.99229303308E-01 -0.37679850144E-01 -0.71142269975E-01  0.12937058506E+00  0.20231163056E-01 0.  0.
         14    1    1    2    0    0 -0.13949084196E-01  0.19776857117E-01 -0.84184631214E-03  0.24215898343E-01  0.00000000000E+00 0.  1.
     999901    1    3    3    0    0  0.11317838750E+00  0.17902993027E-01  0.71984116288E-01  0.89034351660E+00  0.88000000000E+00 0. -1.
        -11    1    4    4    0    0 -0.30759112737E-01 -0.34392624280E-02 -0.26501808175E-01  0.40749950920E-01  0.51100000000E-03 0. -1.
         11    1    4    4    0    0 -0.68470190570E-01 -0.34240587716E-01 -0.44640461801E-01  0.88620634136E-01  0.51100000000E-03 0.  1.
</event>
<event>
 7    1  0.1123450E+005  0.1043930E+01  0.7957747E-01            NaN
         13   -1    0    0    0    0  0.00000000000E+00  0.00000000000E+00  0.74505805969E-08  0.10566000000E+00  0.10566000000E+00 0. -1.
     999900   -1    0    0    0    0 -0.00000000000E+00 -0.00000000000E+00 -0.74505805969E-08  0.93827000000E+00  0.93827000000E+00 0.  1.
     999903    2    1    2    0    0  0.76854587726E-02 -0.45645123168E-01 -0.86917913730E-01  0.10052553650E+00  0.20201886461E-01 0.  0.
         14    1    1    2    0    0  0.20541428986E-01 -0.25645991660E-01  0.49329273449E-01  0.59270940705E-01  0.00000000000E+00 0. -1.
     999901    1    1    2    0    0 -0.28226887759E-01  0.71291114828E-01  0.37588640281E-01  0.88413352279E+00  0.88000000000E+00 0. -1.
        -11    1    3    3    0    0 -0.46981333379E-03  0.18246340826E-02 -0.64869422836E-02  0.67743306160E-02  0.51100000000E-03 0.  1.
         11    1    3    3    0    0  0.81552721064E-02 -0.47469757251E-01 -0.80430971446E-01  0.93751205887E-01  0.51100000000E-03 0. -1.
</event>
<event>
 8    1  0.1123450E+005  0.1043930E+01  0.7957747E-01            NaN
         13   -1    0    0    0    0  0.00000000000E+00  0.00000000000E+00  0.74505805969E-08  0.10566000000E+00  0.10566000000E+00 0. -1.
     999900   -1    0    0    0    0 -0.00000000000E+00 -0.00000000000E+00 -0.74505805969E-08  0.93827000000E+00  0.93827000000E+00 0.  1.
     999902    2    1    2    0    0 -0.22815668912E-01  0.32355235410E-02 -0.25361501396E-02  0.10207469153E+01  0.10204836155E+01 0.  0.
     999903    2    3    3    0    0  0.78109781920E-01  0.18498079571E-01 -0.10029865007E+00  0.12946895714E+00  0.16095796899E-01 0.  0.
         14    1    1    2    0    0  0.22815668912E-01 -0.32355235410E-02  0.25361501396E-02  0.23183084739E-01  0.00000000000E+00 0.  1.
     999901    1    3    3    0    0 -0.10092545083E+00 -0.15262556030E-01  0.97762499928E-01  0.89127795812E+00  0.88000000000E+00 0. -1.
        -11    1    4    4    0    0  0.22031295556E-01  0.10483423476E-01 -0.38961213204E-01  0.45973007373E-01  0.51100000000E-03 0. -1.
         11    1    4    4    0    0  0.56078486364E-01  0.80146560951E-02 -0.61337436864E-01  0.83495949766E-01  0.51100000000E-03 0.  1.
</event>
<event>
 8    1  0.1123450E+005  0.1043930E+01  0.7957747E-01            NaN
         13   -1    0    0    0    0  0.00000000000E+00  0.00000000000E+00  0.74505805969E-08  0.10566000000E+00  0.10566000000E+00 0.  1.
     999900   -1    0    0    0    0 -0.00000000000E+00 -0.00000000000E+00 -0.74505805969E-08  0.93827000000E+00  0.93827000000E+00 0.  1.
     999902    2    1    2    0    0  0.13011696878E-01 -0.10297929809E-01 -0.16358651640E-01  0.10206285602E+01  0.10203625340E+01 0.  0.
     999903    2    3    3    0    0  0.12470481063E+00  0.38639310230E-01  0.22085142203E-02  0.13202575534E+00  0.19535517622E-01 0.  0.
         14    1    1    2    0    0 -0.13011696878E-01  0.10297929809E-01  0.16358651640E-01  0.23301439816E-01  0.00000000000E+00 0.  1.
     999901    1    3    3    0    0 -0.11169311376E+00 -0.48937240039E-01 -0.18567165861E-01  0.88860280484E+00  0.88000000000E+00 0. -1.
        -11    1    4    4    0    0  0.81349985092E-01  0.28612876192E-01  0.10111151068E-01  0.86827491357E-01  0.51100000000E-03 0. -1.
         11    1    4    4    0    0  0.43354825541E-01  0.10026434038E-01 -0.79026368472E-02  0.45198263987E-01  0.51100000000E-03 0.  1.
</event>
<event>
 8    1  0.1123450E+005  0.1043930E+01  0.7957747E-01            NaN
         13   -1    0    0    0    0  0.00000000000E+00  0.00000000000E+00  0.74505805969E-08  0.10566000000E+00  0.10566000000E+00 0.  1.
     999900   -1    0    0    0    0 -0.00000000000E+00 -0.00000000000E+00 -0.74505805969E-08  0.93827000000E+00  0.93827000000E+00 0.  1.
     999902    2    1    2    0    0  0.16028167748E-01  0.95302332764E-02 -0.14312373892E-01  0.10204231594E+01  0.10201523674E+01 0.  0.
     999903    2    3    3    0    0  0.52128413819E-01  0.68576772666E-01  0.96358127557E-01  0.13079532629E+00  0.20059495442E-01 0.  0.
         14    1    1    2    0    0 -0.16028167748E-01 -0.95302332764E-02  0.14312373892E-01  0.23506840581E-01  0.00000000000E+00 0.  1.
     999901    1    3    3    0    0 -0.36100246070E-01 -0.59046539389E-01 -0.11067050145E+00  0.88962783313E+00  0.88000000000E+00 0.  1.
        -11    1    4    4    0    0  0.13028591032E-01  0.33182144710E-01  0.36716730138E-01  0.51177908368E-01  0.51100000000E-03 0. -1.
         11    1    4    4    0    0  0.39099822787E-01  0.35394627955E-01  0.59641397419E-01  0.79617417926E-01  0.51100000000E-03 0.  1.
</event>
<event>
 8    1  0.1232349E+005  0.1043930E+01  0.7957747E-01            NaN
         13   -1    0    0    0    0  0.00000000000E+00  0.00000000000E+00  0.74505805969E-08  0.10566000000E+00  0.10566000000E+00 0.  1.
     999900   -1    0    0    0    0 -0.00000000000E+00 -0.00000000000E+00 -0.74505805969E-08  0.93827000000E+00  0.93827000000E+00 0.  1.
     999902    2    1    2    0    0 -0.22239298940E-01 -0.42292562477E-02  0.67005048764E-02  0.10203213196E+01  0.10200481486E+01 0.  0.
     999903    2    3    3    0    0  0.12485949115E-02 -0.38955855071E-01  0.12388942567E+00  0.13156327546E+00  0.21004476244E-01 0.  0.
         14    1    1    2    0    0  0.22239298940E-01  0.42292562477E-02 -0.67005048764E-02  0.23608680424E-01  0.00000000000E+00 0. -1.
     999901    1    3    3    0    0 -0.23487893851E-01  0.34726598824E-01 -0.11718892080E+00  0.88875804412E+00  0.88000000000E+00 0.  1.
        -11    1    4    4    0    0 -0.48617382516E-02 -0.10600851530E-01  0.63536364541E-01  0.64599886162E-01  0.51100000000E-03 0. -1.
         11    1    4    4    0    0  0.61103331631E-02 -0.28355003542E-01  0.60353061133E-01  0.66963389299E-01  0.51100000000E-03 0.  1.
</event>
<event>
 8    1  0.1123450E+005  0.1043930E+01  0.7957747E-01            NaN
         13   -1    0    0    0    0  0.00000000000E+00  0.00000000000E+00  0.74505805969E-08  0.10566000000E+00  0.10566000000E+00 0.  1.
     999900   -1    0    0    0    0 -0.00000000000E+00 -0.00000000000E+00 -0.74505805969E-08  0.93827000000E+00  0.93827000000E+00 0.  1.
     999902    2    1    2    0    0 -0.14461605550E-01 -0.60635663828E-02  0.17818704565E-01  0.10201937175E+01  0.10199175507E+01 0.  0.
     999903    2    3    3    0    0  0.29108781621E-01  0.10498096681E+00  0.70902141211E-01  0.13056058067E+00  0.12273020664E-01 0.  0.
         14    1    1    2    0    0  0.14461605550E-01  0.60635663828E-02 -0.17818704565E-01  0.23736282454E-01  0.00000000000E+00 0. -1.
     999901    1    3    3    0    0 -0.43570387171E-01 -0.11104453319E+00 -0.53083436646E-01  0.88963313688E+00  0.88000000000E+00 0.  1.
        -11    1    4    4    0    0  0.18267540452E-01  0.73897935957E-01  0.43164028133E-01  0.87510013248E-01  0.51100000000E-03 0.  1.
         11    1    4    4    0    0  0.10841241169E-01  0.31083030850E-01  0.27738113077E-01  0.43050567418E-01  0.51100000000E-03 0. -1.
</event>
<event>
 8    1  0.1123450E+005  0.1043930E+01  0.7957747E-01            NaN
         13   -1    0    0    0    0  0.00000000000E+00  0.00000000000E+00  0.74505805969E-08  0.10566000000E+00  0.10566000000E+00 0. -1.
     999900   -1    0    0    0    0 -0.00000000000E+00 -0.00000000000E+00 -0.74505805969E-08  0.93827000000E+00  0.93827000000E+00 0. -1.
     999902    2    1    2    0    0  0.13349049460E-01 -0.11865636379E-01 -0.14285501685E-01  0.10210593637E+01  0.10208031926E+01 0.  0.
     999903    2    3    3    0    0  0.21219577529E-01  0.12612359215E+00 -0.13894773247E-01  0.13027143993E+00  0.20497618634E-01 0.  0.
         14    1    1    2    0    0 -0.13349049460E-01  0.11865636379E-01  0.14285501685E-01  0.22870636339E-01  0.00000000000E+00 0. -1.
     999901    1    3    3    0    0 -0.78705280694E-02 -0.13798922853E+00 -0.39072843843E-03  0.89078792373E+00  0.88000000000E+00 0. -1.
        -11    1    4    4    0    0  0.15189104007E-01  0.57024337039E-01 -0.15028906122E-01  0.60898382864E-01  0.51100000000E-03 0.  1.
         11    1    4    4    0    0  0.60304735217E-02  0.69099255111E-01  0.11341328747E-02  0.69373057062E-01  0.51100000000E-03 0. -1.
</event>
<event>
 8    1  0.1123450E+005  0.1043930E+01  0.7957747E-01            NaN
         13   -1    0    0    0    0  0.00000000000E+00  0.00000000000E+00  0.74505805969E-08  0.10566000000E+00  0.10566000000E+00 0.  1.
     999900   -1    0    0    0    0 -0.00000000000E+00 -0.00000000000E+00 -0.74505805969E-08  0.93827000000E+00  0.93827000000E+00 0. -1.
     999902    2    1    2    0    0 -0.16852608058E-01  0.95332952300E-02 -0.13137658007E-01  0.10205314493E+01  0.10202631753E+01 0.  0.
     999903    2    3    3    0    0 -0.45527292681E-02 -0.69702905675E-01 -0.10977454860E+00  0.13161730769E+00  0.19835366412E-01 0.  0.
         14    1    1    2    0    0  0.16852608058E-01 -0.95332952300E-02  0.13137658007E-01  0.23398550686E-01  0.00000000000E+00 0. -1.
     999901    1    3    3    0    0 -0.12299878790E-01  0.79236200905E-01  0.96636890592E-01  0.88891414162E+00  0.88000000000E+00 0.  1.
        -11    1    4    4    0    0  0.76089271716E-02 -0.20250073529E-01 -0.34899373655E-01  0.41063227506E-01  0.51100000000E-03 0. -1.
         11    1    4    4    0    0 -0.12161656440E-01 -0.49452832146E-01 -0.74875174944E-01  0.90554080187E-01  0.51100000000E-03 0.  1.
</event>
<event>
 8    1  0.1123450E+005  0.1043930E+01  0.7957747E-01            NaN
         13   -1    0    0    0    0  0.00000000000E+00  0.00000000000E+00  0.74505805969E-08  0.10566000000E+00  0.10566000000E+00 0. -1.
     999900   -1    0    0    0    0 -0.00000000000E+00 -0.00000000000E+00 -0.74505805969E-08  0.93827000000E+00  0.93827000000E+00 0. -1.
     999902    2    1    2    0    0  0.19536809239E-01  0.28827956350E-02  0.16013357355E-01  0.10185051098E+01  0.10181877203E+01 0.  0.
     999903    2    3    3    0    0 -0.72679000018E-01 -0.10253503030E+00  0.67261598960E-02  0.12738058120E+00  0.19618913258E-01 0.  0.
         14    1    1    2    0    0 -0.19536809239E-01 -0.28827956350E-02 -0.16013357355E-01  0.25424890161E-01  0.00000000000E+00 0.  1.
     999901    1    3    3    0    0  0.92215809256E-01  0.10541782594E+00  0.92871974589E-02  0.89112452864E+00  0.88000000000E+00 0. -1.
        -11    1    4    4    0    0 -0.30966378548E-01 -0.59611820254E-01  0.26034122211E-03  0.67177485908E-01  0.51100000000E-03 0. -1.
         11    1    4    4    0    0 -0.41712621469E-01 -0.42923210050E-01  0.64658186738E-02  0.60203095294E-01  0.51100000000E-03 0.  1.
</event>
<event>
 8    1  0.1123450E+005  0.1043930E+01  0.7957747E-01            NaN
         13   -1    0    0    0    0  0.00000000000E+00  0.00000000000E+00  0.74505805969E-08  0.10566000000E+00  0.10566000000E+00 0. -1.
     999900   -1    0    0    0    0 -0.00000000000E+00 -0.00000000000E+00 -0.74505805969E-08  0.93827000000E+00  0.93827000000E+00 0.  1.
     999902    2    1    2    0    0 -0.30460743199E-02 -0.22878795022E-01  0.26774272308E-02  0.10206945433E+01  0.10204300389E+01 0.  0.
     999903    2    3    3    0    0 -0.38753126364E-01  0.11665456883E+00 -0.30990139508E-01  0.12835040666E+00  0.20083448640E-01 0.  0.
         14    1    1    2    0    0  0.30460743199E-02  0.22878795022E-01 -0.26774272308E-02  0.23235456677E-01  0.00000000000E+00 0.  1.
     999901    1    3    3    0    0  0.35707052044E-01 -0.13953336386E+00  0.33667566739E-01  0.89234413667E+00  0.88000000000E+00 0.  1.
        -11    1    4    4    0    0 -0.15714150713E-01  0.26395077761E-01 -0.19960259903E-02  0.30787658296E-01  0.51100000000E-03 0.  1.
         11    1    4    4    0    0 -0.23038975651E-01  0.90259491073E-01 -0.28994113518E-01  0.97562748360E-01  0.51100000000E-03 0. -1.
</event>
<event>
 8    1  0.1123450E+005  0.1043930E+01  0.7957747E-01            NaN
         13   -1    0    0    0    0  0.00000000000E+00  0.00000000000E+00  0.74505805969E-08  0.10566000000E+00  0.10566000000E+00 0.  1.
     999900   -1    0    0    0    0 -0.00000000000E+00 -0.00000000000E+00 -0.74505805969E-08  0.93827000000E+00  0.93827000000E+00 0. -1.
     999902    2    1    2    0    0  0.77713645862E-02 -0.13087278891E-01  0.17273293601E-01  0.10209074535E+01  0.10206478290E+01 0.  0.
     999903    2    3    3    0    0 -0.12408458188E+00  0.28173443414E-01  0.17757487425E-01  0.13012764216E+00  0.20667571653E-01 0.  0.
         14    1    1    2    0    0 -0.77713645862E-02  0.13087278891E-01 -0.17273293601E-01  0.23022546517E-01  0.00000000000E+00 0. -1.
     999901    1    3    3    0    0  0.13185594647E+00 -0.41260722305E-01 -0.48419382395E-03  0.89077981133E+00  0.88000000000E+00 0. -1.
        -11    1    4    4    0    0 -0.12019821066E-01 -0.33625127578E-02  0.17227074266E-02  0.12609973528E-01  0.51100000000E-03 0.  1.
         11    1    4    4    0    0 -0.11206476082E+00  0.31535956172E-01  0.16034779999E-01  0.11751766863E+00  0.51100000000E-03 0. -1.
</event>
<event>
 8    1  0.1123450E+005  0.1043930E+01  0.7957747E-01            NaN
         13   -1    0    0    0    0  0.00000000000E+00  0.00000000000E+00  0.74505805969E-08  0.10566000000E+00  0.10566000000E+00 0.  1.
     999900   -1    0    0    0    0 -0.00000000000E+00 -0.00000000000E+00 -0.74505805969E-08  0.93827000000E+00  0.93827000000E+00 0.  1.
     999902    2    1    2    0    0  0.12553600721E-01 -0.17334230815E-01 -0.12870212091E-01  0.10189557971E+01  0.10186496973E+01 0.  0.
     999903    2    3    3    0    0 -0.27180872743E-01 -0.40388513187E-01 -0.12009201006E+00  0.13125830234E+00  0.20895435255E-01 0.  0.
         14    1    1    2    0    0 -0.12553600721E-01  0.17334230815E-01  0.12870212091E-01  0.24974202856E-01  0.00000000000E+00 0. -1.
     999901    1    3    3    0    0  0.39734473464E-01  0.23054282372E-01  0.10722179796E+00  0.88769749480E+00  0.88000000000E+00 0. -1.
        -11    1    4    4    0    0 -0.26233162574E-01 -0.25066099669E-01 -0.69741278178E-01  0.78616761407E-01  0.51100000000E-03 0.  1.
         11    1    4    4    0    0 -0.94771016878E-03 -0.15322413518E-01 -0.50350731877E-01  0.52641540936E-01  0.51100000000E-03 0. -1.
</event>
<event>
 8    1  0.1123450E+005  0.1043930E+01  0.7957747E-01            NaN
         13   -1    0    0    0    0  0.00000000000E+00  0.00000000000E+00  0.74505805969E-08  0.10566000000E+00  0.10566000000E+00 0. -1.
     999900   -1    0    0    0    0 -0.00000000000E+00 -0.00000000000E+00 -0.74505805969E-08  0.93827000000E+00  0.93827000000E+00 0. -1.
     999902    2    1    2    0    0 -0.16515104311E-01  0.29026228193E-02 -0.11899272266E-01  0.10233687119E+01  0.10231621347E+01 0.  0.
     999903    2    3    3    0    0 -0.42896422189E-01 -0.83938032749E-01  0.91115913645E-01  0.13272321452E+00  0.20679593221E-01 0.  0.
         14    1    1    2    0    0  0.16515104311E-01 -0.29026228193E-02  0.11899272266E-01  0.20561288143E-01  0.00000000000E+00 0. -1.
     999901    1    3    3    0    0  0.26381317878E-01  0.86840655569E-01 -0.10301518591E+00  0.89064549733E+00  0.88000000000E+00 0. -1.
        -11    1    4    4    0    0 -0.19209990413E-01 -0.27949445541E-01  0.45332339708E-01  0.56616935470E-01  0.51100000000E-03 0. -1.
         11    1    4    4    0    0 -0.23686431776E-01 -0.55988587209E-01  0.45783573937E-01  0.76106279053E-01  0.51100000000E-03 0.  1.
</event>
<event>
 8    1  0.1123450E+005  0.1043930E+01  0.7957747E-01            NaN
         13   -1    0    0    0    0  0.00000000000E+00  0.00000000000E+00  0.74505805969E-08  0.10566000000E+00  0.10566000000E+00 0.  1.
     999900   -1    0    0    0    0 -0.00000000000E+00 -0.00000000000E+00 -0.74505805969E-08  0.93827000000E+00  0.93827000000E+00 0.  1.
     999902    2    1    2    0    0 -0.30830352359E-02 -0.15387006619E-01  0.20711987908E-01  0.10179443978E+01  0.10176126697E+01 0.  0.
     999903    2    3    3    0    0  0.11343204944E+00  0.50700393849E-01 -0.17135031469E-01  0.12700348711E+00  0.19972898052E-01 0.  0.
         14    1    1    2    0    0  0.30830352359E-02  0.15387006619E-01 -0.20711987908E-01  0.25985602207E-01  0.00000000000E+00 0. -1.
     999901    1    3    3    0    0 -0.11651508468E+00 -0.66087400469E-01  0.37847019376E-01  0.89094091069E+00  0.88000000000E+00 0.  1.
        -11    1    4    4    0    0  0.65375715249E-01  0.21861757647E-01 -0.16805087918E-01  0.70954863771E-01  0.51100000000E-03 0.  1.
         11    1    4    4    0    0  0.48056334194E-01  0.28838636202E-01 -0.32994355041E-03  0.56048623336E-01  0.51100000000E-03 0. -1.
</event>
<event>
 8    1  0.1123450E+005  0.1043930E+01  0.7957747E-01            NaN
         13   -1    0    0    0    0  0.00000000000E+00  0.00000000000E+00  0.74505805969E-08  0.10566000000E+00  0.10566000000E+00 0. -1.
     999900   -1    0    0    0    0 -0.00000000000E+00 -0.00000000000E+00 -0.74505805969E-08  0.93827000000E+00  0.93827000000E+00 0.  1.
     999902    2    1    2    0    0  0.22860184708E-01 -0.95724331642E-03 -0.37688716846E-02  0.10207414521E+01  0.10204780269E+01 0.  0.
     999903    2    3    3    0    0  0.12872484651E+00 -0.28553308765E-01  0.11276399221E-01  0.13383941150E+00  0.20011330320E-01 0.  0.
         14    1    1    2    0    0 -0.22860184708E-01  0.95724331642E-03  0.37688716846E-02  0.23188547894E-01  0.00000000000E+00 0. -1.
     999901    1    3    3    0    0 -0.10586466180E+00  0.27596065449E-01 -0.15045270906E-01  0.88690204060E+00  0.88000000000E+00 0.  1.
        -11    1    4    4    0    0  0.87348695171E-01 -0.10146421752E-01  0.10316673435E-01  0.88540608165E-01  0.51100000000E-03 0. -1.
         11    1    4    4    0    0  0.41376151342E-01 -0.18406887013E-01  0.95972578684E-03  0.45298803339E-01  0.51100000000E-03 0.  1.
</event>
<event>
 8    1  0.1123450E+005  0.1043930E+01  0.7957747E-01            NaN
         13   -1    0    0    0    0  0.00000000000E+00  0.00000000000E+00  0.74505805969E-08  0.10566000000E+00  0.10566000000E+00 0. -1.
     999900   -1    0    0    0    0 -0.00000000000E+00 -0.00000000000E+00 -0.74505805969E-08  0.93827000000E+00  0.93827000000E+00 0.  1.
     999902    2    1    2    0    0 -0.17789908177E-01 -0.11134926009E-02  0.15698583006E-01  0.10201778168E+01  0.10199012755E+01 0.  0.
     999903    2    3    3    0    0 -0.10049254562E+00 -0.60190069277E-01  0.60217314805E-01  0.13321012537E+00  0.19930286859E-01 0.  0.
         14    1    1    2    0    0  0.17789908177E-01  0.11134926009E-02 -0.15698583006E-01  0.23752183207E-01  0.00000000000E+00 0.  1.
     999901    1    3    3    0    0  0.82702637439E-01  0.59076576676E-01 -0.44518731799E-01  0.88696769143E+00  0.88000000000E+00 0.  1.
        -11    1    4    4    0    0 -0.43876069781E-01 -0.30435629520E-01  0.37834667282E-01  0.65445857111E-01  0.51100000000E-03 0. -1.
         11    1    4    4    0    0 -0.56616475835E-01 -0.29754439756E-01  0.22382647523E-01  0.67764268256E-01  0.51100000000E-03 0.  1.
</event>
<event>
 8    1  0.1123450E+005  0.1043930E+01  0.7957747E-01            NaN
         13   -1    0    0    0    0  0.00000000000E+00  0.00000000000E+00  0.74505805969E-08  0.10566000000E+00  0.10566000000E+00 0.  1.
     999900   -1    0    0    0    0 -0.00000000000E+00 -0.00000000000E+00 -0.74505805969E-08  0.93827000000E+00  0.93827000000E+00 0.  1.
     999902    2    1    2    0    0  0.16094181441E-01  0.20108984446E-01 -0.14854732043E-02  0.10181307643E+01  0.10178038380E+01 0.  0.
     999903    2    3    3    0    0 -0.10470915403E+00  0.69745186666E-01  0.15959233072E-01  0.12832094406E+00  0.19574717427E-01 0.  0.
         14    1    1    2    0    0 -0.16094181441E-01 -0.20108984446E-01  0.14854732043E-02  0.25799235693E-01  0.00000000000E+00 0. -1.
     999901    1    3    3    0    0  0.12080333548E+00 -0.49636202220E-01 -0.17444706277E-01  0.88980982025E+00  0.88000000000E+00 0. -1.
        -11    1    4    4    0    0 -0.84012437825E-01  0.60613136439E-01  0.19505497006E-01  0.10541711224E+00  0.51100000000E-03 0.  1.
         11    1    4    4    0    0 -0.20696716208E-01  0.91320502272E-02 -0.35462639333E-02  0.22903831820E-01  0.51100000000E-03 0. -1.
</event>
<event>
 8    1  0.1123450E+005  0.1043930E+01  0.7957747E-01            NaN
         13   -1    0    0    0    0  0.00000000000E+00  0.00000000000E+00  0.74505805969E-08  0.10566000000E+00  0.10566000000E+00 0.  1.
     999900   -1    0    0    0    0 -0.00000000000E+00 -0.00000000000E+00 -0.74505805969E-08  0.93827000000E+00  0.93827000000E+00 0. -1.
     999902    2    1    2    0    0  0.61678998455E-02 -0.72786787358E-02 -0.21039174552E-01  0.10208287226E+01  0.10205672990E+01 0.  0.
     999903    2    3    3    0    0 -0.50102284970E-01  0.10586134965E+00  0.49764336063E-01  0.12898785290E+00  0.21083470838E-01 0.  0.
         14    1    1    2    0    0 -0.61678998455E-02  0.72786787358E-02  0.21039174552E-01  0.23101277421E-01  0.00000000000E+00 0.  1.
     999901    1    3    3    0    0  0.56270184815E-01 -0.11314002838E+00 -0.70803510615E-01  0.89184086968E+00  0.88000000000E+00 0. -1.
        -11    1    4    4    0    0 -0.33563696865E-02  0.17244326468E-01  0.11186519016E-02  0.17610920359E-01  0.51100000000E-03 0.  1.
         11    1    4    4    0    0 -0.46745915283E-01  0.88617023179E-01  0.48645684161E-01  0.11137693254E+00  0.51100000000E-03 0. -1.
</event>
<event>
 8    1  0.1123450E+005  0.1043930E+01  0.7957747E-01            NaN
         13   -1    0    0    0    0  0.00000000000E+00  0.00000000000E+00  0.74505805969E-08  0.10566000000E+00  0.10566000000E+00 0.  1.
     999900   -1    0    0    0    0 -0.00000000000E+00 -0.00000000000E+00 -0.74505805969E-08  0.93827000000E+00  0.93827000000E+00 0. -1.
     999902    2    1    2    0    0 -0.11913969207E-02  0.18478866732E-01 -0.15043216077E-01  0.10200723745E+01  0.10197933433E+01 0.  0.
     999903    2    3    3    0    0  0.95325539740E-01 -0.75064272089E-01  0.35839349712E-01  0.12841387861E+00  0.22001403589E-01 0.  0.
         14    1    1    2    0    0  0.11913969207E-02 -0.18478866732E-01  0.15043216077E-01  0.23857625453E-01  0.00000000000E+00 0.  1.
     999901    1    3    3    0    0 -0.96516936661E-01  0.93543138821E-01 -0.50882565789E-01  0.89165849594E+00  0.88000000000E+00 0.  1.
        -11    1    4    4    0    0  0.35826113257E-01 -0.38457963091E-01  0.78053809084E-02  0.53138596221E-01  0.51100000000E-03 0.  1.
         11    1    4    4    0    0  0.59499426483E-01 -0.36606308999E-01  0.28033968804E-01  0.75275282385E-01  0.51100000000E-03 0. -1.
</event>
<event>
 8    1  0.1123450E+005  0.1043930E+01  0.7957747E-01            NaN
         13   -1    0    0    0    0  0.00000000000E+00  0.00000000000E+00  0.74505805969E-08  0.10566000000E+00  0.10566000000E+00 0.  1.
     999900   -1    0    0    0    0 -0.00000000000E+00 -0.00000000000E+00 -0.74505805969E-08  0.93827000000E+00  0.93827000000E+00 0.  1.
     999902    2    1    2    0    0  0.88539855893E-02 -0.18441424088E-02 -0.21757685213E-01  0.10203675131E+01  0.10200954225E+01 0.  0.
     999903    2    3    3    0    0 -0.70288408680E-01  0.29937349689E-01 -0.10593274984E+00  0.13224644969E+00  0.20752606224E-01 0.  0.
         14    1    1    2    0    0 -0.88539855893E-02  0.18441424088E-02  0.21757685213E-01  0.23562486878E-01  0.00000000000E+00 0.  1.
     999901    1    3    3    0    0  0.79142394269E-01 -0.31781492098E-01  0.84175064627E-01  0.88812106343E+00  0.88000000000E+00 0. -1.
        -11    1    4    4    0    0 -0.53419995478E-01  0.30614829667E-01 -0.75332021182E-01  0.97294081263E-01  0.51100000000E-03 0. -1.
         11    1    4    4    0    0 -0.16868413201E-01 -0.67747997827E-03 -0.30600728658E-01  0.34952368424E-01  0.51100000000E-03 0.  1.
</event>
<event>
 8    1  0.1123450E+005  0.1043930E+01  0.7957747E-01            NaN
         13   -1    0    0    0    0  0.00000000000E+00  0.00000000000E+00  0.74505805969E-08  0.10566000000E+00  0.10566000000E+00 0.  1.
     999900   -1    0    0    0    0 -0.00000000000E+00 -0.00000000000E+00 -0.74505805969E-08  0.93827000000E+00  0.93827000000E+00 0.  1.
     999902    2    1    2    0    0 -0.34027698226E-02 -0.22342931357E-01  0.76488343486E-02  0.10200701993E+01  0.10197911165E+01 0.  0.
     999903    2    3    3    0    0 -0.41719339811E-01 -0.47692695410E-01  0.11452020620E+00  0.13241471419E+00  0.20091848961E-01 0.  0.
         14    1    1    2    0    0  0.34027698226E-02  0.22342931357E-01 -0.76488343486E-02  0.23859800732E-01  0.00000000000E+00 0.  1.
     999901    1    3    3    0    0  0.38316569988E-01  0.25349764053E-01 -0.10687137185E+00  0.88765548508E+00  0.88000000000E+00 0. -1.
        -11    1    4    4    0    0 -0.84880283268E-04 -0.68344871338E-02  0.21962452307E-01  0.23007126100E-01  0.51100000000E-03 0. -1.
         11    1    4    4    0    0 -0.41634459528E-01 -0.40858208277E-01  0.92557753895E-01  0.10940758809E+00  0.51100000000E-03 0.  1.
</event>
<event>
 8    1  0.1294363E+005  0.1043930E+01  0.7957747E-01            NaN
         13   -1    0    0    0    0  0.00000000000E+00  0.00000000000E+00  0.74505805969E-08  0.10566000000E+00  0.10566000000E+00 0. -1.
     999900   -1    0    0    0    0 -0.00000000000E+00 -0.00000000000E+00 -0.74505805969E-08  0.93827000000E+00  0.93827000000E+00 0.  1.
     999902    2    1    2    0    0 -0.83478081834E-02 -0.77313186642E-02 -0.20453821202E-01  0.10205244880E+01  0.10202560525E+01 0.  0.
     999903    2    3    3    0    0  0.26922766955E-01 -0.11050778686E+00  0.59900459838E-01  0.13020778797E+00  0.20717061141E-01 0.  0.
         14    1    1    2    0    0  0.83478081834E-02  0.77313186642E-02  0.20453821202E-01  0.23405511990E-01  0.00000000000E+00 0. -1.
     999901    1    3    3    0    0 -0.35270575139E-01  0.10277646820E+00 -0.80354281040E-01  0.89031670004E+00  0.88000000000E+00 0.  1.
        -11    1    4    4    0    0  0.22775656095E-01 -0.51001498895E-01  0.31678789428E-01  0.64215965466E-01  0.51100000000E-03 0. -1.
         11    1    4    4    0    0  0.41471108608E-02 -0.59506287965E-01  0.28221670410E-01  0.65991822505E-01  0.51100000000E-03 0.  1.
</event>
<event>
 8    1  0.1123450E+005  0.1043930E+01  0.7957747E-01            NaN
         13   -1    0    0    0    0  0.00000000000E+00  0.00000000000E+00  0.74505805969E-08  0.10566000000E+00  0.10566000000E+00 0.  1.
     999900   -1    0    0    0    0 -0.00000000000E+00 -0.00000000000E+00 -0.74505805969E-08  0.93827000000E+00  0.93827000000E+00 0. -1.
     999902    2    1    2    0    0  0.12629391630E-01  0.11497075872E-01 -0.15719809975E-01  0.10207180050E+01  0.10204540406E+01 0.  0.
     999903    2    3    3    0    0 -0.89405769968E-01 -0.88267779084E-01 -0.20490514816E-01  0.12920975483E+00  0.22151907757E-01 0.  0.
         14    1    1    2    0    0 -0.12629391630E-01 -0.11497075872E-01  0.15719809975E-01  0.23211995007E-01  0.00000000000E+00 0.  1.
     999901    1    3    3    0    0  0.10203516160E+00  0.99764854957E-01  0.47707048411E-02  0.89150825016E+00  0.88000000000E+00 0.  1.
        -11    1    4    4    0    0 -0.14309124397E-01 -0.15962384473E-01  0.47184598031E-02  0.21956177786E-01  0.51100000000E-03 0.  1.
         11    1    4    4    0    0 -0.75096645572E-01 -0.72305394611E-01 -0.25208974619E-01  0.10725357704E+00  0.51100000000E-03 0. -1.
</event>
<event>
 8    1  0.1123450E+005  0.1043930E+01  0.7957747E-01            NaN
         13   -1    0    0    0    0  0.00000000000E+00  0.00000000000E+00  0.74505805969E-08  0.10566000000E+00  0.10566000000E+00 0. -1.
     999900   -1    0    0    0    0 -0.00000000000E+00 -0.00000000000E+00 -0.74505805969E-08  0.93827000000E+00  0.93827000000E+00 0.  1.
     999902    2    1    2    0    0  0.75992864671E-02 -0.10860536183E-01  0.20027990701E-01  0.10199129058E+01  0.10196300872E+01 0.  0.
     999903    2    3    3    0    0  0.11174126088E+00  0.43294107957E-01  0.49926705238E-01  0.13161554039E+00  0.21667611964E-01 0.  0.
         14    1    1    2    0    0 -0.75992864671E-02  0.10860536183E-01 -0.20027990701E-01  0.24017094173E-01  0.00000000000E+00 0.  1.
     999901    1    3    3    0    0 -0.10414197441E+00 -0.54154644140E-01 -0.29898714536E-01  0.88829736544E+00  0.88000000000E+00 0.  1.
        -11    1    4    4    0    0  0.82604237287E-01  0.34887005695E-01  0.27166611273E-01  0.93695512556E-01  0.51100000000E-03 0. -1.
         11    1    4    4    0    0  0.29137023595E-01  0.84071022626E-02  0.22760093965E-01  0.37920027831E-01  0.51100000000E-03 0.  1.
</event>
<event>
 8    1  0.1123450E+005  0.1043930E+01  0.7957747E-01            NaN
         13   -1    0    0    0    0  0.00000000000E+00  0.00000000000E+00  0.74505805969E-08  0.10566000000E+00  0.10566000000E+00 0. -1.
     999900   -1    0    0    0    0 -0.00000000000E+00 -0.00000000000E+00 -0.74505805969E-08  0.93827000000E+00  0.93827000000E+00 0. -1.
     999902    2    1    2    0    0 -0.12537410358E-01 -0.18215792504E-01 -0.45897616682E-02  0.10213453223E+01  0.10210955879E+01 0.  0.
     999903    2    3    3    0    0 -0.68381585138E-01 -0.80591952092E-01  0.78825793016E-01  0.13344470178E+00  0.20564018588E-01 0.  0.
         14    1    1    2    0    0  0.12537410358E-01  0.18215792504E-01  0.45897616682E-02  0.22584677709E-01  0.00000000000E+00 0.  1.
     999901    1    3    3    0    0  0.55844174780E-01  0.62376159587E-01 -0.83415554684E-01  0.88790062051E+00  0.88000000000E+00 0. -1.
        -11    1    4    4    0    0 -0.30433548116E-01 -0.20844613426E-01  0.26585426994E-01  0.45472462098E-01  0.51100000000E-03 0. -1.
         11    1    4    4    0    0 -0.37948037022E-01 -0.59747338666E-01  0.52240366022E-01  0.87972239682E-01  0.51100000000E-03 0.  1.
</event>
<event>
 8    1  0.1123450E+005  0.1043930E+01  0.7957747E-01            NaN
         13   -1    0    0    0    0  0.00000000000E+00  0.00000000000E+00  0.74505805969E-08  0.10566000000E+00  0.10566000000E+00 0. -1.
     999900   -1    0    0    0    0 -0.00000000000E+00 -0.00000000000E+00 -0.74505805969E-08  0.93827000000E+00  0.93827000000E+00 0. -1.
     999902    2    1    2    0    0 -0.14030968516E-01 -0.19352611588E-01 -0.34546047346E-03  0.10200237038E+01  0.10197435194E+01 0.  0.
     999903    2    3    3    0    0 -0.82786661542E-01 -0.68084082703E-01  0.75661879756E-01  0.13273614202E+00  0.20126840393E-01 0.  0.
         14    1    1    2    0    0  0.14030968516E-01  0.19352611588E-01  0.34546047346E-03  0.23906296152E-01  0.00000000000E+00 0.  1.
     999901    1    3    3    0    0  0.68755693026E-01  0.48731471115E-01 -0.76007340230E-01  0.88728756183E+00  0.88000000000E+00 0. -1.
        -11    1    4    4    0    0 -0.41273394271E-01 -0.29761317326E-01  0.24347688209E-01  0.56411879297E-01  0.51100000000E-03 0.  1.
         11    1    4    4    0    0 -0.41513267271E-01 -0.38322765376E-01  0.51314191547E-01  0.76324262726E-01  0.51100000000E-03 0. -1.
</event>
<event>
 8    1  0.1123450E+005  0.1043930E+01  0.7957747E-01            NaN
         13   -1    0    0    0    0  0.00000000000E+00  0.00000000000E+00  0.74505805969E-08  0.10566000000E+00  0.10566000000E+00 0.  1.
     999900   -1    0    0    0    0 -0.00000000000E+00 -0.00000000000E+00 -0.74505805969E-08  0.93827000000E+00  0.93827000000E+00 0. -1.
     999902    2    1    2    0    0 -0.27168881685E-02 -0.67485265230E-02 -0.22120361868E-01  0.10206440708E+01  0.10203784027E+01 0.  0.
     999903    2    3    3    0    0 -0.11265028040E+00  0.62841645572E-01 -0.94443476301E-02  0.13098749425E+00  0.20721241655E-01 0.  0.
         14    1    1    2    0    0  0.27168881685E-02  0.67485265230E-02  0.22120361868E-01  0.23285929243E-01  0.00000000000E+00 0.  1.
     999901    1    3    3    0    0  0.10993339223E+00 -0.69590172095E-01 -0.12676014237E-01  0.88965657650E+00  0.88000000000E+00 0. -1.
        -11    1    4    4    0    0 -0.38130700621E-01  0.28930315165E-01 -0.10935874298E-01  0.49099571618E-01  0.51100000000E-03 0. -1.
         11    1    4    4    0    0 -0.74519579781E-01  0.33911330407E-01  0.14915266684E-02  0.81887922635E-01  0.51100000000E-03 0.  1.
</event>
<event>
 8    1  0.1123450E+005  0.1043930E+01  0.7957747E-01            NaN
         13   -1    0    0    0    0  0.00000000000E+00  0.00000000000E+00  0.74505805969E-08  0.10566000000E+00  0.10566000000E+00 0.  1.
     999900   -1    0    0    0    0 -0.00000000000E+00 -0.00000000000E+00 -0.74505805969E-08  0.93827000000E+00  0.93827000000E+00 0. -1.
     999902    2    1    2    0    0 -0.10847569224E-01  0.12556279765E-02 -0.26020813278E-01  0.10157106966E+01  0.10153186151E+01 0.  0.
     999903    2    3    3    0    0 -0.17418976989E-02 -0.37524925599E-02 -0.12818236529E+00  0.12973949097E+00  0.19608705685E-01 0.  0.
         14    1    1    2    0    0  0.10847569224E-01 -0.12556279765E-02  0.26020813278E-01  0.28219303382E-01  0.00000000000E+00 0.  1.
     999901    1    3    3    0    0 -0.91056715253E-02  0.50081205364E-02  0.10216155201E+00  0.88597120565E+00  0.88000000000E+00 0.  1.
        -11    1    4    4    0    0 -0.69885596298E-02  0.44248169927E-02 -0.88280202182E-01  0.88668338145E-01  0.51100000000E-03 0.  1.
         11    1    4    4    0    0  0.52466619309E-02 -0.81773095526E-02 -0.39902163106E-01  0.41071152826E-01  0.51100000000E-03 0. -1.
</event>
<event>
 8    1  0.1123450E+005  0.1043930E+01  0.7957747E-01            NaN
         13   -1    0    0    0    0  0.00000000000E+00  0.00000000000E+00  0.74505805969E-08  0.10566000000E+00  0.10566000000E+00 0.  1.
     999900   -1    0    0    0    0 -0.00000000000E+00 -0.00000000000E+00 -0.74505805969E-08  0.93827000000E+00  0.93827000000E+00 0.  1.
     999902    2    1    2    0    0  0.58795975566E-03  0.17808352904E-01 -0.15682192427E-01  0.10201936505E+01  0.10199174820E+01 0.  0.
     999903    2    3    3    0    0  0.75695906124E-03  0.26940245674E-02  0.12675996313E+00  0.12861177584E+00  0.21565478825E-01 0.  0.
         14    1    1    2    0    0 -0.58795975566E-03 -0.17808352904E-01  0.15682192427E-01  0.23736349533E-01  0.00000000000E+00 0.  1.
     999901    1    3    3    0    0 -0.16899930558E-03  0.15114328337E-01 -0.14244215556E+00  0.89158187463E+00  0.88000000000E+00 0.  1.
        -11    1    4    4    0    0  0.21023392369E-02  0.28366832780E-02  0.25305531311E-02  0.43739481520E-02  0.51100000000E-03 0.  1.
         11    1    4    4    0    0 -0.13453801757E-02 -0.14265871052E-03  0.12422941000E+00  0.12423782769E+00  0.51100000000E-03 0. -1.
</event>
<event>
 8    1  0.1123450E+005  0.1043930E+01  0.7957747E-01            NaN
         13   -1    0    0    0    0  0.00000000000E+00  0.00000000000E+00  0.74505805969E-08  0.10566000000E+00  0.10566000000E+00 0. -1.
     999900   -1    0    0    0    0 -0.00000000000E+00 -0.00000000000E+00 -0.74505805969E-08  0.93827000000E+00  0.93827000000E+00 0.  1.
     999902    2    1    2    0    0  0.21180988925E-01  0.50042287500E-02 -0.96376739240E-02  0.10201274506E+01  0.10198497214E+01 0.  0.
     999903    2    3    3    0    0 -0.15163033320E-01  0.12466533273E+00  0.28881696768E-01  0.13045143676E+00  0.20299314773E-01 0.  0.
         14    1    1    2    0    0 -0.21180988925E-01 -0.50042287500E-02  0.96376739240E-02  0.23802549357E-01  0.00000000000E+00 0.  1.
     999901    1    3    3    0    0  0.36344022245E-01 -0.11966110398E+00 -0.38519370692E-01  0.88967601388E+00  0.88000000000E+00 0.  1.
        -11    1    4    4    0    0 -0.10441101021E-01  0.25388199636E-01  0.10383728547E-01  0.29354049309E-01  0.51100000000E-03 0. -1.
         11    1    4    4    0    0 -0.47219322988E-02  0.99277133095E-01  0.18497968221E-01  0.10109738745E+00  0.51100000000E-03 0.  1.
</event>
<event>
 8    1  0.1123450E+005  0.1043930E+01  0.7957747E-01            NaN
         13   -1    0    0    0    0  0.00000000000E+00  0.00000000000E+00  0.74505805969E-08  0.10566000000E+00  0.10566000000E+00 0.  1.
     999900   -1    0    0    0    0 -0.00000000000E+00 -0.00000000000E+00 -0.74505805969E-08  0.93827000000E+00  0.93827000000E+00 0.  1.
     999902    2    1    2    0    0  0.22607459621E-01 -0.51497530177E-02 -0.38997382523E-03  0.10207401473E+01  0.10204766921E+01 0.  0.
     999903    2    3    3    0    0  0.12586618206E+00  0.63212380163E-02  0.39641257160E-01  0.13372467575E+00  0.20702796862E-01 0.  0.
         14    1    1    2    0    0 -0.22607459621E-01  0.51497530177E-02  0.38997382523E-03  0.23189852657E-01  0.00000000000E+00 0. -1.
     999901    1    3    3    0    0 -0.10325872244E+00 -0.11470991034E-01 -0.40031230985E-01  0.88701547160E+00  0.88000000000E+00 0. -1.
        -11    1    4    4    0    0  0.27413252610E-01 -0.19663937275E-02  0.17133622549E-01  0.32390975064E-01  0.51100000000E-03 0. -1.
         11    1    4    4    0    0  0.98452929451E-01  0.82876317437E-02  0.22507634610E-01  0.10133370068E+00  0.51100000000E-03 0.  1.
</event>
<event>
 8    1  0.1123450E+005  0.1043930E+01  0.7957747E-01            NaN
         13   -1    0    0    0    0  0.00000000000E+00  0.00000000000E+00  0.74505805969E-08  0.10566000000E+00  0.10566000000E+00 0. -1.
     999900   -1    0    0    0    0 -0.00000000000E+00 -0.00000000000E+00 -0.74505805969E-08  0.93827000000E+00  0.93827000000E+00 0. -1.
     999902    2    1    2    0    0  0.11841816932E-01  0.90884169376E-03  0.20179292041E-01  0.10205150806E+01  0.10202464268E+01 0.  0.
     999903    2    3    3    0    0  0.10480529733E+00  0.55918467397E-01  0.57156870802E-01  0.13313939417E+00  0.18659181526E-01 0.  0.
         14    1    1    2    0    0 -0.11841816932E-01 -0.90884169376E-03 -0.20179292041E-01  0.23414919363E-01  0.00000000000E+00 0.  1.
     999901    1    3    3    0    0 -0.92963480396E-01 -0.55009625703E-01 -0.36977578761E-01  0.88737568647E+00  0.88000000000E+00 0. -1.
        -11    1    4    4    0    0  0.77185537816E-01  0.46042203050E-01  0.50366612739E-01  0.10302693099E+00  0.51100000000E-03 0. -1.
         11    1    4    4    0    0  0.27619759513E-01  0.98762643467E-02  0.67902580633E-02  0.30112463176E-01  0.51100000000E-03 0.  1.
</event>
<event>
 8    1  0.1123450E+005  0.1043930E+01  0.7957747E-01            NaN
         13   -1    0    0    0    0  0.00000000000E+00  0.00000000000E+00  0.74505805969E-08  0.10566000000E+00  0.10566000000E+00 0.  1.
     999900   -1    0    0    0    0 -0.00000000000E+00 -0.00000000000E+00 -0.74505805969E-08  0.93827000000E+00  0.93827000000E+00 0.  1.
     999902    2    1    2    0    0  0.74209523754E-02 -0.22625022984E-01  0.53277901013E-03  0.10201130721E+01  0.10198350033E+01 0.  0.
     999903    2    3    3    0    0  0.71622316316E-03  0.12707749642E+00  0.65214362068E-03  0.12744526609E+00  0.96263953322E-02 0.  0.
         14    1    1    2    0    0 -0.74209523754E-02  0.22625022984E-01 -0.53277901013E-03  0.23816927860E-01  0.00000000000E+00 0.  1.
     999901    1    3    3    0    0  0.67047292122E-02 -0.14970251940E+00 -0.11936461056E-03  0.89266780605E+00  0.88000000000E+00 0.  1.
        -11    1    4    4    0    0  0.39732780897E-02  0.39470203450E-01  0.25567156851E-02  0.39755274056E-01  0.51100000000E-03 0.  1.
         11    1    4    4    0    0 -0.32570549266E-02  0.87607292965E-01 -0.19045720644E-02  0.87689992036E-01  0.51100000000E-03 0. -1.
</event>
<event>
 8    1  0.1123450E+005  0.1043930E+01  0.7957747E-01            NaN
         13   -1    0    0    0    0  0.00000000000E+00  0.00000000000E+00  0.74505805969E-08  0.10566000000E+00  0.10566000000E+00 0.  1.
     999900   -1    0    0    0    0 -0.00000000000E+00 -0.00000000000E+00 -0.74505805969E-08  0.93827000000E+00  0.93827000000E+00 0.  1.
     999902    2    1    2    0    0  0.15404183545E-01  0.14236439637E-01 -0.21293305783E-02  0.10228468519E+01  0.10226295436E+01 0.  0.
     999903    2    3    3    0    0  0.31992427938E-01 -0.11928015128E+00 -0.41617324090E-01  0.13174576252E+00  0.19330658069E-01 0.  0.
         14    1    1    2    0    0 -0.15404183545E-01 -0.14236439637E-01  0.21293305783E-02  0.21083148080E-01  0.00000000000E+00 0.  1.
     999901    1    3    3    0    0 -0.16588244392E-01  0.13351659092E+00  0.39487993512E-01  0.89110108940E+00  0.88000000000E+00 0.  1.
        -11    1    4    4    0    0 -0.12456550624E-03 -0.30541933062E-01 -0.12222334668E-01  0.32900938853E-01  0.51100000000E-03 0.  1.
         11    1    4    4    0    0  0.32116993444E-01 -0.88738218222E-01 -0.29394989422E-01  0.98844823664E-01  0.51100000000E-03 0. -1.
</event>
<event>
 8    1  0.1123450E+005  0.1043930E+01  0.7957747E-01            NaN
         13   -1    0    0    0    0  0.00000000000E+00  0.00000000000E+00  0.74505805969E-08  0.10566000000E+00  0.10566000000E+00 0. -1.
     999900   -1    0    0    0    0 -0.00000000000E+00 -0.00000000000E+00 -0.74505805969E-08  0.93827000000E+00  0.93827000000E+00 0.  1.
     999902    2    1    2    0    0 -0.45204229502E-02 -0.17411432128E-01  0.14922565134E-01  0.10205574703E+01  0.10202897996E+01 0.  0.
     999903    2    3    3    0    0  0.49240534813E-01 -0.73233248485E-01  0.97876807199E-01  0.13326511602E+00  0.19798555714E-01 0.  0.
         14    1    1    2    0    0  0.45204229502E-02  0.17411432128E-01 -0.14922565134E-01  0.23372529657E-01  0.00000000000E+00 0.  1.
     999901    1    3    3    0    0 -0.53760957763E-01  0.55821816357E-01 -0.82954242065E-01  0.88729235432E+00  0.88000000000E+00 0.  1.
        -11    1    4    4    0    0  0.35312159502E-01 -0.50311707235E-01  0.80567799081E-01  0.10133927108E+00  0.51100000000E-03 0. -1.
         11    1    4    4    0    0  0.13928375311E-01 -0.22921541250E-01  0.17309008117E-01  0.31925844939E-01  0.51100000000E-03 0.  1.
</event>
<event>
 8    1  0.1123450E+005  0.1043930E+01  0.7957747E-01            NaN
         13   -1    0    0    0    0  0.00000000000E+00  0.00000000000E+00  0.74505805969E-08  0.10566000000E+00  0.10566000000E+00 0. -1.
     999900   -1    0    0    0    0 -0.00000000000E+00 -0.00000000000E+00 -0.74505805969E-08  0.93827000000E+00  0.93827000000E+00 0. -1.
     999902    2    1    2    0    0  0.16573183716E-01  0.11713464542E-01  0.12368841044E-01  0.10201631344E+01  0.10198862471E+01 0.  0.
     999903    2    3    3    0    0 -0.38615544327E-01  0.75860151272E-01 -0.95491399055E-01  0.12954850143E+00  0.20451995389E-01 0.  0.
         14    1    1    2    0    0 -0.16573183716E-01 -0.11713464542E-01 -0.12368841044E-01  0.23766865566E-01  0.00000000000E+00 0.  1.
     999901    1    3    3    0    0  0.55188728042E-01 -0.64146686731E-01  0.10786024010E+00  0.89061463300E+00  0.88000000000E+00 0.  1.
        -11    1    4    4    0    0 -0.30232872013E-01  0.40593517773E-01 -0.47598685183E-01  0.69482056587E-01  0.51100000000E-03 0. -1.
         11    1    4    4    0    0 -0.83826723133E-02  0.35266633499E-01 -0.47892713871E-01  0.60066444846E-01  0.51100000000E-03 0.  1.
</event>
<event>
 8    1  0.1123450E+005  0.1043930E+01  0.7957747E-01            NaN
         13   -1    0    0    0    0  0.00000000000E+00  0.00000000000E+00  0.74505805969E-08  0.10566000000E+00  0.10566000000E+00 0. -1.
     999900   -1    0    0    0    0 -0.00000000000E+00 -0.00000000000E+00 -0.74505805969E-08  0.93827000000E+00  0.93827000000E+00 0. -1.
     999902    2    1    2    0    0 -0.80713100332E-02 -0.12079797996E-01 -0.18054638649E-01  0.10207559295E+01  0.10204928369E+01 0.  0.
     999903    2    3    3    0    0 -0.12313583260E+00  0.71421138990E-02  0.39997352516E-01  0.13116087563E+00  0.19747000462E-01 0.  0.
         14    1    1    2    0    0  0.80713100332E-02  0.12079797996E-01  0.18054638649E-01  0.23174070468E-01  0.00000000000E+00 0. -1.
     999901    1    3    3    0    0  0.11506452256E+00 -0.19221911895E-01 -0.58051991165E-01  0.88959505390E+00  0.88000000000E+00 0. -1.
        -11    1    4    4    0    0 -0.96126795829E-01 -0.24873200533E-02  0.32700012192E-01  0.10156820150E+00  0.51100000000E-03 0. -1.
         11    1    4    4    0    0 -0.27009036769E-01  0.96294339522E-02  0.72973403241E-02  0.29592674131E-01  0.51100000000E-03 0.  1.
</event>
<event>
 8    1  0.1123450E+005  0.1043930E+01  0.7957747E-01            NaN
         13   -1    0    0    0    0  0.00000000000E+00  0.00000000000E+00  0.74505805969E-08  0.10566000000E+00  0.10566000000E+00 0.  1.
     999900   -1    0    0    0    0 -0.00000000000E+00 -0.00000000000E+00 -0.74505805969E-08  0.93827000000E+00  0.93827000000E+00 0.  1.
     999902    2    1    2    0    0  0.11060024062E-01 -0.19590875121E-01 -0.31084286583E-02  0.10212190148E+01  0.10209664477E+01 0.  0.
     999903    2    3    3    0    0 -0.83950382840E-01 -0.52127843673E-01  0.84116905893E-01  0.13122244698E+00  0.19460161057E-01 0.  0.
         14    1    1    2    0    0 -0.11060024062E-01  0.19590875121E-01  0.31084286583E-02  0.22710985205E-01  0.00000000000E+00 0. -1.
     999901    1    3    3    0    0  0.95010406902E-01  0.32536968552E-01 -0.87225334552E-01  0.88999656782E+00  0.88000000000E+00 0.  1.
        -11    1    4    4    0    0 -0.48891168748E-01 -0.31517432850E-01  0.36830096643E-01  0.68850650649E-01  0.51100000000E-03 0.  1.
         11    1    4    4    0    0 -0.35059214092E-01 -0.20610410822E-01  0.47286809251E-01  0.62371796328E-01  0.51100000000E-03 0. -1.
</event>
<event>
 8    1  0.1123450E+005  0.1043930E+01  0.7957747E-01            NaN
         13   -1    0    0    0    0  0.00000000000E+00  0.00000000000E+00  0.74505805969E-08  0.10566000000E+00  0.10566000000E+00 0.  1.
     999900   -1    0    0    0    0 -0.00000000000E+00 -0.00000000000E+00 -0.74505805969E-08  0.93827000000E+00  0.93827000000E+00 0.  1.
     999902    2    1    2    0    0 -0.13720563873E-01 -0.17560291627E-01 -0.73924950170E-02  0.10204509306E+01  0.10201807855E+01 0.  0.
     999903    2    3    3    0    0  0.35614410838E-01  0.85880597189E-01 -0.87213377159E-01  0.12943727731E+00  0.22449328923E-01 0.  0.
         14    1    1    2    0    0  0.13720563873E-01  0.17560291627E-01  0.73924950170E-02  0.23479069352E-01  0.00000000000E+00 0.  1.
     999901    1    3    3    0    0 -0.49334974711E-01 -0.10344088882E+00  0.79820882142E-01  0.89101365334E+00  0.88000000000E+00 0. -1.
        -11    1    4    4    0    0  0.36326447716E-02  0.11394934740E-01 -0.23349841743E-01  0.26239605108E-01  0.51100000000E-03 0. -1.
         11    1    4    4    0    0  0.31981766066E-01  0.74485662449E-01 -0.63863535416E-01  0.10319767220E+00  0.51100000000E-03 0.  1.
</event>
<event>
 8    1  0.1123450E+005  0.1043930E+01  0.7957747E-01            NaN
         13   -1    0    0    0    0  0.00000000000E+00  0.00000000000E+00  0.74505805969E-08  0.10566000000E+00  0.10566000000E+00 0.  1.
     999900   -1    0    0    0    0 -0.00000000000E+00 -0.00000000000E+00 -0.74505805969E-08  0.93827000000E+00  0.93827000000E+00 0.  1.
     999902    2    1    2    0    0  0.19396919326E-01 -0.10189647278E-01 -0.10306422459E-01  0.10197165381E+01  0.10194290198E+01 0.  0.
     999903    2    3    3    0    0 -0.44859056950E-01 -0.11211838526E+00  0.43742065994E-01  0.12986287758E+00  0.19186748928E-01 0.  0.
         14    1    1    2    0    0 -0.19396919326E-01  0.10189647278E-01  0.10306422459E-01  0.24213461853E-01  0.00000000000E+00 0. -1.
     999901    1    3    3    0    0  0.64255976276E-01  0.10192873798E+00 -0.54048488453E-01  0.88985366056E+00  0.88000000000E+00 0.  1.
        -11    1    4    4    0    0 -0.31271331646E-02 -0.27731085017E-01  0.67795662435E-02  0.28723086141E-01  0.51100000000E-03 0.  1.
         11    1    4    4    0    0 -0.41731923785E-01 -0.84387300239E-01  0.36962499750E-01  0.10113979144E+00  0.51100000000E-03 0. -1.
</event>
<event>
 7    1  0.1123450E+005  0.1043930E+01  0.7957747E-01            NaN
         13   -1    0    0    0    0  0.00000000000E+00  0.00000000000E+00  0.74505805969E-08  0.10566000000E+00  0.10566000000E+00 0.  1.
     999900   -1    0    0    0    0 -0.00000000000E+00 -0.00000000000E+00 -0.74505805969E-08  0.93827000000E+00  0.93827000000E+00 0.  1.
     999903    2    1    2    0    0  0.82086377813E-01 -0.20689182462E-02 -0.83255453626E-01  0.11859165151E+00  0.19749820344E-01 0.  0.
         14    1    1    2    0    0 -0.17203759398E-02 -0.25668137278E-01  0.30169635980E-01  0.39648706156E-01  0.00000000000E+00 0.  1.
     999901    1    1    2    0    0 -0.80366001873E-01  0.27737055524E-01  0.53085817646E-01  0.88568964234E+00  0.88000000000E+00 0. -1.
        -11    1    3    3    0    0  0.62019026558E-01 -0.84448598193E-02 -0.54821311124E-01  0.83206445585E-01  0.51100000000E-03 0. -1.
         11    1    3    3    0    0  0.20067351256E-01  0.63759415731E-02 -0.28434142503E-01  0.35385205923E-01  0.51100000000E-03 0.  1.
</event>
<event>
 8    1  0.1123450E+005  0.1043930E+01  0.7957747E-01            NaN
         13   -1    0    0    0    0  0.00000000000E+00  0.00000000000E+00  0.74505805969E-08  0.10566000000E+00  0.10566000000E+00 0. -1.
     999900   -1    0    0    0    0 -0.00000000000E+00 -0.00000000000E+00 -0.74505805969E-08  0.93827000000E+00  0.93827000000E+00 0. -1.
     999902    2    1    2    0    0  0.15727930524E-01  0.14186550008E-01  0.10305678696E-01  0.10203751064E+01  0.10201031932E+01 0.  0.
     999903    2    3    3    0    0 -0.97517952932E-01 -0.66521192141E-01 -0.42282145055E-01  0.12790446319E+00  0.25237903353E-01 0.  0.
         14    1    1    2    0    0 -0.15727930524E-01 -0.14186550008E-01 -0.10305678696E-01  0.23554893612E-01  0.00000000000E+00 0.  1.
     999901    1    3    3    0    0  0.11324588346E+00  0.80707742149E-01  0.52587823751E-01  0.89247064320E+00  0.88000000000E+00 0.  1.
        -11    1    4    4    0    0 -0.14124983858E-01 -0.21585394467E-01 -0.62071743116E-02  0.26537418059E-01  0.51100000000E-03 0.  1.
         11    1    4    4    0    0 -0.83392969074E-01 -0.44935797674E-01 -0.36074970743E-01  0.10136704513E+00  0.51100000000E-03 0. -1.
</event>
<event>
 8    1  0.1123450E+005  0.1043930E+01  0.7957747E-01            NaN
         13   -1    0    0    0    0  0.00000000000E+00  0.00000000000E+00  0.74505805969E-08  0.10566000000E+00  0.10566000000E+00 0.  1.
     999900   -1    0    0    0    0 -0.00000000000E+00 -0.00000000000E+00 -0.74505805969E-08  0.93827000000E+00  0.93827000000E+00 0. -1.
     999902    2    1    2    0    0 -0.85634849223E-02 -0.20996026413E-01  0.58800871184E-02  0.10205047610E+01  0.10202358675E+01 0.  0.
     999903    2    3    3    0    0  0.87947541281E-01 -0.52820782948E-02 -0.92920096244E-01  0.12959355183E+00  0.19941765727E-01 0.  0.
         14    1    1    2    0    0  0.85634849223E-02  0.20996026413E-01 -0.58800871184E-02  0.23425239031E-01  0.00000000000E+00 0. -1.
     999901    1    3    3    0    0 -0.96511026204E-01 -0.15713948118E-01  0.98800183362E-01  0.89091120914E+00  0.88000000000E+00 0.  1.
        -11    1    4    4    0    0  0.79883272784E-01  0.11092730474E-02 -0.79900941013E-01  0.11299110254E+00  0.51100000000E-03 0.  1.
         11    1    4    4    0    0  0.80642684977E-02 -0.63913513422E-02 -0.13019155230E-01  0.16602449286E-01  0.51100000000E-03 0. -1.
</event>
<event>
 8    1  0.1123450E+005  0.1043930E+01  0.7957747E-01            NaN
         13   -1    0    0    0    0  0.00000000000E+00  0.00000000000E+00  0.74505805969E-08  0.10566000000E+00  0.10566000000E+00 0. -1.
     999900   -1    0    0    0    0 -0.00000000000E+00 -0.00000000000E+00 -0.74505805969E-08  0.93827000000E+00  0.93827000000E+00 0. -1.
     999902    2    1    2    0    0 -0.14326018765E-01 -0.17239371116E-01 -0.32765374443E-02  0.10212768230E+01  0.10210255544E+01 0.  0.
     999903    2    3    3    0    0 -0.24721428358E-01  0.12274150255E+00 -0.13550144167E-01  0.13009319629E+00  0.32619133150E-01 0.  0.
         14    1    1    2    0    0  0.14326018765E-01  0.17239371116E-01  0.32765374443E-02  0.22653176991E-01  0.00000000000E+00 0.  1.
     999901    1    3    3    0    0  0.10395409593E-01 -0.13998087366E+00  0.10273606722E-01  0.89118362672E+00  0.88000000000E+00 0.  1.
        -11    1    4    4    0    0  0.18298829400E-02  0.21070914439E-01 -0.13340791135E-01  0.25011392124E-01  0.51100000000E-03 0. -1.
         11    1    4    4    0    0 -0.26551311298E-01  0.10167058811E+00 -0.20935303135E-03  0.10508180417E+00  0.51100000000E-03 0.  1.
</event>
<event>
 8    1  0.1123450E+005  0.1043930E+01  0.7957747E-01            NaN
         13   -1    0    0    0    0  0.00000000000E+00  0.00000000000E+00  0.74505805969E-08  0.10566000000E+00  0.10566000000E+00 0.  1.
     999900   -1    0    0    0    0 -0.00000000000E+00 -0.00000000000E+00 -0.74505805969E-08  0.93827000000E+00  0.93827000000E+00 0. -1.
     999902    2    1    2    0    0  0.88147528653E-02 -0.11866918754E-01 -0.21808754761E-01  0.10175833605E+01  0.10172422279E+01 0.  0.
     999903    2    3    3    0    0  0.11012691477E-01  0.12135810252E+00  0.26139500290E-01  0.12626255832E+00  0.20245783185E-01 0.  0.
         14    1    1    2    0    0 -0.88147528653E-02  0.11866918754E-01  0.21808754761E-01  0.26346639502E-01  0.00000000000E+00 0.  1.
     999901    1    3    3    0    0 -0.21979386117E-02 -0.13322502128E+00 -0.47948255051E-01  0.89132080218E+00  0.88000000000E+00 0. -1.
        -11    1    4    4    0    0  0.23212387885E-02  0.61440065226E-01  0.22956083516E-01  0.65631643709E-01  0.51100000000E-03 0. -1.
         11    1    4    4    0    0  0.86914526886E-02  0.59918037298E-01  0.31834167735E-02  0.60630914614E-01  0.51100000000E-03 0.  1.
</event>
<event>
 8    1  0.1123450E+005  0.1043930E+01  0.7957747E-01            NaN
         13   -1    0    0    0    0  0.00000000000E+00  0.00000000000E+00  0.74505805969E-08  0.10566000000E+00  0.10566000000E+00 0.  1.
     999900   -1    0    0    0    0 -0.00000000000E+00 -0.00000000000E+00 -0.74505805969E-08  0.93827000000E+00  0.93827000000E+00 0. -1.
     999902    2    1    2    0    0 -0.23339505668E-02 -0.17007279009E-01  0.16759297678E-01  0.10199389824E+01  0.10196567849E+01 0.  0.
     999903    2    3    3    0    0 -0.12090664007E+00 -0.47260037036E-01  0.42349075957E-02  0.13138309090E+00  0.19790285943E-01 0.  0.
         14    1    1    2    0    0  0.23339505668E-02  0.17007279009E-01 -0.16759297678E-01  0.23991017553E-01  0.00000000000E+00 0.  1.
     999901    1    3    3    0    0  0.11857268950E+00  0.30252758027E-01  0.12524390083E-01  0.88855589155E+00  0.88000000000E+00 0.  1.
        -11    1    4    4    0    0 -0.52310771198E-01 -0.23089157285E-01  0.11372916098E-01  0.58302060933E-01  0.51100000000E-03 0. -1.
         11    1    4    4    0    0 -0.68595868871E-01 -0.24170879751E-01 -0.71380085025E-02  0.73081029963E-01  0.51100000000E-03 0.  1.
</event>
<event>
 8    1  0.1123450E+005  0.1043930E+01  0.7957747E-01            NaN
         13   -1    0    0    0    0  0.00000000000E+00  0.00000000000E+00  0.74505805969E-08  0.10566000000E+00  0.10566000000E+00 0.  1.
     999900   -1    0    0    0    0 -0.00000000000E+00 -0.00000000000E+00 -0.74505805969E-08  0.93827000000E+00  0.93827000000E+00 0. -1.
     999902    2    1    2    0    0 -0.19795321679E-01 -0.64309488161E-02  0.13522703242E-01  0.10191091345E+01  0.10188068279E+01 0.  0.
     999903    2    3    3    0    0 -0.65234402884E-01  0.87884114728E-01 -0.66000863385E-01  0.12934285113E+00  0.19857346975E-01 0.  0.
         14    1    1    2    0    0  0.19795321679E-01  0.64309488161E-02 -0.13522703242E-01  0.24820865537E-01  0.00000000000E+00 0. -1.
     999901    1    3    3    0    0  0.45439081205E-01 -0.94315063544E-01  0.79523566627E-01  0.88976628334E+00  0.88000000000E+00 0.  1.
        -11    1    4    4    0    0 -0.31935464695E-01  0.28587013515E-01 -0.20482012991E-01  0.47506475602E-01  0.51100000000E-03 0.  1.
         11    1    4    4    0    0 -0.33298938189E-01  0.59297101213E-01 -0.45518850395E-01  0.81836375525E-01  0.51100000000E-03 0. -1.
</event>
<event>
 8    1  0.1123450E+005  0.1043930E+01  0.7957747E-01            NaN
         13   -1    0    0    0    0  0.00000000000E+00  0.00000000000E+00  0.74505805969E-08  0.10566000000E+00  0.10566000000E+00 0. -1.
     999900   -1    0    0    0    0 -0.00000000000E+00 -0.00000000000E+00 -0.74505805969E-08  0.93827000000E+00  0.93827000000E+00 0.  1.
     999902    2    1    2    0    0  0.19063939219E-01  0.82010774061E-02  0.91743732114E-02  0.10212394607E+01  0.10209873533E+01 0.  0.
     999903    2    3    3    0    0  0.73011083871E-01 -0.89359534537E-01  0.62282955353E-01  0.13261755635E+00  0.19811737545E-01 0.  0.
         14    1    1    2    0    0 -0.19063939219E-01 -0.82010774061E-02 -0.91743732114E-02  0.22690539284E-01  0.00000000000E+00 0. -1.
     999901    1    3    3    0    0 -0.53947144652E-01  0.97560611943E-01 -0.53108582142E-01  0.88862190436E+00  0.88000000000E+00 0.  1.
        -11    1    4    4    0    0  0.97436623609E-02 -0.20562260439E-01  0.60951468195E-02  0.23561779354E-01  0.51100000000E-03 0.  1.
         11    1    4    4    0    0  0.63267421510E-01 -0.68797274098E-01  0.56187808534E-01  0.10905577700E+00  0.51100000000E-03 0. -1.
</event>
<event>
 8    1  0.1123450E+005  0.1043930E+01  0.7957747E-01            NaN
         13   -1    0    0    0    0  0.00000000000E+00  0.00000000000E+00  0.74505805969E-08  0.10566000000E+00  0.10566000000E+00 0. -1.
     999900   -1    0    0    0    0 -0.00000000000E+00 -0.00000000000E+00 -0.74505805969E-08  0.93827000000E+00  0.93827000000E+00 0. -1.
     999902    2    1    2    0    0 -0.28262455949E-04 -0.23687742715E-01 -0.49404402490E-02  0.10197325228E+01  0.10194453885E+01 0.  0.
     999903    2    3    3    0    0  0.28694586043E-01 -0.12705490861E+00 -0.18097914911E-01  0.13311936467E+00  0.20661598569E-01 0.  0.
         14    1    1    2    0    0  0.28262455949E-04  0.23687742715E-01  0.49404402490E-02  0.24197477215E-01  0.00000000000E+00 0.  1.
     999901    1    3    3    0    0 -0.28722848499E-01  0.10336716589E+00  0.13157474662E-01  0.88661315812E+00  0.88000000000E+00 0.  1.
        -11    1    4    4    0    0  0.12175613103E-01 -0.91959732005E-01 -0.17022524602E-01  0.94312593696E-01  0.51100000000E-03 0.  1.
         11    1    4    4    0    0  0.16518972940E-01 -0.35095176602E-01 -0.10753903090E-02  0.38806770970E-01  0.51100000000E-03 0. -1.
</event>
<event>
 8    1  0.1123450E+005  0.1043930E+01  0.7957747E-01            NaN
         13   -1    0    0    0    0  0.00000000000E+00  0.00000000000E+00  0.74505805969E-08  0.10566000000E+00  0.10566000000E+00 0. -1.
     999900   -1    0    0    0    0 -0.00000000000E+00 -0.00000000000E+00 -0.74505805969E-08  0.93827000000E+00  0.93827000000E+00 0. -1.
     999902    2    1    2    0    0 -0.11899354305E-01  0.10190812458E-01 -0.17259560417E-01  0.10206203514E+01  0.10203541356E+01 0.  0.
     999903    2    3    3    0    0  0.99003546557E-01  0.81936577840E-01 -0.23252637610E-02  0.13063723838E+00  0.23353290577E-01 0.  0.
         14    1    1    2    0    0  0.11899354305E-01 -0.10190812458E-01  0.17259560417E-01  0.23309648587E-01  0.00000000000E+00 0.  1.
     999901    1    3    3    0    0 -0.11090290086E+00 -0.71745765382E-01 -0.14934296657E-01  0.88998311303E+00  0.88000000000E+00 0. -1.
        -11    1    4    4    0    0  0.31639948656E-01  0.19522626746E-01 -0.99397139824E-02  0.38487378984E-01  0.51100000000E-03 0.  1.
         11    1    4    4    0    0  0.67363597901E-01  0.62413951094E-01  0.76144502214E-02  0.92149859395E-01  0.51100000000E-03 0. -1.
</event>
<event>
 8    1  0.1123450E+005  0.1043930E+01  0.7957747E-01            NaN
         13   -1    0    0    0    0  0.00000000000E+00  0.00000000000E+00  0.74505805969E-08  0.10566000000E+00  0.10566000000E+00 0. -1.
     999900   -1    0    0    0    0 -0.00000000000E+00 -0.00000000000E+00 -0.74505805969E-08  0.93827000000E+00  0.93827000000E+00 0.  1.
     999902    2    1    2    0    0 -0.18418402931E-01  0.23422859794E-01  0.17834599452E-01  0.10092033407E+01  0.10086056921E+01 0.  0.
     999903    2    3    3    0    0  0.57752356073E-01  0.44481594869E-02 -0.10069444156E+00  0.11779369451E+00  0.19515715515E-01 0.  0.
         14    1    1    2    0    0  0.18418402931E-01 -0.23422859794E-01 -0.17834599452E-01  0.34726659285E-01  0.00000000000E+00 0. -1.
     999901    1    3    3    0    0 -0.76170759005E-01  0.18974700307E-01  0.11852904101E+00  0.89140964620E+00  0.88000000000E+00 0.  1.
        -11    1    4    4    0    0  0.25055990127E-01 -0.76243304506E-02 -0.40436615993E-01  0.48180017539E-01  0.51100000000E-03 0. -1.
         11    1    4    4    0    0  0.32696365946E-01  0.12072489937E-01 -0.60257825563E-01  0.69613676975E-01  0.51100000000E-03 0.  1.
</event>
<event>
 8    1  0.1123450E+005  0.1043930E+01  0.7957747E-01            NaN
         13   -1    0    0    0    0  0.00000000000E+00  0.00000000000E+00  0.74505805969E-08  0.10566000000E+00  0.10566000000E+00 0. -1.
     999900   -1    0    0    0    0 -0.00000000000E+00 -0.00000000000E+00 -0.74505805969E-08  0.93827000000E+00  0.93827000000E+00 0.  1.
     999902    2    1    2    0    0 -0.58817083581E-02  0.24881573983E-01  0.52295475751E-02  0.10178333453E+01  0.10174987388E+01 0.  0.
     999903    2    3    3    0    0  0.34762581027E-02  0.23889377194E-01  0.12569644267E+00  0.12957615915E+00  0.20189071459E-01 0.  0.
         14    1    1    2    0    0  0.58817083581E-02 -0.24881573983E-01 -0.52295475751E-02  0.26096654669E-01  0.00000000000E+00 0.  1.
     999901    1    3    3    0    0 -0.93579664608E-02  0.99219678846E-03 -0.12046689510E+00  0.88825718618E+00  0.88000000000E+00 0.  1.
        -11    1    4    4    0    0 -0.33685139885E-03  0.38463295904E-02  0.72415987842E-01  0.72520646276E-01  0.51100000000E-03 0. -1.
         11    1    4    4    0    0  0.38131095015E-02  0.20043047604E-01  0.53280454830E-01  0.57055512873E-01  0.51100000000E-03 0.  1.
</event>
<event>
 8    1  0.1123450E+005  0.1043930E+01  0.7957747E-01            NaN
         13   -1    0    0    0    0  0.00000000000E+00  0.00000000000E+00  0.74505805969E-08  0.10566000000E+00  0.10566000000E+00 0. -1.
     999900   -1    0    0    0    0 -0.00000000000E+00 -0.00000000000E+00 -0.74505805969E-08  0.93827000000E+00  0.93827000000E+00 0.  1.
     999902    2    1    2    0    0  0.16773054917E-01 -0.14766497257E-01 -0.90734050342E-02  0.10198113041E+01  0.10195260588E+01 0.  0.
     999903    2    3    3    0    0  0.79121432650E-01  0.87250950084E-01  0.50637283425E-01  0.12972128277E+00  0.19762270534E-01 0.  0.
         14    1    1    2    0    0 -0.16773054917E-01  0.14766497257E-01  0.90734050342E-02  0.24118695889E-01  0.00000000000E+00 0.  1.
     999901    1    3    3    0    0 -0.62348377733E-01 -0.10201744734E+00 -0.59710688459E-01  0.89009002134E+00  0.88000000000E+00 0.  1.
        -11    1    4    4    0    0  0.53662048334E-01  0.60128624938E-01  0.44350871967E-01  0.91990912234E-01  0.51100000000E-03 0.  1.
         11    1    4    4    0    0  0.25459384315E-01  0.27122325146E-01  0.62864114573E-02  0.37730370539E-01  0.51100000000E-03 0. -1.
</event>
<event>
 8    1  0.1123450E+005  0.1043930E+01  0.7957747E-01            NaN
         13   -1    0    0    0    0  0.00000000000E+00  0.00000000000E+00  0.74505805969E-08  0.10566000000E+00  0.10566000000E+00 0. -1.
     999900   -1    0    0    0    0 -0.00000000000E+00 -0.00000000000E+00 -0.74505805969E-08  0.93827000000E+00  0.93827000000E+00 0. -1.
     999902    2    1    2    0    0  0.17499629822E-01 -0.14782519148E-01 -0.33843295899E-02  0.10207737135E+01  0.10205110292E+01 0.  0.
     999903    2    3    3    0    0 -0.21511840484E-01 -0.67685216663E-01 -0.10940381498E+00  0.13197636796E+00  0.20112660941E-01 0.  0.
         14    1    1    2    0    0 -0.17499629822E-01  0.14782519148E-01  0.33843295899E-02  0.23156286469E-01  0.00000000000E+00 0. -1.
     999901    1    3    3    0    0  0.39011470305E-01  0.52902697515E-01  0.10601948539E+00  0.88879734558E+00  0.88000000000E+00 0.  1.
        -11    1    4    4    0    0 -0.13555193134E-01 -0.30572499190E-01 -0.34779903242E-01  0.48252707262E-01  0.51100000000E-03 0. -1.
         11    1    4    4    0    0 -0.79566473493E-02 -0.37112717472E-01 -0.74623911741E-01  0.83723660693E-01  0.51100000000E-03 0.  1.
</event>
<event>
 8    1  0.1123450E+005  0.1043930E+01  0.7957747E-01            NaN
         13   -1    0    0    0    0  0.00000000000E+00  0.00000000000E+00  0.74505805969E-08  0.10566000000E+00  0.10566000000E+00 0. -1.
     999900   -1    0    0    0    0 -0.00000000000E+00 -0.00000000000E+00 -0.74505805969E-08  0.93827000000E+00  0.93827000000E+00 0.  1.
     999902    2    1    2    0    0  0.14594105305E-02 -0.30272403207E-02  0.23850972706E-01  0.10198434278E+01  0.10195589508E+01 0.  0.
     999903    2    3    3    0    0  0.13887152919E-01 -0.93509044280E-01 -0.84715798623E-01  0.12848034267E+00  0.19840300862E-01 0.  0.
         14    1    1    2    0    0 -0.14594105305E-02  0.30272403207E-02 -0.23850972706E-01  0.24086572236E-01  0.00000000000E+00 0.  1.
     999901    1    3    3    0    0 -0.12427742389E-01  0.90481803959E-01  0.10856677133E+00  0.89136308509E+00  0.88000000000E+00 0. -1.
        -11    1    4    4    0    0  0.12133921606E-01 -0.78318187336E-01 -0.79651745250E-01  0.11236383833E+00  0.51100000000E-03 0. -1.
         11    1    4    4    0    0  0.17532313130E-02 -0.15190856944E-01 -0.50640533729E-02  0.16116504345E-01  0.51100000000E-03 0.  1.
</event>
<event>
 8    1  0.1123450E+005  0.1043930E+01  0.7957747E-01            NaN
         13   -1    0    0    0    0  0.00000000000E+00  0.00000000000E+00  0.74505805969E-08  0.10566000000E+00  0.10566000000E+00 0. -1.
     999900   -1    0    0    0    0 -0.00000000000E+00 -0.00000000000E+00 -0.74505805969E-08  0.93827000000E+00  0.93827000000E+00 0. -1.
     999902    2    1    2    0    0 -0.22580765157E-01 -0.43523824129E-02 -0.37709999050E-02  0.10206264675E+01  0.10203603929E+01 0.  0.
     999903    2    3    3    0    0 -0.12783146209E+00  0.26256432691E-01 -0.21185509693E-01  0.13365528761E+00  0.19611912876E-01 0.  0.
         14    1    1    2    0    0  0.22580765157E-01  0.43523824129E-02  0.37709999050E-02  0.23303532523E-01  0.00000000000E+00 0. -1.
     999901    1    3    3    0    0  0.10525069693E+00 -0.30608815104E-01  0.17414509788E-01  0.88697117987E+00  0.88000000000E+00 0.  1.
        -11    1    4    4    0    0 -0.10198193049E+00  0.23139018193E-01 -0.91742483403E-02  0.10497693205E+00  0.51100000000E-03 0. -1.
         11    1    4    4    0    0 -0.25849531606E-01  0.31174144984E-02 -0.12011261353E-01  0.28678355561E-01  0.51100000000E-03 0.  1.
</event>
<event>
 8    1  0.1123450E+005  0.1043930E+01  0.7957747E-01            NaN
         13   -1    0    0    0    0  0.00000000000E+00  0.00000000000E+00  0.74505805969E-08  0.10566000000E+00  0.10566000000E+00 0. -1.
     999900   -1    0    0    0    0 -0.00000000000E+00 -0.00000000000E+00 -0.74505805969E-08  0.93827000000E+00  0.93827000000E+00 0.  1.
     999902    2    1    2    0    0 -0.18439193590E-01  0.77169087940E-02 -0.12403033680E-01  0.10204057617E+01  0.10201345641E+01 0.  0.
     999903    2    3    3    0    0  0.12041377776E+00  0.26946200408E-01  0.29956109178E-01  0.12830475271E+00  0.18416446464E-01 0.  0.
         14    1    1    2    0    0  0.18439193590E-01 -0.77169087940E-02  0.12403033680E-01  0.23524238267E-01  0.00000000000E+00 0. -1.
     999901    1    3    3    0    0 -0.13885297135E+00 -0.19229291614E-01 -0.42359142858E-01  0.89210100902E+00  0.88000000000E+00 0.  1.
        -11    1    4    4    0    0  0.98471450535E-01  0.15140869825E-01  0.26890940187E-01  0.10319523388E+00  0.51100000000E-03 0. -1.
         11    1    4    4    0    0  0.21942327227E-01  0.11805330583E-01  0.30651689913E-02  0.25109518838E-01  0.51100000000E-03 0.  1.
</event>
<event>
 8    1  0.1123450E+005  0.1043930E+01  0.7957747E-01            NaN
         13   -1    0    0    0    0  0.00000000000E+00  0.00000000000E+00  0.74505805969E-08  0.10566000000E+00  0.10566000000E+00 0. -1.
     999900   -1    0    0    0    0 -0.00000000000E+00 -0.00000000000E+00 -0.74505805969E-08  0.93827000000E+00  0.93827000000E+00 0. -1.
     999902    2    1    2    0    0  0.64527877702E-02 -0.16617363347E-01 -0.16256235779E-01  0.10198044858E+01  0.10195190772E+01 0.  0.
     999903    2    3    3    0    0  0.53270846350E-01  0.71523187568E-01  0.89381016712E-01  0.12788525377E+00  0.20305727068E-01 0.  0.
         14    1    1    2    0    0 -0.64527877702E-02  0.16617363347E-01  0.16256235779E-01  0.24125514219E-01  0.00000000000E+00 0. -1.
     999901    1    3    3    0    0 -0.46818058580E-01 -0.88140550915E-01 -0.10563725249E+00  0.89191923202E+00  0.88000000000E+00 0. -1.
        -11    1    4    4    0    0  0.54859932489E-01  0.67703262440E-01  0.83602784021E-01  0.12076021926E+00  0.51100000000E-03 0. -1.
         11    1    4    4    0    0 -0.15890861397E-02  0.38199251279E-02  0.57782326906E-02  0.71250345100E-02  0.51100000000E-03 0.  1.
</event>
<event>
 7    1  0.1123450E+005  0.1043930E+01  0.7957747E-01            NaN
         13   -1    0    0    0    0  0.00000000000E+00  0.00000000000E+00  0.74505805969E-08  0.10566000000E+00  0.10566000000E+00 0.  1.
     999900   -1    0    0    0    0 -0.00000000000E+00 -0.00000000000E+00 -0.74505805969E-08  0.93827000000E+00  0.93827000000E+00 0.  1.
     999903    2    1    2    0    0  0.22836378115E-01  0.88319777933E-01 -0.26517123598E-01  0.95875768801E-01  0.12927562017E-01 0.  0.
         14    1    1    2    0    0  0.53345220089E-01  0.21527870363E-01  0.42101536625E-02  0.57679173907E-01  0.00000000000E+00 0. -1.
     999901    1    1    2    0    0 -0.76181598204E-01 -0.10984764830E+00  0.22306969935E-01  0.89037505729E+00  0.88000000000E+00 0. -1.
        -11    1    3    3    0    0  0.21306307913E-01  0.74330718112E-01 -0.26661996448E-01  0.81793261260E-01  0.51100000000E-03 0. -1.
         11    1    3    3    0    0  0.15300702018E-02  0.13989059821E-01  0.14487285027E-03  0.14082507541E-01  0.51100000000E-03 0.  1.
</event>
<event>
 8    1  0.1123450E+005  0.1043930E+01  0.7957747E-01            NaN
         13   -1    0    0    0    0  0.00000000000E+00  0.00000000000E+00  0.74505805969E-08  0.10566000000E+00  0.10566000000E+00 0. -1.
     999900   -1    0    0    0    0 -0.00000000000E+00 -0.00000000000E+00 -0.74505805969E-08  0.93827000000E+00  0.93827000000E+00 0. -1.
     999902    2    1    2    0    0 -0.20020894718E-01 -0.34296048917E-02 -0.13560847182E-01  0.10195067531E+01  0.10192141701E+01 0.  0.
     999903    2    3    3    0    0 -0.50832619072E-01  0.11154975476E+00 -0.41095082030E-01  0.13106556221E+00  0.21495880552E-01 0.  0.
         14    1    1    2    0    0  0.20020894718E-01  0.34296048917E-02  0.13560847182E-01  0.24423246945E-01  0.00000000000E+00 0. -1.
     999901    1    3    3    0    0  0.30811724354E-01 -0.11497935965E+00  0.27534234847E-01  0.88844119085E+00  0.88000000000E+00 0. -1.
        -11    1    4    4    0    0 -0.47845012243E-02  0.24089573580E-01 -0.15791619356E-02  0.24616130498E-01  0.51100000000E-03 0. -1.
         11    1    4    4    0    0 -0.46048117847E-01  0.87460181182E-01 -0.39515920094E-01  0.10644943171E+00  0.51100000000E-03 0.  1.
</event>
<event>
 8    1  0.1123450E+005  0.1043930E+01  0.7957747E-01            NaN
         13   -1    0    0    0    0  0.00000000000E+00  0.00000000000E+00  0.74505805969E-08  0.10566000000E+00  0.10566000000E+00 0. -1.
     999900   -1    0    0    0    0 -0.00000000000E+00 -0.00000000000E+00 -0.74505805969E-08  0.93827000000E+00  0.93827000000E+00 0. -1.
     999902    2    1    2    0    0 -0.73879210614E-02  0.50614262146E-02  0.22234321575E-01  0.10199599256E+01  0.10196782263E+01 0.  0.
     999903    2    3    3    0    0  0.19769545375E-01  0.11313138287E+00  0.62066356189E-01  0.13203918895E+00  0.19813382690E-01 0.  0.
         14    1    1    2    0    0  0.73879210614E-02 -0.50614262146E-02 -0.22234321575E-01  0.23970074444E-01  0.00000000000E+00 0.  1.
     999901    1    3    3    0    0 -0.27157466437E-01 -0.10806995665E+00 -0.39832034614E-01  0.88792073661E+00  0.88000000000E+00 0.  1.
        -11    1    4    4    0    0 -0.23039734448E-02  0.17976922104E-01  0.45957864879E-02  0.18704555499E-01  0.51100000000E-03 0.  1.
         11    1    4    4    0    0  0.22073518820E-01  0.95154460765E-01  0.57470569702E-01  0.11333463345E+00  0.51100000000E-03 0. -1.
</event>
<event>
 8    1  0.1123450E+005  0.1043930E+01  0.7957747E-01            NaN
         13   -1    0    0    0    0  0.00000000000E+00  0.00000000000E+00  0.74505805969E-08  0.10566000000E+00  0.10566000000E+00 0. -1.
     999900   -1    0    0    0    0 -0.00000000000E+00 -0.00000000000E+00 -0.74505805969E-08  0.93827000000E+00  0.93827000000E+00 0.  1.
     999902    2    1    2    0    0  0.58529297011E-02  0.41168166263E-02  0.21465412643E-01  0.10213032701E+01  0.10210525945E+01 0.  0.
     999903    2    3    3    0    0 -0.20948377708E-01  0.12653476723E+00  0.25965196626E-01  0.13241367474E+00  0.20231361242E-01 0.  0.
         14    1    1    2    0    0 -0.58529297011E-02 -0.41168166263E-02 -0.21465412643E-01  0.22626729882E-01  0.00000000000E+00 0.  1.
     999901    1    3    3    0    0  0.26801307409E-01 -0.12241795060E+00 -0.44997839835E-02  0.88888959537E+00  0.88000000000E+00 0.  1.
        -11    1    4    4    0    0 -0.12724885305E-01  0.77191946428E-01  0.25824709788E-01  0.82387475116E-01  0.51100000000E-03 0.  1.
         11    1    4    4    0    0 -0.82234924029E-02  0.49342820799E-01  0.14048683809E-03  0.50026199628E-01  0.51100000000E-03 0. -1.
</event>
<event>
 8    1  0.1123450E+005  0.1043930E+01  0.7957747E-01            NaN
         13   -1    0    0    0    0  0.00000000000E+00  0.00000000000E+00  0.74505805969E-08  0.10566000000E+00  0.10566000000E+00 0.  1.
     999900   -1    0    0    0    0 -0.00000000000E+00 -0.00000000000E+00 -0.74505805969E-08  0.93827000000E+00  0.93827000000E+00 0. -1.
     999902    2    1    2    0    0 -0.99952386849E-02  0.20448223110E-01  0.11604764181E-01  0.10183819046E+01  0.10180613923E+01 0.  0.
     999903    2    3    3    0    0 -0.71911884296E-01 -0.32999375733E-02  0.10752989656E+00  0.13068867094E+00  0.18293205491E-01 0.  0.
         14    1    1    2    0    0  0.99952386849E-02 -0.20448223110E-01 -0.11604764181E-01  0.25548095358E-01  0.00000000000E+00 0. -1.
     999901    1    3    3    0    0  0.61916645611E-01  0.23748160683E-01 -0.95925132377E-01  0.88769323370E+00  0.88000000000E+00 0. -1.
        -11    1    4    4    0    0 -0.47230784349E-01 -0.36042066771E-02  0.84780863597E-01  0.97117419906E-01  0.51100000000E-03 0.  1.
         11    1    4    4    0    0 -0.24681099947E-01  0.30426910373E-03  0.22749032962E-01  0.33571251034E-01  0.51100000000E-03 0. -1.
</event>
<event>
 8    1  0.1123450E+005  0.1043930E+01  0.7957747E-01            NaN
         13   -1    0    0    0    0  0.00000000000E+00  0.00000000000E+00  0.74505805969E-08  0.10566000000E+00  0.10566000000E+00 0. -1.
     999900   -1    0    0    0    0 -0.00000000000E+00 -0.00000000000E+00 -0.74505805969E-08  0.93827000000E+00  0.93827000000E+00 0. -1.
     999902    2    1    2    0    0  0.36827019833E-02 -0.23035802205E-01 -0.30458283989E-02  0.10204036839E+01  0.10201324378E+01 0.  0.
     999903    2    3    3    0    0 -0.14932434610E-02  0.25269315468E-01  0.12568498333E+00  0.12971193215E+00  0.19690155587E-01 0.  0.
         14    1    1    2    0    0 -0.36827019833E-02  0.23035802205E-01  0.30458283989E-02  0.23526316068E-01  0.00000000000E+00 0.  1.
     999901    1    3    3    0    0  0.51759454443E-02 -0.48305117673E-01 -0.12873081173E+00  0.89069175178E+00  0.88000000000E+00 0. -1.
        -11    1    4    4    0    0 -0.56065190143E-02  0.20407223839E-02  0.10088408195E-01  0.11731781801E-01  0.51100000000E-03 0. -1.
         11    1    4    4    0    0  0.41132755533E-02  0.23228593084E-01  0.11559657513E+00  0.11798015035E+00  0.51100000000E-03 0.  1.
</event>
<event>
 8    1  0.1123450E+005  0.1043930E+01  0.7957747E-01            NaN
         13   -1    0    0    0    0  0.00000000000E+00  0.00000000000E+00  0.74505805969E-08  0.10566000000E+00  0.10566000000E+00 0.  1.
     999900   -1    0    0    0    0 -0.00000000000E+00 -0.00000000000E+00 -0.74505805969E-08  0.93827000000E+00  0.93827000000E+00 0. -1.
     999902    2    1    2    0    0 -0.10213056294E-01 -0.21276704284E-01  0.93914500435E-04  0.10203288669E+01  0.10200558726E+01 0.  0.
     999903    2    3    3    0    0 -0.23069207942E-01 -0.12963194420E+00  0.67403153187E-02  0.13356491110E+00  0.21389817975E-01 0.  0.
         14    1    1    2    0    0  0.10213056294E-01  0.21276704284E-01 -0.93914500435E-04  0.23601133108E-01  0.00000000000E+00 0.  1.
     999901    1    3    3    0    0  0.12856151648E-01  0.10835523992E+00 -0.66464008183E-02  0.88676395579E+00  0.88000000000E+00 0. -1.
        -11    1    4    4    0    0 -0.35655245355E-02 -0.29285700893E-01 -0.72570340282E-02  0.30385702327E-01  0.51100000000E-03 0. -1.
         11    1    4    4    0    0 -0.19503683406E-01 -0.10034624331E+00  0.13997349347E-01  0.10317920877E+00  0.51100000000E-03 0.  1.
</event>
<event>
 8    1  0.1123450E+005  0.1043930E+01  0.7957747E-01            NaN
         13   -1    0    0    0    0  0.00000000000E+00  0.00000000000E+00  0.74505805969E-08  0.10566000000E+00  0.10566000000E+00 0.  1.
     999900   -1    0    0    0    0 -0.00000000000E+00 -0.00000000000E+00 -0.74505805969E-08  0.93827000000E+00  0.93827000000E+00 0.  1.
     999902    2    1    2    0    0  0.20466329116E-01 -0.59834578777E-02  0.71568913246E-02  0.10214379239E+01  0.10211902559E+01 0.  0.
     999903    2    3    3    0    0  0.11465473668E+00 -0.67722264775E-02  0.66898682998E-01  0.13439724838E+00  0.19890070186E-01 0.  0.
         14    1    1    2    0    0 -0.20466329116E-01  0.59834578777E-02 -0.71568913246E-02  0.22492076140E-01  0.00000000000E+00 0. -1.
     999901    1    3    3    0    0 -0.94188407563E-01  0.78876859980E-03 -0.59741791673E-01  0.88704067548E+00  0.88000000000E+00 0.  1.
        -11    1    4    4    0    0  0.92349329992E-01 -0.86728512317E-02  0.45074236579E-01  0.10312887579E+00  0.51100000000E-03 0. -1.
         11    1    4    4    0    0  0.22305406688E-01  0.19006247542E-02  0.21824446419E-01  0.31268372590E-01  0.51100000000E-03 0.  1.
</event>
<event>
 8    1  0.1123450E+005  0.1043930E+01  0.7957747E-01            NaN
         13   -1    0    0    0    0  0.00000000000E+00  0.00000000000E+00  0.74505805969E-08  0.10566000000E+00  0.10566000000E+00 0. -1.
     999900   -1    0    0    0    0 -0.00000000000E+00 -0.00000000000E+00 -0.74505805969E-08  0.93827000000E+00  0.93827000000E+00 0.  1.
     999902    2    1    2    0    0 -0.11377053511E-01 -0.45941715119E-02  0.19464417835E-01  0.10209211469E+01  0.10206618347E+01 0.  0.
     999903    2    3    3    0    0 -0.44484975427E-01  0.93066128031E-01 -0.76295503920E-01  0.12974011524E+00  0.19268532891E-01 0.  0.
         14    1    1    2    0    0  0.11377053511E-01  0.45941715119E-02 -0.19464417835E-01  0.23008853082E-01  0.00000000000E+00 0.  1.
     999901    1    3    3    0    0  0.33107921916E-01 -0.97660299543E-01  0.95759921755E-01  0.89118103167E+00  0.88000000000E+00 0. -1.
        -11    1    4    4    0    0 -0.18313996863E-01  0.58184582454E-01 -0.39427231363E-01  0.72633434522E-01  0.51100000000E-03 0.  1.
         11    1    4    4    0    0 -0.26170978564E-01  0.34881545577E-01 -0.36868272557E-01  0.57106680723E-01  0.51100000000E-03 0. -1.
</event>
<event>
 8    1  0.1123450E+005  0.1043930E+01  0.7957747E-01            NaN
         13   -1    0    0    0    0  0.00000000000E+00  0.00000000000E+00  0.74505805969E-08  0.10566000000E+00  0.10566000000E+00 0.  1.
     999900   -1    0    0    0    0 -0.00000000000E+00 -0.00000000000E+00 -0.74505805969E-08  0.93827000000E+00  0.93827000000E+00 0. -1.
     999902    2    1    2    0    0  0.19575622601E-01  0.30035551165E-02 -0.10615894348E-01  0.10214594959E+01  0.10212123081E+01 0.  0.
     999903    2    3    3    0    0  0.46710073164E-01 -0.70502839869E-01 -0.10123007361E+00  0.13334328837E+00  0.19504445305E-01 0.  0.
         14    1    1    2    0    0 -0.19575622601E-01 -0.30035551165E-02  0.10615894348E-01  0.22470504142E-01  0.00000000000E+00 0.  1.
     999901    1    3    3    0    0 -0.27134450562E-01  0.73506394986E-01  0.90614179263E-01  0.88811620748E+00  0.88000000000E+00 0.  1.
        -11    1    4    4    0    0  0.41711847342E-01 -0.65695364642E-01 -0.99233945590E-01  0.12610866831E+00  0.51100000000E-03 0.  1.
         11    1    4    4    0    0  0.49982258218E-02 -0.48074752271E-02 -0.19961280207E-02  0.72346200660E-02  0.51100000000E-03 0. -1.
</event>
<event>
 8    1  0.1123450E+005  0.1043930E+01  0.7957747E-01            NaN
         13   -1    0    0    0    0  0.00000000000E+00  0.00000000000E+00  0.74505805969E-08  0.10566000000E+00  0.10566000000E+00 0.  1.
     999900   -1    0    0    0    0 -0.00000000000E+00 -0.00000000000E+00 -0.74505805969E-08  0.93827000000E+00  0.93827000000E+00 0. -1.
     999902    2    1    2    0    0  0.14132351077E-01  0.22301458589E-01  0.10541921511E-02  0.10175067201E+01  0.10171635737E+01 0.  0.
     999903    2    3    3    0    0 -0.17839939291E-01 -0.17885526660E-01 -0.12325079676E+00  0.12728823485E+00  0.19323051810E-01 0.  0.
         14    1    1    2    0    0 -0.14132351077E-01 -0.22301458589E-01 -0.10541921511E-02  0.26423279949E-01  0.00000000000E+00 0. -1.
     999901    1    3    3    0    0  0.31972290369E-01  0.40186985249E-01  0.12430498891E+00  0.89021848521E+00  0.88000000000E+00 0.  1.
        -11    1    4    4    0    0 -0.21298611009E-01 -0.10868830272E-01 -0.95751012603E-01  0.98692856063E-01  0.51100000000E-03 0.  1.
         11    1    4    4    0    0  0.34586717173E-02 -0.70166963878E-02 -0.27499784152E-01  0.28595378782E-01  0.51100000000E-03 0. -1.
</event>
<event>
 8    1  0.1123450E+005  0.1043930E+01  0.7957747E-01            NaN
         13   -1    0    0    0    0  0.00000000000E+00  0.00000000000E+00  0.74505805969E-08  0.10566000000E+00  0.10566000000E+00 0.  1.
     999900   -1    0    0    0    0 -0.00000000000E+00 -0.00000000000E+00 -0.74505805969E-08  0.93827000000E+00  0.93827000000E+00 0.  1.
     999902    2    1    2    0    0 -0.52656683866E-02  0.22094914788E-01 -0.52224513782E-02  0.10206236377E+01  0.10203574978E+01 0.  0.
     999903    2    3    3    0    0  0.32002493960E-01  0.10566859823E+00  0.70964235489E-01  0.13260455701E+00  0.18921774519E-01 0.  0.
         14    1    1    2    0    0  0.52656683866E-02 -0.22094914788E-01  0.52224513782E-02  0.23306362253E-01  0.00000000000E+00 0. -1.
     999901    1    3    3    0    0 -0.37268162347E-01 -0.83573683442E-01 -0.76186686867E-01  0.88801908073E+00  0.88000000000E+00 0. -1.
        -11    1    4    4    0    0  0.25411257362E-01  0.79344721589E-01  0.43486051269E-01  0.93981990938E-01  0.51100000000E-03 0. -1.
         11    1    4    4    0    0  0.65912365983E-02  0.26323876642E-01  0.27478184220E-01  0.38622566077E-01  0.51100000000E-03 0.  1.
</event>
<event>
 8    1  0.1123450E+005  0.1043930E+01  0.7957747E-01            NaN
         13   -1    0    0    0    0  0.00000000000E+00  0.00000000000E+00  0.74505805969E-08  0.10566000000E+00  0.10566000000E+00 0.  1.
     999900   -1    0    0    0    0 -0.00000000000E+00 -0.00000000000E+00 -0.74505805969E-08  0.93827000000E+00  0.93827000000E+00 0.  1.
     999902    2    1    2    0    0 -0.13542915382E-02 -0.13198667133E-01  0.19420657283E-01  0.10204097779E+01  0.10201386739E+01 0.  0.
     999903    2    3    3    0    0 -0.98082992934E-01 -0.86374570511E-01 -0.11839387305E-01  0.13154063964E+00  0.90514557976E-02 0.  0.
         14    1    1    2    0    0  0.13542915382E-02  0.13198667133E-01 -0.19420657283E-01  0.23520222128E-01  0.00000000000E+00 0. -1.
     999901    1    3    3    0    0  0.96728701396E-01  0.73175903378E-01  0.31260044588E-01  0.88886913823E+00  0.88000000000E+00 0. -1.
        -11    1    4    4    0    0 -0.50949762740E-01 -0.42961649043E-01 -0.10315000258E-01  0.67440655120E-01  0.51100000000E-03 0. -1.
         11    1    4    4    0    0 -0.47133230194E-01 -0.43412921468E-01 -0.15243870468E-02  0.64099984522E-01  0.51100000000E-03 0.  1.
</event>
<event>
 8    1  0.1123450E+005  0.1043930E+01  0.7957747E-01            NaN
         13   -1    0    0    0    0  0.00000000000E+00  0.00000000000E+00  0.74505805969E-08  0.10566000000E+00  0.10566000000E+00 0.  1.
     999900   -1    0    0    0    0 -0.00000000000E+00 -0.00000000000E+00 -0.74505805969E-08  0.93827000000E+00  0.93827000000E+00 0. -1.
     999902    2    1    2    0    0 -0.11060650132E-01 -0.79874463792E-02  0.18613402990E-01  0.10208519574E+01  0.10205910654E+01 0.  0.
     999903    2    3    3    0    0 -0.55768379602E-01 -0.54939556373E-01 -0.10031798137E+00  0.13048801161E+00  0.28895618536E-01 0.  0.
         14    1    1    2    0    0  0.11060650132E-01  0.79874463792E-02 -0.18613402990E-01  0.23078042635E-01  0.00000000000E+00 0. -1.
     999901    1    3    3    0    0  0.44707729470E-01  0.46952109994E-01  0.11893138436E+00  0.89036394575E+00  0.88000000000E+00 0.  1.
        -11    1    4    4    0    0 -0.98681959280E-02 -0.15557338472E-01 -0.44581174832E-01  0.48240588115E-01  0.51100000000E-03 0. -1.
         11    1    4    4    0    0 -0.45900183674E-01 -0.39382217900E-01 -0.55736806540E-01  0.82247423500E-01  0.51100000000E-03 0.  1.
</event>
<event>
 8    1  0.1123450E+005  0.1043930E+01  0.7957747E-01            NaN
         13   -1    0    0    0    0  0.00000000000E+00  0.00000000000E+00  0.74505805969E-08  0.10566000000E+00  0.10566000000E+00 0.  1.
     999900   -1    0    0    0    0 -0.00000000000E+00 -0.00000000000E+00 -0.74505805969E-08  0.93827000000E+00  0.93827000000E+00 0. -1.
     999902    2    1    2    0    0 -0.45963560839E-02  0.12988400183E-01 -0.19804238267E-01  0.10198046423E+01  0.10195192375E+01 0.  0.
     999903    2    3    3    0    0  0.30511560900E-01  0.10723528698E+00 -0.69210779681E-01  0.13269921015E+00  0.19712590586E-01 0.  0.
         14    1    1    2    0    0  0.45963560839E-02 -0.12988400183E-01  0.19804238267E-01  0.24125357653E-01  0.00000000000E+00 0.  1.
     999901    1    3    3    0    0 -0.35107916984E-01 -0.94246886795E-01  0.49406541414E-01  0.88710543220E+00  0.88000000000E+00 0. -1.
        -11    1    4    4    0    0  0.19162113599E-01  0.52483578920E-01 -0.45097618812E-01  0.71803683731E-01  0.51100000000E-03 0. -1.
         11    1    4    4    0    0  0.11349447301E-01  0.54751708058E-01 -0.24113160868E-01  0.60895526415E-01  0.51100000000E-03 0.  1.
</event>
<event>
 8    1  0.1123450E+005  0.1043930E+01  0.7957747E-01            NaN
         13   -1    0    0    0    0  0.00000000000E+00  0.00000000000E+00  0.74505805969E-08  0.10566000000E+00  0.10566000000E+00 0.  1.
     999900   -1    0    0    0    0 -0.00000000000E+00 -0.00000000000E+00 -0.74505805969E-08  0.93827000000E+00  0.93827000000E+00 0. -1.
     999902    2    1    2    0    0 -0.19101103557E-01 -0.11657117034E-01 -0.92324396367E-02  0.10197230077E+01  0.10194356448E+01 0.  0.
     999903    2    3    3    0    0 -0.57964791168E-01  0.11319070120E+00 -0.18952932292E-01  0.13000852995E+00  0.19260123728E-01 0.  0.
         14    1    1    2    0    0  0.19101103557E-01  0.11657117034E-01  0.92324396367E-02  0.24206992301E-01  0.00000000000E+00 0.  1.
     999901    1    3    3    0    0  0.38863687612E-01 -0.12484781823E+00  0.97204926549E-02  0.88971447774E+00  0.88000000000E+00 0.  1.
        -11    1    4    4    0    0 -0.12638678814E-01  0.31060988500E-01 -0.13140742754E-01  0.36020292196E-01  0.51100000000E-03 0.  1.
         11    1    4    4    0    0 -0.45326112355E-01  0.82129712696E-01 -0.58121895375E-02  0.93988237758E-01  0.51100000000E-03 0. -1.
</event>
<event>
 8    1  0.1123450E+005  0.1043930E+01  0.7957747E-01            NaN
         13   -1    0    0    0    0  0.00000000000E+00  0.00000000000E+00  0.74505805969E-08  0.10566000000E+00  0.10566000000E+00 0. -1.
     999900   -1    0    0    0    0 -0.00000000000E+00 -0.00000000000E+00 -0.74505805969E-08  0.93827000000E+00  0.93827000000E+00 0. -1.
     999902    2    1    2    0    0  0.62743884896E-02  0.21113645763E-01 -0.59874165111E-02  0.10211045067E+01  0.10208493574E+01 0.  0.
     999903    2    3    3    0    0  0.58806701497E-01 -0.87011124625E-01 -0.75802077100E-01  0.13019222329E+00  0.13224831305E-01 0.  0.
         14    1    1    2    0    0 -0.62743884896E-02 -0.21113645763E-01  0.59874165111E-02  0.22825493309E-01  0.00000000000E+00 0. -1.
     999901    1    3    3    0    0 -0.52532313007E-01  0.10812477039E+00  0.69814660588E-01  0.89091228340E+00  0.88000000000E+00 0.  1.
        -11    1    4    4    0    0  0.12876729224E-01 -0.24536470020E-01 -0.14095775852E-01  0.31093416255E-01  0.51100000000E-03 0.  1.
         11    1    4    4    0    0  0.45929972273E-01 -0.62474654606E-01 -0.61706301248E-01  0.99098807035E-01  0.51100000000E-03 0. -1.
</event>
<event>
 8    1  0.1123450E+005  0.1043930E+01  0.7957747E-01            NaN
         13   -1    0    0    0    0  0.00000000000E+00  0.00000000000E+00  0.74505805969E-08  0.10566000000E+00  0.10566000000E+00 0. -1.
     999900   -1    0    0    0    0 -0.00000000000E+00 -0.00000000000E+00 -0.74505805969E-08  0.93827000000E+00  0.93827000000E+00 0.  1.
     999902    2    1    2    0    0 -0.16252864890E-01  0.92703035935E-02 -0.14831792731E-01  0.10200537310E+01  0.10197742583E+01 0.  0.
     999903    2    3    3    0    0 -0.10839012001E+00 -0.25860561286E-01 -0.70286758477E-01  0.13281154046E+00  0.16777667146E-01 0.  0.
         14    1    1    2    0    0  0.16252864890E-01 -0.92703035935E-02  0.14831792731E-01  0.23876269002E-01  0.00000000000E+00 0. -1.
     999901    1    3    3    0    0  0.92137255125E-01  0.35130864880E-01  0.55454965747E-01  0.88724219054E+00  0.88000000000E+00 0. -1.
        -11    1    4    4    0    0 -0.60624424941E-01 -0.67437005464E-02 -0.42397070117E-01  0.74287085500E-01  0.51100000000E-03 0. -1.
         11    1    4    4    0    0 -0.47765695073E-01 -0.19116860740E-01 -0.27889688360E-01  0.58524454958E-01  0.51100000000E-03 0.  1.
</event>
<event>
 8    1  0.1123450E+005  0.1043930E+01  0.7957747E-01            NaN
         13   -1    0    0    0    0  0.00000000000E+00  0.00000000000E+00  0.74505805969E-08  0.10566000000E+00  0.10566000000E+00 0. -1.
     999900   -1    0    0    0    0 -0.00000000000E+00 -0.00000000000E+00 -0.74505805969E-08  0.93827000000E+00  0.93827000000E+00 0.  1.
     999902    2    1    2    0    0  0.12337741393E-01 -0.73661077639E-02  0.20610053265E-01  0.10188052373E+01  0.10184953892E+01 0.  0.
     999903    2    3    3    0    0  0.74626196475E-01 -0.52321748551E-01  0.94024251221E-01  0.13241339067E+00  0.19649723628E-01 0.  0.
         14    1    1    2    0    0 -0.12337741393E-01  0.73661077639E-02 -0.20610053265E-01  0.25124762722E-01  0.00000000000E+00 0.  1.
     999901    1    3    3    0    0 -0.62288455082E-01  0.44955640787E-01 -0.73414197956E-01  0.88639184661E+00  0.88000000000E+00 0.  1.
        -11    1    4    4    0    0  0.48942143501E-01 -0.25260747920E-01  0.47167932137E-01  0.72515610313E-01  0.51100000000E-03 0.  1.
         11    1    4    4    0    0  0.25684052974E-01 -0.27061000631E-01  0.46856319084E-01  0.59897780355E-01  0.51100000000E-03 0. -1.
</event>
<event>
 8    1  0.1123450E+005  0.1043930E+01  0.7957747E-01            NaN
         13   -1    0    0    0    0  0.00000000000E+00  0.00000000000E+00  0.74505805969E-08  0.10566000000E+00  0.10566000000E+00 0. -1.
     999900   -1    0    0    0    0 -0.00000000000E+00 -0.00000000000E+00 -0.74505805969E-08  0.93827000000E+00  0.93827000000E+00 0.  1.
     999902    2    1    2    0    0 -0.68311662420E-02 -0.99177295382E-02  0.21407565027E-01  0.10193676298E+01  0.10190716631E+01 0.  0.
     999903    2    3    3    0    0 -0.48671196358E-01  0.18734213745E-01  0.12007748932E+00  0.13240242417E+00  0.19797534271E-01 0.  0.
         14    1    1    2    0    0  0.68311662420E-02  0.99177295382E-02 -0.21407565027E-01  0.24562370240E-01  0.00000000000E+00 0.  1.
     999901    1    3    3    0    0  0.41840030116E-01 -0.28651943284E-01 -0.98669924297E-01  0.88696520559E+00  0.88000000000E+00 0.  1.
        -11    1    4    4    0    0 -0.46499694093E-03  0.58388623614E-02  0.12578007551E-01  0.13884377220E-01  0.51100000000E-03 0.  1.
         11    1    4    4    0    0 -0.48206199417E-01  0.12895351384E-01  0.10749948177E+00  0.11851804695E+00  0.51100000000E-03 0. -1.
</event>
<event>
 8    1  0.1123450E+005  0.1043930E+01  0.7957747E-01            NaN
         13   -1    0    0    0    0  0.00000000000E+00  0.00000000000E+00  0.74505805969E-08  0.10566000000E+00  0.10566000000E+00 0. -1.
     999900   -1    0    0    0    0 -0.00000000000E+00 -0.00000000000E+00 -0.74505805969E-08  0.93827000000E+00  0.93827000000E+00 0. -1.
     999902    2    1    2    0    0  0.73257217071E-02 -0.22155346374E-01  0.17097431095E-03  0.10205943019E+01  0.10203274839E+01 0.  0.
     999903    2    3    3    0    0 -0.88745576289E-01  0.89585814893E-01  0.19372429097E-01  0.12813451166E+00  0.11906574949E-01 0.  0.
         14    1    1    2    0    0 -0.73257217071E-02  0.22155346374E-01 -0.17097431095E-03  0.23335698054E-01  0.00000000000E+00 0. -1.
     999901    1    3    3    0    0  0.96071297996E-01 -0.11174116127E+00 -0.19201454786E-01  0.89245979029E+00  0.88000000000E+00 0. -1.
        -11    1    4    4    0    0 -0.20654864046E-01  0.21081583762E-01 -0.50032306927E-03  0.29522330986E-01  0.51100000000E-03 0. -1.
         11    1    4    4    0    0 -0.68090712243E-01  0.68504231131E-01  0.19872752167E-01  0.98612180669E-01  0.51100000000E-03 0.  1.
</event>
<event>
 8    1  0.1123450E+005  0.1043930E+01  0.7957747E-01            NaN
         13   -1    0    0    0    0  0.00000000000E+00  0.00000000000E+00  0.74505805969E-08  0.10566000000E+00  0.10566000000E+00 0.  1.
     999900   -1    0    0    0    0 -0.00000000000E+00 -0.00000000000E+00 -0.74505805969E-08  0.93827000000E+00  0.93827000000E+00 0. -1.
     999902    2    1    2    0    0  0.21682167881E-01 -0.52766236551E-02  0.77084932242E-02  0.10203211028E+01  0.10200479267E+01 0.  0.
     999903    2    3    3    0    0 -0.24084781167E-01 -0.66087027969E-01 -0.10713981163E+00  0.12960080321E+00  0.19231666768E-01 0.  0.
         14    1    1    2    0    0 -0.21682167881E-01  0.52766236551E-02 -0.77084932242E-02  0.23608897243E-01  0.00000000000E+00 0. -1.
     999901    1    3    3    0    0  0.45766949048E-01  0.60810404313E-01  0.11484830486E+00  0.89072029955E+00  0.88000000000E+00 0.  1.
        -11    1    4    4    0    0 -0.85226932593E-02 -0.39975260197E-01 -0.74624644117E-01  0.85086757834E-01  0.51100000000E-03 0.  1.
         11    1    4    4    0    0 -0.15562087907E-01 -0.26111767772E-01 -0.32515167515E-01  0.44514045376E-01  0.51100000000E-03 0. -1.
</event>
<event>
 8    1  0.1123450E+005  0.1043930E+01  0.7957747E-01            NaN
         13   -1    0    0    0    0  0.00000000000E+00  0.00000000000E+00  0.74505805969E-08  0.10566000000E+00  0.10566000000E+00 0. -1.
     999900   -1    0    0    0    0 -0.00000000000E+00 -0.00000000000E+00 -0.74505805969E-08  0.93827000000E+00  0.93827000000E+00 0. -1.
     999902    2    1    2    0    0 -0.19969109431E-01 -0.42196779267E-02 -0.12737875176E-01  0.10198712287E+01  0.10195874159E+01 0.  0.
     999903    2    3    3    0    0 -0.11011600236E+00 -0.24036359424E-01 -0.68367234879E-01  0.13329704181E+00  0.19767195062E-01 0.  0.
         14    1    1    2    0    0  0.19969109431E-01  0.42196779267E-02  0.12737875176E-01  0.24058771317E-01  0.00000000000E+00 0.  1.
     999901    1    3    3    0    0  0.90146892926E-01  0.19816681498E-01  0.55629359703E-01  0.88657418687E+00  0.88000000000E+00 0. -1.
        -11    1    4    4    0    0 -0.90134309604E-01 -0.17754293485E-01 -0.63811887738E-01  0.11185538361E+00  0.51100000000E-03 0.  1.
         11    1    4    4    0    0 -0.19981692753E-01 -0.62820659395E-02 -0.45553471412E-02  0.21441658199E-01  0.51100000000E-03 0. -1.
</event>
<event>
 8    1  0.1123450E+005  0.1043930E+01  0.7957747E-01            NaN
         13   -1    0    0    0    0  0.00000000000E+00  0.00000000000E+00  0.74505805969E-08  0.10566000000E+00  0.10566000000E+00 0.  1.
     999900   -1    0    0    0    0 -0.00000000000E+00 -0.00000000000E+00 -0.74505805969E-08  0.93827000000E+00  0.93827000000E+00 0.  1.
     999902    2    1    2    0    0 -0.24430404258E-02  0.22513012492E-01  0.58796221872E-02  0.10205339718E+01  0.10202657563E+01 0.  0.
     999903    2    3    3    0    0  0.71642251370E-01 -0.10502878821E+00 -0.93545957539E-02  0.12812844584E+00  0.12873679984E-01 0.  0.
         14    1    1    2    0    0  0.24430404258E-02 -0.22513012492E-01 -0.58796221872E-02  0.23396028190E-01  0.00000000000E+00 0. -1.
     999901    1    3    3    0    0 -0.74085291795E-01  0.12754180071E+00  0.15234217941E-01  0.89240552597E+00  0.88000000000E+00 0. -1.
        -11    1    4    4    0    0  0.36368356440E-01 -0.59016849683E-01  0.44888755169E-03  0.69326102715E-01  0.51100000000E-03 0. -1.
         11    1    4    4    0    0  0.35273894930E-01 -0.46011938531E-01 -0.98034833056E-02  0.58802343123E-01  0.51100000000E-03 0.  1.
</event>
<event>
 8    1  0.1123450E+005  0.1043930E+01  0.7957747E-01            NaN
         13   -1    0    0    0    0  0.00000000000E+00  0.00000000000E+00  0.74505805969E-08  0.10566000000E+00  0.10566000000E+00 0. -1.
     999900   -1    0    0    0    0 -0.00000000000E+00 -0.00000000000E+00 -0.74505805969E-08  0.93827000000E+00  0.93827000000E+00 0. -1.
     999902    2    1    2    0    0 -0.13252380609E-01 -0.13170836677E-01 -0.13455644344E-01  0.10209049941E+01  0.10206453136E+01 0.  0.
     999903    2    3    3    0    0  0.87497446841E-01 -0.95324107494E-01 -0.74979787133E-02  0.13133477126E+00  0.21215885186E-01 0.  0.
         14    1    1    2    0    0  0.13252380609E-01  0.13170836677E-01  0.13455644344E-01  0.23025005870E-01  0.00000000000E+00 0. -1.
     999901    1    3    3    0    0 -0.10074982745E+00  0.82153270817E-01 -0.59576656310E-02  0.88957022287E+00  0.88000000000E+00 0. -1.
        -11    1    4    4    0    0  0.46804590299E-01 -0.46554307485E-01  0.63569888566E-02  0.66322286200E-01  0.51100000000E-03 0. -1.
         11    1    4    4    0    0  0.40692856541E-01 -0.48769800008E-01 -0.13854967570E-01  0.65012485060E-01  0.51100000000E-03 0.  1.
</event>
<event>
 8    1  0.1123450E+005  0.1043930E+01  0.7957747E-01            NaN
         13   -1    0    0    0    0  0.00000000000E+00  0.00000000000E+00  0.74505805969E-08  0.10566000000E+00  0.10566000000E+00 0. -1.
     999900   -1    0    0    0    0 -0.00000000000E+00 -0.00000000000E+00 -0.74505805969E-08  0.93827000000E+00  0.93827000000E+00 0. -1.
     999902    2    1    2    0    0 -0.15835439651E-01  0.13434069730E-02  0.14390454232E-01  0.10224905256E+01  0.10222657305E+01 0.  0.
     999903    2    3    3    0    0 -0.33359784918E-01 -0.62243369524E-01 -0.10911061148E+00  0.13142212524E+00  0.19481713586E-01 0.  0.
         14    1    1    2    0    0  0.15835439651E-01 -0.13434069730E-02 -0.14390454232E-01  0.21439474440E-01  0.00000000000E+00 0.  1.
     999901    1    3    3    0    0  0.17524345266E-01  0.63586776497E-01  0.12350106571E+00  0.89106840032E+00  0.88000000000E+00 0.  1.
        -11    1    4    4    0    0 -0.23505348751E-01 -0.23785854599E-01 -0.53482916671E-01  0.63078933057E-01  0.51100000000E-03 0. -1.
         11    1    4    4    0    0 -0.98544361668E-02 -0.38457514925E-01 -0.55627694811E-01  0.68343192180E-01  0.51100000000E-03 0.  1.
</event>
<event>
 8    1  0.1123450E+005  0.1043930E+01  0.7957747E-01            NaN
         13   -1    0    0    0    0  0.00000000000E+00  0.00000000000E+00  0.74505805969E-08  0.10566000000E+00  0.10566000000E+00 0.  1.
     999900   -1    0    0    0    0 -0.00000000000E+00 -0.00000000000E+00 -0.74505805969E-08  0.93827000000E+00  0.93827000000E+00 0.  1.
     999902    2    1    2    0    0 -0.18604895843E-01 -0.13876482165E-01  0.61073248647E-02  0.10199300349E+01  0.10196476243E+01 0.  0.
     999903    2    3    3    0    0 -0.13605572854E-01  0.36218985728E-01 -0.12158648677E+00  0.12928967054E+00  0.20871478275E-01 0.  0.
         14    1    1    2    0    0  0.18604895843E-01  0.13876482165E-01 -0.61073248647E-02  0.23999965075E-01  0.00000000000E+00 0. -1.
     999901    1    3    3    0    0 -0.49993229895E-02 -0.50095467893E-01  0.12769381163E+00  0.89064036438E+00  0.88000000000E+00 0. -1.
        -11    1    4    4    0    0 -0.19048024287E-01  0.29898092379E-01 -0.93936462489E-01  0.10040439862E+00  0.51100000000E-03 0.  1.
         11    1    4    4    0    0  0.54424514339E-02  0.63208933492E-02 -0.27650024278E-01  0.28885271920E-01  0.51100000000E-03 0. -1.
</event>
<event>
 8    1  0.1123450E+005  0.1043930E+01  0.7957747E-01            NaN
         13   -1    0    0    0    0  0.00000000000E+00  0.00000000000E+00  0.74505805969E-08  0.10566000000E+00  0.10566000000E+00 0. -1.
     999900   -1    0    0    0    0 -0.00000000000E+00 -0.00000000000E+00 -0.74505805969E-08  0.93827000000E+00  0.93827000000E+00 0. -1.
     999902    2    1    2    0    0  0.23606855426E-01 -0.22801383746E-02  0.17543042931E-02  0.10201484896E+01  0.10198712569E+01 0.  0.
     999903    2    3    3    0    0 -0.47849596876E-01  0.11182614682E+00  0.39528279109E-01  0.12910800674E+00  0.17655637068E-01 0.  0.
         14    1    1    2    0    0 -0.23606855426E-01  0.22801383746E-02 -0.17543042931E-02  0.23781510416E-01  0.00000000000E+00 0. -1.
     999901    1    3    3    0    0  0.71456452302E-01 -0.11410628520E+00 -0.37773974816E-01  0.89104048285E+00  0.88000000000E+00 0.  1.
        -11    1    4    4    0    0 -0.39842550251E-01  0.10374108024E+00  0.32759019040E-01  0.11585790862E+00  0.51100000000E-03 0.  1.
         11    1    4    4    0    0 -0.80070466250E-02  0.80850665801E-02  0.67692600692E-02  0.13250098118E-01  0.51100000000E-03 0. -1.
</event>
<event>
 8    1  0.1123450E+005  0.1043930E+01  0.7957747E-01            NaN
         13   -1    0    0    0    0  0.00000000000E+00  0.00000000000E+00  0.74505805969E-08  0.10566000000E+00  0.10566000000E+00 0. -1.
     999900   -1    0    0    0    0 -0.00000000000E+00 -0.00000000000E+00 -0.74505805969E-08  0.93827000000E+00  0.93827000000E+00 0. -1.
     999902    2    1    2    0    0  0.22243566824E-01 -0.78764401162E-02  0.67938454710E-03  0.10203233031E+01  0.10200501786E+01 0.  0.
     999903    2    3    3    0    0  0.11677019013E-01  0.88505651410E-01 -0.92441832114E-01  0.13011393422E+00  0.20360266407E-01 0.  0.
         14    1    1    2    0    0 -0.22243566824E-01  0.78764401162E-02 -0.67938454710E-03  0.23606696875E-01  0.00000000000E+00 0. -1.
     999901    1    3    3    0    0  0.10566547812E-01 -0.96382091526E-01  0.93121216661E-01  0.89020936891E+00  0.88000000000E+00 0.  1.
        -11    1    4    4    0    0  0.13367063147E-01  0.32293406862E-01 -0.41207526508E-01  0.54035764692E-01  0.51100000000E-03 0. -1.
         11    1    4    4    0    0 -0.16900441338E-02  0.56212244548E-01 -0.51234305607E-01  0.76078169525E-01  0.51100000000E-03 0.  1.
</event>
<event>
 8    1  0.1123450E+005  0.1043930E+01  0.7957747E-01            NaN
         13   -1    0    0    0    0  0.00000000000E+00  0.00000000000E+00  0.74505805969E-08  0.10566000000E+00  0.10566000000E+00 0. -1.
     999900   -1    0    0    0    0 -0.00000000000E+00 -0.00000000000E+00 -0.74505805969E-08  0.93827000000E+00  0.93827000000E+00 0.  1.
     999902    2    1    2    0    0  0.46564774249E-02 -0.20450916256E-01 -0.10816573855E-01  0.10203308257E+01  0.10200578772E+01 0.  0.
     999903    2    3    3    0    0  0.80916241615E-01 -0.82019949193E-01  0.60131159474E-01  0.13205165882E+00  0.23391751414E-01 0.  0.
         14    1    1    2    0    0 -0.46564774249E-02  0.20450916256E-01  0.10816573855E-01  0.23599174301E-01  0.00000000000E+00 0. -1.
     999901    1    3    3    0    0 -0.76259764190E-01  0.61569032937E-01 -0.70947733329E-01  0.88827916688E+00  0.88000000000E+00 0. -1.
        -11    1    4    4    0    0  0.19840087685E-01 -0.13393339420E-01  0.22224865342E-01  0.32668277895E-01  0.51100000000E-03 0. -1.
         11    1    4    4    0    0  0.61076153930E-01 -0.68626609773E-01  0.37906294132E-01  0.99383380923E-01  0.51100000000E-03 0.  1.
</event>
<event>
 8    1  0.1123450E+005  0.1043930E+01  0.7957747E-01            NaN
         13   -1    0    0    0    0  0.00000000000E+00  0.00000000000E+00  0.74505805969E-08  0.10566000000E+00  0.10566000000E+00 0. -1.
     999900   -1    0    0    0    0 -0.00000000000E+00 -0.00000000000E+00 -0.74505805969E-08  0.93827000000E+00  0.93827000000E+00 0.  1.
     999902    2    1    2    0    0  0.56966839433E-02 -0.24559089801E-01  0.18374159086E-02  0.10186520017E+01  0.10183383148E+01 0.  0.
     999903    2    3    3    0    0  0.25297514784E-01  0.11091528105E+00  0.52830847744E-01  0.12661061937E+00  0.17233300351E-01 0.  0.
         14    1    1    2    0    0 -0.56966839433E-02  0.24559089801E-01 -0.18374159086E-02  0.25277998280E-01  0.00000000000E+00 0. -1.
     999901    1    3    3    0    0 -0.19600830841E-01 -0.13547437085E+00 -0.50993431836E-01  0.89204138235E+00  0.88000000000E+00 0.  1.
        -11    1    4    4    0    0  0.17178925524E-01  0.60547001230E-01  0.37817224255E-01  0.73426551134E-01  0.51100000000E-03 0.  1.
         11    1    4    4    0    0  0.81185892601E-02  0.50368279818E-01  0.15013623489E-01  0.53184068241E-01  0.51100000000E-03 0. -1.
</event>
<event>
 8    1  0.1123450E+005  0.1043930E+01  0.7957747E-01            NaN
         13   -1    0    0    0    0  0.00000000000E+00  0.00000000000E+00  0.74505805969E-08  0.10566000000E+00  0.10566000000E+00 0.  1.
     999900   -1    0    0    0    0 -0.00000000000E+00 -0.00000000000E+00 -0.74505805969E-08  0.93827000000E+00  0.93827000000E+00 0. -1.
     999902    2    1    2    0    0  0.11668788271E-01 -0.13860442310E-01 -0.13043477946E-01  0.10216050185E+01  0.10213610572E+01 0.  0.
     999903    2    3    3    0    0 -0.99825315861E-01  0.79928513380E-01  0.92067138296E-03  0.12951628924E+00  0.20492940340E-01 0.  0.
         14    1    1    2    0    0 -0.11668788271E-01  0.13860442310E-01  0.13043477946E-01  0.22324981471E-01  0.00000000000E+00 0.  1.
     999901    1    3    3    0    0  0.11149410413E+00 -0.93788955690E-01 -0.13964149329E-01  0.89208872929E+00  0.88000000000E+00 0.  1.
        -11    1    4    4    0    0 -0.12696434039E-01  0.17729223703E-01  0.50260672220E-02  0.22384085489E-01  0.51100000000E-03 0.  1.
         11    1    4    4    0    0 -0.87128881822E-01  0.62199289676E-01 -0.41053958391E-02  0.10713220375E+00  0.51100000000E-03 0. -1.
</event>
<event>
 8    1  0.1123450E+005  0.1043930E+01  0.7957747E-01            NaN
         13   -1    0    0    0    0  0.00000000000E+00  0.00000000000E+00  0.74505805969E-08  0.10566000000E+00  0.10566000000E+00 0.  1.
     999900   -1    0    0    0    0 -0.00000000000E+00 -0.00000000000E+00 -0.74505805969E-08  0.93827000000E+00  0.93827000000E+00 0. -1.
     999902    2    1    2    0    0 -0.21987185340E-02  0.19755177119E-01 -0.13308905153E-01  0.10200087052E+01  0.10197281650E+01 0.  0.
     999903    2    3    3    0    0  0.12026206292E-02  0.35353062620E-01  0.12380960410E+00  0.12924703751E+00  0.11166615590E-01 0.  0.
         14    1    1    2    0    0  0.21987185340E-02 -0.19755177119E-01  0.13308905153E-01  0.23921294751E-01  0.00000000000E+00 0.  1.
     999901    1    3    3    0    0 -0.34013391632E-02 -0.15597885501E-01 -0.13711850925E+00  0.89076166774E+00  0.88000000000E+00 0. -1.
        -11    1    4    4    0    0  0.26342630409E-02  0.21194574667E-02  0.18300862078E-01  0.18617575447E-01  0.51100000000E-03 0.  1.
         11    1    4    4    0    0 -0.14316424117E-02  0.33233605153E-01  0.10550874202E+00  0.11062946206E+00  0.51100000000E-03 0. -1.
</event>
<event>
 8    1  0.1123450E+005  0.1043930E+01  0.7957747E-01            NaN
         13   -1    0    0    0    0  0.00000000000E+00  0.00000000000E+00  0.74505805969E-08  0.10566000000E+00  0.10566000000E+00 0.  1.
     999900   -1    0    0    0    0 -0.00000000000E+00 -0.00000000000E+00 -0.74505805969E-08  0.93827000000E+00  0.93827000000E+00 0.  1.
     999902    2    1    2    0    0 -0.17010393459E-01  0.37872551521E-02  0.15773989526E-01  0.10204243510E+01  0.10201535868E+01 0.  0.
     999903    2    3    3    0    0  0.96870700546E-01  0.43499945109E-01  0.72858217218E-01  0.13036558312E+00  0.20265428601E-01 0.  0.
         14    1    1    2    0    0  0.17010393459E-01 -0.37872551521E-02 -0.15773989526E-01  0.23505648955E-01  0.00000000000E+00 0. -1.
     999901    1    3    3    0    0 -0.11388109401E+00 -0.39712689957E-01 -0.57084227692E-01  0.89005876793E+00  0.88000000000E+00 0.  1.
        -11    1    4    4    0    0  0.18401206313E-01  0.16082795494E-01  0.22212253337E-01  0.33028866526E-01  0.51100000000E-03 0.  1.
         11    1    4    4    0    0  0.78469494233E-01  0.27417149615E-01  0.50645963880E-01  0.97336716591E-01  0.51100000000E-03 0. -1.
</event>
<event>
 8    1  0.1123450E+005  0.1043930E+01  0.7957747E-01            NaN
         13   -1    0    0    0    0  0.00000000000E+00  0.00000000000E+00  0.74505805969E-08  0.10566000000E+00  0.10566000000E+00 0. -1.
     999900   -1    0    0    0    0 -0.00000000000E+00 -0.00000000000E+00 -0.74505805969E-08  0.93827000000E+00  0.93827000000E+00 0. -1.
     999902    2    1    2    0    0  0.55539988767E-02 -0.13630662801E-01 -0.19666154429E-01  0.10193658085E+01  0.10190697975E+01 0.  0.
     999903    2    3    3    0    0 -0.11690074116E+00  0.62599406227E-02 -0.52945814170E-01  0.13004115735E+00  0.20061735404E-01 0.  0.
         14    1    1    2    0    0 -0.55539988767E-02  0.13630662801E-01  0.19666154429E-01  0.24564191457E-01  0.00000000000E+00 0.  1.
     999901    1    3    3    0    0  0.12245474004E+00 -0.19890603424E-01  0.33279659741E-01  0.88932465119E+00  0.88000000000E+00 0.  1.
        -11    1    4    4    0    0 -0.39474820819E-01 -0.34339026480E-03 -0.28094129946E-01  0.48455347011E-01  0.51100000000E-03 0. -1.
         11    1    4    4    0    0 -0.77425920340E-01  0.66033308874E-02 -0.24851684224E-01  0.81585810342E-01  0.51100000000E-03 0.  1.
</event>
<event>
 8    1  0.1123450E+005  0.1043930E+01  0.7957747E-01            NaN
         13   -1    0    0    0    0  0.00000000000E+00  0.00000000000E+00  0.74505805969E-08  0.10566000000E+00  0.10566000000E+00 0. -1.
     999900   -1    0    0    0    0 -0.00000000000E+00 -0.00000000000E+00 -0.74505805969E-08  0.93827000000E+00  0.93827000000E+00 0. -1.
     999902    2    1    2    0    0 -0.13046061772E-01 -0.64088377759E-02 -0.19569526851E-01  0.10195529758E+01  0.10192615126E+01 0.  0.
     999903    2    3    3    0    0 -0.41407870628E-01 -0.11225715514E+00 -0.44859360051E-01  0.13239581147E+00  0.34641132801E-01 0.  0.
         14    1    1    2    0    0  0.13046061772E-01  0.64088377759E-02  0.19569526851E-01  0.24377024236E-01  0.00000000000E+00 0. -1.
     999901    1    3    3    0    0  0.28361808856E-01  0.10584831736E+00  0.25289833200E-01  0.88715716429E+00  0.88000000000E+00 0.  1.
        -11    1    4    4    0    0 -0.24214179934E-01 -0.67232294787E-01 -0.44521591539E-01  0.84195850292E-01  0.51100000000E-03 0. -1.
         11    1    4    4    0    0 -0.17193690694E-01 -0.45024860351E-01 -0.33776851259E-03  0.48199961181E-01  0.51100000000E-03 0.  1.
</event>
<event>
 8    1  0.1123450E+005  0.1043930E+01  0.7957747E-01            NaN
         13   -1    0    0    0    0  0.00000000000E+00  0.00000000000E+00  0.74505805969E-08  0.10566000000E+00  0.10566000000E+00 0.  1.
     999900   -1    0    0    0    0 -0.00000000000E+00 -0.00000000000E+00 -0.74505805969E-08  0.93827000000E+00  0.93827000000E+00 0. -1.
     999902    2    1    2    0    0 -0.36835588638E-02 -0.10698209665E-01  0.24183584708E-01  0.10172304482E+01  0.10168799923E+01 0.  0.
     999903    2    3    3    0    0  0.11874926300E+00  0.13455553526E-01 -0.36222136533E-01  0.12637577359E+00  0.19399834871E-01 0.  0.
         14    1    1    2    0    0  0.36835588638E-02  0.10698209665E-01 -0.24183584708E-01  0.26699551780E-01  0.00000000000E+00 0. -1.
     999901    1    3    3    0    0 -0.12243282186E+00 -0.24153763191E-01  0.60405721241E-01  0.89085467463E+00  0.88000000000E+00 0.  1.
        -11    1    4    4    0    0  0.65019243800E-01  0.11520263115E-01 -0.29016052977E-01  0.72127740696E-01  0.51100000000E-03 0. -1.
         11    1    4    4    0    0  0.53730019198E-01  0.19352904108E-02 -0.72060835563E-02  0.54248032897E-01  0.51100000000E-03 0.  1.
</event>
<event>
 8    1  0.1123450E+005  0.1043930E+01  0.7957747E-01            NaN
         13   -1    0    0    0    0  0.00000000000E+00  0.00000000000E+00  0.74505805969E-08  0.10566000000E+00  0.10566000000E+00 0. -1.
     999900   -1    0    0    0    0 -0.00000000000E+00 -0.00000000000E+00 -0.74505805969E-08  0.93827000000E+00  0.93827000000E+00 0. -1.
     999902    2    1    2    0    0  0.12289344076E-01 -0.96775117969E-02 -0.20870952311E-01  0.10178478440E+01  0.10175136140E+01 0.  0.
     999903    2    3    3    0    0  0.40326697081E-01  0.11547993756E+00  0.28494900091E-01  0.12718097714E+00  0.20029556646E-01 0.  0.
         14    1    1    2    0    0 -0.12289344076E-01  0.96775117969E-02  0.20870952311E-01  0.26082156022E-01  0.00000000000E+00 0.  1.
     999901    1    3    3    0    0 -0.28037353005E-01 -0.12515744936E+00 -0.49365852402E-01  0.89066686683E+00  0.88000000000E+00 0. -1.
        -11    1    4    4    0    0  0.12092694300E-01  0.29252164034E-01  0.16373588058E-01  0.35640957661E-01  0.51100000000E-03 0. -1.
         11    1    4    4    0    0  0.28234002781E-01  0.86227773527E-01  0.12121312033E-01  0.91540019483E-01  0.51100000000E-03 0.  1.
</event>
<event>
 8    1  0.1123450E+005  0.1043930E+01  0.7957747E-01            NaN
         13   -1    0    0    0    0  0.00000000000E+00  0.00000000000E+00  0.74505805969E-08  0.10566000000E+00  0.10566000000E+00 0.  1.
     999900   -1    0    0    0    0 -0.00000000000E+00 -0.00000000000E+00 -0.74505805969E-08  0.93827000000E+00  0.93827000000E+00 0. -1.
     999902    2    1    2    0    0 -0.14445512565E-01 -0.51806214341E-02  0.17950857837E-01  0.10203133752E+01  0.10200400181E+01 0.  0.
     999903    2    3    3    0    0 -0.94937637956E-02 -0.10106356626E+00 -0.78596248480E-01  0.12984192550E+00  0.19431401561E-01 0.  0.
         14    1    1    2    0    0  0.14445512565E-01  0.51806214341E-02 -0.17950857837E-01  0.23616624839E-01  0.00000000000E+00 0. -1.
     999901    1    3    3    0    0 -0.49517487698E-02  0.95882944823E-01  0.96547106317E-01  0.89047144966E+00  0.88000000000E+00 0.  1.
        -11    1    4    4    0    0  0.30855712354E-02 -0.55517419252E-01 -0.48765172293E-01  0.73959500675E-01  0.51100000000E-03 0. -1.
         11    1    4    4    0    0 -0.12579335031E-01 -0.45546147005E-01 -0.29831076187E-01  0.55882424825E-01  0.51100000000E-03 0.  1.
</event>
<event>
 8    1  0.1123450E+005  0.1043930E+01  0.7957747E-01            NaN
         13   -1    0    0    0    0  0.00000000000E+00  0.00000000000E+00  0.74505805969E-08  0.10566000000E+00  0.10566000000E+00 0.  1.
     999900   -1    0    0    0    0 -0.00000000000E+00 -0.00000000000E+00 -0.74505805969E-08  0.93827000000E+00  0.93827000000E+00 0.  1.
     999902    2    1    2    0    0 -0.14965199409E-01 -0.99023156628E-02 -0.14630624383E-01  0.10207768529E+01  0.10205142406E+01 0.  0.
     999903    2    3    3    0    0  0.70248194024E-01  0.34501831693E-01  0.99037417046E-01  0.12827840792E+00  0.22841952845E-01 0.  0.
         14    1    1    2    0    0  0.14965199409E-01  0.99023156628E-02  0.14630624383E-01  0.23153147058E-01  0.00000000000E+00 0.  1.
     999901    1    3    3    0    0 -0.85213393432E-01 -0.44404147356E-01 -0.11366804143E+00  0.89249844502E+00  0.88000000000E+00 0. -1.
        -11    1    4    4    0    0  0.21902276767E-01  0.18631647666E-01  0.49578971851E-01  0.57316521118E-01  0.51100000000E-03 0. -1.
         11    1    4    4    0    0  0.48345917257E-01  0.15870184027E-01  0.49458445196E-01  0.70961886803E-01  0.51100000000E-03 0.  1.
</event>
<event>
 8    1  0.1123450E+005  0.1043930E+01  0.7957747E-01            NaN
         13   -1    0    0    0    0  0.00000000000E+00  0.00000000000E+00  0.74505805969E-08  0.10566000000E+00  0.10566000000E+00 0.  1.
     999900   -1    0    0    0    0 -0.00000000000E+00 -0.00000000000E+00 -0.74505805969E-08  0.93827000000E+00  0.93827000000E+00 0. -1.
     999902    2    1    2    0    0  0.15937335466E-02 -0.21954827719E-01 -0.94654978257E-02  0.10199685707E+01  0.10196870770E+01 0.  0.
     999903    2    3    3    0    0 -0.62290157646E-01 -0.94107083447E-01 -0.67085658773E-01  0.13283431785E+00  0.20205531224E-01 0.  0.
         14    1    1    2    0    0 -0.15937335466E-02  0.21954827719E-01  0.94654978257E-02  0.23961429337E-01  0.00000000000E+00 0.  1.
     999901    1    3    3    0    0  0.63883891192E-01  0.72152255728E-01  0.57620160947E-01  0.88713425281E+00  0.88000000000E+00 0.  1.
        -11    1    4    4    0    0 -0.59370786723E-01 -0.94055712121E-01 -0.63140831876E-01  0.12789993381E+00  0.51100000000E-03 0. -1.
         11    1    4    4    0    0 -0.29193709231E-02 -0.51371326572E-04 -0.39448268971E-02  0.49343840394E-02  0.51100000000E-03 0.  1.
</event>
<event>
 8    1  0.1123450E+005  0.1043930E+01  0.7957747E-01            NaN
         13   -1    0    0    0    0  0.00000000000E+00  0.00000000000E+00  0.74505805969E-08  0.10566000000E+00  0.10566000000E+00 0. -1.
     999900   -1    0    0    0    0 -0.00000000000E+00 -0.00000000000E+00 -0.74505805969E-08  0.93827000000E+00  0.93827000000E+00 0.  1.
     999902    2    1    2    0    0  0.22164867193E-02 -0.10893617355E-01 -0.17755978648E-01  0.10229810504E+01  0.10227665281E+01 0.  0.
     999903    2    3    3    0    0 -0.28717382629E-01  0.11740369033E+00 -0.50619830632E-01  0.13253333367E+00  0.19859574836E-01 0.  0.
         14    1    1    2    0    0 -0.22164867193E-02  0.10893617355E-01  0.17755978648E-01  0.20948949621E-01  0.00000000000E+00 0. -1.
     999901    1    3    3    0    0  0.30933869348E-01 -0.12829730768E+00  0.32863851984E-01  0.89044771671E+00  0.88000000000E+00 0.  1.
        -11    1    4    4    0    0 -0.15839991238E-03  0.36226998925E-01 -0.18482507654E-01  0.40672899476E-01  0.51100000000E-03 0. -1.
         11    1    4    4    0    0 -0.28558982716E-01  0.81176691400E-01 -0.32137322978E-01  0.91860434191E-01  0.51100000000E-03 0.  1.
</event>
<event>
 8    1  0.1123450E+005  0.1043930E+01  0.7957747E-01            NaN
         13   -1    0    0    0    0  0.00000000000E+00  0.00000000000E+00  0.74505805969E-08  0.10566000000E+00  0.10566000000E+00 0. -1.
     999900   -1    0    0    0    0 -0.00000000000E+00 -0.00000000000E+00 -0.74505805969E-08  0.93827000000E+00  0.93827000000E+00 0. -1.
     999902    2    1    2    0    0 -0.17661403778E-02 -0.15918265144E-01  0.17925570093E-01  0.10198917704E+01  0.10196084479E+01 0.  0.
     999903    2    3    3    0    0 -0.47646865821E-02  0.11118107633E+00  0.62910683632E-01  0.12961827633E+00  0.21429173357E-01 0.  0.
         14    1    1    2    0    0  0.17661403778E-02  0.15918265144E-01 -0.17925570093E-01  0.24038229556E-01  0.00000000000E+00 0.  1.
     999901    1    3    3    0    0  0.29985462044E-02 -0.12709934148E+00 -0.44985113540E-01  0.89027349411E+00  0.88000000000E+00 0.  1.
        -11    1    4    4    0    0 -0.11276758629E-01  0.97588621804E-01  0.55049158083E-01  0.11261161271E+00  0.51100000000E-03 0.  1.
         11    1    4    4    0    0  0.65120720466E-02  0.13592454528E-01  0.78615255496E-02  0.17006663617E-01  0.51100000000E-03 0. -1.
</event>
<event>
 8    1  0.1123450E+005  0.1043930E+01  0.7957747E-01            NaN
         13   -1    0    0    0    0  0.00000000000E+00  0.00000000000E+00  0.74505805969E-08  0.10566000000E+00  0.10566000000E+00 0.  1.
     999900   -1    0    0    0    0 -0.00000000000E+00 -0.00000000000E+00 -0.74505805969E-08  0.93827000000E+00  0.93827000000E+00 0. -1.
     999902    2    1    2    0    0  0.20503834153E-01 -0.57301236000E-02 -0.26060368713E-02  0.10224816210E+01  0.10222566373E+01 0.  0.
     999903    2    3    3    0    0 -0.91463655979E-01  0.81955082984E-01 -0.37755483116E-01  0.13037125911E+00  0.22112275006E-01 0.  0.
         14    1    1    2    0    0 -0.20503834153E-01  0.57301236000E-02  0.26060368713E-02  0.21448378951E-01  0.00000000000E+00 0. -1.
     999901    1    3    3    0    0  0.11196749013E+00 -0.87685206584E-01  0.35149446245E-01  0.89211036193E+00  0.88000000000E+00 0.  1.
        -11    1    4    4    0    0 -0.88547870930E-01  0.75614896463E-01 -0.39842924544E-01  0.12306932100E+00  0.51100000000E-03 0.  1.
         11    1    4    4    0    0 -0.29157850488E-02  0.63401865211E-02  0.20874414274E-02  0.73019381185E-02  0.51100000000E-03 0. -1.
</event>
<event>
 8    1  0.1123450E+005  0.1043930E+01  0.7957747E-01            NaN
         13   -1    0    0    0    0  0.00000000000E+00  0.00000000000E+00  0.74505805969E-08  0.10566000000E+00  0.10566000000E+00 0. -1.
     999900   -1    0    0    0    0 -0.00000000000E+00 -0.00000000000E+00 -0.74505805969E-08  0.93827000000E+00  0.93827000000E+00 0. -1.
     999902    2    1    2    0    0  0.14711905485E-01  0.29941207292E-02  0.17913857497E-01  0.10205566987E+01  0.10202890101E+01 0.  0.
     999903    2    3    3    0    0  0.61115625524E-01  0.91466618584E-01 -0.66948837512E-01  0.13084755237E+00  0.23187779502E-01 0.  0.
         14    1    1    2    0    0 -0.14711905485E-01 -0.29941207292E-02 -0.17913857497E-01  0.23373301273E-01  0.00000000000E+00 0. -1.
     999901    1    3    3    0    0 -0.46403720038E-01 -0.88472497855E-01  0.84862695009E-01  0.88970914636E+00  0.88000000000E+00 0.  1.
        -11    1    4    4    0    0  0.35807873076E-01  0.70047396216E-01 -0.40817584525E-01  0.88629441036E-01  0.51100000000E-03 0.  1.
         11    1    4    4    0    0  0.25307752448E-01  0.21419222368E-01 -0.26131252987E-01  0.42218111333E-01  0.51100000000E-03 0. -1.
</event>
<event>
 8    1  0.1123450E+005  0.1043930E+01  0.7957747E-01            NaN
         13   -1    0    0    0    0  0.00000000000E+00  0.00000000000E+00  0.74505805969E-08  0.10566000000E+00  0.10566000000E+00 0. -1.
     999900   -1    0    0    0    0 -0.00000000000E+00 -0.00000000000E+00 -0.74505805969E-08  0.93827000000E+00  0.93827000000E+00 0.  1.
     999902    2    1    2    0    0 -0.41293644595E-03  0.22810286791E-01  0.71141439038E-02  0.10200324950E+01  0.10197525191E+01 0.  0.
     999903    2    3    3    0    0 -0.11073218928E+00  0.49607124997E-01  0.49224743778E-01  0.13174103909E+00  0.14496254264E-01 0.  0.
         14    1    1    2    0    0  0.41293644595E-03 -0.22810286791E-01 -0.71141439038E-02  0.23897504963E-01  0.00000000000E+00 0. -1.
     999901    1    3    3    0    0  0.11031925283E+00 -0.26796838206E-01 -0.42110599874E-01  0.88829145595E+00  0.88000000000E+00 0. -1.
        -11    1    4    4    0    0 -0.88092658401E-01  0.39947182672E-01  0.32768513460E-01  0.10212801018E+00  0.51100000000E-03 0. -1.
         11    1    4    4    0    0 -0.22639530879E-01  0.96599423250E-02  0.16456230318E-01  0.29613028914E-01  0.51100000000E-03 0.  1.
</event>
<event>
 8    1  0.1123450E+005  0.1043930E+01  0.7957747E-01            NaN
         13   -1    0    0    0    0  0.00000000000E+00  0.00000000000E+00  0.74505805969E-08  0.10566000000E+00  0.10566000000E+00 0.  1.
     999900   -1    0    0    0    0 -0.00000000000E+00 -0.00000000000E+00 -0.74505805969E-08  0.93827000000E+00  0.93827000000E+00 0. -1.
     999902    2    1    2    0    0  0.73313547059E-02 -0.21529522601E-01  0.45276825229E-02  0.10207401528E+01  0.10204766977E+01 0.  0.
     999903    2    3    3    0    0  0.29812496091E-01  0.24160502694E-01 -0.12273626201E+00  0.13012851367E+00  0.19917962871E-01 0.  0.
         14    1    1    2    0    0 -0.73313547059E-02  0.21529522601E-01 -0.45276825229E-02  0.23189847224E-01  0.00000000000E+00 0.  1.
     999901    1    3    3    0    0 -0.22481141385E-01 -0.45690025295E-01  0.12726394453E+00  0.89061163910E+00  0.88000000000E+00 0.  1.
        -11    1    4    4    0    0  0.66426686783E-02 -0.31548986493E-02 -0.23154128441E-01  0.24299243147E-01  0.51100000000E-03 0.  1.
         11    1    4    4    0    0  0.23169827413E-01  0.27315401343E-01 -0.99582133569E-01  0.10582927053E+00  0.51100000000E-03 0. -1.
</event>
<event>
 8    1  0.1123450E+005  0.1043930E+01  0.7957747E-01            NaN
         13   -1    0    0    0    0  0.00000000000E+00  0.00000000000E+00  0.74505805969E-08  0.10566000000E+00  0.10566000000E+00 0. -1.
     999900   -1    0    0    0    0 -0.00000000000E+00 -0.00000000000E+00 -0.74505805969E-08  0.93827000000E+00  0.93827000000E+00 0. -1.
     999902    2    1    2    0    0  0.96413387482E-02  0.20967736057E-01 -0.25757875164E-02  0.10207085433E+01  0.10204443612E+01 0.  0.
     999903    2    3    3    0    0 -0.46575398371E-01 -0.91841378734E-01  0.74206159697E-01  0.12841840816E+00  0.19509660087E-01 0.  0.
         14    1    1    2    0    0 -0.96413387482E-02 -0.20967736057E-01  0.25757875164E-02  0.23221456663E-01  0.00000000000E+00 0.  1.
     999901    1    3    3    0    0  0.56216737119E-01  0.11280911479E+00 -0.76781947214E-01  0.89229013517E+00  0.88000000000E+00 0. -1.
        -11    1    4    4    0    0 -0.37731200364E-01 -0.58941942678E-01  0.56932826382E-01  0.90218645126E-01  0.51100000000E-03 0. -1.
         11    1    4    4    0    0 -0.88441980074E-02 -0.32899436057E-01  0.17273333316E-01  0.38199763037E-01  0.51100000000E-03 0.  1.
</event>
<event>
 8    1  0.1123450E+005  0.1043930E+01  0.7957747E-01            NaN
         13   -1    0    0    0    0  0.00000000000E+00  0.00000000000E+00  0.74505805969E-08  0.10566000000E+00  0.10566000000E+00 0.  1.
     999900   -1    0    0    0    0 -0.00000000000E+00 -0.00000000000E+00 -0.74505805969E-08  0.93827000000E+00  0.93827000000E+00 0.  1.
     999902    2    1    2    0    0 -0.23493615521E-02 -0.23216620863E-01  0.43639164090E-02  0.10201902706E+01  0.10199140226E+01 0.  0.
     999903    2    3    3    0    0 -0.40886561315E-01  0.10434715706E+00  0.58206649228E-01  0.12853076551E+00  0.23918686955E-01 0.  0.
         14    1    1    2    0    0  0.23493615521E-02  0.23216620863E-01 -0.43639164090E-02  0.23739729367E-01  0.00000000000E+00 0.  1.
     999901    1    3    3    0    0  0.38537199762E-01 -0.12756377792E+00 -0.53842732819E-01  0.89165950513E+00  0.88000000000E+00 0.  1.
        -11    1    4    4    0    0 -0.37421714026E-01  0.74707192833E-01  0.50769516615E-01  0.97771950374E-01  0.51100000000E-03 0. -1.
         11    1    4    4    0    0 -0.34648472883E-02  0.29639964223E-01  0.74371326133E-02  0.30758815133E-01  0.51100000000E-03 0.  1.
</event>
<event>
 8    1  0.1123450E+005  0.1043930E+01  0.7957747E-01            NaN
         13   -1    0    0    0    0  0.00000000000E+00  0.00000000000E+00  0.74505805969E-08  0.10566000000E+00  0.10566000000E+00 0.  1.
     999900   -1    0    0    0    0 -0.00000000000E+00 -0.00000000000E+00 -0.74505805969E-08  0.93827000000E+00  0.93827000000E+00 0.  1.
     999902    2    1    2    0    0  0.49197159642E-02  0.20149122583E-01 -0.13479078237E-01  0.10191938666E+01  0.10188936458E+01 0.  0.
     999903    2    3    3    0    0 -0.86139417048E-01  0.57745933594E-01 -0.78090500288E-01  0.13134257174E+00  0.19953769074E-01 0.  0.
         14    1    1    2    0    0 -0.49197159642E-02 -0.20149122583E-01  0.13479078237E-01  0.24736133412E-01  0.00000000000E+00 0. -1.
     999901    1    3    3    0    0  0.91059133012E-01 -0.37596811011E-01  0.64611422051E-01  0.88785129485E+00  0.88000000000E+00 0.  1.
        -11    1    4    4    0    0 -0.67014752183E-01  0.45540872908E-01 -0.49923073685E-01  0.95171017240E-01  0.51100000000E-03 0. -1.
         11    1    4    4    0    0 -0.19124664865E-01  0.12205060686E-01 -0.28167426604E-01  0.36171554501E-01  0.51100000000E-03 0.  1.
</event>
<event>
 8    1  0.1123450E+005  0.1043930E+01  0.7957747E-01            NaN
         13   -1    0    0    0    0  0.00000000000E+00  0.00000000000E+00  0.74505805969E-08  0.10566000000E+00  0.10566000000E+00 0.  1.
     999900   -1    0    0    0    0 -0.00000000000E+00 -0.00000000000E+00 -0.74505805969E-08  0.93827000000E+00  0.93827000000E+00 0. -1.
     999902    2    1    2    0    0  0.17895963332E-01  0.15921241781E-01  0.22655568845E-02  0.10198699877E+01  0.10195861453E+01 0.  0.
     999903    2    3    3    0    0  0.97250216476E-01  0.50087612566E-01  0.73011161752E-01  0.13281340609E+00  0.18503987679E-01 0.  0.
         14    1    1    2    0    0 -0.17895963332E-01 -0.15921241781E-01 -0.22655568845E-02  0.24060012290E-01  0.00000000000E+00 0.  1.
     999901    1    3    3    0    0 -0.79354253145E-01 -0.34166370785E-01 -0.70745604867E-01  0.88705658162E+00  0.88000000000E+00 0. -1.
        -11    1    4    4    0    0  0.52763388995E-01  0.18218281546E-01  0.31259743682E-01  0.63979009814E-01  0.51100000000E-03 0.  1.
         11    1    4    4    0    0  0.44486827481E-01  0.31869331020E-01  0.41751418070E-01  0.68834396277E-01  0.51100000000E-03 0. -1.
</event>
<event>
 8    1  0.1123450E+005  0.1043930E+01  0.7957747E-01            NaN
         13   -1    0    0    0    0  0.00000000000E+00  0.00000000000E+00  0.74505805969E-08  0.10566000000E+00  0.10566000000E+00 0. -1.
     999900   -1    0    0    0    0 -0.00000000000E+00 -0.00000000000E+00 -0.74505805969E-08  0.93827000000E+00  0.93827000000E+00 0. -1.
     999902    2    1    2    0    0  0.67978855520E-02  0.22315401378E-01  0.75357173286E-03  0.10205899859E+01  0.10203230680E+01 0.  0.
     999903    2    3    3    0    0 -0.48190418219E-01 -0.11125098534E+00  0.36276721247E-01  0.12810716404E+00  0.19908461157E-01 0.  0.
         14    1    1    2    0    0 -0.67978855520E-02 -0.22315401378E-01 -0.75357173286E-03  0.23340014074E-01  0.00000000000E+00 0. -1.
     999901    1    3    3    0    0  0.54988303771E-01  0.13356638672E+00 -0.35523149514E-01  0.89248282189E+00  0.88000000000E+00 0. -1.
        -11    1    4    4    0    0 -0.37046041324E-01 -0.79895051801E-01  0.17152235295E-01  0.89722286956E-01  0.51100000000E-03 0.  1.
         11    1    4    4    0    0 -0.11144376895E-01 -0.31355933541E-01  0.19124485952E-01  0.38384877081E-01  0.51100000000E-03 0. -1.
</event>
<event>
 8    1  0.1123450E+005  0.1043930E+01  0.7957747E-01            NaN
         13   -1    0    0    0    0  0.00000000000E+00  0.00000000000E+00  0.74505805969E-08  0.10566000000E+00  0.10566000000E+00 0.  1.
     999900   -1    0    0    0    0 -0.00000000000E+00 -0.00000000000E+00 -0.74505805969E-08  0.93827000000E+00  0.93827000000E+00 0.  1.
     999902    2    1    2    0    0  0.21847498401E-01 -0.70996238369E-02  0.72493413922E-02  0.10198411894E+01  0.10195566590E+01 0.  0.
     999903    2    3    3    0    0  0.14847192697E-01  0.11509629756E+00 -0.53355311717E-01  0.12930552394E+00  0.20137834796E-01 0.  0.
         14    1    1    2    0    0 -0.21847498401E-01  0.70996238369E-02 -0.72493413922E-02  0.24088810590E-01  0.00000000000E+00 0. -1.
     999901    1    3    3    0    0  0.70003057045E-02 -0.12219592140E+00  0.60604653109E-01  0.89053566547E+00  0.88000000000E+00 0. -1.
        -11    1    4    4    0    0  0.63240298413E-02  0.47151857788E-01 -0.11152202778E-01  0.48866387160E-01  0.51100000000E-03 0.  1.
         11    1    4    4    0    0  0.85231628553E-02  0.67944439777E-01 -0.42203108938E-01  0.80439136785E-01  0.51100000000E-03 0. -1.
</event>
<event>
 8    1  0.1123450E+005  0.1043930E+01  0.7957747E-01            NaN
         13   -1    0    0    0    0  0.00000000000E+00  0.00000000000E+00  0.74505805969E-08  0.10566000000E+00  0.10566000000E+00 0.  1.
     999900   -1    0    0    0    0 -0.00000000000E+00 -0.00000000000E+00 -0.74505805969E-08  0.93827000000E+00  0.93827000000E+00 0.  1.
     999902    2    1    2    0    0 -0.16298881365E-01 -0.52918339713E-02 -0.17027167485E-01  0.10197725690E+01  0.10194863957E+01 0.  0.
     999903    2    3    3    0    0 -0.51866820999E-01 -0.11110247339E+00  0.40918061221E-01  0.13083015281E+00  0.20206791845E-01 0.  0.
         14    1    1    2    0    0  0.16298881365E-01  0.52918339713E-02  0.17027167485E-01  0.24157431012E-01  0.00000000000E+00 0. -1.
     999901    1    3    3    0    0  0.35567939634E-01  0.10581063942E+00 -0.57945228706E-01  0.88894241617E+00  0.88000000000E+00 0.  1.
        -11    1    4    4    0    0 -0.31933011589E-01 -0.54271600598E-01  0.29462223564E-01  0.69522712828E-01  0.51100000000E-03 0. -1.
         11    1    4    4    0    0 -0.19933809409E-01 -0.56830872794E-01  0.11455837657E-01  0.61307439985E-01  0.51100000000E-03 0.  1.
</event>
<event>
 8    1  0.1123450E+005  0.1043930E+01  0.7957747E-01            NaN
         13   -1    0    0    0    0  0.00000000000E+00  0.00000000000E+00  0.74505805969E-08  0.10566000000E+00  0.10566000000E+00 0.  1.
     999900   -1    0    0    0    0 -0.00000000000E+00 -0.00000000000E+00 -0.74505805969E-08  0.93827000000E+00  0.93827000000E+00 0. -1.
     999902    2    1    2    0    0  0.38971383065E-02 -0.27591332910E-01  0.70351400039E-02  0.10151904361E+01  0.10147835528E+01 0.  0.
     999903    2    3    3    0    0  0.30070714413E-01  0.10457114398E+00 -0.53633288918E-01  0.12287175162E+00  0.19533705417E-01 0.  0.
         14    1    1    2    0    0 -0.38971383065E-02  0.27591332910E-01 -0.70351400039E-02  0.28739563908E-01  0.00000000000E+00 0. -1.
     999901    1    3    3    0    0 -0.26173576107E-01 -0.13216247689E+00  0.60668428922E-01  0.89231868447E+00  0.88000000000E+00 0. -1.
        -11    1    4    4    0    0  0.27585108705E-01  0.66055351630E-01 -0.30041676617E-01  0.77633827396E-01  0.51100000000E-03 0.  1.
         11    1    4    4    0    0  0.24856057083E-02  0.38515792354E-01 -0.23591612301E-01  0.45237924226E-01  0.51100000000E-03 0. -1.
</event>
<event>
 8    1  0.1123450E+005  0.1043930E+01  0.7957747E-01            NaN
         13   -1    0    0    0    0  0.00000000000E+00  0.00000000000E+00  0.74505805969E-08  0.10566000000E+00  0.10566000000E+00 0. -1.
     999900   -1    0    0    0    0 -0.00000000000E+00 -0.00000000000E+00 -0.74505805969E-08  0.93827000000E+00  0.93827000000E+00 0.  1.
     999902    2    1    2    0    0  0.22206537659E-01 -0.23927729163E-02  0.46333206368E-03  0.10215901174E+01  0.10213458267E+01 0.  0.
     999903    2    3    3    0    0 -0.73095740403E-01  0.75707431171E-01  0.73752566730E-01  0.12998848104E+00  0.19569407347E-01 0.  0.
         14    1    1    2    0    0 -0.22206537659E-01  0.23927729163E-02 -0.46333206368E-03  0.22339882579E-01  0.00000000000E+00 0. -1.
     999901    1    3    3    0    0  0.95302278062E-01 -0.78100204087E-01 -0.73289234666E-01  0.89160163638E+00  0.88000000000E+00 0. -1.
        -11    1    4    4    0    0 -0.42856816341E-01  0.51514083399E-01  0.36769174907E-01  0.76437169229E-01  0.51100000000E-03 0.  1.
         11    1    4    4    0    0 -0.30238924062E-01  0.24193347771E-01  0.36983391823E-01  0.53551311810E-01  0.51100000000E-03 0. -1.
</event>
<event>
 8    1  0.1123450E+005  0.1043930E+01  0.7957747E-01            NaN
         13   -1    0    0    0    0  0.00000000000E+00  0.00000000000E+00  0.74505805969E-08  0.10566000000E+00  0.10566000000E+00 0.  1.
     999900   -1    0    0    0    0 -0.00000000000E+00 -0.00000000000E+00 -0.74505805969E-08  0.93827000000E+00  0.93827000000E+00 0.  1.
     999902    2    1    2    0    0  0.16314309697E-01 -0.30211803934E-02 -0.16712807590E-01  0.10203800070E+01  0.10201082083E+01 0.  0.
     999903    2    3    3    0    0  0.69909723544E-01 -0.10478475049E+00  0.36557153411E-01  0.13129846895E+00  0.59706870524E-02 0.  0.
         14    1    1    2    0    0 -0.16314309697E-01  0.30211803934E-02  0.16712807590E-01  0.23549992981E-01  0.00000000000E+00 0.  1.
     999901    1    3    3    0    0 -0.53595413848E-01  0.10176357009E+00 -0.53269961001E-01  0.88908153807E+00  0.88000000000E+00 0.  1.
        -11    1    4    4    0    0  0.49185588721E-01 -0.69371907299E-01  0.26026833172E-01  0.88934474902E-01  0.51100000000E-03 0.  1.
         11    1    4    4    0    0  0.20724134823E-01 -0.35412843186E-01  0.10530320239E-01  0.42363994052E-01  0.51100000000E-03 0. -1.
</event>
<event>
 8    1  0.1123450E+005  0.1043930E+01  0.7957747E-01            NaN
         13   -1    0    0    0    0  0.00000000000E+00  0.00000000000E+00  0.74505805969E-08  0.10566000000E+00  0.10566000000E+00 0.  1.
     999900   -1    0    0    0    0 -0.00000000000E+00 -0.00000000000E+00 -0.74505805969E-08  0.93827000000E+00  0.93827000000E+00 0. -1.
     999902    2    1    2    0    0 -0.16985497967E-01  0.51774676792E-02 -0.15728242813E-01  0.10202088926E+01  0.10199330829E+01 0.  0.
     999903    2    3    3    0    0 -0.11271362385E+00 -0.62967501306E-01 -0.21588308859E-01  0.13237898141E+00  0.19719848310E-01 0.  0.
         14    1    1    2    0    0  0.16985497967E-01 -0.51774676792E-02  0.15728242813E-01  0.23721107367E-01  0.00000000000E+00 0. -1.
     999901    1    3    3    0    0  0.95728125887E-01  0.68144968986E-01  0.58600660458E-02  0.88782991122E+00  0.88000000000E+00 0.  1.
        -11    1    4    4    0    0 -0.18001175882E-01 -0.23785140303E-02 -0.34612838696E-02  0.18491654040E-01  0.51100000000E-03 0. -1.
         11    1    4    4    0    0 -0.94712447972E-01 -0.60588987276E-01 -0.18127024989E-01  0.11388732737E+00  0.51100000000E-03 0.  1.
</event>
<event>
 8    1  0.1123450E+005  0.1043930E+01  0.7957747E-01            NaN
         13   -1    0    0    0    0  0.00000000000E+00  0.00000000000E+00  0.74505805969E-08  0.10566000000E+00  0.10566000000E+00 0.  1.
     999900   -1    0    0    0    0 -0.00000000000E+00 -0.00000000000E+00 -0.74505805969E-08  0.93827000000E+00  0.93827000000E+00 0. -1.
     999902    2    1    2    0    0  0.10402257795E-02 -0.20549208342E-01  0.11002717266E-01  0.10205973658E+01  0.10203306186E+01 0.  0.
     999903    2    3    3    0    0  0.12246155729E-01 -0.12131109150E+00 -0.48338821462E-01  0.13279110977E+00  0.20748202889E-01 0.  0.
         14    1    1    2    0    0 -0.10402257795E-02  0.20549208342E-01 -0.11002717266E-01  0.23332634236E-01  0.00000000000E+00 0. -1.
     999901    1    3    3    0    0 -0.11205929949E-01  0.10076188316E+00  0.59341538728E-01  0.88780625599E+00  0.88000000000E+00 0. -1.
        -11    1    4    4    0    0  0.63128028296E-02 -0.91935780736E-01 -0.45237097883E-01  0.10265814826E+00  0.51100000000E-03 0.  1.
         11    1    4    4    0    0  0.59333528991E-02 -0.29375310762E-01 -0.31017235793E-02  0.30132961506E-01  0.51100000000E-03 0. -1.
</event>
<event>
 8    1  0.1123450E+005  0.1043930E+01  0.7957747E-01            NaN
         13   -1    0    0    0    0  0.00000000000E+00  0.00000000000E+00  0.74505805969E-08  0.10566000000E+00  0.10566000000E+00 0. -1.
     999900   -1    0    0    0    0 -0.00000000000E+00 -0.00000000000E+00 -0.74505805969E-08  0.93827000000E+00  0.93827000000E+00 0.  1.
     999902    2    1    2    0    0 -0.20921870499E-01  0.13039843526E-02  0.87897334784E-02  0.10211993059E+01  0.10209462953E+01 0.  0.
     999903    2    3    3    0    0 -0.70735034554E-01  0.94241466800E-01 -0.51797800152E-01  0.13283588015E+00  0.32824682415E-01 0.  0.
         14    1    1    2    0    0  0.20921870499E-01 -0.13039843526E-02 -0.87897334784E-02  0.22730694116E-01  0.00000000000E+00 0.  1.
     999901    1    3    3    0    0  0.49813164055E-01 -0.92937482448E-01  0.60587533631E-01  0.88836342574E+00  0.88000000000E+00 0. -1.
        -11    1    4    4    0    0 -0.49732662465E-01  0.55579780748E-01 -0.16403724061E-01  0.76366177251E-01  0.51100000000E-03 0. -1.
         11    1    4    4    0    0 -0.21002372089E-01  0.38661686052E-01 -0.35394076091E-01  0.56469702896E-01  0.51100000000E-03 0.  1.
</event>
<event>
 8    1  0.1123450E+005  0.1043930E+01  0.7957747E-01            NaN
         13   -1    0    0    0    0  0.00000000000E+00  0.00000000000E+00  0.74505805969E-08  0.10566000000E+00  0.10566000000E+00 0. -1.
     999900   -1    0    0    0    0 -0.00000000000E+00 -0.00000000000E+00 -0.74505805969E-08  0.93827000000E+00  0.93827000000E+00 0.  1.
     999902    2    1    2    0    0  0.16389345004E-01 -0.41852964981E-02 -0.15912809752E-01  0.10207062008E+01  0.10204419648E+01 0.  0.
     999903    2    3    3    0    0  0.73222715996E-01  0.10161335169E+00 -0.37435435489E-01  0.13228816323E+00  0.20295490137E-01 0.  0.
         14    1    1    2    0    0 -0.16389345004E-01  0.41852964981E-02  0.15912809752E-01  0.23223799229E-01  0.00000000000E+00 0. -1.
     999901    1    3    3    0    0 -0.56833370992E-01 -0.10579864819E+00  0.21522625737E-01  0.88841803754E+00  0.88000000000E+00 0. -1.
        -11    1    4    4    0    0  0.36676281335E-01  0.67372415526E-01 -0.20244878923E-01  0.79336676449E-01  0.51100000000E-03 0.  1.
         11    1    4    4    0    0  0.36546434661E-01  0.34240936163E-01 -0.17190556566E-01  0.52951486776E-01  0.51100000000E-03 0. -1.
</event>
<event>
 8    1  0.1123450E+005  0.1043930E+01  0.7957747E-01            NaN
         13   -1    0    0    0    0  0.00000000000E+00  0.00000000000E+00  0.74505805969E-08  0.10566000000E+00  0.10566000000E+00 0.  1.
     999900   -1    0    0    0    0 -0.00000000000E+00 -0.00000000000E+00 -0.74505805969E-08  0.93827000000E+00  0.93827000000E+00 0. -1.
     999902    2    1    2    0    0  0.22076127725E-01 -0.52373805046E-02  0.40725062241E-02  0.10208785168E+01  0.10206182319E+01 0.  0.
     999903    2    3    3    0    0  0.26138496574E-02  0.10244790272E+00  0.78644495630E-01  0.13097072267E+00  0.21586304007E-01 0.  0.
         14    1    1    2    0    0 -0.22076127725E-01  0.52373805046E-02 -0.40725062241E-02  0.23051483180E-01  0.00000000000E+00 0. -1.
     999901    1    3    3    0    0  0.19462278067E-01 -0.10768528323E+00 -0.74571989406E-01  0.88990779415E+00  0.88000000000E+00 0. -1.
        -11    1    4    4    0    0 -0.24524112960E-02  0.70719398408E-01  0.42238139717E-01  0.82410977425E-01  0.51100000000E-03 0.  1.
         11    1    4    4    0    0  0.50662609535E-02  0.31728504313E-01  0.36406355913E-01  0.48559745241E-01  0.51100000000E-03 0. -1.
</event>
<event>
 8    1  0.1123450E+005  0.1043930E+01  0.7957747E-01            NaN
         13   -1    0    0    0    0  0.00000000000E+00  0.00000000000E+00  0.74505805969E-08  0.10566000000E+00  0.10566000000E+00 0.  1.
     999900   -1    0    0    0    0 -0.00000000000E+00 -0.00000000000E+00 -0.74505805969E-08  0.93827000000E+00  0.93827000000E+00 0. -1.
     999902    2    1    2    0    0 -0.94159423753E-02 -0.14079700072E-01  0.21268232948E-01  0.10167411115E+01  0.10163775146E+01 0.  0.
     999903    2    3    3    0    0  0.10346647828E-01  0.12178567831E+00  0.24138034465E-01  0.12609067683E+00  0.19427030503E-01 0.  0.
         14    1    1    2    0    0  0.94159423753E-02  0.14079700072E-01 -0.21268232948E-01  0.27188888496E-01  0.00000000000E+00 0. -1.
     999901    1    3    3    0    0 -0.19762590203E-01 -0.13586537838E+00 -0.28698015174E-02  0.89065043467E+00  0.88000000000E+00 0. -1.
        -11    1    4    4    0    0 -0.57152314192E-02  0.38871664247E-01  0.83663761093E-02  0.40173716802E-01  0.51100000000E-03 0. -1.
         11    1    4    4    0    0  0.16061879247E-01  0.82914014063E-01  0.15771658356E-01  0.85916960033E-01  0.51100000000E-03 0.  1.
</event>
<event>
 8    1  0.1123450E+005  0.1043930E+01  0.7957747E-01            NaN
         13   -1    0    0    0    0  0.00000000000E+00  0.00000000000E+00  0.74505805969E-08  0.10566000000E+00  0.10566000000E+00 0.  1.
     999900   -1    0    0    0    0 -0.00000000000E+00 -0.00000000000E+00 -0.74505805969E-08  0.93827000000E+00  0.93827000000E+00 0.  1.
     999902    2    1    2    0    0  0.11666710136E-01  0.13920461250E-01  0.14688557430E-01  0.10205709528E+01  0.10203035943E+01 0.  0.
     999903    2    3    3    0    0 -0.98460156754E-01 -0.68865725533E-01  0.43697348378E-01  0.12937906017E+00  0.19813942924E-01 0.  0.
         14    1    1    2    0    0 -0.11666710136E-01 -0.13920461250E-01 -0.14688557430E-01  0.23359047202E-01  0.00000000000E+00 0. -1.
     999901    1    3    3    0    0  0.11012686689E+00  0.82786186782E-01 -0.29008790948E-01  0.89119189263E+00  0.88000000000E+00 0.  1.
        -11    1    4    4    0    0 -0.28444293289E-01 -0.29468845595E-01  0.94066418654E-02  0.42026619108E-01  0.51100000000E-03 0. -1.
         11    1    4    4    0    0 -0.70015863465E-01 -0.39396879937E-01  0.34290706513E-01  0.87352441063E-01  0.51100000000E-03 0.  1.
</event>
<event>
 8    1  0.1123450E+005  0.1043930E+01  0.7957747E-01            NaN
         13   -1    0    0    0    0  0.00000000000E+00  0.00000000000E+00  0.74505805969E-08  0.10566000000E+00  0.10566000000E+00 0. -1.
     999900   -1    0    0    0    0 -0.00000000000E+00 -0.00000000000E+00 -0.74505805969E-08  0.93827000000E+00  0.93827000000E+00 0. -1.
     999902    2    1    2    0    0 -0.19410300639E-01 -0.75483881708E-02  0.96764538511E-02  0.10209654252E+01  0.10207071215E+01 0.  0.
     999903    2    3    3    0    0  0.77930018554E-01 -0.24163032594E-01 -0.97796523496E-01  0.12894433524E+00  0.20138064590E-01 0.  0.
         14    1    1    2    0    0  0.19410300639E-01  0.75483881708E-02 -0.96764538511E-02  0.22964574762E-01  0.00000000000E+00 0. -1.
     999901    1    3    3    0    0 -0.97340319193E-01  0.16614644423E-01  0.10747297735E+00  0.89202109000E+00  0.88000000000E+00 0.  1.
        -11    1    4    4    0    0  0.40965934587E-01 -0.21866448370E-01 -0.61717749632E-01  0.77237886439E-01  0.51100000000E-03 0.  1.
         11    1    4    4    0    0  0.36964083967E-01 -0.22965842237E-02 -0.36078773864E-01  0.51706448796E-01  0.51100000000E-03 0. -1.
</event>
<event>
 8    1  0.1123450E+005  0.1043930E+01  0.7957747E-01            NaN
         13   -1    0    0    0    0  0.00000000000E+00  0.00000000000E+00  0.74505805969E-08  0.10566000000E+00  0.10566000000E+00 0. -1.
     999900   -1    0    0    0    0 -0.00000000000E+00 -0.00000000000E+00 -0.74505805969E-08  0.93827000000E+00  0.93827000000E+00 0. -1.
     999902    2    1    2    0    0  0.96810103352E-03  0.12168111824E-01  0.19743346630E-01  0.10207179363E+01  0.10204539703E+01 0.  0.
     999903    2    3    3    0    0  0.10759747161E-01  0.38896735853E-01 -0.12097880221E+00  0.12908291072E+00  0.19944900022E-01 0.  0.
         14    1    1    2    0    0 -0.96810103352E-03 -0.12168111824E-01 -0.19743346630E-01  0.23212063698E-01  0.00000000000E+00 0.  1.
     999901    1    3    3    0    0 -0.97916461270E-02 -0.26728624029E-01  0.14072214884E+00  0.89163502558E+00  0.88000000000E+00 0.  1.
        -11    1    4    4    0    0  0.13253634919E-01  0.13312455315E-01 -0.60911576115E-01  0.63744501966E-01  0.51100000000E-03 0.  1.
         11    1    4    4    0    0 -0.24938877583E-02  0.25584280538E-01 -0.60067226091E-01  0.65338408751E-01  0.51100000000E-03 0. -1.
</event>
<event>
 8    1  0.1123450E+005  0.1043930E+01  0.7957747E-01            NaN
         13   -1    0    0    0    0  0.00000000000E+00  0.00000000000E+00  0.74505805969E-08  0.10566000000E+00  0.10566000000E+00 0. -1.
     999900   -1    0    0    0    0 -0.00000000000E+00 -0.00000000000E+00 -0.74505805969E-08  0.93827000000E+00  0.93827000000E+00 0. -1.
     999902    2    1    2    0    0 -0.10631261101E-01 -0.15507618214E-02  0.22055669757E-01  0.10193967339E+01  0.10191014768E+01 0.  0.
     999903    2    3    3    0    0 -0.10991411602E+00  0.65363344049E-01 -0.16529994256E-01  0.13045160836E+00  0.19771235846E-01 0.  0.
         14    1    1    2    0    0  0.10631261101E-01  0.15507618214E-02 -0.22055669757E-01  0.24533266053E-01  0.00000000000E+00 0.  1.
     999901    1    3    3    0    0  0.99282854918E-01 -0.66914105870E-01  0.38585664013E-01  0.88894512559E+00  0.88000000000E+00 0. -1.
        -11    1    4    4    0    0 -0.56431301375E-01  0.37021147094E-01 -0.18179351385E-01  0.69898548231E-01  0.51100000000E-03 0.  1.
         11    1    4    4    0    0 -0.53482814644E-01  0.28342196954E-01  0.16493571282E-02  0.60553060124E-01  0.51100000000E-03 0. -1.
</event>
<event>
 8    1  0.1123450E+005  0.1043930E+01  0.7957747E-01            NaN
         13   -1    0    0    0    0  0.00000000000E+00  0.00000000000E+00  0.74505805969E-08  0.10566000000E+00  0.10566000000E+00 0. -1.
     999900   -1    0    0    0    0 -0.00000000000E+00 -0.00000000000E+00 -0.74505805969E-08  0.93827000000E+00  0.93827000000E+00 0. -1.
     999902    2    1    2    0    0 -0.15556015555E-01  0.18104607568E-01  0.13619155856E-02  0.10200213980E+01  0.10197411589E+01 0.  0.
     999903    2    3    3    0    0  0.10167560562E+00  0.32546352479E-01  0.70930072098E-01  0.12940838137E+00  0.17839848793E-01 0.  0.
         14    1    1    2    0    0  0.15556015555E-01 -0.18104607568E-01 -0.13619155856E-02  0.23908601991E-01  0.00000000000E+00 0. -1.
     999901    1    3    3    0    0 -0.11723162117E+00 -0.14441744912E-01 -0.69568156512E-01  0.89061301663E+00  0.88000000000E+00 0. -1.
        -11    1    4    4    0    0  0.38140262262E-01  0.84821689951E-02  0.16773940116E-01  0.42523557992E-01  0.51100000000E-03 0.  1.
         11    1    4    4    0    0  0.63535343354E-01  0.24064183484E-01  0.54156131982E-01  0.86884823382E-01  0.51100000000E-03 0. -1.
</event>
<event>
 8    1  0.1123450E+005  0.1043930E+01  0.7957747E-01            NaN
         13   -1    0    0    0    0  0.00000000000E+00  0.00000000000E+00  0.74505805969E-08  0.10566000000E+00  0.10566000000E+00 0.  1.
     999900   -1    0    0    0    0 -0.00000000000E+00 -0.00000000000E+00 -0.74505805969E-08  0.93827000000E+00  0.93827000000E+00 0.  1.
     999902    2    1    2    0    0  0.17714529892E-01  0.25644525369E-01 -0.10084022124E-01  0.10111712797E+01  0.10106405015E+01 0.  0.
     999903    2    3    3    0    0 -0.11724400959E+00 -0.33842234194E-02  0.16030328985E-01  0.12002682738E+00  0.19795380584E-01 0.  0.
         14    1    1    2    0    0 -0.17714529892E-01 -0.25644525369E-01  0.10084022124E-01  0.32758720257E-01  0.00000000000E+00 0.  1.
     999901    1    3    3    0    0  0.13495853948E+00  0.29028748788E-01 -0.26114351109E-01  0.89114445236E+00  0.88000000000E+00 0. -1.
        -11    1    4    4    0    0 -0.41855441002E-01  0.78473634687E-02  0.85574132815E-02  0.43439031963E-01  0.51100000000E-03 0.  1.
         11    1    4    4    0    0 -0.75388568586E-01 -0.11231586888E-01  0.74729157035E-02  0.76587795421E-01  0.51100000000E-03 0. -1.
</event>
<event>
 8    1  0.1123450E+005  0.1043930E+01  0.7957747E-01            NaN
         13   -1    0    0    0    0  0.00000000000E+00  0.00000000000E+00  0.74505805969E-08  0.10566000000E+00  0.10566000000E+00 0. -1.
     999900   -1    0    0    0    0 -0.00000000000E+00 -0.00000000000E+00 -0.74505805969E-08  0.93827000000E+00  0.93827000000E+00 0.  1.
     999902    2    1    2    0    0  0.17154466858E-01  0.16093521726E-02  0.13065918201E-01  0.10223063101E+01  0.10220775938E+01 0.  0.
     999903    2    3    3    0    0  0.10869538039E+00 -0.63396141809E-01 -0.40157158253E-01  0.13357792133E+00  0.19917509678E-01 0.  0.
         14    1    1    2    0    0 -0.17154466858E-01 -0.16093521726E-02 -0.13065918201E-01  0.21623689927E-01  0.00000000000E+00 0. -1.
     999901    1    3    3    0    0 -0.91540913535E-01  0.65005493982E-01  0.53223076454E-01  0.88872838875E+00  0.88000000000E+00 0. -1.
        -11    1    4    4    0    0  0.71821064077E-01 -0.48459001001E-01 -0.35052096831E-01  0.93463632695E-01  0.51100000000E-03 0. -1.
         11    1    4    4    0    0  0.36874316316E-01 -0.14937140808E-01 -0.51050614214E-02  0.40114288631E-01  0.51100000000E-03 0.  1.
</event>
<event>
 8    1  0.1123450E+005  0.1043930E+01  0.7957747E-01            NaN
         13   -1    0    0    0    0  0.00000000000E+00  0.00000000000E+00  0.74505805969E-08  0.10566000000E+00  0.10566000000E+00 0.  1.
     999900   -1    0    0    0    0 -0.00000000000E+00 -0.00000000000E+00 -0.74505805969E-08  0.93827000000E+00  0.93827000000E+00 0.  1.
     999902    2    1    2    0    0 -0.13667038936E-01 -0.15515030430E-01  0.10543387869E-01  0.10207207960E+01  0.10204568958E+01 0.  0.
     999903    2    3    3    0    0  0.72468054972E-01  0.57212837478E-02 -0.10446180327E+00  0.12881473064E+00  0.19915180319E-01 0.  0.
         14    1    1    2    0    0  0.13667038936E-01  0.15515030430E-01 -0.10543387869E-01  0.23209204000E-01  0.00000000000E+00 0. -1.
     999901    1    3    3    0    0 -0.86135093908E-01 -0.21236314178E-01  0.11500519114E+00  0.89190606536E+00  0.88000000000E+00 0. -1.
        -11    1    4    4    0    0  0.22884001362E-01 -0.11834820121E-03 -0.49642228473E-01  0.54665377465E-01  0.51100000000E-03 0.  1.
         11    1    4    4    0    0  0.49584053610E-01  0.58396319490E-02 -0.54819574800E-01  0.74149353172E-01  0.51100000000E-03 0. -1.
</event>
<event>
 8    1  0.1123450E+005  0.1043930E+01  0.7957747E-01            NaN
         13   -1    0    0    0    0  0.00000000000E+00  0.00000000000E+00  0.74505805969E-08  0.10566000000E+00  0.10566000000E+00 0. -1.
     999900   -1    0    0    0    0 -0.00000000000E+00 -0.00000000000E+00 -0.74505805969E-08  0.93827000000E+00  0.93827000000E+00 0.  1.
     999902    2    1    2    0    0  0.13133413327E-01  0.19648364397E-01 -0.40521076679E-02  0.10199515858E+01  0.10196696882E+01 0.  0.
     999903    2    3    3    0    0  0.86191813007E-01 -0.75433978601E-02  0.96183194942E-01  0.13083739880E+00  0.19526557705E-01 0.  0.
         14    1    1    2    0    0 -0.13133413327E-01 -0.19648364397E-01  0.40521076679E-02  0.23978414161E-01  0.00000000000E+00 0.  1.
     999901    1    3    3    0    0 -0.73058399680E-01  0.27191762258E-01 -0.10023530261E+00  0.88911418704E+00  0.88000000000E+00 0.  1.
        -11    1    4    4    0    0  0.28117021422E-01 -0.11207401411E-01  0.28503296930E-01  0.41579704146E-01  0.51100000000E-03 0. -1.
         11    1    4    4    0    0  0.58074791585E-01  0.36640035504E-02  0.67679898012E-01  0.89257694658E-01  0.51100000000E-03 0.  1.
</event>
<event>
 8    1  0.1123450E+005  0.1043930E+01  0.7957747E-01            NaN
         13   -1    0    0    0    0  0.00000000000E+00  0.00000000000E+00  0.74505805969E-08  0.10566000000E+00  0.10566000000E+00 0. -1.
     999900   -1    0    0    0    0 -0.00000000000E+00 -0.00000000000E+00 -0.74505805969E-08  0.93827000000E+00  0.93827000000E+00 0.  1.
     999902    2    1    2    0    0  0.27551797765E-02  0.22814548745E-01  0.67694791976E-02  0.10199733621E+01  0.10196919824E+01 0.  0.
     999903    2    3    3    0    0 -0.34987461154E-01 -0.18239771002E-01  0.12299480229E+00  0.13058127207E+00  0.19155561629E-01 0.  0.
         14    1    1    2    0    0 -0.27551797765E-02 -0.22814548745E-01 -0.67694791976E-02  0.23956637883E-01  0.00000000000E+00 0.  1.
     999901    1    3    3    0    0  0.37742640931E-01  0.41054319747E-01 -0.11622532309E+00  0.88939209005E+00  0.88000000000E+00 0.  1.
        -11    1    4    4    0    0 -0.57460764626E-02 -0.12786352774E-01  0.35743247376E-01  0.38397253365E-01  0.51100000000E-03 0. -1.
         11    1    4    4    0    0 -0.29241384692E-01 -0.54534182280E-02  0.87251554910E-01  0.92184018703E-01  0.51100000000E-03 0.  1.
</event>
<event>
 8    1  0.1123450E+005  0.1043930E+01  0.7957747E-01            NaN
         13   -1    0    0    0    0  0.00000000000E+00  0.00000000000E+00  0.74505805969E-08  0.10566000000E+00  0.10566000000E+00 0. -1.
     999900   -1    0    0    0    0 -0.00000000000E+00 -0.00000000000E+00 -0.74505805969E-08  0.93827000000E+00  0.93827000000E+00 0. -1.
     999902    2    1    2    0    0  0.15594984531E-02 -0.11107251031E-01  0.21074800363E-01  0.10200563687E+01  0.10197769585E+01 0.  0.
     999903    2    3    3    0    0  0.75509515897E-01  0.33237558726E-01  0.10127830195E+00  0.13221197417E+00  0.20403170531E-01 0.  0.
         14    1    1    2    0    0 -0.15594984531E-02  0.11107251031E-01 -0.21074800363E-01  0.23873631295E-01  0.00000000000E+00 0.  1.
     999901    1    3    3    0    0 -0.73950017444E-01 -0.44344809757E-01 -0.80203501589E-01  0.88784439453E+00  0.88000000000E+00 0. -1.
        -11    1    4    4    0    0  0.47292960998E-01  0.28251079156E-01  0.76841326551E-01  0.94549448547E-01  0.51100000000E-03 0.  1.
         11    1    4    4    0    0  0.28216554899E-01  0.49864795698E-02  0.24436975401E-01  0.37662525627E-01  0.51100000000E-03 0. -1.
</event>
<event>
 8    1  0.1123450E+005  0.1043930E+01  0.7957747E-01            NaN
         13   -1    0    0    0    0  0.00000000000E+00  0.00000000000E+00  0.74505805969E-08  0.10566000000E+00  0.10566000000E+00 0. -1.
     999900   -1    0    0    0    0 -0.00000000000E+00 -0.00000000000E+00 -0.74505805969E-08  0.93827000000E+00  0.93827000000E+00 0.  1.
     999902    2    1    2    0    0 -0.20305102685E-01 -0.28736757311E-02 -0.68049845513E-02  0.10223229867E+01  0.10220946268E+01 0.  0.
     999903    2    3    3    0    0  0.88309976157E-01  0.75746053808E-01 -0.56306404772E-01  0.13079133401E+00  0.19996131534E-01 0.  0.
         14    1    1    2    0    0  0.20305102685E-01  0.28736757311E-02  0.68049845513E-02  0.21607013259E-01  0.00000000000E+00 0. -1.
     999901    1    3    3    0    0 -0.10861507884E+00 -0.78619729539E-01  0.49501420220E-01  0.89153165274E+00  0.88000000000E+00 0.  1.
        -11    1    4    4    0    0  0.41309881642E-01  0.45991095270E-01 -0.36195079105E-01  0.71638202363E-01  0.51100000000E-03 0. -1.
         11    1    4    4    0    0  0.47000094516E-01  0.29754958538E-01 -0.20111325666E-01  0.59153131643E-01  0.51100000000E-03 0.  1.
</event>
<event>
 8    1  0.1123450E+005  0.1043930E+01  0.7957747E-01            NaN
         13   -1    0    0    0    0  0.00000000000E+00  0.00000000000E+00  0.74505805969E-08  0.10566000000E+00  0.10566000000E+00 0. -1.
     999900   -1    0    0    0    0 -0.00000000000E+00 -0.00000000000E+00 -0.74505805969E-08  0.93827000000E+00  0.93827000000E+00 0.  1.
     999902    2    1    2    0    0  0.32491334795E-02  0.15665372030E-01 -0.17607602652E-01  0.10201394889E+01  0.10198620438E+01 0.  0.
     999903    2    3    3    0    0 -0.10690528720E+00  0.49753590921E-03  0.69115714882E-01  0.12891280981E+00  0.20311142665E-01 0.  0.
         14    1    1    2    0    0 -0.32491334795E-02 -0.15665372030E-01  0.17607602652E-01  0.23790511141E-01  0.00000000000E+00 0. -1.
     999901    1    3    3    0    0  0.11015442068E+00  0.15167836120E-01 -0.86723317533E-01  0.89122667905E+00  0.88000000000E+00 0.  1.
        -11    1    4    4    0    0 -0.36985094068E-01 -0.25145565453E-03  0.12841593510E-01  0.39155179199E-01  0.51100000000E-03 0.  1.
         11    1    4    4    0    0 -0.69920193129E-01  0.74899156373E-03  0.56274121371E-01  0.89757630610E-01  0.51100000000E-03 0. -1.
</event>
<event>
 8    1  0.1123450E+005  0.1043930E+01  0.7957747E-01            NaN
         13   -1    0    0    0    0  0.00000000000E+00  0.00000000000E+00  0.74505805969E-08  0.10566000000E+00  0.10566000000E+00 0.  1.
     999900   -1    0    0    0    0 -0.00000000000E+00 -0.00000000000E+00 -0.74505805969E-08  0.93827000000E+00  0.93827000000E+00 0.  1.
     999902    2    1    2    0    0 -0.64150535245E-02  0.22455081594E-01  0.37000377277E-02  0.10202852568E+01  0.10200112408E+01 0.  0.
     999903    2    3    3    0    0 -0.94055580484E-01 -0.28878718697E-01 -0.83011023823E-01  0.13020951329E+00  0.19576890999E-01 0.  0.
         14    1    1    2    0    0  0.64150535245E-02 -0.22455081594E-01 -0.37000377277E-02  0.23644743185E-01  0.00000000000E+00 0.  1.
     999901    1    3    3    0    0  0.87640526959E-01  0.51333800291E-01  0.86711061550E-01  0.89007574353E+00  0.88000000000E+00 0. -1.
        -11    1    4    4    0    0 -0.41264838767E-01 -0.22857321588E-01 -0.38262358480E-01  0.60741363716E-01  0.51100000000E-03 0. -1.
         11    1    4    4    0    0 -0.52790741717E-01 -0.60213971094E-02 -0.44748665342E-01  0.69468149573E-01  0.51100000000E-03 0.  1.
</event>
<event>
 8    1  0.1123450E+005  0.1043930E+01  0.7957747E-01            NaN
         13   -1    0    0    0    0  0.00000000000E+00  0.00000000000E+00  0.74505805969E-08  0.10566000000E+00  0.10566000000E+00 0.  1.
     999900   -1    0    0    0    0 -0.00000000000E+00 -0.00000000000E+00 -0.74505805969E-08  0.93827000000E+00  0.93827000000E+00 0.  1.
     999902    2    1    2    0    0 -0.10619780135E-01  0.19435065047E-01 -0.78713085964E-02  0.10204255540E+01  0.10201548178E+01 0.  0.
     999903    2    3    3    0    0 -0.29800213542E-01 -0.71777672841E-01  0.10018490907E+00  0.12893029390E+00  0.23364880346E-01 0.  0.
         14    1    1    2    0    0  0.10619780135E-01 -0.19435065047E-01  0.78713085964E-02  0.23504446016E-01  0.00000000000E+00 0.  1.
     999901    1    3    3    0    0  0.19180433408E-01  0.91212737888E-01 -0.10805621767E+00  0.89149526009E+00  0.88000000000E+00 0.  1.
        -11    1    4    4    0    0 -0.32012769923E-01 -0.70698806496E-01  0.91977231672E-01  0.12034621284E+00  0.51100000000E-03 0. -1.
         11    1    4    4    0    0  0.22125563803E-02 -0.10788663454E-02  0.82076773982E-02  0.85840810574E-02  0.51100000000E-03 0.  1.
</event>
<event>
 8    1  0.1123450E+005  0.1043930E+01  0.7957747E-01            NaN
         13   -1    0    0    0    0  0.00000000000E+00  0.00000000000E+00  0.74505805969E-08  0.10566000000E+00  0.10566000000E+00 0. -1.
     999900   -1    0    0    0    0 -0.00000000000E+00 -0.00000000000E+00 -0.74505805969E-08  0.93827000000E+00  0.93827000000E+00 0. -1.
     999902    2    1    2    0    0  0.59218211086E-02  0.23463894499E-01 -0.42417444176E-02  0.10193614285E+01  0.10190653106E+01 0.  0.
     999903    2    3    3    0    0 -0.62088826127E-01  0.10116575350E+00 -0.53525250973E-01  0.13195402991E+00  0.21386479549E-01 0.  0.
         14    1    1    2    0    0 -0.59218211086E-02 -0.23463894499E-01  0.42417444176E-02  0.24568571509E-01  0.00000000000E+00 0.  1.
     999901    1    3    3    0    0  0.68010647235E-01 -0.77701859002E-01  0.49283506556E-01  0.88740739858E+00  0.88000000000E+00 0. -1.
        -11    1    4    4    0    0 -0.46150750914E-01  0.88935311027E-01 -0.48058926581E-01  0.11112741742E+00  0.51100000000E-03 0. -1.
         11    1    4    4    0    0 -0.15938075213E-01  0.12230442475E-01 -0.54663243922E-02  0.20826612494E-01  0.51100000000E-03 0.  1.
</event>
<event>
 8    1  0.1123450E+005  0.1043930E+01  0.7957747E-01            NaN
         13   -1    0    0    0    0  0.00000000000E+00  0.00000000000E+00  0.74505805969E-08  0.10566000000E+00  0.10566000000E+00 0. -1.
     999900   -1    0    0    0    0 -0.00000000000E+00 -0.00000000000E+00 -0.74505805969E-08  0.93827000000E+00  0.93827000000E+00 0. -1.
     999902    2    1    2    0    0  0.24787203243E-01  0.10075024514E-01  0.50229990988E-02  0.10167060752E+01  0.10163415278E+01 0.  0.
     999903    2    3    3    0    0  0.91428005525E-01 -0.84041367526E-01  0.27897408878E-01  0.12888732654E+00  0.20289057923E-01 0.  0.
         14    1    1    2    0    0 -0.24787203243E-01 -0.10075024514E-01 -0.50229990988E-02  0.27223924836E-01  0.00000000000E+00 0. -1.
     999901    1    3    3    0    0 -0.66640802282E-01  0.94116392040E-01 -0.22874409779E-01  0.88781874862E+00  0.88000000000E+00 0.  1.
        -11    1    4    4    0    0  0.72685964163E-01 -0.54941667336E-01  0.17918831053E-01  0.92861088854E-01  0.51100000000E-03 0.  1.
         11    1    4    4    0    0  0.18742041362E-01 -0.29099700190E-01  0.99785778256E-02  0.36026237689E-01  0.51100000000E-03 0. -1.
</event>
<event>
 8    1  0.1123450E+005  0.1043930E+01  0.7957747E-01            NaN
         13   -1    0    0    0    0  0.00000000000E+00  0.00000000000E+00  0.74505805969E-08  0.10566000000E+00  0.10566000000E+00 0.  1.
     999900   -1    0    0    0    0 -0.00000000000E+00 -0.00000000000E+00 -0.74505805969E-08  0.93827000000E+00  0.93827000000E+00 0.  1.
     999902    2    1    2    0    0  0.17429844303E-01 -0.12461717372E-01 -0.56302693647E-02  0.10217761334E+01  0.10215359382E+01 0.  0.
     999903    2    3    3    0    0 -0.30478617537E-01  0.11105776970E+00 -0.57752605631E-01  0.13033403077E+00  0.19718564373E-01 0.  0.
         14    1    1    2    0    0 -0.17429844303E-01  0.12461717372E-01  0.56302693647E-02  0.22153866601E-01  0.00000000000E+00 0.  1.
     999901    1    3    3    0    0  0.47908461840E-01 -0.12351948707E+00  0.52122336267E-01  0.89144210263E+00  0.88000000000E+00 0.  1.
        -11    1    4    4    0    0  0.14496002232E-03  0.81221756580E-02 -0.97439480629E-02  0.12696314256E-01  0.51100000000E-03 0.  1.
         11    1    4    4    0    0 -0.30623577559E-01  0.10293559405E+00 -0.48008657568E-01  0.11763771651E+00  0.51100000000E-03 0. -1.
</event>
<event>
 8    1  0.1123450E+005  0.1043930E+01  0.7957747E-01            NaN
         13   -1    0    0    0    0  0.00000000000E+00  0.00000000000E+00  0.74505805969E-08  0.10566000000E+00  0.10566000000E+00 0. -1.
     999900   -1    0    0    0    0 -0.00000000000E+00 -0.00000000000E+00 -0.74505805969E-08  0.93827000000E+00  0.93827000000E+00 0. -1.
     999902    2    1    2    0    0 -0.12225391764E-01 -0.55264188433E-02  0.19420614506E-01  0.10203257255E+01  0.10200526576E+01 0.  0.
     999903    2    3    3    0    0 -0.81488681703E-01 -0.67819003819E-01  0.78379824667E-01  0.13344695249E+00  0.20612367375E-01 0.  0.
         14    1    1    2    0    0  0.12225391764E-01  0.55264188433E-02 -0.19420614506E-01  0.23604274545E-01  0.00000000000E+00 0.  1.
     999901    1    3    3    0    0  0.69263289939E-01  0.62292584976E-01 -0.58959210161E-01  0.88687877297E+00  0.88000000000E+00 0. -1.
        -11    1    4    4    0    0 -0.43234672549E-01 -0.27237004282E-01  0.47129184998E-01  0.69516275160E-01  0.51100000000E-03 0. -1.
         11    1    4    4    0    0 -0.38254009154E-01 -0.40581999537E-01  0.31250639670E-01  0.63930677328E-01  0.51100000000E-03 0.  1.
</event>
<event>
 8    1  0.1123450E+005  0.1043930E+01  0.7957747E-01            NaN
         13   -1    0    0    0    0  0.00000000000E+00  0.00000000000E+00  0.74505805969E-08  0.10566000000E+00  0.10566000000E+00 0. -1.
     999900   -1    0    0    0    0 -0.00000000000E+00 -0.00000000000E+00 -0.74505805969E-08  0.93827000000E+00  0.93827000000E+00 0.  1.
     999902    2    1    2    0    0  0.88595601675E-02  0.32274753476E-02  0.21938490237E-01  0.10200510185E+01  0.10197714816E+01 0.  0.
     999903    2    3    3    0    0 -0.66927527883E-02 -0.96081434521E-01  0.87954744017E-01  0.13187182499E+00  0.19434665750E-01 0.  0.
         14    1    1    2    0    0 -0.88595601675E-02 -0.32274753476E-02 -0.21938490237E-01  0.23878981497E-01  0.00000000000E+00 0.  1.
     999901    1    3    3    0    0  0.15552312956E-01  0.99308909868E-01 -0.66016253780E-01  0.88817919351E+00  0.88000000000E+00 0. -1.
        -11    1    4    4    0    0 -0.79865626443E-02 -0.32219157658E-01  0.40088945579E-01  0.52050398478E-01  0.51100000000E-03 0.  1.
         11    1    4    4    0    0  0.12938098559E-02 -0.63862276863E-01  0.47865798438E-01  0.79821426516E-01  0.51100000000E-03 0. -1.
</event>
<event>
 8    1  0.1123450E+005  0.1043930E+01  0.7957747E-01            NaN
         13   -1    0    0    0    0  0.00000000000E+00  0.00000000000E+00  0.74505805969E-08  0.10566000000E+00  0.10566000000E+00 0. -1.
     999900   -1    0    0    0    0 -0.00000000000E+00 -0.00000000000E+00 -0.74505805969E-08  0.93827000000E+00  0.93827000000E+00 0. -1.
     999902    2    1    2    0    0 -0.40559542181E-02 -0.72586790299E-02  0.19881432254E-01  0.10223798136E+01  0.10221526660E+01 0.  0.
     999903    2    3    3    0    0  0.42416062251E-01 -0.90175824829E-01 -0.83079567176E-01  0.13129291054E+00  0.20119944221E-01 0.  0.
         14    1    1    2    0    0  0.40559542181E-02  0.72586790299E-02 -0.19881432254E-01  0.21550186411E-01  0.00000000000E+00 0.  1.
     999901    1    3    3    0    0 -0.46472016469E-01  0.82917145799E-01  0.10296099943E+00  0.89108690305E+00  0.88000000000E+00 0.  1.
        -11    1    4    4    0    0  0.22356658666E-01 -0.48534287019E-01 -0.31499046604E-01  0.62031026600E-01  0.51100000000E-03 0. -1.
         11    1    4    4    0    0  0.20059403585E-01 -0.41641537810E-01 -0.51580520572E-01  0.69261883940E-01  0.51100000000E-03 0.  1.
</event>
<event>
 8    1  0.1123450E+005  0.1043930E+01  0.7957747E-01            NaN
         13   -1    0    0    0    0  0.00000000000E+00  0.00000000000E+00  0.74505805969E-08  0.10566000000E+00  0.10566000000E+00 0.  1.
     999900   -1    0    0    0    0 -0.00000000000E+00 -0.00000000000E+00 -0.74505805969E-08  0.93827000000E+00  0.93827000000E+00 0. -1.
     999902    2    1    2    0    0 -0.13653844022E-01 -0.13888603312E-01 -0.77259990197E-02  0.10229773911E+01  0.10227627931E+01 0.  0.
     999903    2    3    3    0    0 -0.39121905840E-01  0.75815745417E-02  0.12462869012E+00  0.13245655786E+00  0.20601590442E-01 0.  0.
         14    1    1    2    0    0  0.13653844022E-01  0.13888603312E-01  0.77259990197E-02  0.20952608892E-01  0.00000000000E+00 0.  1.
     999901    1    3    3    0    0  0.25468061818E-01 -0.21470177854E-01 -0.13235468914E+00  0.89052083325E+00  0.88000000000E+00 0. -1.
        -11    1    4    4    0    0 -0.18477944585E-01  0.12570510236E-01  0.48222315678E-01  0.53151716944E-01  0.51100000000E-03 0.  1.
         11    1    4    4    0    0 -0.20643961255E-01 -0.49889356947E-02  0.76406374447E-01  0.79304840916E-01  0.51100000000E-03 0. -1.
</event>
<event>
 8    1  0.1123450E+005  0.1043930E+01  0.7957747E-01            NaN
         13   -1    0    0    0    0  0.00000000000E+00  0.00000000000E+00  0.74505805969E-08  0.10566000000E+00  0.10566000000E+00 0. -1.
     999900   -1    0    0    0    0 -0.00000000000E+00 -0.00000000000E+00 -0.74505805969E-08  0.93827000000E+00  0.93827000000E+00 0. -1.
     999902    2    1    2    0    0  0.17396841583E-02  0.23229196598E-01 -0.20564828204E-02  0.10205451503E+01  0.10202771940E+01 0.  0.
     999903    2    3    3    0    0 -0.20245972305E-02  0.23209852274E-01  0.12800508844E+00  0.13097773713E+00  0.15068799596E-01 0.  0.
         14    1    1    2    0    0 -0.17396841583E-02 -0.23229196598E-01  0.20564828204E-02  0.23384849736E-01  0.00000000000E+00 0. -1.
     999901    1    3    3    0    0  0.37642813887E-02  0.19344323949E-04 -0.13006157126E+00  0.88956741313E+00  0.88000000000E+00 0. -1.
        -11    1    4    4    0    0 -0.77938862790E-02  0.17803525249E-01  0.80354846585E-01  0.82673288705E-01  0.51100000000E-03 0.  1.
         11    1    4    4    0    0  0.57692890485E-02  0.54063270252E-02  0.47650241855E-01  0.48304448427E-01  0.51100000000E-03 0. -1.
</event>
<event>
 8    1  0.1123450E+005  0.1043930E+01  0.7957747E-01            NaN
         13   -1    0    0    0    0  0.00000000000E+00  0.00000000000E+00  0.74505805969E-08  0.10566000000E+00  0.10566000000E+00 0.  1.
     999900   -1    0    0    0    0 -0.00000000000E+00 -0.00000000000E+00 -0.74505805969E-08  0.93827000000E+00  0.93827000000E+00 0. -1.
     999902    2    1    2    0    0 -0.24468530011E-02  0.52359182933E-02 -0.23060123605E-01  0.10201566698E+01  0.10198796300E+01 0.  0.
     999903    2    3    3    0    0  0.96556833103E-01  0.59412160191E-01 -0.64590667403E-01  0.13197786957E+00  0.19828689872E-01 0.  0.
         14    1    1    2    0    0  0.24468530011E-02 -0.52359182933E-02  0.23060123605E-01  0.23773330239E-01  0.00000000000E+00 0.  1.
     999901    1    3    3    0    0 -0.99003686104E-01 -0.54176241897E-01  0.41530543799E-01  0.88817880020E+00  0.88000000000E+00 0.  1.
        -11    1    4    4    0    0  0.31228921374E-01  0.19510351290E-01 -0.10664090260E-01  0.38339056844E-01  0.51100000000E-03 0.  1.
         11    1    4    4    0    0  0.65327911730E-01  0.39901808900E-01 -0.53926577144E-01  0.93638812722E-01  0.51100000000E-03 0. -1.
</event>
<event>
 8    1  0.1123450E+005  0.1043930E+01  0.7957747E-01            NaN
         13   -1    0    0    0    0  0.00000000000E+00  0.00000000000E+00  0.74505805969E-08  0.10566000000E+00  0.10566000000E+00 0.  1.
     999900   -1    0    0    0    0 -0.00000000000E+00 -0.00000000000E+00 -0.74505805969E-08  0.93827000000E+00  0.93827000000E+00 0. -1.
     999902    2    1    2    0    0  0.16127410046E-01 -0.11395757418E-02  0.16498054816E-01  0.10208306970E+01  0.10205693186E+01 0.  0.
     999903    2    3    3    0    0  0.96667137649E-02 -0.44099771749E-01 -0.11912474075E+00  0.12938195379E+00  0.22599798355E-01 0.  0.
         14    1    1    2    0    0 -0.16127410046E-01  0.11395757418E-02 -0.16498054816E-01  0.23099303028E-01  0.00000000000E+00 0. -1.
     999901    1    3    3    0    0  0.64606962814E-02  0.42960196007E-01  0.13562279556E+00  0.89144874318E+00  0.88000000000E+00 0.  1.
        -11    1    4    4    0    0  0.15903658358E-01 -0.36873367226E-01 -0.10405501071E+00  0.11153599390E+00  0.51100000000E-03 0. -1.
         11    1    4    4    0    0 -0.62369445931E-02 -0.72264045226E-02 -0.15069730037E-01  0.17845959895E-01  0.51100000000E-03 0.  1.
</event>
<event>
 8    1  0.1123450E+005  0.1043930E+01  0.7957747E-01            NaN
         13   -1    0    0    0    0  0.00000000000E+00  0.00000000000E+00  0.74505805969E-08  0.10566000000E+00  0.10566000000E+00 0. -1.
     999900   -1    0    0    0    0 -0.00000000000E+00 -0.00000000000E+00 -0.74505805969E-08  0.93827000000E+00  0.93827000000E+00 0.  1.
     999902    2    1    2    0    0 -0.20053295153E-01 -0.11528076858E-01  0.47456974315E-02  0.10203174430E+01  0.10200441813E+01 0.  0.
     999903    2    3    3    0    0  0.35983088128E-01  0.87645093735E-01 -0.84408331298E-01  0.12850813894E+00  0.20325606884E-01 0.  0.
         14    1    1    2    0    0  0.20053295153E-01  0.11528076858E-01 -0.47456974315E-02  0.23612556969E-01  0.00000000000E+00 0. -1.
     999901    1    3    3    0    0 -0.56036383280E-01 -0.99173170593E-01  0.89154028730E-01  0.89180930409E+00  0.88000000000E+00 0.  1.
        -11    1    4    4    0    0  0.16453873019E-01  0.36590555919E-01 -0.49200212459E-01  0.63486382373E-01  0.51100000000E-03 0. -1.
         11    1    4    4    0    0  0.19529215109E-01  0.51054537816E-01 -0.35208118839E-01  0.65021756571E-01  0.51100000000E-03 0.  1.
</event>
<event>
 8    1  0.1123450E+005  0.1043930E+01  0.7957747E-01            NaN
         13   -1    0    0    0    0  0.00000000000E+00  0.00000000000E+00  0.74505805969E-08  0.10566000000E+00  0.10566000000E+00 0.  1.
     999900   -1    0    0    0    0 -0.00000000000E+00 -0.00000000000E+00 -0.74505805969E-08  0.93827000000E+00  0.93827000000E+00 0.  1.
     999902    2    1    2    0    0 -0.39708384331E-02 -0.14662428891E-02  0.22498670274E-01  0.10210366038E+01  0.10207799169E+01 0.  0.
     999903    2    3    3    0    0 -0.52960334826E-01  0.95186748895E-01  0.73471478393E-01  0.13292625099E+00  0.20149834614E-01 0.  0.
         14    1    1    2    0    0  0.39708384331E-02  0.14662428891E-02 -0.22498670274E-01  0.22893396213E-01  0.00000000000E+00 0. -1.
     999901    1    3    3    0    0  0.48989496393E-01 -0.96652991784E-01 -0.50972808120E-01  0.88811035280E+00  0.88000000000E+00 0.  1.
        -11    1    4    4    0    0 -0.48002804246E-01  0.75636267505E-01  0.52543146003E-01  0.10385642730E+00  0.51100000000E-03 0. -1.
         11    1    4    4    0    0 -0.49575305794E-02  0.19550481389E-01  0.20928332391E-01  0.29069823695E-01  0.51100000000E-03 0.  1.
</event>
<event>
 8    1  0.1123450E+005  0.1043930E+01  0.7957747E-01            NaN
         13   -1    0    0    0    0  0.00000000000E+00  0.00000000000E+00  0.74505805969E-08  0.10566000000E+00  0.10566000000E+00 0.  1.
     999900   -1    0    0    0    0 -0.00000000000E+00 -0.00000000000E+00 -0.74505805969E-08  0.93827000000E+00  0.93827000000E+00 0.  1.
     999902    2    1    2    0    0  0.15533285639E-01 -0.16966484236E-01  0.79734266506E-02  0.10195841568E+01  0.10192934478E+01 0.  0.
     999903    2    3    3    0    0  0.27159092070E-01 -0.89361670871E-01 -0.90468852361E-01  0.13106454262E+00  0.16437049088E-01 0.  0.
         14    1    1    2    0    0 -0.15533285639E-01  0.16966484236E-01 -0.79734266506E-02  0.24345843231E-01  0.00000000000E+00 0. -1.
     999901    1    3    3    0    0 -0.11625806431E-01  0.72395186636E-01  0.98442279012E-01  0.88851961414E+00  0.88000000000E+00 0. -1.
        -11    1    4    4    0    0  0.17089928043E-01 -0.37448295076E-01 -0.31352916159E-01  0.51746564304E-01  0.51100000000E-03 0.  1.
         11    1    4    4    0    0  0.10069164027E-01 -0.51913375795E-01 -0.59115936202E-01  0.79317978320E-01  0.51100000000E-03 0. -1.
</event>
<event>
 8    1  0.1123450E+005  0.1043930E+01  0.7957747E-01            NaN
         13   -1    0    0    0    0  0.00000000000E+00  0.00000000000E+00  0.74505805969E-08  0.10566000000E+00  0.10566000000E+00 0. -1.
     999900   -1    0    0    0    0 -0.00000000000E+00 -0.00000000000E+00 -0.74505805969E-08  0.93827000000E+00  0.93827000000E+00 0.  1.
     999902    2    1    2    0    0 -0.61116253569E-02  0.11336767512E-01  0.19683334530E-01  0.10204075018E+01  0.10201363447E+01 0.  0.
     999903    2    3    3    0    0 -0.86332703269E-01  0.70050813703E-01 -0.64750925148E-01  0.13079415617E+00  0.23536712320E-01 0.  0.
         14    1    1    2    0    0  0.61116253569E-02 -0.11336767512E-01 -0.19683334530E-01  0.23522498174E-01  0.00000000000E+00 0.  1.
     999901    1    3    3    0    0  0.80221077912E-01 -0.58714046191E-01  0.84434259677E-01  0.88961334566E+00  0.88000000000E+00 0. -1.
        -11    1    4    4    0    0 -0.55103931655E-01  0.50991454184E-01 -0.31732028052E-01  0.81509228980E-01  0.51100000000E-03 0.  1.
         11    1    4    4    0    0 -0.31228771614E-01  0.19059359519E-01 -0.33018897096E-01  0.49284927191E-01  0.51100000000E-03 0. -1.
</event>
<event>
 8    1  0.1123450E+005  0.1043930E+01  0.7957747E-01            NaN
         13   -1    0    0    0    0  0.00000000000E+00  0.00000000000E+00  0.74505805969E-08  0.10566000000E+00  0.10566000000E+00 0. -1.
     999900   -1    0    0    0    0 -0.00000000000E+00 -0.00000000000E+00 -0.74505805969E-08  0.93827000000E+00  0.93827000000E+00 0. -1.
     999902    2    1    2    0    0 -0.19468888606E-01 -0.12517228347E-01 -0.58176645479E-03  0.10207770935E+01  0.10205144866E+01 0.  0.
     999903    2    3    3    0    0 -0.11646301207E+00 -0.61434779058E-01 -0.13214281862E-01  0.13400746881E+00  0.21107325620E-01 0.  0.
         14    1    1    2    0    0  0.19468888606E-01  0.12517228347E-01  0.58176645479E-03  0.23152906540E-01  0.00000000000E+00 0. -1.
     999901    1    3    3    0    0  0.96994123460E-01  0.48917550711E-01  0.12632515407E-01  0.88676962465E+00  0.88000000000E+00 0. -1.
        -11    1    4    4    0    0 -0.92526372660E-01 -0.47975595240E-01 -0.17381112441E-02  0.10424044094E+00  0.51100000000E-03 0. -1.
         11    1    4    4    0    0 -0.23936639405E-01 -0.13459183818E-01 -0.11476170618E-01  0.29767027868E-01  0.51100000000E-03 0.  1.
</event>
<event>
 8    1  0.1123450E+005  0.1043930E+01  0.7957747E-01            NaN
         13   -1    0    0    0    0  0.00000000000E+00  0.00000000000E+00  0.74505805969E-08  0.10566000000E+00  0.10566000000E+00 0. -1.
     999900   -1    0    0    0    0 -0.00000000000E+00 -0.00000000000E+00 -0.74505805969E-08  0.93827000000E+00  0.93827000000E+00 0. -1.
     999902    2    1    2    0    0  0.48356233832E-02 -0.22345552837E-01 -0.32938186128E-02  0.10208311640E+01  0.10205697963E+01 0.  0.
     999903    2    3    3    0    0 -0.15673874686E-01  0.11184649606E+00  0.57505940846E-01  0.12834880770E+00  0.20277430234E-01 0.  0.
         14    1    1    2    0    0 -0.48356233832E-02  0.22345552837E-01  0.32938186128E-02  0.23098836034E-01  0.00000000000E+00 0.  1.
     999901    1    3    3    0    0  0.20509498069E-01 -0.13419204889E+00 -0.60799759459E-01  0.89248235627E+00  0.88000000000E+00 0.  1.
        -11    1    4    4    0    0  0.32950301877E-02  0.17286324882E-01  0.14240744734E-01  0.22643634502E-01  0.51100000000E-03 0. -1.
         11    1    4    4    0    0 -0.18968904874E-01  0.94560171177E-01  0.43265196112E-01  0.10570517320E+00  0.51100000000E-03 0.  1.
</event>
<event>
 8    1  0.1123450E+005  0.1043930E+01  0.7957747E-01            NaN
         13   -1    0    0    0    0  0.00000000000E+00  0.00000000000E+00  0.74505805969E-08  0.10566000000E+00  0.10566000000E+00 0.  1.
     999900   -1    0    0    0    0 -0.00000000000E+00 -0.00000000000E+00 -0.74505805969E-08  0.93827000000E+00  0.93827000000E+00 0. -1.
     999902    2    1    2    0    0  0.53635392818E-02  0.22828476360E-01  0.48358015492E-02  0.10199864860E+01  0.10197054181E+01 0.  0.
     999903    2    3    3    0    0  0.19713117928E-01 -0.11201958137E+00 -0.54433451083E-01  0.12762851220E+00  0.19724170471E-01 0.  0.
         14    1    1    2    0    0 -0.53635392818E-02 -0.22828476360E-01 -0.48358015492E-02  0.23943514010E-01  0.00000000000E+00 0.  1.
     999901    1    3    3    0    0 -0.14349578646E-01  0.13484805773E+00  0.59269252633E-01  0.89235797379E+00  0.88000000000E+00 0. -1.
        -11    1    4    4    0    0  0.27003996438E-02 -0.68557388700E-01 -0.29189875076E-01  0.74563514077E-01  0.51100000000E-03 0.  1.
         11    1    4    4    0    0  0.17012718284E-01 -0.43462192668E-01 -0.25243576007E-01  0.53064998121E-01  0.51100000000E-03 0. -1.
</event>
<event>
 8    1  0.1123450E+005  0.1043930E+01  0.7957747E-01            NaN
         13   -1    0    0    0    0  0.00000000000E+00  0.00000000000E+00  0.74505805969E-08  0.10566000000E+00  0.10566000000E+00 0. -1.
     999900   -1    0    0    0    0 -0.00000000000E+00 -0.00000000000E+00 -0.74505805969E-08  0.93827000000E+00  0.93827000000E+00 0.  1.
     999902    2    1    2    0    0 -0.42725259359E-02  0.81585608206E-02  0.22131714051E-01  0.10199585720E+01  0.10196768406E+01 0.  0.
     999903    2    3    3    0    0  0.89375809286E-01 -0.74716574352E-01 -0.49389575131E-01  0.12824472020E+00  0.20899195184E-01 0.  0.
         14    1    1    2    0    0  0.42725259359E-02 -0.81585608206E-02 -0.22131714051E-01  0.23971427980E-01  0.00000000000E+00 0.  1.
     999901    1    3    3    0    0 -0.93648335222E-01  0.82875135173E-01  0.71521289182E-01  0.89171385182E+00  0.88000000000E+00 0.  1.
        -11    1    4    4    0    0  0.67159496937E-01 -0.61032229884E-01 -0.29475288130E-01  0.95416900205E-01  0.51100000000E-03 0.  1.
         11    1    4    4    0    0  0.22216312349E-01 -0.13684344468E-01 -0.19914287000E-01  0.32827819996E-01  0.51100000000E-03 0. -1.
</event>
<event>
 8    1  0.1123450E+005  0.1043930E+01  0.7957747E-01            NaN
         13   -1    0    0    0    0  0.00000000000E+00  0.00000000000E+00  0.74505805969E-08  0.10566000000E+00  0.10566000000E+00 0. -1.
     999900   -1    0    0    0    0 -0.00000000000E+00 -0.00000000000E+00 -0.74505805969E-08  0.93827000000E+00  0.93827000000E+00 0.  1.
     999902    2    1    2    0    0 -0.30476156612E-02  0.11071094217E-01  0.20079815776E-01  0.10207987205E+01  0.10205366097E+01 0.  0.
     999903    2    3    3    0    0 -0.16663057547E-01  0.58242678291E-02  0.13107144161E+00  0.13370681410E+00  0.19652219954E-01 0.  0.
         14    1    1    2    0    0  0.30476156612E-02 -0.11071094217E-01 -0.20079815776E-01  0.23131279472E-01  0.00000000000E+00 0. -1.
     999901    1    3    3    0    0  0.13615441886E-01  0.52468263881E-02 -0.11099162583E+00  0.88709190643E+00  0.88000000000E+00 0.  1.
        -11    1    4    4    0    0 -0.43038973986E-02  0.29903149344E-02  0.10007212309E+00  0.10021056061E+00  0.51100000000E-03 0.  1.
         11    1    4    4    0    0 -0.12359160148E-01  0.28339528947E-02  0.30999318518E-01  0.33496253494E-01  0.51100000000E-03 0. -1.
</event>
<event>
 8    1  0.1123450E+005  0.1043930E+01  0.7957747E-01            NaN
         13   -1    0    0    0    0  0.00000000000E+00  0.00000000000E+00  0.74505805969E-08  0.10566000000E+00  0.10566000000E+00 0.  1.
     999900   -1    0    0    0    0 -0.00000000000E+00 -0.00000000000E+00 -0.74505805969E-08  0.93827000000E+00  0.93827000000E+00 0.  1.
     999902    2    1    2    0    0  0.40982024702E-02  0.13963959614E-01  0.15257505964E-01  0.10228449598E+01  0.10226276120E+01 0.  0.
     999903    2    3    3    0    0  0.25647686295E-01  0.37191540429E-01  0.12502509409E+00  0.13545957331E+00  0.26019365041E-01 0.  0.
         14    1    1    2    0    0 -0.40982024702E-02 -0.13963959614E-01 -0.15257505964E-01  0.21085040190E-01  0.00000000000E+00 0. -1.
     999901    1    3    3    0    0 -0.21549483824E-01 -0.23227580814E-01 -0.10976758813E+00  0.88738538650E+00  0.88000000000E+00 0.  1.
        -11    1    4    4    0    0  0.65300755277E-02  0.24325959904E-01  0.39231006484E-01  0.46623247446E-01  0.51100000000E-03 0. -1.
         11    1    4    4    0    0  0.19117610767E-01  0.12865580524E-01  0.85794087611E-01  0.88836325867E-01  0.51100000000E-03 0.  1.
</event>
<event>
 8    1  0.1123450E+005  0.1043930E+01  0.7957747E-01            NaN
         13   -1    0    0    0    0  0.00000000000E+00  0.00000000000E+00  0.74505805969E-08  0.10566000000E+00  0.10566000000E+00 0.  1.
     999900   -1    0    0    0    0 -0.00000000000E+00 -0.00000000000E+00 -0.74505805969E-08  0.93827000000E+00  0.93827000000E+00 0.  1.
     999902    2    1    2    0    0 -0.20871390955E-01  0.97361102607E-02 -0.71927025431E-02  0.10198023857E+01  0.10195169268E+01 0.  0.
     999903    2    3    3    0    0 -0.70281502966E-01 -0.68503772668E-01  0.83300679767E-01  0.13033519083E+00  0.20396131757E-01 0.  0.
         14    1    1    2    0    0  0.20871390955E-01 -0.97361102607E-02  0.71927025431E-02  0.24127614331E-01  0.00000000000E+00 0.  1.
     999901    1    3    3    0    0  0.49410112010E-01  0.78239882929E-01 -0.90493382310E-01  0.88946719484E+00  0.88000000000E+00 0.  1.
        -11    1    4    4    0    0 -0.29265478290E-01 -0.15514011394E-01  0.30360758469E-01  0.44935393009E-01  0.51100000000E-03 0. -1.
         11    1    4    4    0    0 -0.41016024675E-01 -0.52989761275E-01  0.52939921299E-01  0.85399797823E-01  0.51100000000E-03 0.  1.
</event>
<event>
 8    1  0.1123450E+005  0.1043930E+01  0.7957747E-01            NaN
         13   -1    0    0    0    0  0.00000000000E+00  0.00000000000E+00  0.74505805969E-08  0.10566000000E+00  0.10566000000E+00 0.  1.
     999900   -1    0    0    0    0 -0.00000000000E+00 -0.00000000000E+00 -0.74505805969E-08  0.93827000000E+00  0.93827000000E+00 0. -1.
     999902    2    1    2    0    0  0.30589471690E-02  0.18202902793E-01 -0.13235376995E-01  0.10212170514E+01  0.10209644402E+01 0.  0.
     999903    2    3    3    0    0 -0.12919537175E+00 -0.28552310495E-02  0.44796238692E-02  0.13090897492E+00  0.20432725198E-01 0.  0.
         14    1    1    2    0    0 -0.30589471690E-02 -0.18202902793E-01  0.13235376995E-01  0.22712948555E-01  0.00000000000E+00 0.  1.
     999901    1    3    3    0    0  0.13225431892E+00  0.21058133843E-01 -0.17715000864E-01  0.89030807653E+00  0.88000000000E+00 0. -1.
        -11    1    4    4    0    0 -0.25694500452E-01 -0.41676899844E-02  0.83050402542E-02  0.27327857726E-01  0.51100000000E-03 0. -1.
         11    1    4    4    0    0 -0.10350087130E+00  0.13124589349E-02 -0.38254163851E-02  0.10358111719E+00  0.51100000000E-03 0.  1.
</event>
<event>
 8    1  0.1123450E+005  0.1043930E+01  0.7957747E-01            NaN
         13   -1    0    0    0    0  0.00000000000E+00  0.00000000000E+00  0.74505805969E-08  0.10566000000E+00  0.10566000000E+00 0.  1.
     999900   -1    0    0    0    0 -0.00000000000E+00 -0.00000000000E+00 -0.74505805969E-08  0.93827000000E+00  0.93827000000E+00 0.  1.
     999902    2    1    2    0    0  0.20300698507E-01  0.11235531761E-01 -0.51912398612E-02  0.10201538669E+01  0.10198767610E+01 0.  0.
     999903    2    3    3    0    0  0.89942487975E-01  0.28625072918E-01 -0.91616366480E-01  0.13301144457E+00  0.19734230106E-01 0.  0.
         14    1    1    2    0    0 -0.20300698507E-01 -0.11235531761E-01  0.51912398612E-02  0.23776133099E-01  0.00000000000E+00 0. -1.
     999901    1    3    3    0    0 -0.69641789468E-01 -0.17389541157E-01  0.86425126618E-01  0.88714242233E+00  0.88000000000E+00 0. -1.
        -11    1    4    4    0    0  0.26573653055E-01  0.18169030592E-01 -0.29910249870E-01  0.43944930056E-01  0.51100000000E-03 0. -1.
         11    1    4    4    0    0  0.63368834921E-01  0.10456042326E-01 -0.61706116609E-01  0.89066514518E-01  0.51100000000E-03 0.  1.
</event>
<event>
 8    1  0.1123450E+005  0.1043930E+01  0.7957747E-01            NaN
         13   -1    0    0    0    0  0.00000000000E+00  0.00000000000E+00  0.74505805969E-08  0.10566000000E+00  0.10566000000E+00 0. -1.
     999900   -1    0    0    0    0 -0.00000000000E+00 -0.00000000000E+00 -0.74505805969E-08  0.93827000000E+00  0.93827000000E+00 0.  1.
     999902    2    1    2    0    0 -0.77863613949E-02  0.14397145779E-01  0.15773890900E-01  0.10211985050E+01  0.10209454764E+01 0.  0.
     999903    2    3    3    0    0 -0.12943217978E+00 -0.58008338085E-02  0.20094158503E-01  0.13259042029E+00  0.19751088917E-01 0.  0.
         14    1    1    2    0    0  0.77863613949E-02 -0.14397145779E-01 -0.15773890900E-01  0.22731494990E-01  0.00000000000E+00 0.  1.
     999901    1    3    3    0    0  0.12164581838E+00  0.20197979588E-01 -0.43202676022E-02  0.88860808472E+00  0.88000000000E+00 0.  1.
        -11    1    4    4    0    0 -0.60322365903E-01  0.52110507684E-02  0.15246418797E-01  0.62439228738E-01  0.51100000000E-03 0. -1.
         11    1    4    4    0    0 -0.69109813873E-01 -0.11011884577E-01  0.48477397050E-02  0.70151191556E-01  0.51100000000E-03 0.  1.
</event>
<event>
 8    1  0.1123450E+005  0.1043930E+01  0.7957747E-01            NaN
         13   -1    0    0    0    0  0.00000000000E+00  0.00000000000E+00  0.74505805969E-08  0.10566000000E+00  0.10566000000E+00 0. -1.
     999900   -1    0    0    0    0 -0.00000000000E+00 -0.00000000000E+00 -0.74505805969E-08  0.93827000000E+00  0.93827000000E+00 0. -1.
     999902    2    1    2    0    0 -0.10501085580E-01  0.20846397532E-01  0.53897734262E-02  0.10199738996E+01  0.10196925326E+01 0.  0.
     999903    2    3    3    0    0 -0.23292388189E-01 -0.39323240486E-01 -0.11901913879E+00  0.12909703932E+00  0.20288853377E-01 0.  0.
         14    1    1    2    0    0  0.10501085580E-01 -0.20846397532E-01 -0.53897734262E-02  0.23956100393E-01  0.00000000000E+00 0.  1.
     999901    1    3    3    0    0  0.12791302608E-01  0.60169638018E-01  0.12440891222E+00  0.89087686029E+00  0.88000000000E+00 0.  1.
        -11    1    4    4    0    0 -0.35791900616E-02  0.53682794945E-03 -0.22884879301E-01  0.23174934895E-01  0.51100000000E-03 0.  1.
         11    1    4    4    0    0 -0.19713198127E-01 -0.39860068435E-01 -0.96134259492E-01  0.10592210442E+00  0.51100000000E-03 0. -1.
</event>
<event>
 8    1  0.1123450E+005  0.1043930E+01  0.7957747E-01            NaN
         13   -1    0    0    0    0  0.00000000000E+00  0.00000000000E+00  0.74505805969E-08  0.10566000000E+00  0.10566000000E+00 0.  1.
     999900   -1    0    0    0    0 -0.00000000000E+00 -0.00000000000E+00 -0.74505805969E-08  0.93827000000E+00  0.93827000000E+00 0. -1.
     999902    2    1    2    0    0  0.10282682048E-01 -0.54955141862E-02  0.20553091807E-01  0.10203002770E+01  0.10200266131E+01 0.  0.
     999903    2    3    3    0    0  0.59052845733E-01 -0.75167498110E-01  0.90825584165E-01  0.13341193149E+00  0.20299393216E-01 0.  0.
         14    1    1    2    0    0 -0.10282682048E-01  0.54955141862E-02 -0.20553091807E-01  0.23629723001E-01  0.00000000000E+00 0. -1.
     999901    1    3    3    0    0 -0.48770163685E-01  0.69671983924E-01 -0.70272492358E-01  0.88688834550E+00  0.88000000000E+00 0. -1.
        -11    1    4    4    0    0  0.23416583217E-01 -0.41541482109E-01  0.35139544994E-01  0.59237486854E-01  0.51100000000E-03 0. -1.
         11    1    4    4    0    0  0.35636262516E-01 -0.33626016001E-01  0.55686039171E-01  0.74174444641E-01  0.51100000000E-03 0.  1.
</event>
<event>
 8    1  0.1123450E+005  0.1043930E+01  0.7957747E-01            NaN
         13   -1    0    0    0    0  0.00000000000E+00  0.00000000000E+00  0.74505805969E-08  0.10566000000E+00  0.10566000000E+00 0.  1.
     999900   -1    0    0    0    0 -0.00000000000E+00 -0.00000000000E+00 -0.74505805969E-08  0.93827000000E+00  0.93827000000E+00 0.  1.
     999902    2    1    2    0    0 -0.73618053715E-02 -0.16128141270E-01 -0.16164726517E-01  0.10199380951E+01  0.10196558764E+01 0.  0.
     999903    2    3    3    0    0 -0.79912162130E-01 -0.80825421488E-01  0.62238853022E-01  0.13112067083E+00  0.20006325960E-01 0.  0.
         14    1    1    2    0    0  0.73618053715E-02  0.16128141270E-01  0.16164726517E-01  0.23991904938E-01  0.00000000000E+00 0.  1.
     999901    1    3    3    0    0  0.72550356759E-01  0.64697280218E-01 -0.78403579540E-01  0.88881742423E+00  0.88000000000E+00 0.  1.
        -11    1    4    4    0    0 -0.72992119272E-01 -0.64057398469E-01  0.54782541778E-01  0.11150151469E+00  0.51100000000E-03 0.  1.
         11    1    4    4    0    0 -0.69200428586E-02 -0.16768023019E-01  0.74563112445E-02  0.19619156136E-01  0.51100000000E-03 0. -1.
</event>
<event>
 8    1  0.1123450E+005  0.1043930E+01  0.7957747E-01            NaN
         13   -1    0    0    0    0  0.00000000000E+00  0.00000000000E+00  0.74505805969E-08  0.10566000000E+00  0.10566000000E+00 0.  1.
     999900   -1    0    0    0    0 -0.00000000000E+00 -0.00000000000E+00 -0.74505805969E-08  0.93827000000E+00  0.93827000000E+00 0. -1.
     999902    2    1    2    0    0  0.11910000766E-01  0.46592607945E-02  0.17049251286E-01  0.10226172386E+01  0.10223951207E+01 0.  0.
     999903    2    3    3    0    0  0.74912016809E-01 -0.10364316180E+00  0.33328197967E-01  0.13359323843E+00  0.19561935598E-01 0.  0.
         14    1    1    2    0    0 -0.11910000766E-01 -0.46592607945E-02 -0.17049251286E-01  0.21312761407E-01  0.00000000000E+00 0. -1.
     999901    1    3    3    0    0 -0.63002016043E-01  0.10830242259E+00 -0.16278946681E-01  0.88902400017E+00  0.88000000000E+00 0. -1.
        -11    1    4    4    0    0  0.50699828405E-01 -0.53949392594E-01  0.20967345928E-01  0.76947386426E-01  0.51100000000E-03 0. -1.
         11    1    4    4    0    0  0.24212188404E-01 -0.49693769202E-01  0.12360852039E-01  0.56645852002E-01  0.51100000000E-03 0.  1.
</event>
<event>
 8    1  0.1123450E+005  0.1043930E+01  0.7957747E-01            NaN
         13   -1    0    0    0    0  0.00000000000E+00  0.00000000000E+00  0.74505805969E-08  0.10566000000E+00  0.10566000000E+00 0.  1.
     999900   -1    0    0    0    0 -0.00000000000E+00 -0.00000000000E+00 -0.74505805969E-08  0.93827000000E+00  0.93827000000E+00 0.  1.
     999902    2    1    2    0    0  0.67045732489E-02 -0.73581767006E-02  0.21481285375E-01  0.10202542806E+01  0.10199795378E+01 0.  0.
     999903    2    3    3    0    0  0.88399077209E-01 -0.57683741972E-01 -0.73294934720E-01  0.12997949922E+00  0.19511838027E-01 0.  0.
         14    1    1    2    0    0 -0.67045732489E-02  0.73581767006E-02 -0.21481285375E-01  0.23675719380E-01  0.00000000000E+00 0. -1.
     999901    1    3    3    0    0 -0.81694503960E-01  0.50325565271E-01  0.94776220094E-01  0.89027478140E+00  0.88000000000E+00 0. -1.
        -11    1    4    4    0    0  0.33174297560E-01 -0.11509662990E-01 -0.28154020685E-01  0.45010180654E-01  0.51100000000E-03 0. -1.
         11    1    4    4    0    0  0.55224779649E-01 -0.46174078982E-01 -0.45140914035E-01  0.84969318569E-01  0.51100000000E-03 0.  1.
</event>
<event>
 8    1  0.1392984E+005  0.1043930E+01  0.7957747E-01            NaN
         13   -1    0    0    0    0  0.00000000000E+00  0.00000000000E+00  0.74505805969E-08  0.10566000000E+00  0.10566000000E+00 0.  1.
     999900   -1    0    0    0    0 -0.00000000000E+00 -0.00000000000E+00 -0.74505805969E-08  0.93827000000E+00  0.93827000000E+00 0. -1.
     999902    2    1    2    0    0 -0.17401872920E-01  0.95231814668E-03 -0.15838217526E-01  0.10203804517E+01  0.10201086633E+01 0.  0.
     999903    2    3    3    0    0  0.22281050407E-01  0.12296971921E+00  0.30055161720E-01  0.12989228062E+00  0.18726846242E-01 0.  0.
         14    1    1    2    0    0  0.17401872920E-01 -0.95231814668E-03  0.15838217526E-01  0.23549548305E-01  0.00000000000E+00 0. -1.
     999901    1    3    3    0    0 -0.39682923327E-01 -0.12201740106E+00 -0.45893379246E-01  0.89048817107E+00  0.88000000000E+00 0.  1.
        -11    1    4    4    0    0  0.12003606057E-01  0.62206044509E-01  0.24811464615E-01  0.68040785042E-01  0.51100000000E-03 0. -1.
         11    1    4    4    0    0  0.10277444350E-01  0.60763674696E-01  0.52436971054E-02  0.61851495578E-01  0.51100000000E-03 0.  1.
</event>
<event>
 8    1  0.1123450E+005  0.1043930E+01  0.7957747E-01            NaN
         13   -1    0    0    0    0  0.00000000000E+00  0.00000000000E+00  0.74505805969E-08  0.10566000000E+00  0.10566000000E+00 0.  1.
     999900   -1    0    0    0    0 -0.00000000000E+00 -0.00000000000E+00 -0.74505805969E-08  0.93827000000E+00  0.93827000000E+00 0. -1.
     999902    2    1    2    0    0 -0.96212317841E-02 -0.16851085971E-01  0.13348283146E-01  0.10203778480E+01  0.10201059989E+01 0.  0.
     999903    2    3    3    0    0 -0.28598360000E-01  0.67439311778E-01  0.10702548539E+00  0.13119821445E+00  0.19813883634E-01 0.  0.
         14    1    1    2    0    0  0.96212317841E-02  0.16851085971E-01 -0.13348283146E-01  0.23552151969E-01  0.00000000000E+00 0. -1.
     999901    1    3    3    0    0  0.18977128216E-01 -0.84290397749E-01 -0.93677202246E-01  0.88917963358E+00  0.88000000000E+00 0. -1.
        -11    1    4    4    0    0 -0.20563563643E-01  0.50595627001E-01  0.63005324657E-01  0.83382909984E-01  0.51100000000E-03 0.  1.
         11    1    4    4    0    0 -0.80347963574E-02  0.16843684777E-01  0.44020160735E-01  0.47815304470E-01  0.51100000000E-03 0. -1.
</event>
<event>
 8    1  0.1123450E+005  0.1043930E+01  0.7957747E-01            NaN
         13   -1    0    0    0    0  0.00000000000E+00  0.00000000000E+00  0.74505805969E-08  0.10566000000E+00  0.10566000000E+00 0.  1.
     999900   -1    0    0    0    0 -0.00000000000E+00 -0.00000000000E+00 -0.74505805969E-08  0.93827000000E+00  0.93827000000E+00 0.  1.
     999902    2    1    2    0    0  0.21180739989E-02 -0.15656836408E-01  0.10002031709E-01  0.10252307112E+01  0.10250601679E+01 0.  0.
     999903    2    3    3    0    0  0.76796907493E-01  0.21743438846E-02 -0.10806212171E+00  0.13403262800E+00  0.19617095819E-01 0.  0.
         14    1    1    2    0    0 -0.21180739989E-02  0.15656836408E-01 -0.10002031709E-01  0.18699288812E-01  0.00000000000E+00 0. -1.
     999901    1    3    3    0    0 -0.74678833494E-01 -0.17831180292E-01  0.11806415341E+00  0.89119808319E+00  0.88000000000E+00 0. -1.
        -11    1    4    4    0    0  0.24992562442E-01 -0.24127213016E-02 -0.50850493332E-01  0.56714047595E-01  0.51100000000E-03 0.  1.
         11    1    4    4    0    0  0.51804345051E-01  0.45870651862E-02 -0.57211628373E-01  0.77318580402E-01  0.51100000000E-03 0. -1.
</event>
<event>
 8    1  0.1123450E+005  0.1043930E+01  0.7957747E-01            NaN
         13   -1    0    0    0    0  0.00000000000E+00  0.00000000000E+00  0.74505805969E-08  0.10566000000E+00  0.10566000000E+00 0.  1.
     999900   -1    0    0    0    0 -0.00000000000E+00 -0.00000000000E+00 -0.74505805969E-08  0.93827000000E+00  0.93827000000E+00 0.  1.
     999902    2    1    2    0    0 -0.83144445099E-05  0.20360235145E-01 -0.11760744909E-01  0.10204171447E+01  0.10201462125E+01 0.  0.
     999903    2    3    3    0    0 -0.11033725640E+00  0.30972565310E-01  0.60009185368E-01  0.13056546048E+00  0.17681266680E-01 0.  0.
         14    1    1    2    0    0  0.83144445099E-05 -0.20360235145E-01  0.11760744909E-01  0.23512855316E-01  0.00000000000E+00 0.  1.
     999901    1    3    3    0    0  0.11032894195E+00 -0.10612330165E-01 -0.71769930277E-01  0.88985168420E+00  0.88000000000E+00 0.  1.
        -11    1    4    4    0    0 -0.55638832440E-01  0.91128894803E-02  0.22356955209E-01  0.60653268644E-01  0.51100000000E-03 0. -1.
         11    1    4    4    0    0 -0.54698423957E-01  0.21859675830E-01  0.37652230159E-01  0.69912191839E-01  0.51100000000E-03 0.  1.
</event>
<event>
 8    1  0.1123450E+005  0.1043930E+01  0.7957747E-01            NaN
         13   -1    0    0    0    0  0.00000000000E+00  0.00000000000E+00  0.74505805969E-08  0.10566000000E+00  0.10566000000E+00 0.  1.
     999900   -1    0    0    0    0 -0.00000000000E+00 -0.00000000000E+00 -0.74505805969E-08  0.93827000000E+00  0.93827000000E+00 0. -1.
     999902    2    1    2    0    0 -0.73270381402E-03  0.16486737179E-01  0.18323659003E-01  0.10192701980E+01  0.10189718498E+01 0.  0.
     999903    2    3    3    0    0 -0.93930467048E-01 -0.63464726748E-01  0.60037956300E-01  0.12976576162E+00  0.19593175130E-01 0.  0.
         14    1    1    2    0    0  0.73270381402E-03 -0.16486737179E-01 -0.18323659003E-01  0.24659802046E-01  0.00000000000E+00 0. -1.
     999901    1    3    3    0    0  0.93197763234E-01  0.79951463926E-01 -0.41714297297E-01  0.88950443633E+00  0.88000000000E+00 0.  1.
        -11    1    4    4    0    0 -0.48025116802E-01 -0.43771069655E-01  0.36701753212E-01  0.74629740670E-01  0.51100000000E-03 0.  1.
         11    1    4    4    0    0 -0.45905350246E-01 -0.19693657092E-01  0.23336203088E-01  0.55136020952E-01  0.51100000000E-03 0. -1.
</event>
<event>
 8    1  0.1123450E+005  0.1043930E+01  0.7957747E-01            NaN
         13   -1    0    0    0    0  0.00000000000E+00  0.00000000000E+00  0.74505805969E-08  0.10566000000E+00  0.10566000000E+00 0. -1.
     999900   -1    0    0    0    0 -0.00000000000E+00 -0.00000000000E+00 -0.74505805969E-08  0.93827000000E+00  0.93827000000E+00 0. -1.
     999902    2    1    2    0    0 -0.48938603564E-02  0.42123053058E-02 -0.23875258274E-01  0.10191969989E+01  0.10188968551E+01 0.  0.
     999903    2    3    3    0    0 -0.76557760312E-01 -0.93575114051E-01 -0.45264881275E-01  0.13062758130E+00  0.19931454687E-01 0.  0.
         14    1    1    2    0    0  0.48938603564E-02 -0.42123053058E-02  0.23875258274E-01  0.24733001089E-01  0.00000000000E+00 0. -1.
     999901    1    3    3    0    0  0.71663899955E-01  0.97787419357E-01  0.21389623000E-01  0.88856941761E+00  0.88000000000E+00 0.  1.
        -11    1    4    4    0    0 -0.59878497214E-01 -0.66040485041E-01 -0.41094512926E-01  0.98162111869E-01  0.51100000000E-03 0.  1.
         11    1    4    4    0    0 -0.16679263098E-01 -0.27534629011E-01 -0.41703683492E-02  0.32465469431E-01  0.51100000000E-03 0. -1.
</event>
<event>
 8    1  0.1123450E+005  0.1043930E+01  0.7957747E-01            NaN
         13   -1    0    0    0    0  0.00000000000E+00  0.00000000000E+00  0.74505805969E-08  0.10566000000E+00  0.10566000000E+00 0. -1.
     999900   -1    0    0    0    0 -0.00000000000E+00 -0.00000000000E+00 -0.74505805969E-08  0.93827000000E+00  0.93827000000E+00 0. -1.
     999902    2    1    2    0    0  0.20344801172E-01  0.18841963335E-02 -0.11942616324E-01  0.10202638382E+01  0.10199893197E+01 0.  0.
     999903    2    3    3    0    0  0.48906242799E-01  0.91850210828E-01 -0.79732632119E-01  0.13262363745E+00  0.20086183618E-01 0.  0.
         14    1    1    2    0    0 -0.20344801172E-01 -0.18841963335E-02  0.11942616324E-01  0.23666161818E-01  0.00000000000E+00 0. -1.
     999901    1    3    3    0    0 -0.28561441628E-01 -0.89966014495E-01  0.67790015795E-01  0.88764020073E+00  0.88000000000E+00 0.  1.
        -11    1    4    4    0    0  0.40531070781E-01  0.65907637657E-01 -0.67737937090E-01  0.10283614949E+00  0.51100000000E-03 0.  1.
         11    1    4    4    0    0  0.83751720181E-02  0.25942573171E-01 -0.11994695029E-01  0.29787487959E-01  0.51100000000E-03 0. -1.
</event>
<event>
 8    1  0.1123450E+005  0.1043930E+01  0.7957747E-01            NaN
         13   -1    0    0    0    0  0.00000000000E+00  0.00000000000E+00  0.74505805969E-08  0.10566000000E+00  0.10566000000E+00 0. -1.
     999900   -1    0    0    0    0 -0.00000000000E+00 -0.00000000000E+00 -0.74505805969E-08  0.93827000000E+00  0.93827000000E+00 0.  1.
     999902    2    1    2    0    0  0.15173947502E-01  0.14806504913E-01  0.79147556713E-02  0.10212998293E+01  0.10210490765E+01 0.  0.
     999903    2    3    3    0    0 -0.27788928271E-01  0.16519818846E-01  0.12665613804E+00  0.13228449754E+00  0.20304729404E-01 0.  0.
         14    1    1    2    0    0 -0.15173947502E-01 -0.14806504913E-01 -0.79147556713E-02  0.22630170743E-01  0.00000000000E+00 0.  1.
     999901    1    3    3    0    0  0.42962875773E-01 -0.17133139336E-02 -0.11874138237E+00  0.88901533172E+00  0.88000000000E+00 0.  1.
        -11    1    4    4    0    0 -0.11111226183E-01  0.18228987499E-01  0.67603971994E-01  0.70896498382E-01  0.51100000000E-03 0.  1.
         11    1    4    4    0    0 -0.16677702089E-01 -0.17091686531E-02  0.59052166050E-01  0.61387999158E-01  0.51100000000E-03 0. -1.
</event>
<event>
 8    1  0.1123450E+005  0.1043930E+01  0.7957747E-01            NaN
         13   -1    0    0    0    0  0.00000000000E+00  0.00000000000E+00  0.74505805969E-08  0.10566000000E+00  0.10566000000E+00 0. -1.
     999900   -1    0    0    0    0 -0.00000000000E+00 -0.00000000000E+00 -0.74505805969E-08  0.93827000000E+00  0.93827000000E+00 0. -1.
     999902    2    1    2    0    0  0.13595407643E-01 -0.11360370939E-01 -0.13437533046E-01  0.10216935338E+01  0.10214515243E+01 0.  0.
     999903    2    3    3    0    0 -0.52421833624E-02 -0.87991655395E-01  0.95838319645E-01  0.13143041502E+00  0.17859411367E-01 0.  0.
         14    1    1    2    0    0 -0.13595407643E-01  0.11360370939E-01  0.13437533046E-01  0.22236466248E-01  0.00000000000E+00 0. -1.
     999901    1    3    3    0    0  0.18837591006E-01  0.76631284456E-01 -0.10927585269E+00  0.89026311873E+00  0.88000000000E+00 0. -1.
        -11    1    4    4    0    0 -0.11000685886E-01 -0.49270266168E-01  0.59277462859E-01  0.77863039641E-01  0.51100000000E-03 0. -1.
         11    1    4    4    0    0  0.57585025240E-02 -0.38721389228E-01  0.36560856786E-01  0.53567375379E-01  0.51100000000E-03 0.  1.
</event>
<event>
 8    1  0.1123450E+005  0.1043930E+01  0.7957747E-01            NaN
         13   -1    0    0    0    0  0.00000000000E+00  0.00000000000E+00  0.74505805969E-08  0.10566000000E+00  0.10566000000E+00 0.  1.
     999900   -1    0    0    0    0 -0.00000000000E+00 -0.00000000000E+00 -0.74505805969E-08  0.93827000000E+00  0.93827000000E+00 0.  1.
     999902    2    1    2    0    0 -0.87992557222E-03 -0.22153614206E-01 -0.82953061150E-02  0.10202578857E+01  0.10199832275E+01 0.  0.
     999903    2    3    3    0    0 -0.11620480145E+00 -0.53709561562E-01  0.23689399167E-01  0.13159674321E+00  0.19189640648E-01 0.  0.
         14    1    1    2    0    0  0.87992557222E-03  0.22153614206E-01  0.82953061150E-02  0.23672114289E-01  0.00000000000E+00 0. -1.
     999901    1    3    3    0    0  0.11532487588E+00  0.31555947357E-01 -0.31984705282E-01  0.88866114250E+00  0.88000000000E+00 0.  1.
        -11    1    4    4    0    0 -0.10068714030E+00 -0.39729317375E-01  0.16453799257E-01  0.10948656316E+00  0.51100000000E-03 0.  1.
         11    1    4    4    0    0 -0.15517661153E-01 -0.13980244187E-01  0.72355999104E-02  0.22110180060E-01  0.51100000000E-03 0. -1.
</event>
<event>
 8    1  0.1123450E+005  0.1043930E+01  0.7957747E-01            NaN
         13   -1    0    0    0    0  0.00000000000E+00  0.00000000000E+00  0.74505805969E-08  0.10566000000E+00  0.10566000000E+00 0. -1.
     999900   -1    0    0    0    0 -0.00000000000E+00 -0.00000000000E+00 -0.74505805969E-08  0.93827000000E+00  0.93827000000E+00 0.  1.
     999902    2    1    2    0    0 -0.33675296021E-04  0.16628993151E-01 -0.17388133576E-01  0.10198702465E+01  0.10195864103E+01 0.  0.
     999903    2    3    3    0    0  0.12442147131E+00  0.19628854453E-01  0.26420688157E-01  0.13002908344E+00  0.18534166469E-01 0.  0.
         14    1    1    2    0    0  0.33675296021E-04 -0.16628993151E-01  0.17388133576E-01  0.24059753459E-01  0.00000000000E+00 0.  1.
     999901    1    3    3    0    0 -0.12445514661E+00 -0.29998613018E-02 -0.43808821734E-01  0.88984116310E+00  0.88000000000E+00 0.  1.
        -11    1    4    4    0    0  0.74452400438E-01  0.16595873658E-01  0.80650911842E-02  0.76706517130E-01  0.51100000000E-03 0.  1.
         11    1    4    4    0    0  0.49969070876E-01  0.30329807951E-02  0.18355596973E-01  0.53322566310E-01  0.51100000000E-03 0. -1.
</event>
<event>
 8    1  0.1123450E+005  0.1043930E+01  0.7957747E-01            NaN
         13   -1    0    0    0    0  0.00000000000E+00  0.00000000000E+00  0.74505805969E-08  0.10566000000E+00  0.10566000000E+00 0. -1.
     999900   -1    0    0    0    0 -0.00000000000E+00 -0.00000000000E+00 -0.74505805969E-08  0.93827000000E+00  0.93827000000E+00 0.  1.
     999902    2    1    2    0    0  0.56543775872E-04 -0.56618685537E-02 -0.22667890085E-01  0.10205656427E+01  0.10202981612E+01 0.  0.
     999903    2    3    3    0    0 -0.52495691498E-01 -0.24078334868E-01  0.11305704877E+00  0.12842094437E+00  0.19351455773E-01 0.  0.
         14    1    1    2    0    0 -0.56543775872E-04  0.56618685537E-02  0.22667890085E-01  0.23364357334E-01  0.00000000000E+00 0. -1.
     999901    1    3    3    0    0  0.52552235274E-01  0.18416466315E-01 -0.13572493886E+00  0.89214469829E+00  0.88000000000E+00 0.  1.
        -11    1    4    4    0    0 -0.57995724998E-02 -0.90504010054E-02  0.12214221178E-01  0.16278609263E-01  0.51100000000E-03 0. -1.
         11    1    4    4    0    0 -0.46696118998E-01 -0.15027933863E-01  0.10084282759E+00  0.11214233511E+00  0.51100000000E-03 0.  1.
</event>
<event>
 8    1  0.1123450E+005  0.1043930E+01  0.7957747E-01            NaN
         13   -1    0    0    0    0  0.00000000000E+00  0.00000000000E+00  0.74505805969E-08  0.10566000000E+00  0.10566000000E+00 0.  1.
     999900   -1    0    0    0    0 -0.00000000000E+00 -0.00000000000E+00 -0.74505805969E-08  0.93827000000E+00  0.93827000000E+00 0.  1.
     999902    2    1    2    0    0  0.13300399290E-01  0.79022437266E-02  0.18697895413E-01  0.10196615561E+01  0.10193727148E+01 0.  0.
     999903    2    3    3    0    0  0.11170845431E-01 -0.75456213165E-01 -0.10039069376E+00  0.12773372301E+00  0.20474000774E-01 0.  0.
         14    1    1    2    0    0 -0.13300399290E-01 -0.79022437266E-02 -0.18697895413E-01  0.24268443915E-01  0.00000000000E+00 0. -1.
     999901    1    3    3    0    0  0.21295538586E-02  0.83358456892E-01  0.11908858918E+00  0.89192783307E+00  0.88000000000E+00 0. -1.
        -11    1    4    4    0    0  0.13229197750E-01 -0.41201864247E-01 -0.43969528058E-01  0.61694293166E-01  0.51100000000E-03 0.  1.
         11    1    4    4    0    0 -0.20583523192E-02 -0.34254348918E-01 -0.56421165706E-01  0.66039429848E-01  0.51100000000E-03 0. -1.
</event>
<event>
 8    1  0.1123450E+005  0.1043930E+01  0.7957747E-01            NaN
         13   -1    0    0    0    0  0.00000000000E+00  0.00000000000E+00  0.74505805969E-08  0.10566000000E+00  0.10566000000E+00 0.  1.
     999900   -1    0    0    0    0 -0.00000000000E+00 -0.00000000000E+00 -0.74505805969E-08  0.93827000000E+00  0.93827000000E+00 0.  1.
     999902    2    1    2    0    0 -0.15182658387E-01  0.16936531378E-01  0.37075736630E-02  0.10208842778E+01  0.10206241244E+01 0.  0.
     999903    2    3    3    0    0 -0.49545225334E-01 -0.72119972726E-01 -0.94474430517E-01  0.13029371366E+00  0.19874958579E-01 0.  0.
         14    1    1    2    0    0  0.15182658387E-01 -0.16936531378E-01 -0.37075736630E-02  0.23045722233E-01  0.00000000000E+00 0. -1.
     999901    1    3    3    0    0  0.34362566947E-01  0.89056504103E-01  0.98182004180E-01  0.89059056411E+00  0.88000000000E+00 0.  1.
        -11    1    4    4    0    0 -0.38892156187E-01 -0.47176720382E-01 -0.54036256449E-01  0.81599147611E-01  0.51100000000E-03 0. -1.
         11    1    4    4    0    0 -0.10653069147E-01 -0.24943252344E-01 -0.40438174068E-01  0.48694566049E-01  0.51100000000E-03 0.  1.
</event>
<event>
 8    1  0.1123450E+005  0.1043930E+01  0.7957747E-01            NaN
         13   -1    0    0    0    0  0.00000000000E+00  0.00000000000E+00  0.74505805969E-08  0.10566000000E+00  0.10566000000E+00 0. -1.
     999900   -1    0    0    0    0 -0.00000000000E+00 -0.00000000000E+00 -0.74505805969E-08  0.93827000000E+00  0.93827000000E+00 0.  1.
     999902    2    1    2    0    0 -0.91027321853E-02  0.24261959839E-02  0.22826041064E-01  0.10192363913E+01  0.10189372145E+01 0.  0.
     999903    2    3    3    0    0  0.32812408937E-03 -0.12463547572E+00 -0.25525246828E-01  0.12874694357E+00  0.19751652597E-01 0.  0.
         14    1    1    2    0    0  0.91027321853E-02 -0.24261959839E-02 -0.22826041064E-01  0.24693608705E-01  0.00000000000E+00 0.  1.
     999901    1    3    3    0    0 -0.94308562747E-02  0.12706167170E+00  0.48351287892E-01  0.89048944772E+00  0.88000000000E+00 0. -1.
        -11    1    4    4    0    0 -0.60698692362E-03 -0.80427253743E-05 -0.16749674900E-02  0.18534116929E-02  0.51100000000E-03 0. -1.
         11    1    4    4    0    0  0.93511101299E-03 -0.12462743299E+00 -0.23850279338E-01  0.12689353188E+00  0.51100000000E-03 0.  1.
</event>
<event>
 8    1  0.1123450E+005  0.1043930E+01  0.7957747E-01            NaN
         13   -1    0    0    0    0  0.00000000000E+00  0.00000000000E+00  0.74505805969E-08  0.10566000000E+00  0.10566000000E+00 0.  1.
     999900   -1    0    0    0    0 -0.00000000000E+00 -0.00000000000E+00 -0.74505805969E-08  0.93827000000E+00  0.93827000000E+00 0. -1.
     999902    2    1    2    0    0 -0.55270650874E-02 -0.13249587393E-02  0.23246261143E-01  0.10199990029E+01  0.10197182323E+01 0.  0.
     999903    2    3    3    0    0  0.57227803519E-01 -0.91634631523E-02  0.11769761623E+00  0.13268807987E+00  0.19859685799E-01 0.  0.
         14    1    1    2    0    0  0.55270650874E-02  0.13249587393E-02 -0.23246261143E-01  0.23930997081E-01  0.00000000000E+00 0. -1.
     999901    1    3    3    0    0 -0.62754868606E-01  0.78385044130E-02 -0.94451355090E-01  0.88731092305E+00  0.88000000000E+00 0. -1.
        -11    1    4    4    0    0  0.36794882386E-01  0.12029691540E-02  0.57522097019E-01  0.68296143896E-01  0.51100000000E-03 0.  1.
         11    1    4    4    0    0  0.20432921133E-01 -0.10366432306E-01  0.60175519214E-01  0.64391935974E-01  0.51100000000E-03 0. -1.
</event>
<event>
 8    1  0.1123450E+005  0.1043930E+01  0.7957747E-01            NaN
         13   -1    0    0    0    0  0.00000000000E+00  0.00000000000E+00  0.74505805969E-08  0.10566000000E+00  0.10566000000E+00 0. -1.
     999900   -1    0    0    0    0 -0.00000000000E+00 -0.00000000000E+00 -0.74505805969E-08  0.93827000000E+00  0.93827000000E+00 0. -1.
     999902    2    1    2    0    0 -0.23078323299E-02 -0.22039668895E-01 -0.68073959939E-02  0.10207478143E+01  0.10204845352E+01 0.  0.
     999903    2    3    3    0    0 -0.83337990713E-01 -0.54027306624E-01  0.84728308078E-01  0.13172144759E+00  0.17535193403E-01 0.  0.
         14    1    1    2    0    0  0.23078323299E-02  0.22039668895E-01  0.68073959939E-02  0.23182185731E-01  0.00000000000E+00 0. -1.
     999901    1    3    3    0    0  0.81030158383E-01  0.31987637729E-01 -0.91535704072E-01  0.88902636668E+00  0.88000000000E+00 0.  1.
        -11    1    4    4    0    0 -0.65991293411E-02 -0.10648297036E-01  0.81664319828E-02  0.14962836300E-01  0.51100000000E-03 0. -1.
         11    1    4    4    0    0 -0.76738861371E-01 -0.43379009588E-01  0.76561876095E-01  0.11675861129E+00  0.51100000000E-03 0.  1.
</event>
<event>
 8    1  0.1123450E+005  0.1043930E+01  0.7957747E-01            NaN
         13   -1    0    0    0    0  0.00000000000E+00  0.00000000000E+00  0.74505805969E-08  0.10566000000E+00  0.10566000000E+00 0. -1.
     999900   -1    0    0    0    0 -0.00000000000E+00 -0.00000000000E+00 -0.74505805969E-08  0.93827000000E+00  0.93827000000E+00 0.  1.
     999902    2    1    2    0    0  0.81052389578E-02 -0.20302702338E-01 -0.12188712810E-01  0.10189008302E+01  0.10185933646E+01 0.  0.
     999903    2    3    3    0    0 -0.83513954837E-01 -0.32234567826E-01 -0.92712482424E-01  0.13040742924E+00  0.19920973563E-01 0.  0.
         14    1    1    2    0    0 -0.81052389578E-02  0.20302702338E-01  0.12188712810E-01  0.25029169798E-01  0.00000000000E+00 0. -1.
     999901    1    3    3    0    0  0.91619193795E-01  0.11931865487E-01  0.80523769614E-01  0.88849340097E+00  0.88000000000E+00 0.  1.
        -11    1    4    4    0    0 -0.27709205611E-01 -0.17655272808E-01 -0.43959981899E-01  0.54883967268E-01  0.51100000000E-03 0.  1.
         11    1    4    4    0    0 -0.55804749227E-01 -0.14579295018E-01 -0.48752500524E-01  0.75523461969E-01  0.51100000000E-03 0. -1.
</event>
<event>
 8    1  0.1123450E+005  0.1043930E+01  0.7957747E-01            NaN
         13   -1    0    0    0    0  0.00000000000E+00  0.00000000000E+00  0.74505805969E-08  0.10566000000E+00  0.10566000000E+00 0.  1.
     999900   -1    0    0    0    0 -0.00000000000E+00 -0.00000000000E+00 -0.74505805969E-08  0.93827000000E+00  0.93827000000E+00 0.  1.
     999902    2    1    2    0    0 -0.92312702021E-02  0.13126460636E-01  0.17943797102E-01  0.10198571902E+01  0.10195730421E+01 0.  0.
     999903    2    3    3    0    0  0.46867571452E-01 -0.11279356502E+00 -0.30325975830E-01  0.12781856776E+00  0.22337499694E-01 0.  0.
         14    1    1    2    0    0  0.92312702021E-02 -0.13126460636E-01 -0.17943797102E-01  0.24072809824E-01  0.00000000000E+00 0. -1.
     999901    1    3    3    0    0 -0.56098841655E-01  0.12592002565E+00  0.48269772932E-01  0.89203862241E+00  0.88000000000E+00 0. -1.
        -11    1    4    4    0    0  0.25401786156E-01 -0.44366239369E-01 -0.34901373934E-02  0.51245059427E-01  0.51100000000E-03 0.  1.
         11    1    4    4    0    0  0.21465785297E-01 -0.68427325646E-01 -0.26835838436E-01  0.76573508337E-01  0.51100000000E-03 0. -1.
</event>
<event>
 8    1  0.1123450E+005  0.1043930E+01  0.7957747E-01            NaN
         13   -1    0    0    0    0  0.00000000000E+00  0.00000000000E+00  0.74505805969E-08  0.10566000000E+00  0.10566000000E+00 0.  1.
     999900   -1    0    0    0    0 -0.00000000000E+00 -0.00000000000E+00 -0.74505805969E-08  0.93827000000E+00  0.93827000000E+00 0. -1.
     999902    2    1    2    0    0  0.16603559188E-01 -0.17302036622E-01 -0.60386703446E-02  0.10192013893E+01  0.10189013533E+01 0.  0.
     999903    2    3    3    0    0 -0.10113750925E+00 -0.61158465398E-01 -0.50527701857E-01  0.12916452517E+00  0.12699300781E-01 0.  0.
         14    1    1    2    0    0 -0.16603559188E-01  0.17302036622E-01  0.60386703446E-02  0.24728610727E-01  0.00000000000E+00 0.  1.
     999901    1    3    3    0    0  0.11774106843E+00  0.43856428776E-01  0.44489031513E-01  0.89003686411E+00  0.88000000000E+00 0. -1.
        -11    1    4    4    0    0 -0.48486141305E-01 -0.30475447401E-01 -0.17698692885E-01  0.59943003293E-01  0.51100000000E-03 0.  1.
         11    1    4    4    0    0 -0.52651367942E-01 -0.30683017997E-01 -0.32829008972E-01  0.69221521875E-01  0.51100000000E-03 0. -1.
</event>
<event>
 8    1  0.1123450E+005  0.1043930E+01  0.7957747E-01            NaN
         13   -1    0    0    0    0  0.00000000000E+00  0.00000000000E+00  0.74505805969E-08  0.10566000000E+00  0.10566000000E+00 0. -1.
     999900   -1    0    0    0    0 -0.00000000000E+00 -0.00000000000E+00 -0.74505805969E-08  0.93827000000E+00  0.93827000000E+00 0.  1.
     999902    2    1    2    0    0 -0.38718678332E-02  0.20504803340E-01  0.11057691850E-01  0.10203140971E+01  0.10200407570E+01 0.  0.
     999903    2    3    3    0    0  0.85385700325E-01  0.13690063852E-01 -0.94403385078E-01  0.12950806160E+00  0.19550018836E-01 0.  0.
         14    1    1    2    0    0  0.38718678332E-02 -0.20504803340E-01 -0.11057691850E-01  0.23615902896E-01  0.00000000000E+00 0.  1.
     999901    1    3    3    0    0 -0.89257568158E-01  0.68147394878E-02  0.10546107693E+00  0.89080603551E+00  0.88000000000E+00 0. -1.
        -11    1    4    4    0    0  0.33106360887E-01  0.91233939273E-03 -0.24070609776E-01  0.40945315610E-01  0.51100000000E-03 0.  1.
         11    1    4    4    0    0  0.52279339437E-01  0.12777724459E-01 -0.70332775302E-01  0.88562745988E-01  0.51100000000E-03 0. -1.
</event>
<event>
 8    1  0.1123450E+005  0.1043930E+01  0.7957747E-01            NaN
         13   -1    0    0    0    0  0.00000000000E+00  0.00000000000E+00  0.74505805969E-08  0.10566000000E+00  0.10566000000E+00 0.  1.
     999900   -1    0    0    0    0 -0.00000000000E+00 -0.00000000000E+00 -0.74505805969E-08  0.93827000000E+00  0.93827000000E+00 0. -1.
     999902    2    1    2    0    0 -0.19234379383E-01 -0.29016209028E-02  0.13415316496E-01  0.10203005381E+01  0.10200268803E+01 0.  0.
     999903    2    3    3    0    0 -0.12661421491E+00 -0.14886418546E-02 -0.33799701625E-01  0.13251583246E+00  0.19612510057E-01 0.  0.
         14    1    1    2    0    0  0.19234379383E-01  0.29016209028E-02 -0.13415316496E-01  0.23629461923E-01  0.00000000000E+00 0. -1.
     999901    1    3    3    0    0  0.10737983553E+00 -0.14129790482E-02  0.47215018121E-01  0.88778470562E+00  0.88000000000E+00 0.  1.
        -11    1    4    4    0    0 -0.33074380720E-01 -0.39763697379E-02 -0.17151321914E-01  0.37472058133E-01  0.51100000000E-03 0. -1.
         11    1    4    4    0    0 -0.93539834192E-01  0.24877278833E-02 -0.16648379711E-01  0.95043774329E-01  0.51100000000E-03 0.  1.
</event>
<event>
 8    1  0.1123450E+005  0.1043930E+01  0.7957747E-01            NaN
         13   -1    0    0    0    0  0.00000000000E+00  0.00000000000E+00  0.74505805969E-08  0.10566000000E+00  0.10566000000E+00 0. -1.
     999900   -1    0    0    0    0 -0.00000000000E+00 -0.00000000000E+00 -0.74505805969E-08  0.93827000000E+00  0.93827000000E+00 0.  1.
     999902    2    1    2    0    0 -0.39868397477E-02  0.22641176412E-01 -0.67580375148E-02  0.10199677624E+01  0.10196862495E+01 0.  0.
     999903    2    3    3    0    0 -0.10409592446E+00 -0.27612628881E-01 -0.70788007679E-01  0.13055946983E+00  0.20890532970E-01 0.  0.
         14    1    1    2    0    0  0.39868397477E-02 -0.22641176412E-01  0.67580375148E-02  0.23962237616E-01  0.00000000000E+00 0. -1.
     999901    1    3    3    0    0  0.10010908471E+00  0.50253805293E-01  0.64029970164E-01  0.88940829256E+00  0.88000000000E+00 0. -1.
        -11    1    4    4    0    0 -0.18589302258E-01 -0.93406429491E-02 -0.57657456513E-02  0.21594321315E-01  0.51100000000E-03 0. -1.
         11    1    4    4    0    0 -0.85506622202E-01 -0.18271985931E-01 -0.65022262027E-01  0.10896514851E+00  0.51100000000E-03 0.  1.
</event>
<event>
 8    1  0.1123450E+005  0.1043930E+01  0.7957747E-01            NaN
         13   -1    0    0    0    0  0.00000000000E+00  0.00000000000E+00  0.74505805969E-08  0.10566000000E+00  0.10566000000E+00 0.  1.
     999900   -1    0    0    0    0 -0.00000000000E+00 -0.00000000000E+00 -0.74505805969E-08  0.93827000000E+00  0.93827000000E+00 0. -1.
     999902    2    1    2    0    0 -0.46304746619E-02  0.23333567788E-01 -0.29957286125E-03  0.10201395308E+01  0.10198620867E+01 0.  0.
     999903    2    3    3    0    0 -0.40443306380E-01  0.88278576794E-01 -0.87939429750E-01  0.13268183736E+00  0.21032320592E-01 0.  0.
         14    1    1    2    0    0  0.46304746619E-02 -0.23333567788E-01  0.29957286125E-03  0.23790469209E-01  0.00000000000E+00 0.  1.
     999901    1    3    3    0    0  0.35812831718E-01 -0.64945009006E-01  0.87639856888E-01  0.88745769343E+00  0.88000000000E+00 0.  1.
        -11    1    4    4    0    0 -0.97933217978E-02  0.24230393762E-01 -0.12145852148E-01  0.28823670465E-01  0.51100000000E-03 0.  1.
         11    1    4    4    0    0 -0.30649984582E-01  0.64048183032E-01 -0.75793577601E-01  0.10385816690E+00  0.51100000000E-03 0. -1.
</event>
<event>
 8    1  0.1123450E+005  0.1043930E+01  0.7957747E-01            NaN
         13   -1    0    0    0    0  0.00000000000E+00  0.00000000000E+00  0.74505805969E-08  0.10566000000E+00  0.10566000000E+00 0.  1.
     999900   -1    0    0    0    0 -0.00000000000E+00 -0.00000000000E+00 -0.74505805969E-08  0.93827000000E+00  0.93827000000E+00 0.  1.
     999902    2    1    2    0    0  0.13295919755E-01 -0.19510998915E-01  0.58934078622E-02  0.10195949878E+01  0.10193045406E+01 0.  0.
     999903    2    3    3    0    0  0.11297182288E+00  0.56306176418E-01  0.26818537247E-01  0.13048228925E+00  0.19322929446E-01 0.  0.
         14    1    1    2    0    0 -0.13295919755E-01  0.19510998915E-01 -0.58934078622E-02  0.24335012164E-01  0.00000000000E+00 0. -1.
     999901    1    3    3    0    0 -0.99675903120E-01 -0.75817175333E-01 -0.20925129385E-01  0.88911269858E+00  0.88000000000E+00 0.  1.
        -11    1    4    4    0    0  0.44645694676E-01  0.32858965838E-01  0.10477625833E-01  0.56418006462E-01  0.51100000000E-03 0. -1.
         11    1    4    4    0    0  0.68326128200E-01  0.23447210580E-01  0.16340911414E-01  0.74064282793E-01  0.51100000000E-03 0.  1.
</event>
<event>
 8    1  0.1123450E+005  0.1043930E+01  0.7957747E-01            NaN
         13   -1    0    0    0    0  0.00000000000E+00  0.00000000000E+00  0.74505805969E-08  0.10566000000E+00  0.10566000000E+00 0.  1.
     999900   -1    0    0    0    0 -0.00000000000E+00 -0.00000000000E+00 -0.74505805969E-08  0.93827000000E+00  0.93827000000E+00 0.  1.
     999902    2    1    2    0    0  0.45669227826E-02  0.38108176018E-02  0.24140416474E-01  0.10190676022E+01  0.10187642706E+01 0.  0.
     999903    2    3    3    0    0 -0.28503087136E-01 -0.92691293812E-01  0.85814958129E-01  0.13103042276E+00  0.20016561266E-01 0.  0.
         14    1    1    2    0    0 -0.45669227826E-02 -0.38108176018E-02 -0.24140416474E-01  0.24862397753E-01  0.00000000000E+00 0. -1.
     999901    1    3    3    0    0  0.33070009919E-01  0.96502111414E-01 -0.61674541655E-01  0.88803717949E+00  0.88000000000E+00 0.  1.
        -11    1    4    4    0    0 -0.17811416698E-01 -0.60527856496E-01  0.67897052590E-01  0.92688396513E-01  0.51100000000E-03 0. -1.
         11    1    4    4    0    0 -0.10691670438E-01 -0.32163437316E-01  0.17917905539E-01  0.38342026246E-01  0.51100000000E-03 0.  1.
</event>
<event>
 8    1  0.1123450E+005  0.1043930E+01  0.7957747E-01            NaN
         13   -1    0    0    0    0  0.00000000000E+00  0.00000000000E+00  0.74505805969E-08  0.10566000000E+00  0.10566000000E+00 0.  1.
     999900   -1    0    0    0    0 -0.00000000000E+00 -0.00000000000E+00 -0.74505805969E-08  0.93827000000E+00  0.93827000000E+00 0.  1.
     999902    2    1    2    0    0  0.20870728760E-01 -0.26549770644E-02 -0.10350966362E-01  0.10204826392E+01  0.10202132318E+01 0.  0.
     999903    2    3    3    0    0  0.12348743960E+00  0.17711302729E-01 -0.43423111960E-01  0.13366882478E+00  0.20468270130E-01 0.  0.
         14    1    1    2    0    0 -0.20870728760E-01  0.26549770644E-02  0.10350966362E-01  0.23447360764E-01  0.00000000000E+00 0. -1.
     999901    1    3    3    0    0 -0.10261671084E+00 -0.20366279794E-01  0.33072145597E-01  0.88681381446E+00  0.88000000000E+00 0. -1.
        -11    1    4    4    0    0  0.56568642959E-01  0.18419196764E-01 -0.20637168437E-01  0.62971676314E-01  0.51100000000E-03 0. -1.
         11    1    4    4    0    0  0.66918796641E-01 -0.70789403528E-03 -0.22785943522E-01  0.70697148465E-01  0.51100000000E-03 0.  1.
</event>
<event>
 7    1  0.1123450E+005  0.1043930E+01  0.7957747E-01            NaN
         13   -1    0    0    0    0  0.00000000000E+00  0.00000000000E+00  0.74505805969E-08  0.10566000000E+00  0.10566000000E+00 0.  1.
     999900   -1    0    0    0    0 -0.00000000000E+00 -0.00000000000E+00 -0.74505805969E-08  0.93827000000E+00  0.93827000000E+00 0. -1.
     999903    2    1    2    0    0  0.52040214169E-02  0.94113147567E-01 -0.29495282014E-01  0.10079238829E+00  0.20118834276E-01 0.  0.
         14    1    1    2    0    0 -0.29305078930E-02 -0.36070483481E-01  0.49110863765E-01  0.61004463728E-01  0.00000000000E+00 0.  1.
     999901    1    1    2    0    0 -0.22735135239E-02 -0.58042664086E-01 -0.19615581751E-01  0.88213314798E+00  0.88000000000E+00 0.  1.
        -11    1    3    3    0    0 -0.38456149289E-02  0.37559180212E-01 -0.20020425912E-01  0.42738265607E-01  0.51100000000E-03 0.  1.
         11    1    3    3    0    0  0.90496363458E-02  0.56553967355E-01 -0.94748561018E-02  0.58054122685E-01  0.51100000000E-03 0. -1.
</event>
<event>
 8    1  0.1123450E+005  0.1043930E+01  0.7957747E-01            NaN
         13   -1    0    0    0    0  0.00000000000E+00  0.00000000000E+00  0.74505805969E-08  0.10566000000E+00  0.10566000000E+00 0.  1.
     999900   -1    0    0    0    0 -0.00000000000E+00 -0.00000000000E+00 -0.74505805969E-08  0.93827000000E+00  0.93827000000E+00 0. -1.
     999902    2    1    2    0    0 -0.40727505112E-02  0.60513977058E-02  0.22011291765E-01  0.10207415616E+01  0.10204781389E+01 0.  0.
     999903    2    3    3    0    0 -0.89841711398E-01 -0.64755129782E-01 -0.64087714166E-01  0.12957215131E+00  0.20419288643E-01 0.  0.
         14    1    1    2    0    0  0.40727505112E-02 -0.60513977058E-02 -0.22011291765E-01  0.23188438414E-01  0.00000000000E+00 0. -1.
     999901    1    3    3    0    0  0.85768960886E-01  0.70806527488E-01  0.86099005930E-01  0.89116941027E+00  0.88000000000E+00 0.  1.
        -11    1    4    4    0    0 -0.68938292110E-01 -0.54292339657E-01 -0.41530157954E-01  0.97083270470E-01  0.51100000000E-03 0.  1.
         11    1    4    4    0    0 -0.20903419287E-01 -0.10462790125E-01 -0.22557556212E-01  0.32488880842E-01  0.51100000000E-03 0. -1.
</event>
<event>
 8    1  0.1123450E+005  0.1043930E+01  0.7957747E-01            NaN
         13   -1    0    0    0    0  0.00000000000E+00  0.00000000000E+00  0.74505805969E-08  0.10566000000E+00  0.10566000000E+00 0.  1.
     999900   -1    0    0    0    0 -0.00000000000E+00 -0.00000000000E+00 -0.74505805969E-08  0.93827000000E+00  0.93827000000E+00 0.  1.
     999902    2    1    2    0    0 -0.13495373672E-01  0.22000337581E-01 -0.81372338801E-02  0.10168679502E+01  0.10165077833E+01 0.  0.
     999903    2    3    3    0    0  0.42840177281E-01  0.11854595838E+00 -0.24040028077E-01  0.12965453165E+00  0.18545877965E-01 0.  0.
         14    1    1    2    0    0  0.13495373672E-01 -0.22000337581E-01  0.81372338801E-02  0.27062049801E-01  0.00000000000E+00 0.  1.
     999901    1    3    3    0    0 -0.56335550953E-01 -0.96545620797E-01  0.15902794197E-01  0.88721341855E+00  0.88000000000E+00 0. -1.
        -11    1    4    4    0    0  0.22837475070E-01  0.67992160198E-01 -0.44553240662E-02  0.71865117752E-01  0.51100000000E-03 0.  1.
         11    1    4    4    0    0  0.20002702211E-01  0.50553798180E-01 -0.19584704011E-01  0.57789413895E-01  0.51100000000E-03 0. -1.
</event>
<event>
 8    1  0.1123450E+005  0.1043930E+01  0.7957747E-01            NaN
         13   -1    0    0    0    0  0.00000000000E+00  0.00000000000E+00  0.74505805969E-08  0.10566000000E+00  0.10566000000E+00 0. -1.
     999900   -1    0    0    0    0 -0.00000000000E+00 -0.00000000000E+00 -0.74505805969E-08  0.93827000000E+00  0.93827000000E+00 0. -1.
     999902    2    1    2    0    0  0.14379313843E-01 -0.17163731550E-01 -0.12373000119E-01  0.10183477898E+01  0.10180264100E+01 0.  0.
     999903    2    3    3    0    0  0.11746539878E+00 -0.47119296583E-01 -0.30255385730E-01  0.13164386147E+00  0.19909040067E-01 0.  0.
         14    1    1    2    0    0 -0.14379313843E-01  0.17163731550E-01  0.12373000119E-01  0.25582210211E-01  0.00000000000E+00 0. -1.
     999901    1    3    3    0    0 -0.10308608493E+00  0.29955565034E-01  0.17882385610E-01  0.88670392832E+00  0.88000000000E+00 0.  1.
        -11    1    4    4    0    0  0.20546740114E-01 -0.16777272516E-01 -0.74296459065E-02  0.27551881273E-01  0.51100000000E-03 0.  1.
         11    1    4    4    0    0  0.96918658663E-01 -0.30342024067E-01 -0.22825739823E-01  0.10409198020E+00  0.51100000000E-03 0. -1.
</event>
<event>
 8    1  0.1123450E+005  0.1043930E+01  0.7957747E-01            NaN
         13   -1    0    0    0    0  0.00000000000E+00  0.00000000000E+00  0.74505805969E-08  0.10566000000E+00  0.10566000000E+00 0. -1.
     999900   -1    0    0    0    0 -0.00000000000E+00 -0.00000000000E+00 -0.74505805969E-08  0.93827000000E+00  0.93827000000E+00 0.  1.
     999902    2    1    2    0    0 -0.52844784073E-02 -0.99241239816E-02  0.20448798807E-01  0.10205940337E+01  0.10203272095E+01 0.  0.
     999903    2    3    3    0    0 -0.26252874811E-01  0.11317457014E+00 -0.52459019720E-01  0.12879332049E+00  0.18386785770E-01 0.  0.
         14    1    1    2    0    0  0.52844784073E-02  0.99241239816E-02 -0.20448798807E-01  0.23335966265E-01  0.00000000000E+00 0.  1.
     999901    1    3    3    0    0  0.20968396404E-01 -0.12309869412E+00  0.72907818528E-01  0.89180071325E+00  0.88000000000E+00 0. -1.
        -11    1    4    4    0    0 -0.22066931585E-01  0.75693329021E-01 -0.27229676623E-01  0.83415501783E-01  0.51100000000E-03 0. -1.
         11    1    4    4    0    0 -0.41859432258E-02  0.37481241118E-01 -0.25229343098E-01  0.45377818707E-01  0.51100000000E-03 0.  1.
</event>
<event>
 8    1  0.1123450E+005  0.1043930E+01  0.7957747E-01            NaN
         13   -1    0    0    0    0  0.00000000000E+00  0.00000000000E+00  0.74505805969E-08  0.10566000000E+00  0.10566000000E+00 0. -1.
     999900   -1    0    0    0    0 -0.00000000000E+00 -0.00000000000E+00 -0.74505805969E-08  0.93827000000E+00  0.93827000000E+00 0. -1.
     999902    2    1    2    0    0 -0.10870843893E-01 -0.12818946269E-01 -0.16840732721E-01  0.10201369147E+01  0.10198594088E+01 0.  0.
     999903    2    3    3    0    0 -0.10105718071E+00  0.76343257217E-01  0.21751876018E-01  0.13020834264E+00  0.20981460592E-01 0.  0.
         14    1    1    2    0    0  0.10870843893E-01  0.12818946269E-01  0.16840732721E-01  0.23793085319E-01  0.00000000000E+00 0. -1.
     999901    1    3    3    0    0  0.90186336815E-01 -0.89162203486E-01 -0.38592608739E-01  0.88992857204E+00  0.88000000000E+00 0.  1.
        -11    1    4    4    0    0 -0.39820937610E-01  0.18302681346E-01  0.10685135645E-01  0.45112398089E-01  0.51100000000E-03 0. -1.
         11    1    4    4    0    0 -0.61236243098E-01  0.58040575871E-01  0.11066740373E-01  0.85095944555E-01  0.51100000000E-03 0.  1.
</event>
<event>
 8    1  0.1123450E+005  0.1043930E+01  0.7957747E-01            NaN
         13   -1    0    0    0    0  0.00000000000E+00  0.00000000000E+00  0.74505805969E-08  0.10566000000E+00  0.10566000000E+00 0. -1.
     999900   -1    0    0    0    0 -0.00000000000E+00 -0.00000000000E+00 -0.74505805969E-08  0.93827000000E+00  0.93827000000E+00 0.  1.
     999902    2    1    2    0    0 -0.50858966015E-02  0.12314782991E-01 -0.19443414646E-01  0.10203595397E+01  0.10200872628E+01 0.  0.
     999903    2    3    3    0    0  0.16511996507E-01  0.11074323991E+00  0.64439768681E-01  0.13064553030E+00  0.19469452645E-01 0.  0.
         14    1    1    2    0    0  0.50858966015E-02 -0.12314782991E-01  0.19443414646E-01  0.23570460273E-01  0.00000000000E+00 0. -1.
     999901    1    3    3    0    0 -0.21597893109E-01 -0.98428456919E-01 -0.83883183328E-01  0.88971400942E+00  0.88000000000E+00 0.  1.
        -11    1    4    4    0    0  0.15878989680E-02  0.50817306558E-02  0.88045161051E-02  0.10301749096E-01  0.51100000000E-03 0. -1.
         11    1    4    4    0    0  0.14924097539E-01  0.10566150925E+00  0.55635252576E-01  0.12034378121E+00  0.51100000000E-03 0.  1.
</event>
<event>
 8    1  0.1123450E+005  0.1043930E+01  0.7957747E-01            NaN
         13   -1    0    0    0    0  0.00000000000E+00  0.00000000000E+00  0.74505805969E-08  0.10566000000E+00  0.10566000000E+00 0.  1.
     999900   -1    0    0    0    0 -0.00000000000E+00 -0.00000000000E+00 -0.74505805969E-08  0.93827000000E+00  0.93827000000E+00 0.  1.
     999902    2    1    2    0    0  0.19975309156E-01  0.12367112100E-01 -0.23254828848E-02  0.10203213933E+01  0.10200482241E+01 0.  0.
     999903    2    3    3    0    0 -0.29248411923E-02  0.39266546412E-01  0.12295985379E+00  0.13074598224E+00  0.20614797221E-01 0.  0.
         14    1    1    2    0    0 -0.19975309156E-01 -0.12367112100E-01  0.23254828848E-02  0.23608606656E-01  0.00000000000E+00 0.  1.
     999901    1    3    3    0    0  0.22900150348E-01 -0.26899434312E-01 -0.12528533668E+00  0.88957541110E+00  0.88000000000E+00 0.  1.
        -11    1    4    4    0    0 -0.95945794067E-02  0.23911597470E-01  0.92060755503E-01  0.95599499331E-01  0.51100000000E-03 0.  1.
         11    1    4    4    0    0  0.66697382144E-02  0.15354948943E-01  0.30899098290E-01  0.35146482911E-01  0.51100000000E-03 0. -1.
</event>
<event>
 8    1  0.1123450E+005  0.1043930E+01  0.7957747E-01            NaN
         13   -1    0    0    0    0  0.00000000000E+00  0.00000000000E+00  0.74505805969E-08  0.10566000000E+00  0.10566000000E+00 0.  1.
     999900   -1    0    0    0    0 -0.00000000000E+00 -0.00000000000E+00 -0.74505805969E-08  0.93827000000E+00  0.93827000000E+00 0.  1.
     999902    2    1    2    0    0 -0.54552182221E-03 -0.24348322503E-01 -0.51356984203E-02  0.10190399658E+01  0.10187359511E+01 0.  0.
     999903    2    3    3    0    0 -0.65254610753E-01  0.10175061413E+00  0.32536304194E-01  0.12690354813E+00  0.20845808610E-01 0.  0.
         14    1    1    2    0    0  0.54552182221E-03  0.24348322503E-01  0.51356984203E-02  0.24890034171E-01  0.00000000000E+00 0.  1.
     999901    1    3    3    0    0  0.64709088931E-01 -0.12609893663E+00 -0.37672002615E-01  0.89213641770E+00  0.88000000000E+00 0. -1.
        -11    1    4    4    0    0 -0.15948358648E-01  0.29661962191E-01 -0.55120766033E-04  0.33681542481E-01  0.51100000000E-03 0. -1.
         11    1    4    4    0    0 -0.49306252105E-01  0.72088651936E-01  0.32591424960E-01  0.93222005646E-01  0.51100000000E-03 0.  1.
</event>
<event>
 8    1  0.1123450E+005  0.1043930E+01  0.7957747E-01            NaN
         13   -1    0    0    0    0  0.00000000000E+00  0.00000000000E+00  0.74505805969E-08  0.10566000000E+00  0.10566000000E+00 0.  1.
     999900   -1    0    0    0    0 -0.00000000000E+00 -0.00000000000E+00 -0.74505805969E-08  0.93827000000E+00  0.93827000000E+00 0.  1.
     999902    2    1    2    0    0 -0.73442714512E-02 -0.22352254916E-01  0.22292747110E-02  0.10202967334E+01  0.10200229865E+01 0.  0.
     999903    2    3    3    0    0 -0.62129431117E-01  0.46598645258E-01  0.10237953205E+00  0.13024858058E+00  0.21251451903E-01 0.  0.
         14    1    1    2    0    0  0.73442714512E-02  0.22352254916E-01 -0.22292747110E-02  0.23633266569E-01  0.00000000000E+00 0. -1.
     999901    1    3    3    0    0  0.54785159666E-01 -0.68950900174E-01 -0.10015025734E+00  0.89004815285E+00  0.88000000000E+00 0.  1.
        -11    1    4    4    0    0 -0.17261272096E-01  0.27654862505E-02  0.17880081582E-01  0.25011154851E-01  0.51100000000E-03 0.  1.
         11    1    4    4    0    0 -0.44868159020E-01  0.43833159008E-01  0.84499450471E-01  0.10523742573E+00  0.51100000000E-03 0. -1.
</event>
<event>
 8    1  0.1123450E+005  0.1043930E+01  0.7957747E-01            NaN
         13   -1    0    0    0    0  0.00000000000E+00  0.00000000000E+00  0.74505805969E-08  0.10566000000E+00  0.10566000000E+00 0. -1.
     999900   -1    0    0    0    0 -0.00000000000E+00 -0.00000000000E+00 -0.74505805969E-08  0.93827000000E+00  0.93827000000E+00 0. -1.
     999902    2    1    2    0    0 -0.23701698222E-02 -0.11741225943E-01 -0.20332741891E-01  0.10203313881E+01  0.10200584527E+01 0.  0.
     999903    2    3    3    0    0 -0.42860353144E-01 -0.11982092119E+00  0.26757862302E-01  0.13154671198E+00  0.19861802848E-01 0.  0.
         14    1    1    2    0    0  0.23701698222E-02  0.11741225943E-01  0.20332741891E-01  0.23598611918E-01  0.00000000000E+00 0. -1.
     999901    1    3    3    0    0  0.40490183321E-01  0.10807969524E+00 -0.47090604193E-01  0.88878467610E+00  0.88000000000E+00 0.  1.
        -11    1    4    4    0    0 -0.17326390340E-01 -0.64740155457E-01  0.56078831046E-02  0.67254747079E-01  0.51100000000E-03 0.  1.
         11    1    4    4    0    0 -0.25533962804E-01 -0.55080765730E-01  0.21149979197E-01  0.64291964902E-01  0.51100000000E-03 0. -1.
</event>
<event>
 8    1  0.1123450E+005  0.1043930E+01  0.7957747E-01            NaN
         13   -1    0    0    0    0  0.00000000000E+00  0.00000000000E+00  0.74505805969E-08  0.10566000000E+00  0.10566000000E+00 0. -1.
     999900   -1    0    0    0    0 -0.00000000000E+00 -0.00000000000E+00 -0.74505805969E-08  0.93827000000E+00  0.93827000000E+00 0. -1.
     999902    2    1    2    0    0  0.20459025782E-01 -0.49158656919E-02 -0.12329684656E-01  0.10195423270E+01  0.10192506060E+01 0.  0.
     999903    2    3    3    0    0  0.42002184277E-01  0.75540335721E-02  0.12013119703E+00  0.12928085346E+00  0.21465965260E-01 0.  0.
         14    1    1    2    0    0 -0.20459025782E-01  0.49158656919E-02  0.12329684656E-01  0.24387673017E-01  0.00000000000E+00 0. -1.
     999901    1    3    3    0    0 -0.21543158495E-01 -0.12469899264E-01 -0.13246088168E+00  0.89026147352E+00  0.88000000000E+00 0. -1.
        -11    1    4    4    0    0  0.27887498460E-01 -0.39664405112E-02  0.87252612918E-01  0.91688193366E-01  0.51100000000E-03 0.  1.
         11    1    4    4    0    0  0.14114685817E-01  0.11520474083E-01  0.32878584109E-01  0.37592660093E-01  0.51100000000E-03 0. -1.
</event>
<event>
 8    1  0.1123450E+005  0.1043930E+01  0.7957747E-01            NaN
         13   -1    0    0    0    0  0.00000000000E+00  0.00000000000E+00  0.74505805969E-08  0.10566000000E+00  0.10566000000E+00 0.  1.
     999900   -1    0    0    0    0 -0.00000000000E+00 -0.00000000000E+00 -0.74505805969E-08  0.93827000000E+00  0.93827000000E+00 0. -1.
     999902    2    1    2    0    0  0.95741603543E-02 -0.15995439158E-01 -0.14286914714E-01  0.10204430983E+01  0.10201727708E+01 0.  0.
     999903    2    3    3    0    0 -0.12570961238E+00 -0.52030446170E-02  0.22037726092E-01  0.12929908384E+00  0.20065228454E-01 0.  0.
         14    1    1    2    0    0 -0.95741603543E-02  0.15995439158E-01  0.14286914714E-01  0.23486901720E-01  0.00000000000E+00 0.  1.
     999901    1    3    3    0    0  0.13528377273E+00 -0.10792394541E-01 -0.36324640806E-01  0.89114401444E+00  0.88000000000E+00 0.  1.
        -11    1    4    4    0    0 -0.35664951741E-01  0.16174667183E-02 -0.22803626132E-02  0.35778012185E-01  0.51100000000E-03 0.  1.
         11    1    4    4    0    0 -0.90044660637E-01 -0.68205113352E-02  0.24318088705E-01  0.93521071654E-01  0.51100000000E-03 0. -1.
</event>
<event>
 8    1  0.1123450E+005  0.1043930E+01  0.7957747E-01            NaN
         13   -1    0    0    0    0  0.00000000000E+00  0.00000000000E+00  0.74505805969E-08  0.10566000000E+00  0.10566000000E+00 0.  1.
     999900   -1    0    0    0    0 -0.00000000000E+00 -0.00000000000E+00 -0.74505805969E-08  0.93827000000E+00  0.93827000000E+00 0. -1.
     999902    2    1    2    0    0 -0.17129160204E-01  0.95177284812E-02 -0.14590995724E-01  0.10194986177E+01  0.10192058374E+01 0.  0.
     999903    2    3    3    0    0 -0.26623672644E-01 -0.12473526599E+00  0.28273605822E-02  0.12909566879E+00  0.19748195015E-01 0.  0.
         14    1    1    2    0    0  0.17129160204E-01 -0.95177284812E-02  0.14590995724E-01  0.24431382297E-01  0.00000000000E+00 0.  1.
     999901    1    3    3    0    0  0.94945124402E-02  0.13425299447E+00 -0.17418356306E-01  0.89040294891E+00  0.88000000000E+00 0. -1.
        -11    1    4    4    0    0 -0.74857154414E-02 -0.13881821789E-01 -0.43622902035E-02  0.16371670918E-01  0.51100000000E-03 0. -1.
         11    1    4    4    0    0 -0.19137957203E-01 -0.11085344420E+00  0.71896507857E-02  0.11272399787E+00  0.51100000000E-03 0.  1.
</event>
<event>
 8    1  0.1123450E+005  0.1043930E+01  0.7957747E-01            NaN
         13   -1    0    0    0    0  0.00000000000E+00  0.00000000000E+00  0.74505805969E-08  0.10566000000E+00  0.10566000000E+00 0.  1.
     999900   -1    0    0    0    0 -0.00000000000E+00 -0.00000000000E+00 -0.74505805969E-08  0.93827000000E+00  0.93827000000E+00 0. -1.
     999902    2    1    2    0    0 -0.22469933037E-01  0.12264742756E-02 -0.38140009726E-02  0.10211056986E+01  0.10208505763E+01 0.  0.
     999903    2    3    3    0    0  0.48330775155E-01  0.34083935686E-01 -0.11478039980E+00  0.13070921687E+00  0.20317005116E-01 0.  0.
         14    1    1    2    0    0  0.22469933037E-01 -0.12264742756E-02  0.38140009726E-02  0.22824301375E-01  0.00000000000E+00 0.  1.
     999901    1    3    3    0    0 -0.70800708192E-01 -0.32857461410E-01  0.11096639883E+00  0.89039648175E+00  0.88000000000E+00 0.  1.
        -11    1    4    4    0    0  0.19171125077E-01  0.10554500254E-01 -0.23918205053E-01  0.32423312081E-01  0.51100000000E-03 0. -1.
         11    1    4    4    0    0  0.29159650078E-01  0.23529435432E-01 -0.90862194751E-01  0.98285904790E-01  0.51100000000E-03 0.  1.
</event>
<event>
 8    1  0.1123450E+005  0.1043930E+01  0.7957747E-01            NaN
         13   -1    0    0    0    0  0.00000000000E+00  0.00000000000E+00  0.74505805969E-08  0.10566000000E+00  0.10566000000E+00 0. -1.
     999900   -1    0    0    0    0 -0.00000000000E+00 -0.00000000000E+00 -0.74505805969E-08  0.93827000000E+00  0.93827000000E+00 0. -1.
     999902    2    1    2    0    0  0.20585046852E-01 -0.12285058454E-01 -0.23660065796E-02  0.10198413138E+01  0.10195567863E+01 0.  0.
     999903    2    3    3    0    0  0.12348938306E+00 -0.46545935640E-01  0.22511972742E-03  0.13317913234E+00  0.17901920575E-01 0.  0.
         14    1    1    2    0    0 -0.20585046852E-01  0.12285058454E-01  0.23660065796E-02  0.24088686187E-01  0.00000000000E+00 0. -1.
     999901    1    3    3    0    0 -0.10290433620E+00  0.34260877186E-01 -0.25911263070E-02  0.88666218147E+00  0.88000000000E+00 0. -1.
        -11    1    4    4    0    0  0.61621453560E-01 -0.14057577052E-01 -0.23512245994E-02  0.63250362762E-01  0.51100000000E-03 0. -1.
         11    1    4    4    0    0  0.61867929496E-01 -0.32488358587E-01  0.25763443268E-02  0.69928769579E-01  0.51100000000E-03 0.  1.
</event>
<event>
 8    1  0.1123450E+005  0.1043930E+01  0.7957747E-01            NaN
         13   -1    0    0    0    0  0.00000000000E+00  0.00000000000E+00  0.74505805969E-08  0.10566000000E+00  0.10566000000E+00 0. -1.
     999900   -1    0    0    0    0 -0.00000000000E+00 -0.00000000000E+00 -0.74505805969E-08  0.93827000000E+00  0.93827000000E+00 0. -1.
     999902    2    1    2    0    0  0.73241964916E-02  0.72987721740E-02 -0.19418430975E-01  0.10219301957E+01  0.10216933656E+01 0.  0.
     999903    2    3    3    0    0 -0.42723447765E-01 -0.12201613035E+00 -0.43726677206E-02  0.13094563591E+00  0.20357069697E-01 0.  0.
         14    1    1    2    0    0 -0.73241964916E-02 -0.72987721740E-02  0.19418430975E-01  0.21999804341E-01  0.00000000000E+00 0. -1.
     999901    1    3    3    0    0  0.50047644257E-01  0.12931490253E+00 -0.15045763254E-01  0.89098455974E+00  0.88000000000E+00 0. -1.
        -11    1    4    4    0    0 -0.26441210197E-01 -0.64531487174E-01 -0.11820433662E-01  0.70734957457E-01  0.51100000000E-03 0.  1.
         11    1    4    4    0    0 -0.16282237569E-01 -0.57484643180E-01  0.74477659417E-02  0.60210678457E-01  0.51100000000E-03 0. -1.
</event>
<event>
 8    1  0.1123450E+005  0.1043930E+01  0.7957747E-01            NaN
         13   -1    0    0    0    0  0.00000000000E+00  0.00000000000E+00  0.74505805969E-08  0.10566000000E+00  0.10566000000E+00 0. -1.
     999900   -1    0    0    0    0 -0.00000000000E+00 -0.00000000000E+00 -0.74505805969E-08  0.93827000000E+00  0.93827000000E+00 0. -1.
     999902    2    1    2    0    0  0.16145541283E-01  0.13945368834E-01  0.10385411686E-01  0.10202021979E+01  0.10199262307E+01 0.  0.
     999903    2    3    3    0    0 -0.10528419244E+00  0.43768881075E-01  0.59176499610E-01  0.13002514117E+00  0.20104802986E-01 0.  0.
         14    1    1    2    0    0 -0.16145541283E-01 -0.13945368834E-01 -0.10385411686E-01  0.23727802071E-01  0.00000000000E+00 0.  1.
     999901    1    3    3    0    0  0.12142973372E+00 -0.29823512240E-01 -0.48791087925E-01  0.89017705676E+00  0.88000000000E+00 0. -1.
        -11    1    4    4    0    0 -0.20112180233E-01  0.11145727232E-01  0.37680589690E-02  0.23306360047E-01  0.51100000000E-03 0. -1.
         11    1    4    4    0    0 -0.85172012205E-01  0.32623153842E-01  0.55408440641E-01  0.10671878113E+00  0.51100000000E-03 0.  1.
</event>
<event>
 8    1  0.1123450E+005  0.1043930E+01  0.7957747E-01            NaN
         13   -1    0    0    0    0  0.00000000000E+00  0.00000000000E+00  0.74505805969E-08  0.10566000000E+00  0.10566000000E+00 0.  1.
     999900   -1    0    0    0    0 -0.00000000000E+00 -0.00000000000E+00 -0.74505805969E-08  0.93827000000E+00  0.93827000000E+00 0.  1.
     999902    2    1    2    0    0  0.28143086095E-02  0.22694105517E-01  0.57856653886E-02  0.10203415138E+01  0.10200688154E+01 0.  0.
     999903    2    3    3    0    0 -0.12012233775E+00 -0.30801901615E-03 -0.45513581123E-01  0.13001902757E+00  0.20099516453E-01 0.  0.
         14    1    1    2    0    0 -0.28143086095E-02 -0.22694105517E-01 -0.57856653886E-02  0.23588486220E-01  0.00000000000E+00 0.  1.
     999901    1    3    3    0    0  0.12293664636E+00  0.23002124533E-01  0.51299246512E-01  0.89032248621E+00  0.88000000000E+00 0.  1.
        -11    1    4    4    0    0 -0.90710219501E-01  0.79033616885E-03 -0.24862055551E-01  0.94060360835E-01  0.51100000000E-03 0. -1.
         11    1    4    4    0    0 -0.29412118252E-01 -0.10983551850E-02 -0.20651525572E-01  0.35958666739E-01  0.51100000000E-03 0.  1.
</event>
<event>
 8    1  0.1123450E+005  0.1043930E+01  0.7957747E-01            NaN
         13   -1    0    0    0    0  0.00000000000E+00  0.00000000000E+00  0.74505805969E-08  0.10566000000E+00  0.10566000000E+00 0.  1.
     999900   -1    0    0    0    0 -0.00000000000E+00 -0.00000000000E+00 -0.74505805969E-08  0.93827000000E+00  0.93827000000E+00 0.  1.
     999902    2    1    2    0    0  0.85134008100E-02  0.16415071935E-01  0.16859168399E-01  0.10189067281E+01  0.10185994092E+01 0.  0.
     999903    2    3    3    0    0  0.41384452237E-01 -0.11886525660E+00 -0.56990627287E-02  0.12767715768E+00  0.20672570341E-01 0.  0.
         14    1    1    2    0    0 -0.85134008100E-02 -0.16415071935E-01 -0.16859168399E-01  0.25023271950E-01  0.00000000000E+00 0. -1.
     999901    1    3    3    0    0 -0.32871051427E-01  0.13528032853E+00  0.22558231128E-01  0.89122957037E+00  0.88000000000E+00 0. -1.
        -11    1    4    4    0    0  0.11492133774E-01 -0.31036575052E-01  0.75727836540E-02  0.33955062993E-01  0.51100000000E-03 0.  1.
         11    1    4    4    0    0  0.29892318464E-01 -0.87828681545E-01 -0.13271846383E-01  0.93722094687E-01  0.51100000000E-03 0. -1.
</event>
<event>
 8    1  0.1123450E+005  0.1043930E+01  0.7957747E-01            NaN
         13   -1    0    0    0    0  0.00000000000E+00  0.00000000000E+00  0.74505805969E-08  0.10566000000E+00  0.10566000000E+00 0.  1.
     999900   -1    0    0    0    0 -0.00000000000E+00 -0.00000000000E+00 -0.74505805969E-08  0.93827000000E+00  0.93827000000E+00 0. -1.
     999902    2    1    2    0    0  0.11802415943E-01  0.20938255030E-01 -0.23138091188E-03  0.10198933388E+01  0.10196100536E+01 0.  0.
     999903    2    3    3    0    0 -0.72328436040E-01 -0.92013369655E-01  0.46880050036E-01  0.12744975137E+00  0.18650393484E-01 0.  0.
         14    1    1    2    0    0 -0.11802415943E-01 -0.20938255030E-01  0.23138091188E-03  0.24036661227E-01  0.00000000000E+00 0.  1.
     999901    1    3    3    0    0  0.84130851983E-01  0.11295162469E+00 -0.47111430947E-01  0.89244358741E+00  0.88000000000E+00 0. -1.
        -11    1    4    4    0    0 -0.45031932624E-01 -0.54170323901E-01  0.18500591298E-01  0.72834277279E-01  0.51100000000E-03 0. -1.
         11    1    4    4    0    0 -0.27296503416E-01 -0.37843045754E-01  0.28379458738E-01  0.54615474089E-01  0.51100000000E-03 0.  1.
</event>
<event>
 8    1  0.1123450E+005  0.1043930E+01  0.7957747E-01            NaN
         13   -1    0    0    0    0  0.00000000000E+00  0.00000000000E+00  0.74505805969E-08  0.10566000000E+00  0.10566000000E+00 0. -1.
     999900   -1    0    0    0    0 -0.00000000000E+00 -0.00000000000E+00 -0.74505805969E-08  0.93827000000E+00  0.93827000000E+00 0. -1.
     999902    2    1    2    0    0 -0.32441556649E-02  0.36599051302E-02  0.23020782943E-01  0.10203954318E+01  0.10201239932E+01 0.  0.
     999903    2    3    3    0    0  0.10266291849E-01 -0.60408157930E-01  0.11651365822E+00  0.13302393881E+00  0.19115267542E-01 0.  0.
         14    1    1    2    0    0  0.32441556649E-02 -0.36599051302E-02 -0.23020782943E-01  0.23534568168E-01  0.00000000000E+00 0.  1.
     999901    1    3    3    0    0 -0.13510447513E-01  0.64068063060E-01 -0.93492875274E-01  0.88737149302E+00  0.88000000000E+00 0. -1.
        -11    1    4    4    0    0  0.27139802143E-02 -0.51286484912E-01  0.84480470650E-01  0.98867994141E-01  0.51100000000E-03 0.  1.
         11    1    4    4    0    0  0.75523116343E-02 -0.91216730177E-02  0.32033187568E-01  0.34155944672E-01  0.51100000000E-03 0. -1.
</event>
<event>
 8    1  0.1123450E+005  0.1043930E+01  0.7957747E-01            NaN
         13   -1    0    0    0    0  0.00000000000E+00  0.00000000000E+00  0.74505805969E-08  0.10566000000E+00  0.10566000000E+00 0.  1.
     999900   -1    0    0    0    0 -0.00000000000E+00 -0.00000000000E+00 -0.74505805969E-08  0.93827000000E+00  0.93827000000E+00 0.  1.
     999902    2    1    2    0    0  0.11627159711E-01 -0.21612251592E-01 -0.16520544156E-01  0.10143460746E+01  0.10139145676E+01 0.  0.
     999903    2    3    3    0    0 -0.57499259857E-02  0.65541479737E-01 -0.10530912430E+00  0.12542473504E+00  0.17680647153E-01 0.  0.
         14    1    1    2    0    0 -0.11627159711E-01  0.21612251592E-01  0.16520544156E-01  0.29583925382E-01  0.00000000000E+00 0.  1.
     999901    1    3    3    0    0  0.17377085696E-01 -0.87153731329E-01  0.88788580146E-01  0.88892133958E+00  0.88000000000E+00 0. -1.
        -11    1    4    4    0    0  0.88225455635E-03  0.58202979603E-01 -0.90778811400E-01  0.10783978360E+00  0.51100000000E-03 0.  1.
         11    1    4    4    0    0 -0.66321805420E-02  0.73385001345E-02 -0.14530312902E-01  0.17584951436E-01  0.51100000000E-03 0. -1.
</event>
<event>
 8    1  0.1123450E+005  0.1043930E+01  0.7957747E-01            NaN
         13   -1    0    0    0    0  0.00000000000E+00  0.00000000000E+00  0.74505805969E-08  0.10566000000E+00  0.10566000000E+00 0. -1.
     999900   -1    0    0    0    0 -0.00000000000E+00 -0.00000000000E+00 -0.74505805969E-08  0.93827000000E+00  0.93827000000E+00 0. -1.
     999902    2    1    2    0    0 -0.10382290753E-01  0.21884830654E-01  0.89097186839E-02  0.10181206827E+01  0.10177934975E+01 0.  0.
     999903    2    3    3    0    0  0.58287557079E-01  0.13395039698E-01 -0.11056345657E+00  0.12735614355E+00  0.20455878662E-01 0.  0.
         14    1    1    2    0    0  0.10382290753E-01 -0.21884830654E-01 -0.89097186839E-02  0.25809317330E-01  0.00000000000E+00 0.  1.
     999901    1    3    3    0    0 -0.68669847832E-01  0.84897909556E-02  0.11947317525E+00  0.89076453912E+00  0.88000000000E+00 0.  1.
        -11    1    4    4    0    0  0.18130033178E-01  0.34989144970E-02 -0.17195474574E-01  0.25236599860E-01  0.51100000000E-03 0.  1.
         11    1    4    4    0    0  0.40157523901E-01  0.98961252010E-02 -0.93367981996E-01  0.10211954369E+00  0.51100000000E-03 0. -1.
</event>
<event>
 8    1  0.1123450E+005  0.1043930E+01  0.7957747E-01            NaN
         13   -1    0    0    0    0  0.00000000000E+00  0.00000000000E+00  0.74505805969E-08  0.10566000000E+00  0.10566000000E+00 0.  1.
     999900   -1    0    0    0    0 -0.00000000000E+00 -0.00000000000E+00 -0.74505805969E-08  0.93827000000E+00  0.93827000000E+00 0. -1.
     999902    2    1    2    0    0 -0.10675039526E-01 -0.19416432272E-01 -0.98039417867E-02  0.10197004398E+01  0.10194125345E+01 0.  0.
     999903    2    3    3    0    0  0.34953789128E-01  0.11738737700E+00 -0.29879101813E-01  0.12773615564E+00  0.20547532209E-01 0.  0.
         14    1    1    2    0    0  0.10675039526E-01  0.19416432272E-01  0.98039417867E-02  0.24229560161E-01  0.00000000000E+00 0.  1.
     999901    1    3    3    0    0 -0.45628828653E-01 -0.13680380927E+00  0.20075160026E-01  0.89196428420E+00  0.88000000000E+00 0.  1.
        -11    1    4    4    0    0  0.16633368544E-01  0.87136749731E-01 -0.23792970889E-01  0.91846876308E-01  0.51100000000E-03 0.  1.
         11    1    4    4    0    0  0.18320420583E-01  0.30250627267E-01 -0.60861309233E-02  0.35889279332E-01  0.51100000000E-03 0. -1.
</event>
<event>
 8    1  0.1123450E+005  0.1043930E+01  0.7957747E-01            NaN
         13   -1    0    0    0    0  0.00000000000E+00  0.00000000000E+00  0.74505805969E-08  0.10566000000E+00  0.10566000000E+00 0. -1.
     999900   -1    0    0    0    0 -0.00000000000E+00 -0.00000000000E+00 -0.74505805969E-08  0.93827000000E+00  0.93827000000E+00 0. -1.
     999902    2    1    2    0    0 -0.14234832711E-01 -0.13874899949E-01 -0.15614722007E-01  0.10186522854E+01  0.10183386056E+01 0.  0.
     999903    2    3    3    0    0  0.80292539262E-01  0.73717165401E-01  0.60192610290E-01  0.12604120237E+00  0.19547941691E-01 0.  0.
         14    1    1    2    0    0  0.14234832711E-01  0.13874899949E-01  0.15614722007E-01  0.25277714578E-01  0.00000000000E+00 0. -1.
     999901    1    3    3    0    0 -0.94527371973E-01 -0.87592065350E-01 -0.75807332298E-01  0.89261108306E+00  0.88000000000E+00 0. -1.
        -11    1    4    4    0    0  0.64352997308E-01  0.49973117649E-01  0.50406763621E-01  0.95810874591E-01  0.51100000000E-03 0. -1.
         11    1    4    4    0    0  0.15939541955E-01  0.23744047752E-01  0.97858466691E-02  0.30230327776E-01  0.51100000000E-03 0.  1.
</event>
<event>
 8    1  0.1123450E+005  0.1043930E+01  0.7957747E-01            NaN
         13   -1    0    0    0    0  0.00000000000E+00  0.00000000000E+00  0.74505805969E-08  0.10566000000E+00  0.10566000000E+00 0.  1.
     999900   -1    0    0    0    0 -0.00000000000E+00 -0.00000000000E+00 -0.74505805969E-08  0.93827000000E+00  0.93827000000E+00 0. -1.
     999902    2    1    2    0    0  0.82691079914E-02  0.19113398219E-01 -0.12372831124E-01  0.10197063114E+01  0.10194185472E+01 0.  0.
     999903    2    3    3    0    0  0.11893147489E-01  0.12721254801E+00  0.26564393313E-01  0.13222973860E+00  0.21320352967E-01 0.  0.
         14    1    1    2    0    0 -0.82691079914E-02 -0.19113398219E-01  0.12372831124E-01  0.24223688581E-01  0.00000000000E+00 0.  1.
     999901    1    3    3    0    0 -0.36240394975E-02 -0.10809914979E+00 -0.38937224436E-01  0.88747657281E+00  0.88000000000E+00 0. -1.
        -11    1    4    4    0    0 -0.40157371449E-02  0.68867916277E-01  0.16327194096E-01  0.70892555499E-01  0.51100000000E-03 0. -1.
         11    1    4    4    0    0  0.15908884634E-01  0.58344631734E-01  0.10237199217E-01  0.61337183105E-01  0.51100000000E-03 0.  1.
</event>
<event>
 8    1  0.1123450E+005  0.1043930E+01  0.7957747E-01            NaN
         13   -1    0    0    0    0  0.00000000000E+00  0.00000000000E+00  0.74505805969E-08  0.10566000000E+00  0.10566000000E+00 0.  1.
     999900   -1    0    0    0    0 -0.00000000000E+00 -0.00000000000E+00 -0.74505805969E-08  0.93827000000E+00  0.93827000000E+00 0. -1.
     999902    2    1    2    0    0 -0.18294929668E-01 -0.56616044553E-02  0.14382784835E-01  0.10199795780E+01  0.10196983459E+01 0.  0.
     999903    2    3    3    0    0  0.22063801153E-02 -0.12865437384E+00  0.16082961177E-01  0.13118803005E+00  0.19870117414E-01 0.  0.
         14    1    1    2    0    0  0.18294929668E-01  0.56616044553E-02 -0.14382784835E-01  0.23950422046E-01  0.00000000000E+00 0.  1.
     999901    1    3    3    0    0 -0.20501309784E-01  0.12299276939E+00 -0.17001763421E-02  0.88879154790E+00  0.88000000000E+00 0. -1.
        -11    1    4    4    0    0 -0.70143115480E-02 -0.50532325486E-01  0.12025599304E-01  0.52417484155E-01  0.51100000000E-03 0.  1.
         11    1    4    4    0    0  0.92206916633E-02 -0.78122048358E-01  0.40573618734E-02  0.78770545896E-01  0.51100000000E-03 0. -1.
</event>
<event>
 8    1  0.1123450E+005  0.1043930E+01  0.7957747E-01            NaN
         13   -1    0    0    0    0  0.00000000000E+00  0.00000000000E+00  0.74505805969E-08  0.10566000000E+00  0.10566000000E+00 0. -1.
     999900   -1    0    0    0    0 -0.00000000000E+00 -0.00000000000E+00 -0.74505805969E-08  0.93827000000E+00  0.93827000000E+00 0. -1.
     999902    2    1    2    0    0  0.74848005025E-02  0.17235651377E-01  0.14102628695E-01  0.10204358719E+01  0.10201653762E+01 0.  0.
     999903    2    3    3    0    0  0.54849142319E-01  0.85865803633E-01 -0.80719926742E-01  0.13142248864E+00  0.19359734005E-01 0.  0.
         14    1    1    2    0    0 -0.74848005025E-02 -0.17235651377E-01 -0.14102628695E-01  0.23494128055E-01  0.00000000000E+00 0.  1.
     999901    1    3    3    0    0 -0.47364341817E-01 -0.68630152256E-01  0.94822555437E-01  0.88901338330E+00  0.88000000000E+00 0.  1.
        -11    1    4    4    0    0  0.43276451163E-01  0.53029610067E-01 -0.47648934579E-01  0.83400676595E-01  0.51100000000E-03 0. -1.
         11    1    4    4    0    0  0.11572691157E-01  0.32836193566E-01 -0.33070992163E-01  0.48021812046E-01  0.51100000000E-03 0.  1.
</event>
<event>
 8    1  0.1123450E+005  0.1043930E+01  0.7957747E-01            NaN
         13   -1    0    0    0    0  0.00000000000E+00  0.00000000000E+00  0.74505805969E-08  0.10566000000E+00  0.10566000000E+00 0. -1.
     999900   -1    0    0    0    0 -0.00000000000E+00 -0.00000000000E+00 -0.74505805969E-08  0.93827000000E+00  0.93827000000E+00 0.  1.
     999902    2    1    2    0    0  0.24921821005E-02 -0.21581343318E-01  0.76126046342E-02  0.10209100717E+01  0.10206505069E+01 0.  0.
     999903    2    3    3    0    0  0.47671984247E-01 -0.78241547576E-01  0.95443333576E-01  0.13357370353E+00  0.18388760231E-01 0.  0.
         14    1    1    2    0    0 -0.24921821005E-02  0.21581343318E-01 -0.76126046342E-02  0.23019928330E-01  0.00000000000E+00 0.  1.
     999901    1    3    3    0    0 -0.45179802146E-01  0.56660204259E-01 -0.87830728942E-01  0.88733636813E+00  0.88000000000E+00 0.  1.
        -11    1    4    4    0    0  0.10632005145E-01 -0.33065195456E-01  0.30580533025E-01  0.46279334535E-01  0.51100000000E-03 0.  1.
         11    1    4    4    0    0  0.37039979102E-01 -0.45176352121E-01  0.64862800551E-01  0.87294369000E-01  0.51100000000E-03 0. -1.
</event>
<event>
 8    1  0.1123450E+005  0.1043930E+01  0.7957747E-01            NaN
         13   -1    0    0    0    0  0.00000000000E+00  0.00000000000E+00  0.74505805969E-08  0.10566000000E+00  0.10566000000E+00 0. -1.
     999900   -1    0    0    0    0 -0.00000000000E+00 -0.00000000000E+00 -0.74505805969E-08  0.93827000000E+00  0.93827000000E+00 0. -1.
     999902    2    1    2    0    0  0.20477104231E-01 -0.91868605625E-03 -0.13284597467E-01  0.10195038601E+01  0.10192112070E+01 0.  0.
     999903    2    3    3    0    0  0.76020440209E-01  0.98520220549E-01  0.34129002372E-01  0.13089753117E+00  0.22000765380E-01 0.  0.
         14    1    1    2    0    0 -0.20477104231E-01  0.91868605625E-03  0.13284597467E-01  0.24426139925E-01  0.00000000000E+00 0. -1.
     999901    1    3    3    0    0 -0.55543335978E-01 -0.99438906605E-01 -0.47413599840E-01  0.88860632890E+00  0.88000000000E+00 0. -1.
        -11    1    4    4    0    0  0.42663334110E-01  0.37528416976E-01  0.16719945630E-01  0.59231409412E-01  0.51100000000E-03 0.  1.
         11    1    4    4    0    0  0.33357106099E-01  0.60991803572E-01  0.17409056743E-01  0.71666121759E-01  0.51100000000E-03 0. -1.
</event>
<event>
 8    1  0.1123450E+005  0.1043930E+01  0.7957747E-01            NaN
         13   -1    0    0    0    0  0.00000000000E+00  0.00000000000E+00  0.74505805969E-08  0.10566000000E+00  0.10566000000E+00 0.  1.
     999900   -1    0    0    0    0 -0.00000000000E+00 -0.00000000000E+00 -0.74505805969E-08  0.93827000000E+00  0.93827000000E+00 0. -1.
     999902    2    1    2    0    0 -0.22995783320E-01  0.20791753912E-02  0.59075761156E-02  0.10200966520E+01  0.10198181951E+01 0.  0.
     999903    2    3    3    0    0 -0.17533824100E-01  0.12829259114E+00  0.34219448685E-02  0.13107143433E+00  0.20039642240E-01 0.  0.
         14    1    1    2    0    0  0.22995783320E-01 -0.20791753912E-02 -0.59075761156E-02  0.23833347989E-01  0.00000000000E+00 0. -1.
     999901    1    3    3    0    0 -0.54619592199E-02 -0.12621341575E+00  0.24856312470E-02  0.88902521768E+00  0.88000000000E+00 0.  1.
        -11    1    4    4    0    0 -0.90196948245E-02  0.81989284837E-01 -0.72215771500E-02  0.82801026686E-01  0.51100000000E-03 0.  1.
         11    1    4    4    0    0 -0.85141292757E-02  0.46303306303E-01  0.10643522019E-01  0.48270407642E-01  0.51100000000E-03 0. -1.
</event>
<event>
 8    1  0.1123450E+005  0.1043930E+01  0.7957747E-01            NaN
         13   -1    0    0    0    0  0.00000000000E+00  0.00000000000E+00  0.74505805969E-08  0.10566000000E+00  0.10566000000E+00 0.  1.
     999900   -1    0    0    0    0 -0.00000000000E+00 -0.00000000000E+00 -0.74505805969E-08  0.93827000000E+00  0.93827000000E+00 0. -1.
     999902    2    1    2    0    0 -0.14540423994E-02  0.15217839770E-01  0.17787523007E-01  0.10204759415E+01  0.10202063783E+01 0.  0.
     999903    2    3    3    0    0 -0.12177875129E+00 -0.41299844180E-01  0.78778350303E-02  0.13043634343E+00  0.20392106515E-01 0.  0.
         14    1    1    2    0    0  0.14540423994E-02 -0.15217839770E-01 -0.17787523007E-01  0.23454058525E-01  0.00000000000E+00 0. -1.
     999901    1    3    3    0    0  0.12032470889E+00  0.56517683950E-01  0.99096879768E-02  0.89003959804E+00  0.88000000000E+00 0. -1.
        -11    1    4    4    0    0 -0.16256408492E-01 -0.11061556872E-01 -0.38442245624E-02  0.20041657641E-01  0.51100000000E-03 0.  1.
         11    1    4    4    0    0 -0.10552234280E+00 -0.30238287307E-01  0.11722059593E-01  0.11039468579E+00  0.51100000000E-03 0. -1.
</event>
<event>
 8    1  0.1123450E+005  0.1043930E+01  0.7957747E-01            NaN
         13   -1    0    0    0    0  0.00000000000E+00  0.00000000000E+00  0.74505805969E-08  0.10566000000E+00  0.10566000000E+00 0. -1.
     999900   -1    0    0    0    0 -0.00000000000E+00 -0.00000000000E+00 -0.74505805969E-08  0.93827000000E+00  0.93827000000E+00 0.  1.
     999902    2    1    2    0    0  0.18305550104E-02 -0.23109426658E-01  0.50034379336E-02  0.10202143739E+01  0.10199386931E+01 0.  0.
     999903    2    3    3    0    0  0.57475397672E-01 -0.99097859022E-02  0.11616061126E+00  0.13138002697E+00  0.19125864280E-01 0.  0.
         14    1    1    2    0    0 -0.18305550104E-02  0.23109426658E-01 -0.50034379336E-02  0.23715626141E-01  0.00000000000E+00 0.  1.
     999901    1    3    3    0    0 -0.55644842661E-01 -0.13199640756E-01 -0.11115717332E+00  0.88883434689E+00  0.88000000000E+00 0.  1.
        -11    1    4    4    0    0  0.49177915301E-02 -0.36304216781E-02  0.27017848057E-01  0.27705412282E-01  0.51100000000E-03 0. -1.
         11    1    4    4    0    0  0.52557606141E-01 -0.62793642241E-02  0.89142763200E-01  0.10367461469E+00  0.51100000000E-03 0.  1.
</event>
<event>
 8    1  0.1123450E+005  0.1043930E+01  0.7957747E-01            NaN
         13   -1    0    0    0    0  0.00000000000E+00  0.00000000000E+00  0.74505805969E-08  0.10566000000E+00  0.10566000000E+00 0. -1.
     999900   -1    0    0    0    0 -0.00000000000E+00 -0.00000000000E+00 -0.74505805969E-08  0.93827000000E+00  0.93827000000E+00 0.  1.
     999902    2    1    2    0    0  0.19396055237E-01 -0.55683778000E-02  0.81539265796E-02  0.10221653427E+01  0.10219336023E+01 0.  0.
     999903    2    3    3    0    0  0.65976938401E-01 -0.75559674912E-01  0.87681001974E-01  0.13458823837E+00  0.19073933203E-01 0.  0.
         14    1    1    2    0    0 -0.19396055237E-01  0.55683778000E-02 -0.81539265796E-02  0.21764657331E-01  0.00000000000E+00 0.  1.
     999901    1    3    3    0    0 -0.46580883164E-01  0.69991297112E-01 -0.79527075394E-01  0.88757710429E+00  0.88000000000E+00 0.  1.
        -11    1    4    4    0    0  0.36181336862E-01 -0.51438787593E-01  0.62839525512E-01  0.88905034131E-01  0.51100000000E-03 0. -1.
         11    1    4    4    0    0  0.29795601539E-01 -0.24120887319E-01  0.24841476461E-01  0.45683204243E-01  0.51100000000E-03 0.  1.
</event>
<event>
 8    1  0.1123450E+005  0.1043930E+01  0.7957747E-01            NaN
         13   -1    0    0    0    0  0.00000000000E+00  0.00000000000E+00  0.74505805969E-08  0.10566000000E+00  0.10566000000E+00 0.  1.
     999900   -1    0    0    0    0 -0.00000000000E+00 -0.00000000000E+00 -0.74505805969E-08  0.93827000000E+00  0.93827000000E+00 0.  1.
     999902    2    1    2    0    0  0.12022630392E-01  0.16238769126E-01  0.13745915855E-01  0.10194924988E+01  0.10191995700E+01 0.  0.
     999903    2    3    3    0    0  0.15715337884E-01 -0.12364059885E+00  0.22982239869E-01  0.12838914709E+00  0.20533392586E-01 0.  0.
         14    1    1    2    0    0 -0.12022630392E-01 -0.16238769126E-01 -0.13745915855E-01  0.24437501242E-01  0.00000000000E+00 0. -1.
     999901    1    3    3    0    0 -0.36927074916E-02  0.13987936798E+00 -0.92363240139E-02  0.89110335167E+00  0.88000000000E+00 0. -1.
        -11    1    4    4    0    0 -0.26216760814E-02 -0.48924357055E-01  0.13828963806E-01  0.50911366704E-01  0.51100000000E-03 0. -1.
         11    1    4    4    0    0  0.18337013965E-01 -0.74716241798E-01  0.91532760634E-02  0.77477780384E-01  0.51100000000E-03 0.  1.
</event>
<event>
 8    1  0.1123450E+005  0.1043930E+01  0.7957747E-01            NaN
         13   -1    0    0    0    0  0.00000000000E+00  0.00000000000E+00  0.74505805969E-08  0.10566000000E+00  0.10566000000E+00 0. -1.
     999900   -1    0    0    0    0 -0.00000000000E+00 -0.00000000000E+00 -0.74505805969E-08  0.93827000000E+00  0.93827000000E+00 0.  1.
     999902    2    1    2    0    0 -0.15876217361E-01  0.14338295150E-01  0.99243316613E-02  0.10203475204E+01  0.10200749625E+01 0.  0.
     999903    2    3    3    0    0 -0.22948964219E-01  0.12147517349E+00  0.44175721299E-01  0.13316011508E+00  0.22299084379E-01 0.  0.
         14    1    1    2    0    0  0.15876217361E-01 -0.14338295150E-01 -0.99243316613E-02  0.23582479607E-01  0.00000000000E+00 0.  1.
     999901    1    3    3    0    0  0.70727468575E-02 -0.10713687834E+00 -0.34251389638E-01  0.88718740531E+00  0.88000000000E+00 0. -1.
        -11    1    4    4    0    0 -0.13595506309E-01  0.57955117638E-01  0.32749541185E-01  0.67944293514E-01  0.51100000000E-03 0. -1.
         11    1    4    4    0    0 -0.93534579099E-02  0.63520055849E-01  0.11426180114E-01  0.65215821569E-01  0.51100000000E-03 0.  1.
</event>
<event>
 8    1  0.1123450E+005  0.1043930E+01  0.7957747E-01            NaN
         13   -1    0    0    0    0  0.00000000000E+00  0.00000000000E+00  0.74505805969E-08  0.10566000000E+00  0.10566000000E+00 0. -1.
     999900   -1    0    0    0    0 -0.00000000000E+00 -0.00000000000E+00 -0.74505805969E-08  0.93827000000E+00  0.93827000000E+00 0.  1.
     999902    2    1    2    0    0  0.14461529059E-01  0.15399675639E-01  0.54149322214E-02  0.10221215768E+01  0.10218888934E+01 0.  0.
     999903    2    3    3    0    0  0.94415150986E-01 -0.89990288679E-01  0.87493952114E-02  0.13222790623E+00  0.19879498907E-01 0.  0.
         14    1    1    2    0    0 -0.14461529059E-01 -0.15399675639E-01 -0.54149322214E-02  0.21808423223E-01  0.00000000000E+00 0.  1.
     999901    1    3    3    0    0 -0.79953621927E-01  0.10538996432E+00 -0.33344629900E-02  0.88989367055E+00  0.88000000000E+00 0. -1.
        -11    1    4    4    0    0  0.39450179199E-01 -0.35874447857E-01  0.13298059056E-01  0.54958094431E-01  0.51100000000E-03 0. -1.
         11    1    4    4    0    0  0.54964971788E-01 -0.54115840822E-01 -0.45486638442E-02  0.77269811798E-01  0.51100000000E-03 0.  1.
</event>
<event>
 8    1  0.1123450E+005  0.1043930E+01  0.7957747E-01            NaN
         13   -1    0    0    0    0  0.00000000000E+00  0.00000000000E+00  0.74505805969E-08  0.10566000000E+00  0.10566000000E+00 0.  1.
     999900   -1    0    0    0    0 -0.00000000000E+00 -0.00000000000E+00 -0.74505805969E-08  0.93827000000E+00  0.93827000000E+00 0. -1.
     999902    2    1    2    0    0 -0.13368214557E-01 -0.15683262853E-01 -0.12058808934E-01  0.10200534683E+01  0.10197739894E+01 0.  0.
     999903    2    3    3    0    0 -0.20034452526E-01 -0.61387353175E-01 -0.11450688455E+00  0.13290696922E+00  0.19561427332E-01 0.  0.
         14    1    1    2    0    0  0.13368214557E-01  0.15683262853E-01  0.12058808934E-01  0.23876531722E-01  0.00000000000E+00 0.  1.
     999901    1    3    3    0    0  0.66662379689E-02  0.45704090322E-01  0.10244807561E+00  0.88714649906E+00  0.88000000000E+00 0.  1.
        -11    1    4    4    0    0 -0.16539697699E-01 -0.24785447017E-01 -0.40668743691E-01  0.50419121553E-01  0.51100000000E-03 0.  1.
         11    1    4    4    0    0 -0.34947548279E-02 -0.36601906158E-01 -0.73838140858E-01  0.82487847663E-01  0.51100000000E-03 0. -1.
</event>
<event>
 8    1  0.1123450E+005  0.1043930E+01  0.7957747E-01            NaN
         13   -1    0    0    0    0  0.00000000000E+00  0.00000000000E+00  0.74505805969E-08  0.10566000000E+00  0.10566000000E+00 0.  1.
     999900   -1    0    0    0    0 -0.00000000000E+00 -0.00000000000E+00 -0.74505805969E-08  0.93827000000E+00  0.93827000000E+00 0. -1.
     999902    2    1    2    0    0  0.11750138526E-01  0.12953896275E-01  0.16026039949E-01  0.10202086354E+01  0.10199328196E+01 0.  0.
     999903    2    3    3    0    0  0.18209896720E-01  0.10090931314E+00 -0.78574855679E-01  0.13075531264E+00  0.20215192877E-01 0.  0.
         14    1    1    2    0    0 -0.11750138526E-01 -0.12953896275E-01 -0.16026039949E-01  0.23721364643E-01  0.00000000000E+00 0. -1.
     999901    1    3    3    0    0 -0.64597581939E-02 -0.87955416862E-01  0.94600895629E-01  0.88945332271E+00  0.88000000000E+00 0. -1.
        -11    1    4    4    0    0  0.13754230324E-01  0.62623445352E-01 -0.60594878600E-01  0.88220605264E-01  0.51100000000E-03 0. -1.
         11    1    4    4    0    0  0.44556663956E-02  0.38285867785E-01 -0.17979977080E-01  0.42534707380E-01  0.51100000000E-03 0.  1.
</event>
<event>
 8    1  0.1123450E+005  0.1043930E+01  0.7957747E-01            NaN
         13   -1    0    0    0    0  0.00000000000E+00  0.00000000000E+00  0.74505805969E-08  0.10566000000E+00  0.10566000000E+00 0. -1.
     999900   -1    0    0    0    0 -0.00000000000E+00 -0.00000000000E+00 -0.74505805969E-08  0.93827000000E+00  0.93827000000E+00 0.  1.
     999902    2    1    2    0    0 -0.61839498949E-02 -0.19954467026E-01 -0.10783835082E-01  0.10204201491E+01  0.10201492869E+01 0.  0.
     999903    2    3    3    0    0  0.73740727573E-01 -0.91497965081E-01  0.57022548556E-01  0.13131715627E+00  0.13529670007E-01 0.  0.
         14    1    1    2    0    0  0.61839498949E-02  0.19954467026E-01  0.10783835082E-01  0.23509850907E-01  0.00000000000E+00 0. -1.
     999901    1    3    3    0    0 -0.79924677468E-01  0.71543498055E-01 -0.67806383638E-01  0.88910299282E+00  0.88000000000E+00 0.  1.
        -11    1    4    4    0    0  0.13287515465E-01 -0.20265063315E-01  0.17381543996E-01  0.29826331505E-01  0.51100000000E-03 0.  1.
         11    1    4    4    0    0  0.60453212108E-01 -0.71232901766E-01  0.39641004560E-01  0.10149082477E+00  0.51100000000E-03 0. -1.
</event>
<event>
 8    1  0.1123450E+005  0.1043930E+01  0.7957747E-01            NaN
         13   -1    0    0    0    0  0.00000000000E+00  0.00000000000E+00  0.74505805969E-08  0.10566000000E+00  0.10566000000E+00 0.  1.
     999900   -1    0    0    0    0 -0.00000000000E+00 -0.00000000000E+00 -0.74505805969E-08  0.93827000000E+00  0.93827000000E+00 0.  1.
     999902    2    1    2    0    0  0.21896554115E-01  0.66830483529E-02  0.70635857640E-02  0.10199713594E+01  0.10196899320E+01 0.  0.
     999903    2    3    3    0    0  0.12980909808E-01 -0.61546947494E-01  0.11299964496E+00  0.13095096045E+00  0.20559754759E-01 0.  0.
         14    1    1    2    0    0 -0.21896554115E-01 -0.66830483529E-02 -0.70635857640E-02  0.23958640639E-01  0.00000000000E+00 0. -1.
     999901    1    3    3    0    0  0.89156443072E-02  0.68229995847E-01 -0.10593605920E+00  0.88902039891E+00  0.88000000000E+00 0.  1.
        -11    1    4    4    0    0 -0.56405353016E-02 -0.14313075029E-01  0.27172586512E-01  0.31229638711E-01  0.51100000000E-03 0. -1.
         11    1    4    4    0    0  0.18621445110E-01 -0.47233872465E-01  0.85827058448E-01  0.99721321736E-01  0.51100000000E-03 0.  1.
</event>
<event>
 8    1  0.1123450E+005  0.1043930E+01  0.7957747E-01            NaN
         13   -1    0    0    0    0  0.00000000000E+00  0.00000000000E+00  0.74505805969E-08  0.10566000000E+00  0.10566000000E+00 0.  1.
     999900   -1    0    0    0    0 -0.00000000000E+00 -0.00000000000E+00 -0.74505805969E-08  0.93827000000E+00  0.93827000000E+00 0. -1.
     999902    2    1    2    0    0 -0.15265331149E-01 -0.12458273871E-01 -0.11164488039E-01  0.10212830418E+01  0.10210319127E+01 0.  0.
     999903    2    3    3    0    0 -0.10965362013E+00  0.27966427435E-01  0.65184645411E-01  0.13202914343E+00  0.19406680467E-01 0.  0.
         14    1    1    2    0    0  0.15265331149E-01  0.12458273871E-01  0.11164488039E-01  0.22646958209E-01  0.00000000000E+00 0.  1.
     999901    1    3    3    0    0  0.94388288979E-01 -0.40424701306E-01 -0.76349133450E-01  0.88925389836E+00  0.88000000000E+00 0. -1.
        -11    1    4    4    0    0 -0.10473728412E+00  0.23850733907E-01  0.56957304970E-01  0.12158598564E+00  0.51100000000E-03 0. -1.
         11    1    4    4    0    0 -0.49163360081E-02  0.41156935279E-02  0.82273404415E-02  0.10443157793E-01  0.51100000000E-03 0.  1.
</event>
<event>
 8    1  0.1123450E+005  0.1043930E+01  0.7957747E-01            NaN
         13   -1    0    0    0    0  0.00000000000E+00  0.00000000000E+00  0.74505805969E-08  0.10566000000E+00  0.10566000000E+00 0. -1.
     999900   -1    0    0    0    0 -0.00000000000E+00 -0.00000000000E+00 -0.74505805969E-08  0.93827000000E+00  0.93827000000E+00 0. -1.
     999902    2    1    2    0    0 -0.30312757732E-02  0.23121391823E-01 -0.29864738180E-02  0.10204202910E+01  0.10201494321E+01 0.  0.
     999903    2    3    3    0    0  0.42550082328E-01  0.12477268575E+00 -0.11979149655E-02  0.13339501247E+00  0.20348506950E-01 0.  0.
         14    1    1    2    0    0  0.30312757732E-02 -0.23121391823E-01  0.29864738180E-02  0.23509709027E-01  0.00000000000E+00 0. -1.
     999901    1    3    3    0    0 -0.45581358101E-01 -0.10165129393E+00 -0.17885588525E-02  0.88702527850E+00  0.88000000000E+00 0. -1.
        -11    1    4    4    0    0  0.28343397841E-01  0.10521784970E+00  0.21325845257E-02  0.10899061030E+00  0.51100000000E-03 0.  1.
         11    1    4    4    0    0  0.14206684487E-01  0.19554836056E-01 -0.33304994913E-02  0.24404402168E-01  0.51100000000E-03 0. -1.
</event>
<event>
 8    1  0.1123450E+005  0.1043930E+01  0.7957747E-01            NaN
         13   -1    0    0    0    0  0.00000000000E+00  0.00000000000E+00  0.74505805969E-08  0.10566000000E+00  0.10566000000E+00 0.  1.
     999900   -1    0    0    0    0 -0.00000000000E+00 -0.00000000000E+00 -0.74505805969E-08  0.93827000000E+00  0.93827000000E+00 0. -1.
     999902    2    1    2    0    0 -0.21962770265E-01 -0.26488660528E-02 -0.49798084059E-02  0.10212545009E+01  0.10210027313E+01 0.  0.
     999903    2    3    3    0    0  0.79919968913E-01  0.23991280190E-01  0.96297382892E-01  0.12920805622E+00  0.21418517319E-01 0.  0.
         14    1    1    2    0    0  0.21962770265E-01  0.26488660528E-02  0.49798084059E-02  0.22675499131E-01  0.00000000000E+00 0.  1.
     999901    1    3    3    0    0 -0.10188273918E+00 -0.26640146243E-01 -0.10127719130E+00  0.89204644465E+00  0.88000000000E+00 0. -1.
        -11    1    4    4    0    0  0.77827226220E-02 -0.16538648913E-02  0.18062285145E-01  0.19743690287E-01  0.51100000000E-03 0. -1.
         11    1    4    4    0    0  0.72137246291E-01  0.25645145082E-01  0.78235097747E-01  0.10946436593E+00  0.51100000000E-03 0.  1.
</event>
<event>
 8    1  0.1123450E+005  0.1043930E+01  0.7957747E-01            NaN
         13   -1    0    0    0    0  0.00000000000E+00  0.00000000000E+00  0.74505805969E-08  0.10566000000E+00  0.10566000000E+00 0. -1.
     999900   -1    0    0    0    0 -0.00000000000E+00 -0.00000000000E+00 -0.74505805969E-08  0.93827000000E+00  0.93827000000E+00 0. -1.
     999902    2    1    2    0    0  0.83749729388E-02 -0.67191504711E-02  0.19967828616E-01  0.10212584025E+01  0.10210067205E+01 0.  0.
     999903    2    3    3    0    0 -0.78047124107E-02 -0.58690886624E-02 -0.12695141366E+00  0.12893123793E+00  0.20279125872E-01 0.  0.
         14    1    1    2    0    0 -0.83749729388E-02  0.67191504711E-02 -0.19967828616E-01  0.22671597527E-01  0.00000000000E+00 0. -1.
     999901    1    3    3    0    0  0.16179685349E-01 -0.85006180868E-03  0.14691924228E+00  0.89232716454E+00  0.88000000000E+00 0.  1.
        -11    1    4    4    0    0 -0.72089326537E-02  0.37162529642E-02 -0.99735317642E-01  0.10006584808E+00  0.51100000000E-03 0. -1.
         11    1    4    4    0    0 -0.59577975697E-03 -0.95853416266E-02 -0.27216096023E-01  0.28865389852E-01  0.51100000000E-03 0.  1.
</event>
<event>
 8    1  0.1123450E+005  0.1043930E+01  0.7957747E-01            NaN
         13   -1    0    0    0    0  0.00000000000E+00  0.00000000000E+00  0.74505805969E-08  0.10566000000E+00  0.10566000000E+00 0.  1.
     999900   -1    0    0    0    0 -0.00000000000E+00 -0.00000000000E+00 -0.74505805969E-08  0.93827000000E+00  0.93827000000E+00 0. -1.
     999902    2    1    2    0    0  0.11691674883E-02  0.35027685420E-01  0.10049487551E-01  0.10074704622E+01  0.10068105255E+01 0.  0.
     999903    2    3    3    0    0  0.62029853980E-01  0.55440934468E-01  0.86282889230E-01  0.12184511507E+00  0.21911072395E-01 0.  0.
         14    1    1    2    0    0 -0.11691674883E-02 -0.35027685420E-01 -0.10049487551E-01  0.36459537827E-01  0.00000000000E+00 0.  1.
     999901    1    3    3    0    0 -0.60860686492E-01 -0.20413249047E-01 -0.76233401679E-01  0.88562534710E+00  0.88000000000E+00 0. -1.
        -11    1    4    4    0    0  0.62546073303E-02  0.16906085070E-01  0.21671129073E-01  0.28192814360E-01  0.51100000000E-03 0.  1.
         11    1    4    4    0    0  0.55775246650E-01  0.38534849398E-01  0.64611760158E-01  0.93652300712E-01  0.51100000000E-03 0. -1.
</event>
<event>
 8    1  0.1123450E+005  0.1043930E+01  0.7957747E-01            NaN
         13   -1    0    0    0    0  0.00000000000E+00  0.00000000000E+00  0.74505805969E-08  0.10566000000E+00  0.10566000000E+00 0. -1.
     999900   -1    0    0    0    0 -0.00000000000E+00 -0.00000000000E+00 -0.74505805969E-08  0.93827000000E+00  0.93827000000E+00 0.  1.
     999902    2    1    2    0    0 -0.60616772355E-02  0.75558239007E-03  0.23183149704E-01  0.10199555706E+01  0.10196737678E+01 0.  0.
     999903    2    3    3    0    0  0.39617486336E-01 -0.10378353598E+00 -0.62772614484E-01  0.12843809647E+00  0.14675691848E-01 0.  0.
         14    1    1    2    0    0  0.60616772355E-02 -0.75558239007E-03 -0.23183149704E-01  0.23974429417E-01  0.00000000000E+00 0.  1.
     999901    1    3    3    0    0 -0.45679163571E-01  0.10453911837E+00  0.85955764188E-01  0.89151747411E+00  0.88000000000E+00 0. -1.
        -11    1    4    4    0    0  0.27353064054E-01 -0.65787229655E-01 -0.32402088935E-01  0.78270723692E-01  0.51100000000E-03 0.  1.
         11    1    4    4    0    0  0.12264422282E-01 -0.37996306325E-01 -0.30370525548E-01  0.50167372777E-01  0.51100000000E-03 0. -1.
</event>
<event>
 8    1  0.1123450E+005  0.1043930E+01  0.7957747E-01            NaN
         13   -1    0    0    0    0  0.00000000000E+00  0.00000000000E+00  0.74505805969E-08  0.10566000000E+00  0.10566000000E+00 0.  1.
     999900   -1    0    0    0    0 -0.00000000000E+00 -0.00000000000E+00 -0.74505805969E-08  0.93827000000E+00  0.93827000000E+00 0.  1.
     999902    2    1    2    0    0 -0.85337207158E-02  0.20888708193E-01 -0.78954135934E-02  0.10200239323E+01  0.10197437533E+01 0.  0.
     999903    2    3    3    0    0 -0.12304123180E+00 -0.29143486318E-01  0.25525447440E-01  0.13056783748E+00  0.20197133471E-01 0.  0.
         14    1    1    2    0    0  0.85337207158E-02 -0.20888708193E-01  0.78954135934E-02  0.23906067745E-01  0.00000000000E+00 0. -1.
     999901    1    3    3    0    0  0.11450751108E+00  0.50032194511E-01 -0.33420861033E-01  0.88945609478E+00  0.88000000000E+00 0.  1.
        -11    1    4    4    0    0 -0.41081599869E-01 -0.16590712436E-01  0.18915487331E-02  0.44348491119E-01  0.51100000000E-03 0. -1.
         11    1    4    4    0    0 -0.81959631926E-01 -0.12552773881E-01  0.23633898707E-01  0.86219346360E-01  0.51100000000E-03 0.  1.
</event>
<event>
 8    1  0.1123450E+005  0.1043930E+01  0.7957747E-01            NaN
         13   -1    0    0    0    0  0.00000000000E+00  0.00000000000E+00  0.74505805969E-08  0.10566000000E+00  0.10566000000E+00 0.  1.
     999900   -1    0    0    0    0 -0.00000000000E+00 -0.00000000000E+00 -0.74505805969E-08  0.93827000000E+00  0.93827000000E+00 0. -1.
     999902    2    1    2    0    0  0.75027060801E-02 -0.12787119824E-01  0.19593099990E-01  0.10193598840E+01  0.10190637284E+01 0.  0.
     999903    2    3    3    0    0 -0.12451150700E+00 -0.21142875342E-01  0.20497765756E-01  0.12947315554E+00  0.19824304577E-01 0.  0.
         14    1    1    2    0    0 -0.75027060801E-02  0.12787119824E-01 -0.19593099990E-01  0.24570115978E-01  0.00000000000E+00 0. -1.
     999901    1    3    3    0    0  0.13201421308E+00  0.83557555181E-02 -0.90466576598E-03  0.88988672848E+00  0.88000000000E+00 0.  1.
        -11    1    4    4    0    0 -0.60018876547E-01 -0.63034393511E-03  0.12635880666E-01  0.61339950087E-01  0.51100000000E-03 0. -1.
         11    1    4    4    0    0 -0.64492630452E-01 -0.20512531407E-01  0.78618850902E-02  0.68133205455E-01  0.51100000000E-03 0.  1.
</event>
<event>
 8    1  0.1123450E+005  0.1043930E+01  0.7957747E-01            NaN
         13   -1    0    0    0    0  0.00000000000E+00  0.00000000000E+00  0.74505805969E-08  0.10566000000E+00  0.10566000000E+00 0.  1.
     999900   -1    0    0    0    0 -0.00000000000E+00 -0.00000000000E+00 -0.74505805969E-08  0.93827000000E+00  0.93827000000E+00 0.  1.
     999902    2    1    2    0    0 -0.19817288007E-01 -0.13940988843E-01 -0.85850686046E-03  0.10196851427E+01  0.10193968692E+01 0.  0.
     999903    2    3    3    0    0  0.12373654956E+00 -0.24786070172E-01  0.22435936718E-02  0.12798174852E+00  0.21194604763E-01 0.  0.
         14    1    1    2    0    0  0.19817288007E-01  0.13940988843E-01  0.85850686046E-03  0.24244857349E-01  0.00000000000E+00 0.  1.
     999901    1    3    3    0    0 -0.14355383757E+00  0.10845081329E-01 -0.31021005323E-02  0.89170339413E+00  0.88000000000E+00 0. -1.
        -11    1    4    4    0    0  0.55836307929E-01 -0.48243377230E-03  0.12066184928E-02  0.55853765089E-01  0.51100000000E-03 0. -1.
         11    1    4    4    0    0  0.67900241632E-01 -0.24303636399E-01  0.10369751790E-02  0.72127983435E-01  0.51100000000E-03 0.  1.
</event>
<event>
 8    1  0.1288951E+005  0.1043930E+01  0.7957747E-01            NaN
         13   -1    0    0    0    0  0.00000000000E+00  0.00000000000E+00  0.74505805969E-08  0.10566000000E+00  0.10566000000E+00 0.  1.
     999900   -1    0    0    0    0 -0.00000000000E+00 -0.00000000000E+00 -0.74505805969E-08  0.93827000000E+00  0.93827000000E+00 0. -1.
     999902    2    1    2    0    0  0.15357619390E-01  0.17633681157E-01  0.48747847075E-02  0.10200434617E+01  0.10197637457E+01 0.  0.
     999903    2    3    3    0    0  0.32119122059E-02 -0.12775101415E-01  0.12856786154E+00  0.13078973556E+00  0.20068390796E-01 0.  0.
         14    1    1    2    0    0 -0.15357619390E-01 -0.17633681157E-01 -0.48747847075E-02  0.23886538268E-01  0.00000000000E+00 0. -1.
     999901    1    3    3    0    0  0.12145707184E-01  0.30408782572E-01 -0.12369307684E+00  0.88925372618E+00  0.88000000000E+00 0. -1.
        -11    1    4    4    0    0  0.10539387224E-01 -0.27069418127E-02  0.75268139240E-01  0.76052351198E-01  0.51100000000E-03 0. -1.
         11    1    4    4    0    0 -0.73274750182E-02 -0.10068159603E-01  0.53299722302E-01  0.54737384359E-01  0.51100000000E-03 0.  1.
</event>
<event>
 8    1  0.1123450E+005  0.1043930E+01  0.7957747E-01            NaN
         13   -1    0    0    0    0  0.00000000000E+00  0.00000000000E+00  0.74505805969E-08  0.10566000000E+00  0.10566000000E+00 0.  1.
     999900   -1    0    0    0    0 -0.00000000000E+00 -0.00000000000E+00 -0.74505805969E-08  0.93827000000E+00  0.93827000000E+00 0. -1.
     999902    2    1    2    0    0  0.19049446324E-01 -0.13421812880E-01  0.33111355853E-02  0.10203930060E+01  0.10201215107E+01 0.  0.
     999903    2    3    3    0    0 -0.23982524154E-01 -0.11000942761E+00 -0.64896249906E-01  0.13144240828E+00  0.19706542430E-01 0.  0.
         14    1    1    2    0    0 -0.19049446324E-01  0.13421812880E-01 -0.33111355853E-02  0.23536993969E-01  0.00000000000E+00 0. -1.
     999901    1    3    3    0    0  0.43031970478E-01  0.96587614733E-01  0.68207385492E-01  0.88895059775E+00  0.88000000000E+00 0.  1.
        -11    1    4    4    0    0 -0.35162471286E-02 -0.60652326709E-01 -0.37451685161E-01  0.71371973291E-01  0.51100000000E-03 0.  1.
         11    1    4    4    0    0 -0.20466277026E-01 -0.49357100904E-01 -0.27444564746E-01  0.60070434991E-01  0.51100000000E-03 0. -1.
</event>
<event>
 8    1  0.1123450E+005  0.1043930E+01  0.7957747E-01            NaN
         13   -1    0    0    0    0  0.00000000000E+00  0.00000000000E+00  0.74505805969E-08  0.10566000000E+00  0.10566000000E+00 0. -1.
     999900   -1    0    0    0    0 -0.00000000000E+00 -0.00000000000E+00 -0.74505805969E-08  0.93827000000E+00  0.93827000000E+00 0. -1.
     999902    2    1    2    0    0  0.11262148209E-01 -0.15887131494E-01 -0.11832553086E-01  0.10211430247E+01  0.10208887455E+01 0.  0.
     999903    2    3    3    0    0 -0.30658852120E-01 -0.57404415162E-01 -0.11463767596E+00  0.13319598329E+00  0.19082482087E-01 0.  0.
         14    1    1    2    0    0 -0.11262148209E-01  0.15887131494E-01  0.11832553086E-01  0.22786975270E-01  0.00000000000E+00 0. -1.
     999901    1    3    3    0    0  0.41921000330E-01  0.41517283668E-01  0.10280512287E+00  0.88794704144E+00  0.88000000000E+00 0.  1.
        -11    1    4    4    0    0 -0.51184878018E-02 -0.11729186208E-01 -0.10174898508E-01  0.16357334964E-01  0.51100000000E-03 0. -1.
         11    1    4    4    0    0 -0.25540364319E-01 -0.45675228955E-01 -0.10446277745E+00  0.11683864833E+00  0.51100000000E-03 0.  1.
</event>
<event>
 8    1  0.1123450E+005  0.1043930E+01  0.7957747E-01            NaN
         13   -1    0    0    0    0  0.00000000000E+00  0.00000000000E+00  0.74505805969E-08  0.10566000000E+00  0.10566000000E+00 0. -1.
     999900   -1    0    0    0    0 -0.00000000000E+00 -0.00000000000E+00 -0.74505805969E-08  0.93827000000E+00  0.93827000000E+00 0.  1.
     999902    2    1    2    0    0 -0.22120844494E-01 -0.15828618647E-02 -0.93800762072E-02  0.10198504850E+01  0.10195661767E+01 0.  0.
     999903    2    3    3    0    0  0.17217862153E-01  0.67751192288E-01 -0.10859964453E+00  0.13069399279E+00  0.20008951162E-01 0.  0.
         14    1    1    2    0    0  0.22120844494E-01  0.15828618647E-02  0.93800762072E-02  0.24079514997E-01  0.00000000000E+00 0. -1.
     999901    1    3    3    0    0 -0.39338706647E-01 -0.69334054153E-01  0.99219568320E-01  0.88915649221E+00  0.88000000000E+00 0. -1.
        -11    1    4    4    0    0  0.53358679698E-02  0.53985433274E-02 -0.22311388732E-01  0.23572758540E-01  0.51100000000E-03 0. -1.
         11    1    4    4    0    0  0.11881994183E-01  0.62352648961E-01 -0.86288255796E-01  0.10712123425E+00  0.51100000000E-03 0.  1.
</event>
<event>
 8    1  0.1123450E+005  0.1043930E+01  0.7957747E-01            NaN
         13   -1    0    0    0    0  0.00000000000E+00  0.00000000000E+00  0.74505805969E-08  0.10566000000E+00  0.10566000000E+00 0. -1.
     999900   -1    0    0    0    0 -0.00000000000E+00 -0.00000000000E+00 -0.74505805969E-08  0.93827000000E+00  0.93827000000E+00 0.  1.
     999902    2    1    2    0    0 -0.20574936177E-02 -0.19689814454E-01 -0.11209877768E-01  0.10211795399E+01  0.10209260842E+01 0.  0.
     999903    2    3    3    0    0  0.85747144258E-01 -0.36512854651E-01  0.89547573996E-01  0.13092972489E+00  0.20929967711E-01 0.  0.
         14    1    1    2    0    0  0.20574936177E-02  0.19689814454E-01  0.11209877768E-01  0.22750460057E-01  0.00000000000E+00 0.  1.
     999901    1    3    3    0    0 -0.87804637876E-01  0.16823040197E-01 -0.10075745176E+00  0.89024981505E+00  0.88000000000E+00 0. -1.
        -11    1    4    4    0    0  0.54795353680E-01 -0.12305798691E-01  0.54942885006E-01  0.78568092761E-01  0.51100000000E-03 0.  1.
         11    1    4    4    0    0  0.30951790578E-01 -0.24207055960E-01  0.34604688991E-01  0.52361632131E-01  0.51100000000E-03 0. -1.
</event>
<event>
 8    1  0.1123450E+005  0.1043930E+01  0.7957747E-01            NaN
         13   -1    0    0    0    0  0.00000000000E+00  0.00000000000E+00  0.74505805969E-08  0.10566000000E+00  0.10566000000E+00 0.  1.
     999900   -1    0    0    0    0 -0.00000000000E+00 -0.00000000000E+00 -0.74505805969E-08  0.93827000000E+00  0.93827000000E+00 0.  1.
     999902    2    1    2    0    0  0.19879888216E-02 -0.19110569734E-01  0.14633395087E-01  0.10197783494E+01  0.10194923147E+01 0.  0.
     999903    2    3    3    0    0 -0.52545365226E-01 -0.11915722431E+00  0.13230866763E-01  0.13243107415E+00  0.20086663619E-01 0.  0.
         14    1    1    2    0    0 -0.19879888216E-02  0.19110569734E-01 -0.14633395087E-01  0.24151650604E-01  0.00000000000E+00 0. -1.
     999901    1    3    3    0    0  0.54533354047E-01  0.10004665457E+00  0.14025283232E-02  0.88734727524E+00  0.88000000000E+00 0.  1.
        -11    1    4    4    0    0 -0.25879103226E-01 -0.81703796477E-01  0.10851099032E-01  0.86390079371E-01  0.51100000000E-03 0.  1.
         11    1    4    4    0    0 -0.26666262000E-01 -0.37453427829E-01  0.23797677316E-02  0.46040994783E-01  0.51100000000E-03 0. -1.
</event>
<event>
 8    1  0.1123450E+005  0.1043930E+01  0.7957747E-01            NaN
         13   -1    0    0    0    0  0.00000000000E+00  0.00000000000E+00  0.74505805969E-08  0.10566000000E+00  0.10566000000E+00 0. -1.
     999900   -1    0    0    0    0 -0.00000000000E+00 -0.00000000000E+00 -0.74505805969E-08  0.93827000000E+00  0.93827000000E+00 0. -1.
     999902    2    1    2    0    0 -0.20411637270E-01  0.11790459368E-01  0.35900847798E-02  0.10200859530E+01  0.10198072430E+01 0.  0.
     999903    2    3    3    0    0  0.18278357652E-01  0.11957672130E+00 -0.46273868757E-01  0.13126583182E+00  0.21371874966E-01 0.  0.
         14    1    1    2    0    0  0.20411637270E-01 -0.11790459368E-01 -0.35900847798E-02  0.23844046990E-01  0.00000000000E+00 0. -1.
     999901    1    3    3    0    0 -0.38689994922E-01 -0.10778626193E+00  0.49863953537E-01  0.88882012119E+00  0.88000000000E+00 0.  1.
        -11    1    4    4    0    0  0.20304118252E-01  0.62448908437E-01 -0.25290177903E-01  0.70370289202E-01  0.51100000000E-03 0.  1.
         11    1    4    4    0    0 -0.20257605995E-02  0.57127812859E-01 -0.20983690854E-01  0.60895542620E-01  0.51100000000E-03 0. -1.
</event>
<event>
 8    1  0.1123450E+005  0.1043930E+01  0.7957747E-01            NaN
         13   -1    0    0    0    0  0.00000000000E+00  0.00000000000E+00  0.74505805969E-08  0.10566000000E+00  0.10566000000E+00 0.  1.
     999900   -1    0    0    0    0 -0.00000000000E+00 -0.00000000000E+00 -0.74505805969E-08  0.93827000000E+00  0.93827000000E+00 0.  1.
     999902    2    1    2    0    0  0.19951640352E-01 -0.93951098070E-02  0.86392282049E-02  0.10202451461E+01  0.10199701887E+01 0.  0.
     999903    2    3    3    0    0 -0.39015726027E-01 -0.11919211963E+00 -0.31150448554E-01  0.13057343582E+00  0.18710516745E-01 0.  0.
         14    1    1    2    0    0 -0.19951640352E-01  0.93951098070E-02 -0.86392282049E-02  0.23684853915E-01  0.00000000000E+00 0. -1.
     999901    1    3    3    0    0  0.58967366379E-01  0.10979700983E+00  0.39789676759E-01  0.88967171026E+00  0.88000000000E+00 0.  1.
        -11    1    4    4    0    0 -0.24247943600E-01 -0.97076617749E-01 -0.27132521093E-01  0.10367385063E+00  0.51100000000E-03 0.  1.
         11    1    4    4    0    0 -0.14767782428E-01 -0.22115501886E-01 -0.40179274607E-02  0.26899585194E-01  0.51100000000E-03 0. -1.
</event>
<event>
 8    1  0.1123450E+005  0.1043930E+01  0.7957747E-01            NaN
         13   -1    0    0    0    0  0.00000000000E+00  0.00000000000E+00  0.74505805969E-08  0.10566000000E+00  0.10566000000E+00 0.  1.
     999900   -1    0    0    0    0 -0.00000000000E+00 -0.00000000000E+00 -0.74505805969E-08  0.93827000000E+00  0.93827000000E+00 0.  1.
     999902    2    1    2    0    0  0.58874490584E-03 -0.22744040629E-01  0.63414858971E-02  0.10203110998E+01  0.10200376894E+01 0.  0.
     999903    2    3    3    0    0  0.70143071449E-01  0.10416723423E+00 -0.16424155188E-01  0.12819981162E+00  0.19863928771E-01 0.  0.
         14    1    1    2    0    0 -0.58874490584E-03  0.22744040629E-01 -0.63414858971E-02  0.23618900230E-01  0.00000000000E+00 0. -1.
     999901    1    3    3    0    0 -0.69554326543E-01 -0.12691127486E+00  0.22765641085E-01  0.89211128815E+00  0.88000000000E+00 0. -1.
        -11    1    4    4    0    0  0.52571587975E-02  0.19063779669E-01  0.82786655193E-03  0.19799290339E-01  0.51100000000E-03 0. -1.
         11    1    4    4    0    0  0.64885912651E-01  0.85103454563E-01 -0.17252021740E-01  0.10840052128E+00  0.51100000000E-03 0.  1.
</event>
<event>
 8    1  0.1123450E+005  0.1043930E+01  0.7957747E-01            NaN
         13   -1    0    0    0    0  0.00000000000E+00  0.00000000000E+00  0.74505805969E-08  0.10566000000E+00  0.10566000000E+00 0.  1.
     999900   -1    0    0    0    0 -0.00000000000E+00 -0.00000000000E+00 -0.74505805969E-08  0.93827000000E+00  0.93827000000E+00 0.  1.
     999902    2    1    2    0    0 -0.48858088356E-02  0.70673689239E-02 -0.21915182271E-01  0.10203907977E+01  0.10201192509E+01 0.  0.
     999903    2    3    3    0    0 -0.66153162768E-01 -0.82081622585E-01 -0.75755708112E-01  0.13213405915E+00  0.24634296504E-01 0.  0.
         14    1    1    2    0    0  0.48858088356E-02 -0.70673689239E-02  0.21915182271E-01  0.23539202312E-01  0.00000000000E+00 0.  1.
     999901    1    3    3    0    0  0.61267353933E-01  0.89148991509E-01  0.53840525840E-01  0.88825673854E+00  0.88000000000E+00 0. -1.
        -11    1    4    4    0    0 -0.41572268817E-01 -0.36883064996E-01 -0.49230990692E-01  0.74246653687E-01  0.51100000000E-03 0.  1.
         11    1    4    4    0    0 -0.24580893952E-01 -0.45198557589E-01 -0.26524717419E-01  0.57887405458E-01  0.51100000000E-03 0. -1.
</event>
<event>
 8    1  0.1132437E+005  0.1043930E+01  0.7957747E-01            NaN
         13   -1    0    0    0    0  0.00000000000E+00  0.00000000000E+00  0.74505805969E-08  0.10566000000E+00  0.10566000000E+00 0.  1.
     999900   -1    0    0    0    0 -0.00000000000E+00 -0.00000000000E+00 -0.74505805969E-08  0.93827000000E+00  0.93827000000E+00 0. -1.
     999902    2    1    2    0    0  0.17565657698E-01  0.13947007989E-01 -0.70737312821E-02  0.10204117297E+01  0.10201406712E+01 0.  0.
     999903    2    3    3    0    0 -0.11156203983E+00  0.21050723258E-01  0.56680612609E-01  0.12867800187E+00  0.21356840565E-01 0.  0.
         14    1    1    2    0    0 -0.17565657698E-01 -0.13947007989E-01  0.70737312821E-02  0.23518270269E-01  0.00000000000E+00 0.  1.
     999901    1    3    3    0    0  0.12912769753E+00 -0.71037152695E-02 -0.63754343891E-01  0.89173372786E+00  0.88000000000E+00 0.  1.
        -11    1    4    4    0    0 -0.88269653883E-01  0.15835560227E-01  0.53926211303E-01  0.10464508661E+00  0.51100000000E-03 0. -1.
         11    1    4    4    0    0 -0.23292385947E-01  0.52151630314E-02  0.27544013059E-02  0.24032915264E-01  0.51100000000E-03 0.  1.
</event>
<event>
 8    1  0.1123450E+005  0.1043930E+01  0.7957747E-01            NaN
         13   -1    0    0    0    0  0.00000000000E+00  0.00000000000E+00  0.74505805969E-08  0.10566000000E+00  0.10566000000E+00 0.  1.
     999900   -1    0    0    0    0 -0.00000000000E+00 -0.00000000000E+00 -0.74505805969E-08  0.93827000000E+00  0.93827000000E+00 0. -1.
     999902    2    1    2    0    0  0.44656388042E-02 -0.10210482452E-01 -0.21350680010E-01  0.10198458264E+01  0.10195614068E+01 0.  0.
     999903    2    3    3    0    0  0.10400378630E+00 -0.66741416713E-01 -0.41904372982E-01  0.13219384299E+00  0.21166751725E-01 0.  0.
         14    1    1    2    0    0 -0.44656388042E-02  0.10210482452E-01  0.21350680010E-01  0.24084173615E-01  0.00000000000E+00 0.  1.
     999901    1    3    3    0    0 -0.99538147498E-01  0.56530934262E-01  0.20553692973E-01  0.88765198340E+00  0.88000000000E+00 0. -1.
        -11    1    4    4    0    0  0.16420268796E-01 -0.29267533235E-02 -0.24397038515E-02  0.16864293292E-01  0.51100000000E-03 0.  1.
         11    1    4    4    0    0  0.87583517506E-01 -0.63814663390E-01 -0.39464669131E-01  0.11532954970E+00  0.51100000000E-03 0. -1.
</event>
<event>
 8    1  0.1123450E+005  0.1043930E+01  0.7957747E-01            NaN
         13   -1    0    0    0    0  0.00000000000E+00  0.00000000000E+00  0.74505805969E-08  0.10566000000E+00  0.10566000000E+00 0.  1.
     999900   -1    0    0    0    0 -0.00000000000E+00 -0.00000000000E+00 -0.74505805969E-08  0.93827000000E+00  0.93827000000E+00 0.  1.
     999902    2    1    2    0    0 -0.48953336923E-03 -0.23073822480E-01 -0.28849722169E-02  0.10206713674E+01  0.10204063290E+01 0.  0.
     999903    2    3    3    0    0 -0.39301554307E-02 -0.11908802922E+00  0.57826813345E-01  0.13336280398E+00  0.15629853423E-01 0.  0.
         14    1    1    2    0    0  0.48953336923E-03  0.23073822480E-01  0.28849722169E-02  0.23258632622E-01  0.00000000000E+00 0.  1.
     999901    1    3    3    0    0  0.34406220615E-02  0.96014206740E-01 -0.60711785562E-01  0.88730856340E+00  0.88000000000E+00 0.  1.
        -11    1    4    4    0    0 -0.79023339028E-02 -0.82457392228E-01  0.45478869831E-01  0.94500037758E-01  0.51100000000E-03 0.  1.
         11    1    4    4    0    0  0.39721784721E-02 -0.36630636992E-01  0.12347943514E-01  0.38862766220E-01  0.51100000000E-03 0. -1.
</event>
<event>
 8    1  0.1123450E+005  0.1043930E+01  0.7957747E-01            NaN
         13   -1    0    0    0    0  0.00000000000E+00  0.00000000000E+00  0.74505805969E-08  0.10566000000E+00  0.10566000000E+00 0. -1.
     999900   -1    0    0    0    0 -0.00000000000E+00 -0.00000000000E+00 -0.74505805969E-08  0.93827000000E+00  0.93827000000E+00 0. -1.
     999902    2    1    2    0    0 -0.67282449373E-02 -0.21528164641E-01 -0.59811961687E-02  0.10205953506E+01  0.10203285568E+01 0.  0.
     999903    2    3    3    0    0 -0.95085100681E-01 -0.10888007188E-01 -0.89071832578E-01  0.13221243728E+00  0.19662455093E-01 0.  0.
         14    1    1    2    0    0  0.67282449373E-02  0.21528164641E-01  0.59811961687E-02  0.23334649352E-01  0.00000000000E+00 0. -1.
     999901    1    3    3    0    0  0.88356855744E-01 -0.10640157453E-01  0.83090636410E-01  0.88838291337E+00  0.88000000000E+00 0. -1.
        -11    1    4    4    0    0 -0.43980173093E-01 -0.69571173355E-02 -0.54528780963E-01  0.70401038211E-01  0.51100000000E-03 0. -1.
         11    1    4    4    0    0 -0.51104927588E-01 -0.39308898526E-02 -0.34543051616E-01  0.61811399068E-01  0.51100000000E-03 0.  1.
</event>
<event>
 8    1  0.1123450E+005  0.1043930E+01  0.7957747E-01            NaN
         13   -1    0    0    0    0  0.00000000000E+00  0.00000000000E+00  0.74505805969E-08  0.10566000000E+00  0.10566000000E+00 0.  1.
     999900   -1    0    0    0    0 -0.00000000000E+00 -0.00000000000E+00 -0.74505805969E-08  0.93827000000E+00  0.93827000000E+00 0. -1.
     999902    2    1    2    0    0  0.18172060064E-01  0.70645668793E-02  0.85679694040E-02  0.10226334751E+01  0.10224116991E+01 0.  0.
     999903    2    3    3    0    0  0.89048899960E-01 -0.52292252929E-01 -0.81644824101E-01  0.13320382270E+00  0.20327193107E-01 0.  0.
         14    1    1    2    0    0 -0.18172060064E-01 -0.70645668793E-02 -0.85679694040E-02  0.21296524878E-01  0.00000000000E+00 0. -1.
     999901    1    3    3    0    0 -0.70876839896E-01  0.59356819808E-01  0.90212793505E-01  0.88942965242E+00  0.88000000000E+00 0.  1.
        -11    1    4    4    0    0  0.58310367936E-01 -0.23371063066E-01 -0.53011803400E-01  0.82199866292E-01  0.51100000000E-03 0. -1.
         11    1    4    4    0    0  0.30738532024E-01 -0.28921189863E-01 -0.28633020700E-01  0.51003956410E-01  0.51100000000E-03 0.  1.
</event>
<event>
 8    1  0.1123450E+005  0.1043930E+01  0.7957747E-01            NaN
         13   -1    0    0    0    0  0.00000000000E+00  0.00000000000E+00  0.74505805969E-08  0.10566000000E+00  0.10566000000E+00 0.  1.
     999900   -1    0    0    0    0 -0.00000000000E+00 -0.00000000000E+00 -0.74505805969E-08  0.93827000000E+00  0.93827000000E+00 0. -1.
     999902    2    1    2    0    0 -0.20428543021E-02 -0.18660728954E-01 -0.17565284284E-01  0.10182213386E+01  0.10178967330E+01 0.  0.
     999903    2    3    3    0    0  0.39755642774E-01 -0.10288381446E+00  0.63632698110E-01  0.12949542201E+00  0.23544715793E-01 0.  0.
         14    1    1    2    0    0  0.20428543021E-02  0.18660728954E-01  0.17565284284E-01  0.25708661396E-01  0.00000000000E+00 0.  1.
     999901    1    3    3    0    0 -0.41798497076E-01  0.84223085504E-01 -0.81197982394E-01  0.88872591660E+00  0.88000000000E+00 0. -1.
        -11    1    4    4    0    0  0.21069417255E-01 -0.72940910169E-01  0.53127175721E-01  0.92666361970E-01  0.51100000000E-03 0.  1.
         11    1    4    4    0    0  0.18686225518E-01 -0.29942904289E-01  0.10505522389E-01  0.36829060035E-01  0.51100000000E-03 0. -1.
</event>
<event>
 8    1  0.1123450E+005  0.1043930E+01  0.7957747E-01            NaN
         13   -1    0    0    0    0  0.00000000000E+00  0.00000000000E+00  0.74505805969E-08  0.10566000000E+00  0.10566000000E+00 0.  1.
     999900   -1    0    0    0    0 -0.00000000000E+00 -0.00000000000E+00 -0.74505805969E-08  0.93827000000E+00  0.93827000000E+00 0.  1.
     999902    2    1    2    0    0 -0.23698927091E-01  0.11751148533E-01 -0.16890692322E-01  0.10125449060E+01  0.10120583790E+01 0.  0.
     999903    2    3    3    0    0  0.33666239601E-01 -0.14950420901E-01  0.11298848332E+00  0.12076447541E+00  0.21464631002E-01 0.  0.
         14    1    1    2    0    0  0.23698927091E-01 -0.11751148533E-01  0.16890692322E-01  0.31385093981E-01  0.00000000000E+00 0.  1.
     999901    1    3    3    0    0 -0.57365166692E-01  0.26701569433E-01 -0.12987917564E+00  0.89178043061E+00  0.88000000000E+00 0.  1.
        -11    1    4    4    0    0  0.11379854148E-01 -0.65251860352E-02  0.73335375172E-01  0.74501124192E-01  0.51100000000E-03 0. -1.
         11    1    4    4    0    0  0.22286385452E-01 -0.84252348656E-02  0.39653108144E-01  0.46263351214E-01  0.51100000000E-03 0.  1.
</event>
<event>
 8    1  0.1123450E+005  0.1043930E+01  0.7957747E-01            NaN
         13   -1    0    0    0    0  0.00000000000E+00  0.00000000000E+00  0.74505805969E-08  0.10566000000E+00  0.10566000000E+00 0.  1.
     999900   -1    0    0    0    0 -0.00000000000E+00 -0.00000000000E+00 -0.74505805969E-08  0.93827000000E+00  0.93827000000E+00 0. -1.
     999902    2    1    2    0    0  0.18779355519E-01  0.13203731944E-01  0.50922861935E-02  0.10204154490E+01  0.10201444772E+01 0.  0.
     999903    2    3    3    0    0  0.30497258188E-01  0.11935487115E+00  0.46158957605E-01  0.13300807629E+00  0.19617109049E-01 0.  0.
         14    1    1    2    0    0 -0.18779355519E-01 -0.13203731944E-01 -0.50922861935E-02  0.23514551019E-01  0.00000000000E+00 0. -1.
     999901    1    3    3    0    0 -0.11717902669E-01 -0.10615113921E+00 -0.41066671411E-01  0.88740737269E+00  0.88000000000E+00 0. -1.
        -11    1    4    4    0    0  0.84034764353E-02  0.23831258032E-01  0.17896548677E-01  0.30969256548E-01  0.51100000000E-03 0.  1.
         11    1    4    4    0    0  0.22093781753E-01  0.95523613120E-01  0.28262408928E-01  0.10203881975E+00  0.51100000000E-03 0. -1.
</event>
<event>
 8    1  0.1123450E+005  0.1043930E+01  0.7957747E-01            NaN
         13   -1    0    0    0    0  0.00000000000E+00  0.00000000000E+00  0.74505805969E-08  0.10566000000E+00  0.10566000000E+00 0. -1.
     999900   -1    0    0    0    0 -0.00000000000E+00 -0.00000000000E+00 -0.74505805969E-08  0.93827000000E+00  0.93827000000E+00 0.  1.
     999902    2    1    2    0    0 -0.20850651621E-02 -0.22046186825E-01  0.10120546011E-01  0.10195823656E+01  0.10192916133E+01 0.  0.
     999903    2    3    3    0    0  0.12093180131E+00 -0.11173268485E-01 -0.39825502742E-01  0.12955653586E+00  0.21201009801E-01 0.  0.
         14    1    1    2    0    0  0.20850651621E-02  0.22046186825E-01 -0.10120546011E-01  0.24347634420E-01  0.00000000000E+00 0.  1.
     999901    1    3    3    0    0 -0.12301686648E+00 -0.10872918340E-01  0.49946048753E-01  0.89002582972E+00  0.88000000000E+00 0. -1.
        -11    1    4    4    0    0  0.17076062870E-01 -0.18417826811E-02 -0.13914435983E-01  0.22110104847E-01  0.51100000000E-03 0. -1.
         11    1    4    4    0    0  0.10385573844E+00 -0.93314858043E-02 -0.25911066758E-01  0.10744643101E+00  0.51100000000E-03 0.  1.
</event>
<event>
 8    1  0.1123450E+005  0.1043930E+01  0.7957747E-01            NaN
         13   -1    0    0    0    0  0.00000000000E+00  0.00000000000E+00  0.74505805969E-08  0.10566000000E+00  0.10566000000E+00 0.  1.
     999900   -1    0    0    0    0 -0.00000000000E+00 -0.00000000000E+00 -0.74505805969E-08  0.93827000000E+00  0.93827000000E+00 0.  1.
     999902    2    1    2    0    0 -0.10048038033E-01 -0.19679166812E-01  0.85427668814E-02  0.10202400962E+01  0.10199650202E+01 0.  0.
     999903    2    3    3    0    0  0.73806035677E-01 -0.95844339657E-01  0.52124939625E-01  0.13190905151E+00  0.70370584982E-02 0.  0.
         14    1    1    2    0    0  0.10048038033E-01  0.19679166812E-01 -0.85427668814E-02  0.23689903772E-01  0.00000000000E+00 0. -1.
     999901    1    3    3    0    0 -0.83854073711E-01  0.76165172845E-01 -0.43582172743E-01  0.88833104472E+00  0.88000000000E+00 0.  1.
        -11    1    4    4    0    0  0.87150168804E-02 -0.89447019762E-02  0.37902819192E-02  0.13060879400E-01  0.51100000000E-03 0.  1.
         11    1    4    4    0    0  0.65091018797E-01 -0.86899637681E-01  0.48334657705E-01  0.11884817211E+00  0.51100000000E-03 0. -1.
</event>
<event>
 8    1  0.1123450E+005  0.1043930E+01  0.7957747E-01            NaN
         13   -1    0    0    0    0  0.00000000000E+00  0.00000000000E+00  0.74505805969E-08  0.10566000000E+00  0.10566000000E+00 0. -1.
     999900   -1    0    0    0    0 -0.00000000000E+00 -0.00000000000E+00 -0.74505805969E-08  0.93827000000E+00  0.93827000000E+00 0.  1.
     999902    2    1    2    0    0 -0.20163555401E-02 -0.92078112207E-02  0.23496465058E-01  0.10186133385E+01  0.10182986792E+01 0.  0.
     999903    2    3    3    0    0 -0.11576707447E+00 -0.45873390809E-01 -0.28294622040E-01  0.12902584566E+00  0.18458052357E-01 0.  0.
         14    1    1    2    0    0  0.20163555401E-02  0.92078112207E-02 -0.23496465058E-01  0.25316661458E-01  0.00000000000E+00 0.  1.
     999901    1    3    3    0    0  0.11375071893E+00  0.36665579588E-01  0.51791087098E-01  0.88958749288E+00  0.88000000000E+00 0. -1.
        -11    1    4    4    0    0 -0.22817916019E-01 -0.72403132416E-02 -0.12892725045E-01  0.27194905908E-01  0.51100000000E-03 0.  1.
         11    1    4    4    0    0 -0.92949158452E-01 -0.38633077567E-01 -0.15401896995E-01  0.10183093975E+00  0.51100000000E-03 0. -1.
</event>
<event>
 8    1  0.1123450E+005  0.1043930E+01  0.7957747E-01            NaN
         13   -1    0    0    0    0  0.00000000000E+00  0.00000000000E+00  0.74505805969E-08  0.10566000000E+00  0.10566000000E+00 0.  1.
     999900   -1    0    0    0    0 -0.00000000000E+00 -0.00000000000E+00 -0.74505805969E-08  0.93827000000E+00  0.93827000000E+00 0. -1.
     999902    2    1    2    0    0  0.11786538948E-02 -0.18532337101E-01 -0.15911495658E-01  0.10194757072E+01  0.10191823709E+01 0.  0.
     999903    2    3    3    0    0 -0.75691131232E-02 -0.51130142781E-01  0.11630951434E+00  0.12895814090E+00  0.20753698574E-01 0.  0.
         14    1    1    2    0    0 -0.11786538948E-02  0.18532337101E-01  0.15911495658E-01  0.24454292823E-01  0.00000000000E+00 0.  1.
     999901    1    3    3    0    0  0.87477670180E-02  0.32597805680E-01 -0.13222101000E+00  0.89051756628E+00  0.88000000000E+00 0. -1.
        -11    1    4    4    0    0 -0.75786861424E-03 -0.46591462470E-01  0.89253618404E-01  0.10068668362E+00  0.51100000000E-03 0.  1.
         11    1    4    4    0    0 -0.68112445089E-02 -0.45386803111E-02  0.27055895934E-01  0.28271457276E-01  0.51100000000E-03 0. -1.
</event>
<event>
 8    1  0.1123450E+005  0.1043930E+01  0.7957747E-01            NaN
         13   -1    0    0    0    0  0.00000000000E+00  0.00000000000E+00  0.74505805969E-08  0.10566000000E+00  0.10566000000E+00 0. -1.
     999900   -1    0    0    0    0 -0.00000000000E+00 -0.00000000000E+00 -0.74505805969E-08  0.93827000000E+00  0.93827000000E+00 0.  1.
     999902    2    1    2    0    0  0.15139289792E-01 -0.15416856217E-01  0.11418852145E-01  0.10194909383E+01  0.10191979717E+01 0.  0.
     999903    2    3    3    0    0  0.99488320930E-01  0.72220316964E-02  0.84303819802E-01  0.13216940878E+00  0.20286321489E-01 0.  0.
         14    1    1    2    0    0 -0.15139289792E-01  0.15416856217E-01 -0.11418852145E-01  0.24439061670E-01  0.00000000000E+00 0.  1.
     999901    1    3    3    0    0 -0.84349031138E-01 -0.22638887913E-01 -0.72884967657E-01  0.88732152955E+00  0.88000000000E+00 0.  1.
        -11    1    4    4    0    0  0.80137170898E-01  0.12880400859E-01  0.62291873453E-01  0.10231524571E+00  0.51100000000E-03 0. -1.
         11    1    4    4    0    0  0.19351150032E-01 -0.56583691629E-02  0.22011946349E-01  0.29854163063E-01  0.51100000000E-03 0.  1.
</event>
<event>
 8    1  0.1123450E+005  0.1043930E+01  0.7957747E-01            NaN
         13   -1    0    0    0    0  0.00000000000E+00  0.00000000000E+00  0.74505805969E-08  0.10566000000E+00  0.10566000000E+00 0. -1.
     999900   -1    0    0    0    0 -0.00000000000E+00 -0.00000000000E+00 -0.74505805969E-08  0.93827000000E+00  0.93827000000E+00 0.  1.
     999902    2    1    2    0    0 -0.23618784106E-01  0.48827934373E-02  0.11274715940E-03  0.10198115144E+01  0.10195262741E+01 0.  0.
     999903    2    3    3    0    0  0.10865578380E+00  0.33604291631E-01 -0.54725826129E-01  0.12777521758E+00  0.19906341027E-01 0.  0.
         14    1    1    2    0    0  0.23618784106E-01 -0.48827934373E-02 -0.11274715940E-03  0.24118485572E-01  0.00000000000E+00 0. -1.
     999901    1    3    3    0    0 -0.13227456791E+00 -0.28721498193E-01  0.54838573289E-01  0.89203629685E+00  0.88000000000E+00 0.  1.
        -11    1    4    4    0    0  0.37760668016E-01  0.16344940779E-01 -0.29258349312E-01  0.50490962197E-01  0.51100000000E-03 0.  1.
         11    1    4    4    0    0  0.70895115783E-01  0.17259350852E-01 -0.25467476817E-01  0.77284255383E-01  0.51100000000E-03 0. -1.
</event>
<event>
 8    1  0.1123450E+005  0.1043930E+01  0.7957747E-01            NaN
         13   -1    0    0    0    0  0.00000000000E+00  0.00000000000E+00  0.74505805969E-08  0.10566000000E+00  0.10566000000E+00 0. -1.
     999900   -1    0    0    0    0 -0.00000000000E+00 -0.00000000000E+00 -0.74505805969E-08  0.93827000000E+00  0.93827000000E+00 0.  1.
     999902    2    1    2    0    0 -0.21809637540E-01  0.68531410090E-02 -0.43911274383E-02  0.10206510861E+01  0.10203855799E+01 0.  0.
     999903    2    3    3    0    0  0.21657776374E-01 -0.11854351847E+00 -0.40625741057E-01  0.12996220357E+00  0.26797359404E-01 0.  0.
         14    1    1    2    0    0  0.21809637540E-01 -0.68531410090E-02  0.43911274383E-02  0.23278913881E-01  0.00000000000E+00 0.  1.
     999901    1    3    3    0    0 -0.43467413915E-01  0.12539665948E+00  0.36234613618E-01  0.89068888255E+00  0.88000000000E+00 0. -1.
        -11    1    4    4    0    0  0.19442642201E-01 -0.37199319078E-01 -0.11402617178E-01  0.43498120363E-01  0.51100000000E-03 0.  1.
         11    1    4    4    0    0  0.22151341731E-02 -0.81344199390E-01 -0.29223123879E-01  0.86464083202E-01  0.51100000000E-03 0. -1.
</event>
<event>
 8    1  0.1123450E+005  0.1043930E+01  0.7957747E-01            NaN
         13   -1    0    0    0    0  0.00000000000E+00  0.00000000000E+00  0.74505805969E-08  0.10566000000E+00  0.10566000000E+00 0. -1.
     999900   -1    0    0    0    0 -0.00000000000E+00 -0.00000000000E+00 -0.74505805969E-08  0.93827000000E+00  0.93827000000E+00 0.  1.
     999902    2    1    2    0    0 -0.18420287572E-01 -0.88513944043E-02 -0.11378281004E-01  0.10205394152E+01  0.10202713260E+01 0.  0.
     999903    2    3    3    0    0  0.34959318863E-01 -0.43918493570E-01  0.11481739387E+00  0.12924573065E+00  0.19246737475E-01 0.  0.
         14    1    1    2    0    0  0.18420287572E-01  0.88513944043E-02  0.11378281004E-01  0.23390584767E-01  0.00000000000E+00 0. -1.
     999901    1    3    3    0    0 -0.53379606435E-01  0.35067099166E-01 -0.12619567487E+00  0.89129368459E+00  0.88000000000E+00 0.  1.
        -11    1    4    4    0    0  0.68319404273E-02 -0.15696164640E-01  0.52994901579E-01  0.55693497904E-01  0.51100000000E-03 0.  1.
         11    1    4    4    0    0  0.28127378436E-01 -0.28222328930E-01  0.61822492288E-01  0.73552232743E-01  0.51100000000E-03 0. -1.
</event>
<event>
 8    1  0.1123450E+005  0.1043930E+01  0.7957747E-01            NaN
         13   -1    0    0    0    0  0.00000000000E+00  0.00000000000E+00  0.74505805969E-08  0.10566000000E+00  0.10566000000E+00 0. -1.
     999900   -1    0    0    0    0 -0.00000000000E+00 -0.00000000000E+00 -0.74505805969E-08  0.93827000000E+00  0.93827000000E+00 0.  1.
     999902    2    1    2    0    0 -0.64174100731E-02  0.34828071370E-02 -0.22737084173E-01  0.10200492945E+01  0.10197697167E+01 0.  0.
     999903    2    3    3    0    0 -0.42640716689E-01  0.98693136138E-01 -0.75227335075E-01  0.13261909381E+00  0.19238145961E-01 0.  0.
         14    1    1    2    0    0  0.64174100731E-02 -0.34828071370E-02  0.22737084173E-01  0.23880705482E-01  0.00000000000E+00 0. -1.
     999901    1    3    3    0    0  0.36223306615E-01 -0.95210329001E-01  0.52490250901E-01  0.88743020071E+00  0.88000000000E+00 0.  1.
        -11    1    4    4    0    0 -0.26172094141E-01  0.36743459732E-01 -0.30861981478E-01  0.54660619888E-01  0.51100000000E-03 0. -1.
         11    1    4    4    0    0 -0.16468622547E-01  0.61949676406E-01 -0.44365353597E-01  0.77958473922E-01  0.51100000000E-03 0.  1.
</event>
<event>
 8    1  0.1123450E+005  0.1043930E+01  0.7957747E-01            NaN
         13   -1    0    0    0    0  0.00000000000E+00  0.00000000000E+00  0.74505805969E-08  0.10566000000E+00  0.10566000000E+00 0. -1.
     999900   -1    0    0    0    0 -0.00000000000E+00 -0.00000000000E+00 -0.74505805969E-08  0.93827000000E+00  0.93827000000E+00 0. -1.
     999902    2    1    2    0    0  0.20709367261E-01 -0.11950701165E-02 -0.12109184436E-01  0.10199104573E+01  0.10196275803E+01 0.  0.
     999903    2    3    3    0    0 -0.49344727519E-01  0.58108099272E-01 -0.10386411533E+00  0.13039181810E+00  0.20070337301E-01 0.  0.
         14    1    1    2    0    0 -0.20709367261E-01  0.11950701165E-02  0.12109184436E-01  0.24019542723E-01  0.00000000000E+00 0. -1.
     999901    1    3    3    0    0  0.70054094780E-01 -0.59303169389E-01  0.91754930896E-01  0.88951863917E+00  0.88000000000E+00 0.  1.
        -11    1    4    4    0    0 -0.16701109236E-01  0.27488278269E-01 -0.57891729589E-01  0.66228739741E-01  0.51100000000E-03 0.  1.
         11    1    4    4    0    0 -0.32643618283E-01  0.30619821003E-01 -0.45972385743E-01  0.64163078361E-01  0.51100000000E-03 0. -1.
</event>
<event>
 8    1  0.1123450E+005  0.1043930E+01  0.7957747E-01            NaN
         13   -1    0    0    0    0  0.00000000000E+00  0.00000000000E+00  0.74505805969E-08  0.10566000000E+00  0.10566000000E+00 0.  1.
     999900   -1    0    0    0    0 -0.00000000000E+00 -0.00000000000E+00 -0.74505805969E-08  0.93827000000E+00  0.93827000000E+00 0. -1.
     999902    2    1    2    0    0  0.72150394264E-02  0.17973250504E-01 -0.13607118848E-01  0.10202604370E+01  0.10199858387E+01 0.  0.
     999903    2    3    3    0    0  0.69536986235E-01 -0.10621201923E+00 -0.11440084268E-01  0.12935600764E+00  0.22038958739E-01 0.  0.
         14    1    1    2    0    0 -0.72150394264E-02 -0.17973250504E-01  0.13607118848E-01  0.23669562965E-01  0.00000000000E+00 0.  1.
     999901    1    3    3    0    0 -0.62321946809E-01  0.12418526973E+00 -0.21670345801E-02  0.89090442939E+00  0.88000000000E+00 0. -1.
        -11    1    4    4    0    0  0.48927300424E-01 -0.54854465774E-01 -0.68884958595E-02  0.73828217088E-01  0.51100000000E-03 0. -1.
         11    1    4    4    0    0  0.20609685811E-01 -0.51357553452E-01 -0.45515884086E-02  0.55527790555E-01  0.51100000000E-03 0.  1.
</event>
<event>
 8    1  0.1123450E+005  0.1043930E+01  0.7957747E-01            NaN
         13   -1    0    0    0    0  0.00000000000E+00  0.00000000000E+00  0.74505805969E-08  0.10566000000E+00  0.10566000000E+00 0. -1.
     999900   -1    0    0    0    0 -0.00000000000E+00 -0.00000000000E+00 -0.74505805969E-08  0.93827000000E+00  0.93827000000E+00 0.  1.
     999902    2    1    2    0    0  0.13131614174E-01  0.16739698441E-01 -0.88454435759E-02  0.10208887616E+01  0.10206287106E+01 0.  0.
     999903    2    3    3    0    0  0.53471259699E-01  0.65995882503E-01 -0.10153909384E+00  0.13373287256E+00  0.18964743684E-01 0.  0.
         14    1    1    2    0    0 -0.13131614174E-01 -0.16739698441E-01  0.88454435759E-02  0.23041238394E-01  0.00000000000E+00 0.  1.
     999901    1    3    3    0    0 -0.40339645525E-01 -0.49256184063E-01  0.92693650269E-01  0.88715588905E+00  0.88000000000E+00 0. -1.
        -11    1    4    4    0    0  0.18885847209E-01  0.14794501817E-01 -0.18888460052E-01  0.30538296498E-01  0.51100000000E-03 0. -1.
         11    1    4    4    0    0  0.34585412489E-01  0.51201380686E-01 -0.82650633793E-01  0.10319457606E+00  0.51100000000E-03 0.  1.
</event>
<event>
 8    1  0.1123450E+005  0.1043930E+01  0.7957747E-01            NaN
         13   -1    0    0    0    0  0.00000000000E+00  0.00000000000E+00  0.74505805969E-08  0.10566000000E+00  0.10566000000E+00 0.  1.
     999900   -1    0    0    0    0 -0.00000000000E+00 -0.00000000000E+00 -0.74505805969E-08  0.93827000000E+00  0.93827000000E+00 0.  1.
     999902    2    1    2    0    0 -0.14543734227E-01 -0.10158472357E-01 -0.11986810777E-01  0.10225197595E+01  0.10222955836E+01 0.  0.
     999903    2    3    3    0    0  0.26959226464E-01 -0.12903073795E+00 -0.38561894368E-02  0.13352076159E+00  0.20909145144E-01 0.  0.
         14    1    1    2    0    0  0.14543734227E-01  0.10158472357E-01  0.11986810777E-01  0.21410240505E-01  0.00000000000E+00 0. -1.
     999901    1    3    3    0    0 -0.41502960691E-01  0.11887226559E+00 -0.81306213404E-02  0.88899899791E+00  0.88000000000E+00 0. -1.
        -11    1    4    4    0    0  0.23281822747E-02 -0.12840263218E-01  0.59335298453E-02  0.14344360900E-01  0.51100000000E-03 0. -1.
         11    1    4    4    0    0  0.24631044190E-01 -0.11619047473E+00 -0.97897192821E-02  0.11917640069E+00  0.51100000000E-03 0.  1.
</event>
<event>
 8    1  0.1123450E+005  0.1043930E+01  0.7957747E-01            NaN
         13   -1    0    0    0    0  0.00000000000E+00  0.00000000000E+00  0.74505805969E-08  0.10566000000E+00  0.10566000000E+00 0. -1.
     999900   -1    0    0    0    0 -0.00000000000E+00 -0.00000000000E+00 -0.74505805969E-08  0.93827000000E+00  0.93827000000E+00 0. -1.
     999902    2    1    2    0    0 -0.16097697599E-01 -0.14292133300E-01 -0.10865161713E-01  0.10198166700E+01  0.10195315531E+01 0.  0.
     999903    2    3    3    0    0  0.75281235267E-02 -0.12037926012E-01  0.12653762371E+00  0.12883811457E+00  0.19644471171E-01 0.  0.
         14    1    1    2    0    0  0.16097697599E-01  0.14292133300E-01  0.10865161713E-01  0.24113329951E-01  0.00000000000E+00 0. -1.
     999901    1    3    3    0    0 -0.23625821126E-01 -0.22542072888E-02 -0.13740278542E+00  0.89097855547E+00  0.88000000000E+00 0. -1.
        -11    1    4    4    0    0  0.74541531244E-02 -0.51994155310E-02  0.11539975462E+00  0.11575820838E+00  0.51100000000E-03 0.  1.
         11    1    4    4    0    0  0.73970402308E-04 -0.68385104806E-02  0.11137869085E-01  0.13079906191E-01  0.51100000000E-03 0. -1.
</event>
<event>
 8    1  0.1123450E+005  0.1043930E+01  0.7957747E-01            NaN
         13   -1    0    0    0    0  0.00000000000E+00  0.00000000000E+00  0.74505805969E-08  0.10566000000E+00  0.10566000000E+00 0.  1.
     999900   -1    0    0    0    0 -0.00000000000E+00 -0.00000000000E+00 -0.74505805969E-08  0.93827000000E+00  0.93827000000E+00 0. -1.
     999902    2    1    2    0    0  0.19021305990E-01 -0.14050187584E-01 -0.33101819840E-02  0.10200516592E+01  0.10197721375E+01 0.  0.
     999903    2    3    3    0    0 -0.91706342857E-01 -0.89787683461E-01  0.16661036810E-02  0.12987103492E+00  0.19794655524E-01 0.  0.
         14    1    1    2    0    0 -0.19021305990E-01  0.14050187584E-01  0.33101819840E-02  0.23878340761E-01  0.00000000000E+00 0.  1.
     999901    1    3    3    0    0  0.11072764885E+00  0.75737495877E-01 -0.49762856649E-02  0.89018062432E+00  0.88000000000E+00 0.  1.
        -11    1    4    4    0    0 -0.79905645235E-01 -0.79541543546E-01  0.79308109967E-02  0.11302622782E+00  0.51100000000E-03 0.  1.
         11    1    4    4    0    0 -0.11800697623E-01 -0.10246139914E-01 -0.62647073158E-02  0.16844807101E-01  0.51100000000E-03 0. -1.
</event>
<event>
 8    1  0.1123450E+005  0.1043930E+01  0.7957747E-01            NaN
         13   -1    0    0    0    0  0.00000000000E+00  0.00000000000E+00  0.74505805969E-08  0.10566000000E+00  0.10566000000E+00 0. -1.
     999900   -1    0    0    0    0 -0.00000000000E+00 -0.00000000000E+00 -0.74505805969E-08  0.93827000000E+00  0.93827000000E+00 0.  1.
     999902    2    1    2    0    0 -0.47620701338E-02 -0.23625244956E-01 -0.33216226238E-02  0.10196017718E+01  0.10193114884E+01 0.  0.
     999903    2    3    3    0    0 -0.12313306380E+00  0.94408798423E-02 -0.36493696365E-01  0.13044180461E+00  0.20794059346E-01 0.  0.
         14    1    1    2    0    0  0.47620701338E-02  0.23625244956E-01  0.33216226238E-02  0.24328228214E-01  0.00000000000E+00 0. -1.
     999901    1    3    3    0    0  0.11837099366E+00 -0.33066124798E-01  0.33172073741E-01  0.88915996717E+00  0.88000000000E+00 0.  1.
        -11    1    4    4    0    0 -0.72235290472E-01  0.15107784131E-01 -0.25315715265E-01  0.78021336129E-01  0.51100000000E-03 0.  1.
         11    1    4    4    0    0 -0.50897773323E-01 -0.56669042883E-02 -0.11177981100E-01  0.52420468483E-01  0.51100000000E-03 0. -1.
</event>
<event>
 8    1  0.1123450E+005  0.1043930E+01  0.7957747E-01            NaN
         13   -1    0    0    0    0  0.00000000000E+00  0.00000000000E+00  0.74505805969E-08  0.10566000000E+00  0.10566000000E+00 0. -1.
     999900   -1    0    0    0    0 -0.00000000000E+00 -0.00000000000E+00 -0.74505805969E-08  0.93827000000E+00  0.93827000000E+00 0.  1.
     999902    2    1    2    0    0  0.56657699949E-02 -0.69241213284E-02 -0.21928547613E-01  0.10202465542E+01  0.10199716298E+01 0.  0.
     999903    2    3    3    0    0 -0.65543044710E-01  0.93583543225E-01  0.55041924098E-01  0.12834020290E+00  0.19693247571E-01 0.  0.
         14    1    1    2    0    0 -0.56657699949E-02  0.69241213284E-02  0.21928547613E-01  0.23683445827E-01  0.00000000000E+00 0. -1.
     999901    1    3    3    0    0  0.71208814705E-01 -0.10050766455E+00 -0.76970471711E-01  0.89190635127E+00  0.88000000000E+00 0.  1.
        -11    1    4    4    0    0 -0.34034513233E-01  0.36949648391E-01  0.16220874600E-01  0.52792068543E-01  0.51100000000E-03 0. -1.
         11    1    4    4    0    0 -0.31508531477E-01  0.56633894834E-01  0.38821049498E-01  0.75548134358E-01  0.51100000000E-03 0.  1.
</event>
<event>
 8    1  0.1123450E+005  0.1043930E+01  0.7957747E-01            NaN
         13   -1    0    0    0    0  0.00000000000E+00  0.00000000000E+00  0.74505805969E-08  0.10566000000E+00  0.10566000000E+00 0. -1.
     999900   -1    0    0    0    0 -0.00000000000E+00 -0.00000000000E+00 -0.74505805969E-08  0.93827000000E+00  0.93827000000E+00 0.  1.
     999902    2    1    2    0    0 -0.45889527621E-02 -0.20645062275E-01  0.78226974665E-03  0.10227666111E+01  0.10225476281E+01 0.  0.
     999903    2    3    3    0    0 -0.46470492217E-01  0.92876042951E-01 -0.77386518663E-01  0.13105395325E+00  0.20024969207E-01 0.  0.
         14    1    1    2    0    0  0.45889527621E-02  0.20645062275E-01 -0.78226974665E-03  0.21163388901E-01  0.00000000000E+00 0. -1.
     999901    1    3    3    0    0  0.41881539455E-01 -0.11352110523E+00  0.78168788410E-01  0.89171265784E+00  0.88000000000E+00 0.  1.
        -11    1    4    4    0    0 -0.25758070661E-01  0.57963078412E-01 -0.58459079814E-01  0.86260777859E-01  0.51100000000E-03 0.  1.
         11    1    4    4    0    0 -0.20712421556E-01  0.34912964539E-01 -0.18927438849E-01  0.44793175396E-01  0.51100000000E-03 0. -1.
</event>
<event>
 8    1  0.1123450E+005  0.1043930E+01  0.7957747E-01            NaN
         13   -1    0    0    0    0  0.00000000000E+00  0.00000000000E+00  0.74505805969E-08  0.10566000000E+00  0.10566000000E+00 0.  1.
     999900   -1    0    0    0    0 -0.00000000000E+00 -0.00000000000E+00 -0.74505805969E-08  0.93827000000E+00  0.93827000000E+00 0. -1.
     999902    2    1    2    0    0  0.99791886173E-02 -0.20606983267E-01  0.49560153417E-02  0.10205036462E+01  0.10202347268E+01 0.  0.
     999903    2    3    3    0    0 -0.47594392667E-01 -0.11989180197E+00 -0.23462828749E-01  0.13259609290E+00  0.19797705113E-01 0.  0.
         14    1    1    2    0    0 -0.99791886173E-02  0.20606983267E-01 -0.49560153417E-02  0.23426353811E-01  0.00000000000E+00 0.  1.
     999901    1    3    3    0    0  0.57573581284E-01  0.99284818700E-01  0.28418844091E-01  0.88790755329E+00  0.88000000000E+00 0.  1.
        -11    1    4    4    0    0 -0.33970571837E-01 -0.72768929665E-01 -0.60305497807E-02  0.80535368176E-01  0.51100000000E-03 0. -1.
         11    1    4    4    0    0 -0.13623820829E-01 -0.47122872301E-01 -0.17432278968E-01  0.52060724725E-01  0.51100000000E-03 0.  1.
</event>
<event>
 8    1  0.1123450E+005  0.1043930E+01  0.7957747E-01            NaN
         13   -1    0    0    0    0  0.00000000000E+00  0.00000000000E+00  0.74505805969E-08  0.10566000000E+00  0.10566000000E+00 0.  1.
     999900   -1    0    0    0    0 -0.00000000000E+00 -0.00000000000E+00 -0.74505805969E-08  0.93827000000E+00  0.93827000000E+00 0.  1.
     999902    2    1    2    0    0 -0.58802352348E-02 -0.17342804087E-01  0.14836893877E-01  0.10203613038E+01  0.10200890681E+01 0.  0.
     999903    2    3    3    0    0  0.21586450903E-01  0.10188258445E+00  0.72839840707E-01  0.13000550192E+00  0.27381604407E-01 0.  0.
         14    1    1    2    0    0  0.58802352348E-02  0.17342804087E-01 -0.14836893877E-01  0.23568696187E-01  0.00000000000E+00 0.  1.
     999901    1    3    3    0    0 -0.27466686138E-01 -0.11922538853E+00 -0.58002946830E-01  0.89035580189E+00  0.88000000000E+00 0. -1.
        -11    1    4    4    0    0  0.32389019780E-02  0.72742958817E-01  0.43936165218E-01  0.85045142592E-01  0.51100000000E-03 0.  1.
         11    1    4    4    0    0  0.18347548925E-01  0.29139625630E-01  0.28903675489E-01  0.44960359331E-01  0.51100000000E-03 0. -1.
</event>
<event>
 8    1  0.1123450E+005  0.1043930E+01  0.7957747E-01            NaN
         13   -1    0    0    0    0  0.00000000000E+00  0.00000000000E+00  0.74505805969E-08  0.10566000000E+00  0.10566000000E+00 0. -1.
     999900   -1    0    0    0    0 -0.00000000000E+00 -0.00000000000E+00 -0.74505805969E-08  0.93827000000E+00  0.93827000000E+00 0. -1.
     999902    2    1    2    0    0  0.14301949039E-01  0.15114031080E-02  0.20524036699E-01  0.10188687517E+01  0.10185604876E+01 0.  0.
     999903    2    3    3    0    0  0.34727414466E-01 -0.16625896625E-01 -0.12036144584E+00  0.12724389755E+00  0.14890200363E-01 0.  0.
         14    1    1    2    0    0 -0.14301949039E-01 -0.15114031080E-02 -0.20524036699E-01  0.25061248335E-01  0.00000000000E+00 0.  1.
     999901    1    3    3    0    0 -0.20425465428E-01  0.18137299733E-01  0.14088548254E+00  0.89162485411E+00  0.88000000000E+00 0.  1.
        -11    1    4    4    0    0  0.21513412827E-01 -0.29448664221E-02 -0.53879793580E-01  0.58092963833E-01  0.51100000000E-03 0.  1.
         11    1    4    4    0    0  0.13214001639E-01 -0.13681030203E-01 -0.66481652257E-01  0.69150933721E-01  0.51100000000E-03 0. -1.
</event>
<event>
 8    1  0.1123450E+005  0.1043930E+01  0.7957747E-01            NaN
         13   -1    0    0    0    0  0.00000000000E+00  0.00000000000E+00  0.74505805969E-08  0.10566000000E+00  0.10566000000E+00 0.  1.
     999900   -1    0    0    0    0 -0.00000000000E+00 -0.00000000000E+00 -0.74505805969E-08  0.93827000000E+00  0.93827000000E+00 0.  1.
     999902    2    1    2    0    0 -0.72732149286E-02  0.13787563072E-01  0.18245898200E-01  0.10199318886E+01  0.10196495221E+01 0.  0.
     999903    2    3    3    0    0 -0.35515151572E-01  0.25512902118E-01 -0.11942330600E+00  0.12870357869E+00  0.19759832631E-01 0.  0.
         14    1    1    2    0    0  0.72732149286E-02 -0.13787563072E-01 -0.18245898200E-01  0.23998111425E-01  0.00000000000E+00 0. -1.
     999901    1    3    3    0    0  0.28241936643E-01 -0.11725339047E-01  0.13766920420E+00  0.89122830989E+00  0.88000000000E+00 0. -1.
        -11    1    4    4    0    0 -0.25047888337E-01  0.27256757910E-01 -0.98721387345E-01  0.10543481874E+00  0.51100000000E-03 0.  1.
         11    1    4    4    0    0 -0.10467263235E-01 -0.17438557921E-02 -0.20701918653E-01  0.23268759949E-01  0.51100000000E-03 0. -1.
</event>
<event>
 8    1  0.1123450E+005  0.1043930E+01  0.7957747E-01            NaN
         13   -1    0    0    0    0  0.00000000000E+00  0.00000000000E+00  0.74505805969E-08  0.10566000000E+00  0.10566000000E+00 0.  1.
     999900   -1    0    0    0    0 -0.00000000000E+00 -0.00000000000E+00 -0.74505805969E-08  0.93827000000E+00  0.93827000000E+00 0. -1.
     999902    2    1    2    0    0  0.19820264811E-01  0.87175829372E-02 -0.86468089923E-02  0.10206146305E+01  0.10203482825E+01 0.  0.
     999903    2    3    3    0    0  0.46860981815E-01  0.10030065986E+00  0.69699121644E-01  0.13198830565E+00  0.17514887570E-01 0.  0.
         14    1    1    2    0    0 -0.19820264811E-01 -0.87175829372E-02  0.86468089923E-02  0.23315369506E-01  0.00000000000E+00 0. -1.
     999901    1    3    3    0    0 -0.27040717004E-01 -0.91583076920E-01 -0.78345930637E-01  0.88862632484E+00  0.88000000000E+00 0. -1.
        -11    1    4    4    0    0  0.19397590827E-01  0.23514814125E-01  0.17291410761E-01  0.35049493867E-01  0.51100000000E-03 0. -1.
         11    1    4    4    0    0  0.27463390988E-01  0.76785845732E-01  0.52407710883E-01  0.96938811785E-01  0.51100000000E-03 0.  1.
</event>
<event>
 8    1  0.1123450E+005  0.1043930E+01  0.7957747E-01            NaN
         13   -1    0    0    0    0  0.00000000000E+00  0.00000000000E+00  0.74505805969E-08  0.10566000000E+00  0.10566000000E+00 0. -1.
     999900   -1    0    0    0    0 -0.00000000000E+00 -0.00000000000E+00 -0.74505805969E-08  0.93827000000E+00  0.93827000000E+00 0. -1.
     999902    2    1    2    0    0  0.17910380307E-01 -0.14068426010E-01 -0.76277151303E-02  0.10199115827E+01  0.10196287325E+01 0.  0.
     999903    2    3    3    0    0 -0.54812269401E-01 -0.11640711047E+00 -0.22799938731E-02  0.13098504563E+00  0.24431200601E-01 0.  0.
         14    1    1    2    0    0 -0.17910380307E-01  0.14068426010E-01  0.76277151303E-02  0.24018417334E-01  0.00000000000E+00 0. -1.
     999901    1    3    3    0    0  0.72722649707E-01  0.10233868446E+00 -0.53477212572E-02  0.88892653703E+00  0.88000000000E+00 0. -1.
        -11    1    4    4    0    0 -0.46607606947E-01 -0.73382195833E-01  0.21345367606E-02  0.86959950890E-01  0.51100000000E-03 0. -1.
         11    1    4    4    0    0 -0.82046624537E-02 -0.43024914637E-01 -0.44145306337E-02  0.44025094744E-01  0.51100000000E-03 0.  1.
</event>
<event>
 8    1  0.1123450E+005  0.1043930E+01  0.7957747E-01            NaN
         13   -1    0    0    0    0  0.00000000000E+00  0.00000000000E+00  0.74505805969E-08  0.10566000000E+00  0.10566000000E+00 0. -1.
     999900   -1    0    0    0    0 -0.00000000000E+00 -0.00000000000E+00 -0.74505805969E-08  0.93827000000E+00  0.93827000000E+00 0.  1.
     999902    2    1    2    0    0  0.16428766889E-01 -0.60546971553E-02  0.13686491871E-01  0.10217065035E+01  0.10214647793E+01 0.  0.
     999903    2    3    3    0    0  0.52712501501E-01 -0.77166118627E-01 -0.90870379439E-01  0.13192816982E+00  0.20356779070E-01 0.  0.
         14    1    1    2    0    0 -0.16428766889E-01  0.60546971553E-02 -0.13686491871E-01  0.22223496549E-01  0.00000000000E+00 0.  1.
     999901    1    3    3    0    0 -0.36283734612E-01  0.71111421472E-01  0.10455687131E+00  0.88977833363E+00  0.88000000000E+00 0. -1.
        -11    1    4    4    0    0  0.29138621683E-01 -0.26088746502E-01 -0.42199632521E-01  0.57539135147E-01  0.51100000000E-03 0. -1.
         11    1    4    4    0    0  0.23573879818E-01 -0.51077372125E-01 -0.48670746918E-01  0.74389034673E-01  0.51100000000E-03 0.  1.
</event>
<event>
 8    1  0.1123450E+005  0.1043930E+01  0.7957747E-01            NaN
         13   -1    0    0    0    0  0.00000000000E+00  0.00000000000E+00  0.74505805969E-08  0.10566000000E+00  0.10566000000E+00 0.  1.
     999900   -1    0    0    0    0 -0.00000000000E+00 -0.00000000000E+00 -0.74505805969E-08  0.93827000000E+00  0.93827000000E+00 0.  1.
     999902    2    1    2    0    0  0.20780976279E-01 -0.91813629717E-02  0.23670318614E-02  0.10210881691E+01  0.10208326502E+01 0.  0.
     999903    2    3    3    0    0 -0.84535253631E-01  0.94157807122E-01 -0.14907749838E-01  0.12863710012E+00  0.17701999141E-01 0.  0.
         14    1    1    2    0    0 -0.20780976279E-01  0.91813629717E-02 -0.23670318614E-02  0.22841830946E-01  0.00000000000E+00 0. -1.
     999901    1    3    3    0    0  0.10531622991E+00 -0.10333917009E+00  0.17274781700E-01  0.89245106893E+00  0.88000000000E+00 0.  1.
        -11    1    4    4    0    0 -0.49838176278E-01  0.53525659773E-01 -0.17279883209E-01  0.75151151379E-01  0.51100000000E-03 0.  1.
         11    1    4    4    0    0 -0.34697077352E-01  0.40632147349E-01  0.23721333705E-02  0.53485948741E-01  0.51100000000E-03 0. -1.
</event>
<event>
 8    1  0.1123450E+005  0.1043930E+01  0.7957747E-01            NaN
         13   -1    0    0    0    0  0.00000000000E+00  0.00000000000E+00  0.74505805969E-08  0.10566000000E+00  0.10566000000E+00 0. -1.
     999900   -1    0    0    0    0 -0.00000000000E+00 -0.00000000000E+00 -0.74505805969E-08  0.93827000000E+00  0.93827000000E+00 0.  1.
     999902    2    1    2    0    0  0.16605886037E-01  0.14214607409E-01  0.79236643292E-02  0.10206793017E+01  0.10204144462E+01 0.  0.
     999903    2    3    3    0    0  0.14614210577E-01 -0.92231688517E-01 -0.86591405581E-01  0.12923784029E+00  0.22002007291E-01 0.  0.
         14    1    1    2    0    0 -0.16605886037E-01 -0.14214607409E-01 -0.79236643292E-02  0.23250698296E-01  0.00000000000E+00 0. -1.
     999901    1    3    3    0    0  0.19916754599E-02  0.10644629593E+00  0.94515069910E-01  0.89144146141E+00  0.88000000000E+00 0. -1.
        -11    1    4    4    0    0  0.77201961519E-02 -0.83211593374E-01 -0.69399487854E-01  0.10862928121E+00  0.51100000000E-03 0. -1.
         11    1    4    4    0    0  0.68940144253E-02 -0.90200951430E-02 -0.17191917727E-01  0.20608559082E-01  0.51100000000E-03 0.  1.
</event>
<event>
 8    1  0.1123450E+005  0.1043930E+01  0.7957747E-01            NaN
         13   -1    0    0    0    0  0.00000000000E+00  0.00000000000E+00  0.74505805969E-08  0.10566000000E+00  0.10566000000E+00 0. -1.
     999900   -1    0    0    0    0 -0.00000000000E+00 -0.00000000000E+00 -0.74505805969E-08  0.93827000000E+00  0.93827000000E+00 0.  1.
     999902    2    1    2    0    0 -0.14762564644E-01 -0.14149646379E-01 -0.11072870227E-01  0.10206758764E+01  0.10204109420E+01 0.  0.
     999903    2    3    3    0    0  0.54702913426E-01 -0.21348736727E-01  0.11326921895E+00  0.12919495422E+00  0.20328377642E-01 0.  0.
         14    1    1    2    0    0  0.14762564644E-01  0.14149646379E-01  0.11072870227E-01  0.23254123561E-01  0.00000000000E+00 0.  1.
     999901    1    3    3    0    0 -0.69465478070E-01  0.71990903478E-02 -0.12434208917E+00  0.89148092222E+00  0.88000000000E+00 0.  1.
        -11    1    4    4    0    0  0.18851554931E-01  0.25100121403E-02  0.32400244581E-01  0.37572839315E-01  0.51100000000E-03 0. -1.
         11    1    4    4    0    0  0.35851358495E-01 -0.23858748868E-01  0.80868974365E-01  0.91622114903E-01  0.51100000000E-03 0.  1.
</event>
<event>
 8    1  0.1123450E+005  0.1043930E+01  0.7957747E-01            NaN
         13   -1    0    0    0    0  0.00000000000E+00  0.00000000000E+00  0.74505805969E-08  0.10566000000E+00  0.10566000000E+00 0.  1.
     999900   -1    0    0    0    0 -0.00000000000E+00 -0.00000000000E+00 -0.74505805969E-08  0.93827000000E+00  0.93827000000E+00 0. -1.
     999902    2    1    2    0    0  0.50977659425E-02 -0.23787819159E-01  0.18085111839E-02  0.10195349540E+01  0.10192430545E+01 0.  0.
     999903    2    3    3    0    0 -0.25355782479E-01  0.10767259589E+00 -0.59302019584E-01  0.12715400600E+00  0.20374201955E-01 0.  0.
         14    1    1    2    0    0 -0.50977659425E-02  0.23787819159E-01 -0.18085111839E-02  0.24395046026E-01  0.00000000000E+00 0. -1.
     999901    1    3    3    0    0  0.30453548422E-01 -0.13146041504E+00  0.61110530768E-01  0.89238094797E+00  0.88000000000E+00 0.  1.
        -11    1    4    4    0    0 -0.31385060909E-02  0.57644054819E-01 -0.29872753021E-01  0.65002536647E-01  0.51100000000E-03 0.  1.
         11    1    4    4    0    0 -0.22217276388E-01  0.50028541067E-01 -0.29429266564E-01  0.62151469354E-01  0.51100000000E-03 0. -1.
</event>
<event>
 8    1  0.1123450E+005  0.1043930E+01  0.7957747E-01            NaN
         13   -1    0    0    0    0  0.00000000000E+00  0.00000000000E+00  0.74505805969E-08  0.10566000000E+00  0.10566000000E+00 0.  1.
     999900   -1    0    0    0    0 -0.00000000000E+00 -0.00000000000E+00 -0.74505805969E-08  0.93827000000E+00  0.93827000000E+00 0. -1.
     999902    2    1    2    0    0  0.26656312365E-02  0.85905165684E-02  0.22375733774E-01  0.10198141126E+01  0.10195289344E+01 0.  0.
     999903    2    3    3    0    0 -0.83245226406E-01  0.52562139275E-01  0.86028480165E-01  0.13225236757E+00  0.19930958904E-01 0.  0.
         14    1    1    2    0    0 -0.26656312365E-02 -0.85905165684E-02 -0.22375733774E-01  0.24115887434E-01  0.00000000000E+00 0. -1.
     999901    1    3    3    0    0  0.85910857642E-01 -0.43971622706E-01 -0.63652746390E-01  0.88756174500E+00  0.88000000000E+00 0. -1.
        -11    1    4    4    0    0 -0.42059788220E-01  0.25985246056E-01  0.56279915004E-01  0.74912941149E-01  0.51100000000E-03 0. -1.
         11    1    4    4    0    0 -0.41185438186E-01  0.26576893219E-01  0.29748565161E-01  0.57339426417E-01  0.51100000000E-03 0.  1.
</event>
<event>
 8    1  0.1123450E+005  0.1043930E+01  0.7957747E-01            NaN
         13   -1    0    0    0    0  0.00000000000E+00  0.00000000000E+00  0.74505805969E-08  0.10566000000E+00  0.10566000000E+00 0.  1.
     999900   -1    0    0    0    0 -0.00000000000E+00 -0.00000000000E+00 -0.74505805969E-08  0.93827000000E+00  0.93827000000E+00 0. -1.
     999902    2    1    2    0    0 -0.78375275250E-02 -0.13949438961E-01  0.16848613411E-01  0.10206944785E+01  0.10204299726E+01 0.  0.
     999903    2    3    3    0    0  0.12618065322E+00 -0.62817782041E-02  0.25247857651E-01  0.13047528466E+00  0.20623472226E-01 0.  0.
         14    1    1    2    0    0  0.78375275250E-02  0.13949438961E-01 -0.16848613411E-01  0.23235521490E-01  0.00000000000E+00 0. -1.
     999901    1    3    3    0    0 -0.13401818075E+00 -0.76676607569E-02 -0.83992442400E-02  0.89021919385E+00  0.88000000000E+00 0. -1.
        -11    1    4    4    0    0  0.90912099014E-01 -0.97305012324E-02  0.25894850728E-01  0.95028926210E-01  0.51100000000E-03 0.  1.
         11    1    4    4    0    0  0.35268554209E-01  0.34487230283E-02 -0.64699307782E-03  0.35446358452E-01  0.51100000000E-03 0. -1.
</event>
<event>
 8    1  0.1123450E+005  0.1043930E+01  0.7957747E-01            NaN
         13   -1    0    0    0    0  0.00000000000E+00  0.00000000000E+00  0.74505805969E-08  0.10566000000E+00  0.10566000000E+00 0. -1.
     999900   -1    0    0    0    0 -0.00000000000E+00 -0.00000000000E+00 -0.74505805969E-08  0.93827000000E+00  0.93827000000E+00 0.  1.
     999902    2    1    2    0    0  0.15443273315E-01  0.18258365099E-01 -0.34595742460E-02  0.10197674000E+01  0.10194811027E+01 0.  0.
     999903    2    3    3    0    0  0.12840814831E+00 -0.85980761741E-02 -0.18760584218E-01  0.13200816890E+00  0.22618967082E-01 0.  0.
         14    1    1    2    0    0 -0.15443273315E-01 -0.18258365099E-01  0.34595742460E-02  0.24162600041E-01  0.00000000000E+00 0. -1.
     999901    1    3    3    0    0 -0.11296487499E+00  0.26856441273E-01  0.15301009972E-01  0.88775923106E+00  0.88000000000E+00 0.  1.
        -11    1    4    4    0    0  0.47683960362E-01  0.57319607108E-02 -0.13306417434E-01  0.49839114311E-01  0.51100000000E-03 0. -1.
         11    1    4    4    0    0  0.80724187943E-01 -0.14330036885E-01 -0.54541667836E-02  0.82169054592E-01  0.51100000000E-03 0.  1.
</event>
<event>
 8    1  0.1123450E+005  0.1043930E+01  0.7957747E-01            NaN
         13   -1    0    0    0    0  0.00000000000E+00  0.00000000000E+00  0.74505805969E-08  0.10566000000E+00  0.10566000000E+00 0. -1.
     999900   -1    0    0    0    0 -0.00000000000E+00 -0.00000000000E+00 -0.74505805969E-08  0.93827000000E+00  0.93827000000E+00 0. -1.
     999902    2    1    2    0    0 -0.19706182188E-01  0.52136453070E-02  0.10207643755E-01  0.10211328137E+01  0.10208783039E+01 0.  0.
     999903    2    3    3    0    0  0.19685799597E-03  0.20872966152E-01 -0.12668408595E+00  0.13018910557E+00  0.21555187470E-01 0.  0.
         14    1    1    2    0    0  0.19706182188E-01 -0.52136453070E-02 -0.10207643755E-01  0.22797186336E-01  0.00000000000E+00 0. -1.
     999901    1    3    3    0    0 -0.19903040184E-01 -0.15659320845E-01  0.13689172970E+00  0.89094370810E+00  0.88000000000E+00 0.  1.
        -11    1    4    4    0    0 -0.63664895603E-02  0.13545559910E-01 -0.36271709694E-01  0.39241717951E-01  0.51100000000E-03 0.  1.
         11    1    4    4    0    0  0.65633475563E-02  0.73274062415E-02 -0.90412376253E-01  0.90947387615E-01  0.51100000000E-03 0. -1.
</event>
<event>
 8    1  0.1123450E+005  0.1043930E+01  0.7957747E-01            NaN
         13   -1    0    0    0    0  0.00000000000E+00  0.00000000000E+00  0.74505805969E-08  0.10566000000E+00  0.10566000000E+00 0.  1.
     999900   -1    0    0    0    0 -0.00000000000E+00 -0.00000000000E+00 -0.74505805969E-08  0.93827000000E+00  0.93827000000E+00 0.  1.
     999902    2    1    2    0    0 -0.11239986859E-02  0.17900477941E-01  0.14968966755E-01  0.10205684836E+01  0.10203010679E+01 0.  0.
     999903    2    3    3    0    0 -0.22844614331E-01 -0.88699480445E-01  0.90195423366E-01  0.13068402139E+00  0.23529233229E-01 0.  0.
         14    1    1    2    0    0  0.11239986859E-02 -0.17900477941E-01 -0.14968966755E-01  0.23361516416E-01  0.00000000000E+00 0.  1.
     999901    1    3    3    0    0  0.21720615645E-01  0.10659995839E+00 -0.75226456611E-01  0.88988446219E+00  0.88000000000E+00 0.  1.
        -11    1    4    4    0    0 -0.27162461736E-03 -0.37082474360E-01  0.26116875339E-01  0.45360070360E-01  0.51100000000E-03 0. -1.
         11    1    4    4    0    0 -0.22572989713E-01 -0.51617006085E-01  0.64078548027E-01  0.85323951034E-01  0.51100000000E-03 0.  1.
</event>
<event>
 8    1  0.1123450E+005  0.1043930E+01  0.7957747E-01            NaN
         13   -1    0    0    0    0  0.00000000000E+00  0.00000000000E+00  0.74505805969E-08  0.10566000000E+00  0.10566000000E+00 0.  1.
     999900   -1    0    0    0    0 -0.00000000000E+00 -0.00000000000E+00 -0.74505805969E-08  0.93827000000E+00  0.93827000000E+00 0.  1.
     999902    2    1    2    0    0 -0.23035230344E-01  0.10080207782E-02 -0.45759127900E-02  0.10204230453E+01  0.10201522506E+01 0.  0.
     999903    2    3    3    0    0  0.10572896730E+00  0.51347946614E-01 -0.48000366638E-01  0.12857103405E+00  0.20279286245E-01 0.  0.
         14    1    1    2    0    0  0.23035230344E-01 -0.10080207782E-02  0.45759127900E-02  0.23506954732E-01  0.00000000000E+00 0. -1.
     999901    1    3    3    0    0 -0.12876419764E+00 -0.50339925836E-01  0.43424453848E-01  0.89185201122E+00  0.88000000000E+00 0. -1.
        -11    1    4    4    0    0  0.72555420918E-01  0.24618442353E-01 -0.32617220293E-01  0.83273651230E-01  0.51100000000E-03 0. -1.
         11    1    4    4    0    0  0.33173546382E-01  0.26729504261E-01 -0.15383146345E-01  0.45297382817E-01  0.51100000000E-03 0.  1.
</event>
<event>
 8    1  0.1123450E+005  0.1043930E+01  0.7957747E-01            NaN
         13   -1    0    0    0    0  0.00000000000E+00  0.00000000000E+00  0.74505805969E-08  0.10566000000E+00  0.10566000000E+00 0. -1.
     999900   -1    0    0    0    0 -0.00000000000E+00 -0.00000000000E+00 -0.74505805969E-08  0.93827000000E+00  0.93827000000E+00 0.  1.
     999902    2    1    2    0    0 -0.10579858862E-01 -0.14461141864E-01  0.14311149463E-01  0.10209982090E+01  0.10207406506E+01 0.  0.
     999903    2    3    3    0    0  0.11295932438E+00  0.59421522321E-01  0.59909056271E-02  0.12926405341E+00  0.19559608248E-01 0.  0.
         14    1    1    2    0    0  0.10579858862E-01  0.14461141864E-01 -0.14311149463E-01  0.22931790957E-01  0.00000000000E+00 0.  1.
     999901    1    3    3    0    0 -0.12353918324E+00 -0.73882664185E-01  0.83202438356E-02  0.89173415563E+00  0.88000000000E+00 0. -1.
        -11    1    4    4    0    0  0.31823111425E-01  0.72473064587E-02  0.57084474639E-03  0.32646911897E-01  0.51100000000E-03 0.  1.
         11    1    4    4    0    0  0.81136212954E-01  0.52174215862E-01  0.54200608807E-02  0.96617141514E-01  0.51100000000E-03 0. -1.
</event>
<event>
 8    1  0.1123450E+005  0.1043930E+01  0.7957747E-01            NaN
         13   -1    0    0    0    0  0.00000000000E+00  0.00000000000E+00  0.74505805969E-08  0.10566000000E+00  0.10566000000E+00 0. -1.
     999900   -1    0    0    0    0 -0.00000000000E+00 -0.00000000000E+00 -0.74505805969E-08  0.93827000000E+00  0.93827000000E+00 0.  1.
     999902    2    1    2    0    0  0.21870986292E-01  0.39286976834E-02 -0.85030504829E-02  0.10201376362E+01  0.10198601474E+01 0.  0.
     999903    2    3    3    0    0  0.21691648118E-01  0.11687735718E+00  0.51175152147E-01  0.13091386252E+00  0.19715450325E-01 0.  0.
         14    1    1    2    0    0 -0.21870986292E-01 -0.39286976834E-02  0.85030504829E-02  0.23792363783E-01  0.00000000000E+00 0. -1.
     999901    1    3    3    0    0  0.17933817447E-03 -0.11294865950E+00 -0.59678202630E-01  0.88922377370E+00  0.88000000000E+00 0.  1.
        -11    1    4    4    0    0  0.21087682770E-01  0.62519967657E-01  0.31316447171E-01  0.73037098141E-01  0.51100000000E-03 0.  1.
         11    1    4    4    0    0  0.60396534744E-03  0.54357389526E-01  0.19858704977E-01  0.57876764376E-01  0.51100000000E-03 0. -1.
</event>
<event>
 8    1  0.1123450E+005  0.1043930E+01  0.7957747E-01            NaN
         13   -1    0    0    0    0  0.00000000000E+00  0.00000000000E+00  0.74505805969E-08  0.10566000000E+00  0.10566000000E+00 0. -1.
     999900   -1    0    0    0    0 -0.00000000000E+00 -0.00000000000E+00 -0.74505805969E-08  0.93827000000E+00  0.93827000000E+00 0. -1.
     999902    2    1    2    0    0  0.60759752708E-02 -0.21357342100E-01  0.96655197821E-02  0.10197127374E+01  0.10194251277E+01 0.  0.
     999903    2    3    3    0    0 -0.55940964169E-02 -0.11281959620E+00 -0.64814473484E-01  0.13176634039E+00  0.20047376045E-01 0.  0.
         14    1    1    2    0    0 -0.60759752708E-02  0.21357342100E-01 -0.96655197821E-02  0.24217262639E-01  0.00000000000E+00 0.  1.
     999901    1    3    3    0    0  0.11670071688E-01  0.91462254096E-01  0.74479993266E-01  0.88794639697E+00  0.88000000000E+00 0. -1.
        -11    1    4    4    0    0  0.56056232764E-02 -0.24712892579E-01 -0.91474567033E-02  0.26946004474E-01  0.51100000000E-03 0. -1.
         11    1    4    4    0    0 -0.11199719693E-01 -0.88106703616E-01 -0.55667016780E-01  0.10482033592E+00  0.51100000000E-03 0.  1.
</event>
<event>
 8    1  0.1123450E+005  0.1043930E+01  0.7957747E-01            NaN
         13   -1    0    0    0    0  0.00000000000E+00  0.00000000000E+00  0.74505805969E-08  0.10566000000E+00  0.10566000000E+00 0. -1.
     999900   -1    0    0    0    0 -0.00000000000E+00 -0.00000000000E+00 -0.74505805969E-08  0.93827000000E+00  0.93827000000E+00 0.  1.
     999902    2    1    2    0    0 -0.11208440704E-01 -0.79606956577E-02 -0.19161117206E-01  0.10203471624E+01  0.10200745961E+01 0.  0.
     999903    2    3    3    0    0  0.48292434131E-01 -0.40785854425E-01 -0.11458667095E+00  0.13258374711E+00  0.21276741345E-01 0.  0.
         14    1    1    2    0    0  0.11208440704E-01  0.79606956577E-02  0.19161117206E-01  0.23582837635E-01  0.00000000000E+00 0.  1.
     999901    1    3    3    0    0 -0.59500874834E-01  0.32825158767E-01  0.95425553749E-01  0.88776341525E+00  0.88000000000E+00 0. -1.
        -11    1    4    4    0    0  0.16770974514E-02 -0.41257167357E-02 -0.23275998813E-01  0.23703743084E-01  0.51100000000E-03 0. -1.
         11    1    4    4    0    0  0.46615336680E-01 -0.36660137689E-01 -0.91310672141E-01  0.10888000403E+00  0.51100000000E-03 0.  1.
</event>
<event>
 8    1  0.1123450E+005  0.1043930E+01  0.7957747E-01            NaN
         13   -1    0    0    0    0  0.00000000000E+00  0.00000000000E+00  0.74505805969E-08  0.10566000000E+00  0.10566000000E+00 0. -1.
     999900   -1    0    0    0    0 -0.00000000000E+00 -0.00000000000E+00 -0.74505805969E-08  0.93827000000E+00  0.93827000000E+00 0.  1.
     999902    2    1    2    0    0  0.15307847243E-01  0.11759768101E-01 -0.12308431096E-01  0.10210363369E+01  0.10207796440E+01 0.  0.
     999903    2    3    3    0    0  0.34023670904E-01 -0.56480047923E-01 -0.11285354793E+00  0.13248905340E+00  0.21675331462E-01 0.  0.
         14    1    1    2    0    0 -0.15307847243E-01 -0.11759768101E-01  0.12308431096E-01  0.22893663076E-01  0.00000000000E+00 0. -1.
     999901    1    3    3    0    0 -0.18715823661E-01  0.68239816024E-01  0.10054511683E+00  0.88854728353E+00  0.88000000000E+00 0. -1.
        -11    1    4    4    0    0  0.25359169154E-01 -0.21218245928E-01 -0.55540550401E-01  0.64639889235E-01  0.51100000000E-03 0. -1.
         11    1    4    4    0    0  0.86645017501E-02 -0.35261801995E-01 -0.57312997530E-01  0.67849164161E-01  0.51100000000E-03 0.  1.
</event>
<event>
 8    1  0.1123450E+005  0.1043930E+01  0.7957747E-01            NaN
         13   -1    0    0    0    0  0.00000000000E+00  0.00000000000E+00  0.74505805969E-08  0.10566000000E+00  0.10566000000E+00 0. -1.
     999900   -1    0    0    0    0 -0.00000000000E+00 -0.00000000000E+00 -0.74505805969E-08  0.93827000000E+00  0.93827000000E+00 0.  1.
     999902    2    1    2    0    0 -0.10352578649E-01 -0.17994743991E-01  0.10945896310E-01  0.10204608854E+01  0.10201909719E+01 0.  0.
     999903    2    3    3    0    0  0.57880816513E-01  0.21565826156E-02  0.11535105851E+00  0.13143765165E+00  0.24802213651E-01 0.  0.
         14    1    1    2    0    0  0.10352578649E-01  0.17994743991E-01 -0.10945896310E-01  0.23469114641E-01  0.00000000000E+00 0.  1.
     999901    1    3    3    0    0 -0.68233395162E-01 -0.20151326607E-01 -0.10440516221E+00  0.88902323371E+00  0.88000000000E+00 0.  1.
        -11    1    4    4    0    0  0.32254985526E-01  0.13127710135E-01  0.70367966639E-01  0.78515175060E-01  0.51100000000E-03 0. -1.
         11    1    4    4    0    0  0.25625830987E-01 -0.10971127519E-01  0.44983091875E-01  0.52922476591E-01  0.51100000000E-03 0.  1.
</event>
<event>
 8    1  0.1123450E+005  0.1043930E+01  0.7957747E-01            NaN
         13   -1    0    0    0    0  0.00000000000E+00  0.00000000000E+00  0.74505805969E-08  0.10566000000E+00  0.10566000000E+00 0. -1.
     999900   -1    0    0    0    0 -0.00000000000E+00 -0.00000000000E+00 -0.74505805969E-08  0.93827000000E+00  0.93827000000E+00 0. -1.
     999902    2    1    2    0    0  0.19294058488E-01  0.12871620070E-01 -0.13488943886E-02  0.10206972900E+01  0.10204328489E+01 0.  0.
     999903    2    3    3    0    0  0.23428491884E-03 -0.11222418404E+00  0.61097184249E-01  0.12945560121E+00  0.20774127838E-01 0.  0.
         14    1    1    2    0    0 -0.19294058488E-01 -0.12871620070E-01  0.13488943886E-02  0.23232709963E-01  0.00000000000E+00 0.  1.
     999901    1    3    3    0    0  0.19059773569E-01  0.12509580411E+00 -0.62446078637E-01  0.89124168883E+00  0.88000000000E+00 0. -1.
        -11    1    4    4    0    0 -0.69898098671E-02 -0.58564393308E-01  0.40384052430E-01  0.71482714114E-01  0.51100000000E-03 0. -1.
         11    1    4    4    0    0  0.72240947860E-02 -0.53659790732E-01  0.20713131818E-01  0.57972887091E-01  0.51100000000E-03 0.  1.
</event>
<event>
 8    1  0.1123450E+005  0.1043930E+01  0.7957747E-01            NaN
         13   -1    0    0    0    0  0.00000000000E+00  0.00000000000E+00  0.74505805969E-08  0.10566000000E+00  0.10566000000E+00 0. -1.
     999900   -1    0    0    0    0 -0.00000000000E+00 -0.00000000000E+00 -0.74505805969E-08  0.93827000000E+00  0.93827000000E+00 0. -1.
     999902    2    1    2    0    0  0.16894773294E-01  0.99778826861E-03  0.15723688360E-01  0.10208288459E+01  0.10205674251E+01 0.  0.
     999903    2    3    3    0    0 -0.12139146014E+00  0.64182405028E-02  0.40440770957E-01  0.12967038756E+00  0.20046771523E-01 0.  0.
         14    1    1    2    0    0 -0.16894773294E-01 -0.99778826861E-03 -0.15723688360E-01  0.23101154121E-01  0.00000000000E+00 0. -1.
     999901    1    3    3    0    0  0.13828623343E+00 -0.54204522342E-02 -0.24717082597E-01  0.89115845832E+00  0.88000000000E+00 0.  1.
        -11    1    4    4    0    0 -0.11064354446E-01 -0.14866183614E-03  0.10263533115E-01  0.15101101703E-01  0.51100000000E-03 0. -1.
         11    1    4    4    0    0 -0.11032710569E+00  0.65669023389E-02  0.30177237843E-01  0.11456928586E+00  0.51100000000E-03 0.  1.
</event>
<event>
 8    1  0.1123450E+005  0.1043930E+01  0.7957747E-01            NaN
         13   -1    0    0    0    0  0.00000000000E+00  0.00000000000E+00  0.74505805969E-08  0.10566000000E+00  0.10566000000E+00 0. -1.
     999900   -1    0    0    0    0 -0.00000000000E+00 -0.00000000000E+00 -0.74505805969E-08  0.93827000000E+00  0.93827000000E+00 0. -1.
     999902    2    1    2    0    0  0.33376198404E-02 -0.46748312740E-02 -0.23826987294E-01  0.10194204289E+01  0.10191257487E+01 0.  0.
     999903    2    3    3    0    0 -0.25911894076E-01 -0.23068550709E-01 -0.12672770277E+00  0.13275114428E+00  0.18957092916E-01 0.  0.
         14    1    1    2    0    0 -0.33376198404E-02  0.46748312740E-02  0.23826987294E-01  0.24509571133E-01  0.00000000000E+00 0. -1.
     999901    1    3    3    0    0  0.29249513916E-01  0.18393719435E-01  0.10290071548E+00  0.88666928458E+00  0.88000000000E+00 0.  1.
        -11    1    4    4    0    0 -0.24599036862E-01 -0.21227255135E-01 -0.85637486253E-01  0.91595573844E-01  0.51100000000E-03 0.  1.
         11    1    4    4    0    0 -0.13128572142E-02 -0.18412955735E-02 -0.41090216520E-01  0.41155570439E-01  0.51100000000E-03 0. -1.
</event>
<event>
 8    1  0.1123450E+005  0.1043930E+01  0.7957747E-01            NaN
         13   -1    0    0    0    0  0.00000000000E+00  0.00000000000E+00  0.74505805969E-08  0.10566000000E+00  0.10566000000E+00 0. -1.
     999900   -1    0    0    0    0 -0.00000000000E+00 -0.00000000000E+00 -0.74505805969E-08  0.93827000000E+00  0.93827000000E+00 0. -1.
     999902    2    1    2    0    0 -0.19715568376E-01 -0.13194538867E-01  0.26580511931E-02  0.10200581603E+01  0.10197787926E+01 0.  0.
     999903    2    3    3    0    0  0.72836767570E-01  0.97903211814E-01  0.32239336815E-01  0.12776689761E+00  0.19868862405E-01 0.  0.
         14    1    1    2    0    0  0.19715568376E-01  0.13194538867E-01 -0.26580511931E-02  0.23871839653E-01  0.00000000000E+00 0. -1.
     999901    1    3    3    0    0 -0.92552335946E-01 -0.11109775068E+00 -0.29581285622E-01  0.89229126274E+00  0.88000000000E+00 0.  1.
        -11    1    4    4    0    0  0.30456525707E-01  0.27546741014E-01  0.15786986651E-01  0.43999010979E-01  0.51100000000E-03 0.  1.
         11    1    4    4    0    0  0.42380241864E-01  0.70356470800E-01  0.16452350164E-01  0.83767886632E-01  0.51100000000E-03 0. -1.
</event>
<event>
 8    1  0.1123450E+005  0.1043930E+01  0.7957747E-01            NaN
         13   -1    0    0    0    0  0.00000000000E+00  0.00000000000E+00  0.74505805969E-08  0.10566000000E+00  0.10566000000E+00 0.  1.
     999900   -1    0    0    0    0 -0.00000000000E+00 -0.00000000000E+00 -0.74505805969E-08  0.93827000000E+00  0.93827000000E+00 0. -1.
     999902    2    1    2    0    0 -0.18066228029E-02  0.11772852330E-01 -0.22121002567E-01  0.10188062524E+01  0.10184964297E+01 0.  0.
     999903    2    3    3    0    0 -0.11136409963E+00  0.61511198047E-01  0.16995169163E-01  0.12975798677E+00  0.19044925386E-01 0.  0.
         14    1    1    2    0    0  0.18066228029E-02 -0.11772852330E-01  0.22121002567E-01  0.25123747581E-01  0.00000000000E+00 0.  1.
     999901    1    3    3    0    0  0.10955747683E+00 -0.49738345717E-01 -0.39116171730E-01  0.88904826565E+00  0.88000000000E+00 0. -1.
        -11    1    4    4    0    0 -0.87807590412E-01  0.51021360688E-01  0.60377511587E-02  0.10173528267E+00  0.51100000000E-03 0.  1.
         11    1    4    4    0    0 -0.23556509223E-01  0.10489837359E-01  0.10957418004E-01  0.28022704097E-01  0.51100000000E-03 0. -1.
</event>
<event>
 8    1  0.1123450E+005  0.1043930E+01  0.7957747E-01            NaN
         13   -1    0    0    0    0  0.00000000000E+00  0.00000000000E+00  0.74505805969E-08  0.10566000000E+00  0.10566000000E+00 0. -1.
     999900   -1    0    0    0    0 -0.00000000000E+00 -0.00000000000E+00 -0.74505805969E-08  0.93827000000E+00  0.93827000000E+00 0. -1.
     999902    2    1    2    0    0  0.65361102527E-04 -0.21524481335E-02 -0.24940623456E-01  0.10188965823E+01  0.10185890110E+01 0.  0.
     999903    2    3    3    0    0  0.12595850271E+00 -0.19819351283E-01 -0.12096255332E-01  0.12966872600E+00  0.20231362254E-01 0.  0.
         14    1    1    2    0    0 -0.65361102527E-04  0.21524481335E-02  0.24940623456E-01  0.25033417733E-01  0.00000000000E+00 0. -1.
     999901    1    3    3    0    0 -0.12589314161E+00  0.17666903150E-01 -0.12844368124E-01  0.88922785627E+00  0.88000000000E+00 0.  1.
        -11    1    4    4    0    0  0.59784733414E-01 -0.49424006289E-03 -0.69784494246E-03  0.59793032463E-01  0.51100000000E-03 0.  1.
         11    1    4    4    0    0  0.66173769297E-01 -0.19325111220E-01 -0.11398410390E-01  0.69875693535E-01  0.51100000000E-03 0. -1.
</event>
<event>
 8    1  0.1123450E+005  0.1043930E+01  0.7957747E-01            NaN
         13   -1    0    0    0    0  0.00000000000E+00  0.00000000000E+00  0.74505805969E-08  0.10566000000E+00  0.10566000000E+00 0.  1.
     999900   -1    0    0    0    0 -0.00000000000E+00 -0.00000000000E+00 -0.74505805969E-08  0.93827000000E+00  0.93827000000E+00 0. -1.
     999902    2    1    2    0    0  0.13595039775E-01  0.10819293978E-01  0.16404703637E-01  0.10200344663E+01  0.10197545371E+01 0.  0.
     999903    2    3    3    0    0  0.69720553047E-01 -0.67444911450E-01  0.87267489868E-01  0.13194838177E+00  0.19621138250E-01 0.  0.
         14    1    1    2    0    0 -0.13595039775E-01 -0.10819293978E-01 -0.16404703637E-01  0.23895533685E-01  0.00000000000E+00 0. -1.
     999901    1    3    3    0    0 -0.56125513272E-01  0.78264205428E-01 -0.70862786230E-01  0.88808608455E+00  0.88000000000E+00 0. -1.
        -11    1    4    4    0    0  0.57320685456E-01 -0.53282966927E-01  0.59117399443E-01  0.98080903256E-01  0.51100000000E-03 0. -1.
         11    1    4    4    0    0  0.12399867591E-01 -0.14161944523E-01  0.28150090424E-01  0.33867478513E-01  0.51100000000E-03 0.  1.
</event>
<event>
 8    1  0.1123450E+005  0.1043930E+01  0.7957747E-01            NaN
         13   -1    0    0    0    0  0.00000000000E+00  0.00000000000E+00  0.74505805969E-08  0.10566000000E+00  0.10566000000E+00 0. -1.
     999900   -1    0    0    0    0 -0.00000000000E+00 -0.00000000000E+00 -0.74505805969E-08  0.93827000000E+00  0.93827000000E+00 0.  1.
     999902    2    1    2    0    0  0.15033613671E-02  0.20477723871E-01  0.11008054683E-01  0.10206324779E+01  0.10203665421E+01 0.  0.
     999903    2    3    3    0    0  0.38651972288E-01  0.11363979037E+00 -0.52634927189E-01  0.13265183670E+00  0.20447427769E-01 0.  0.
         14    1    1    2    0    0 -0.15033613671E-02 -0.20477723871E-01 -0.11008054683E-01  0.23297522148E-01  0.00000000000E+00 0.  1.
     999901    1    3    3    0    0 -0.37148610921E-01 -0.93162066495E-01  0.63642981871E-01  0.88798064116E+00  0.88000000000E+00 0. -1.
        -11    1    4    4    0    0  0.15213283684E-01  0.57131911519E-01 -0.36115042917E-01  0.69282441933E-01  0.51100000000E-03 0.  1.
         11    1    4    4    0    0  0.23438688604E-01  0.56507878847E-01 -0.16519884271E-01  0.63369394763E-01  0.51100000000E-03 0. -1.
</event>
<event>
 8    1  0.1123450E+005  0.1043930E+01  0.7957747E-01            NaN
         13   -1    0    0    0    0  0.00000000000E+00  0.00000000000E+00  0.74505805969E-08  0.10566000000E+00  0.10566000000E+00 0. -1.
     999900   -1    0    0    0    0 -0.00000000000E+00 -0.00000000000E+00 -0.74505805969E-08  0.93827000000E+00  0.93827000000E+00 0. -1.
     999902    2    1    2    0    0 -0.10685903923E-01  0.12695117136E-01  0.15094022379E-01  0.10214982356E+01  0.10212519088E+01 0.  0.
     999903    2    3    3    0    0  0.85251354361E-01 -0.78461109766E-01 -0.53219103234E-01  0.12898487529E+00  0.19516299305E-01 0.  0.
         14    1    1    2    0    0  0.10685903923E-01 -0.12695117136E-01 -0.15094022379E-01  0.22431764383E-01  0.00000000000E+00 0. -1.
     999901    1    3    3    0    0 -0.95937258284E-01  0.91156226902E-01  0.68313125613E-01  0.89251336033E+00  0.88000000000E+00 0.  1.
        -11    1    4    4    0    0  0.80938426028E-01 -0.66814932167E-01 -0.49259866120E-01  0.11593989606E+00  0.51100000000E-03 0. -1.
         11    1    4    4    0    0  0.43129283336E-02 -0.11646177599E-01 -0.39592371140E-02  0.13044979226E-01  0.51100000000E-03 0.  1.
</event>
<event>
 8    1  0.1123450E+005  0.1043930E+01  0.7957747E-01            NaN
         13   -1    0    0    0    0  0.00000000000E+00  0.00000000000E+00  0.74505805969E-08  0.10566000000E+00  0.10566000000E+00 0. -1.
     999900   -1    0    0    0    0 -0.00000000000E+00 -0.00000000000E+00 -0.74505805969E-08  0.93827000000E+00  0.93827000000E+00 0.  1.
     999902    2    1    2    0    0 -0.12725065210E-01  0.17505822509E-01 -0.87054276310E-02  0.10206026432E+01  0.10203360180E+01 0.  0.
     999903    2    3    3    0    0  0.63912349895E-01  0.97977058892E-01 -0.58168552684E-01  0.13223587544E+00  0.20456140711E-01 0.  0.
         14    1    1    2    0    0  0.12725065210E-01 -0.17505822509E-01  0.87054276310E-02  0.23327356827E-01  0.00000000000E+00 0.  1.
     999901    1    3    3    0    0 -0.76637415105E-01 -0.80471236383E-01  0.49463125053E-01  0.88836676774E+00  0.88000000000E+00 0. -1.
        -11    1    4    4    0    0  0.54698538611E-01  0.86516163357E-01 -0.42761898151E-01  0.11093159019E+00  0.51100000000E-03 0. -1.
         11    1    4    4    0    0  0.92138112842E-02  0.11460895535E-01 -0.15406654533E-01  0.21304285243E-01  0.51100000000E-03 0.  1.
</event>
<event>
 8    1  0.1123450E+005  0.1043930E+01  0.7957747E-01            NaN
         13   -1    0    0    0    0  0.00000000000E+00  0.00000000000E+00  0.74505805969E-08  0.10566000000E+00  0.10566000000E+00 0. -1.
     999900   -1    0    0    0    0 -0.00000000000E+00 -0.00000000000E+00 -0.74505805969E-08  0.93827000000E+00  0.93827000000E+00 0.  1.
     999902    2    1    2    0    0  0.17593134504E-02  0.12357177578E-02  0.23408273730E-01  0.10204232039E+01  0.10201524130E+01 0.  0.
     999903    2    3    3    0    0 -0.73021897936E-01  0.48726717274E-01 -0.91686729965E-01  0.12851822890E+00  0.20099456572E-01 0.  0.
         14    1    1    2    0    0 -0.17593134504E-02 -0.12357177578E-02 -0.23408273730E-01  0.23506796064E-01  0.00000000000E+00 0.  1.
     999901    1    3    3    0    0  0.74781211386E-01 -0.47490999516E-01  0.11509500369E+00  0.89190497503E+00  0.88000000000E+00 0. -1.
        -11    1    4    4    0    0 -0.33989335312E-01  0.24593208780E-01 -0.29760398884E-01  0.51439705441E-01  0.51100000000E-03 0. -1.
         11    1    4    4    0    0 -0.39032562624E-01  0.24133508494E-01 -0.61926331080E-01  0.77078523463E-01  0.51100000000E-03 0.  1.
</event>
<event>
 8    1  0.1123450E+005  0.1043930E+01  0.7957747E-01            NaN
         13   -1    0    0    0    0  0.00000000000E+00  0.00000000000E+00  0.74505805969E-08  0.10566000000E+00  0.10566000000E+00 0.  1.
     999900   -1    0    0    0    0 -0.00000000000E+00 -0.00000000000E+00 -0.74505805969E-08  0.93827000000E+00  0.93827000000E+00 0.  1.
     999902    2    1    2    0    0 -0.52889523156E-02 -0.55957749050E-02 -0.22763871470E-01  0.10198991957E+01  0.10196160502E+01 0.  0.
     999903    2    3    3    0    0  0.41597853411E-02  0.11373275829E+00 -0.61829911012E-01  0.13093646700E+00  0.19208757741E-01 0.  0.
         14    1    1    2    0    0  0.52889523156E-02  0.55957749050E-02  0.22763871470E-01  0.24030804349E-01  0.00000000000E+00 0.  1.
     999901    1    3    3    0    0 -0.94487376567E-02 -0.11932853319E+00  0.39066039543E-01  0.88896272865E+00  0.88000000000E+00 0.  1.
        -11    1    4    4    0    0  0.95763022116E-02  0.65843181537E-01 -0.28777305810E-01  0.72494307153E-01  0.51100000000E-03 0. -1.
         11    1    4    4    0    0 -0.54165168705E-02  0.47889576751E-01 -0.33052605203E-01  0.58442159851E-01  0.51100000000E-03 0.  1.
</event>
<event>
 8    1  0.1123450E+005  0.1043930E+01  0.7957747E-01            NaN
         13   -1    0    0    0    0  0.00000000000E+00  0.00000000000E+00  0.74505805969E-08  0.10566000000E+00  0.10566000000E+00 0.  1.
     999900   -1    0    0    0    0 -0.00000000000E+00 -0.00000000000E+00 -0.74505805969E-08  0.93827000000E+00  0.93827000000E+00 0.  1.
     999902    2    1    2    0    0  0.61353313808E-02 -0.12091320557E-01 -0.14521011969E-01  0.10240628887E+01  0.10238701567E+01 0.  0.
     999903    2    3    3    0    0  0.13324502656E+00 -0.87217217552E-02 -0.56622916944E-02  0.13487972097E+00  0.18170636961E-01 0.  0.
         14    1    1    2    0    0 -0.61353313808E-02  0.12091320557E-01  0.14521011969E-01  0.19867111329E-01  0.00000000000E+00 0.  1.
     999901    1    3    3    0    0 -0.12710969518E+00 -0.33695988015E-02 -0.88587202749E-02  0.88918316770E+00  0.88000000000E+00 0.  1.
        -11    1    4    4    0    0  0.10256235091E+00 -0.46383936870E-02  0.30698586010E-02  0.10271434015E+00  0.51100000000E-03 0.  1.
         11    1    4    4    0    0  0.30682675651E-01 -0.40833280683E-02 -0.87321502955E-02  0.32165380816E-01  0.51100000000E-03 0. -1.
</event>
<event>
 8    1  0.1123450E+005  0.1043930E+01  0.7957747E-01            NaN
         13   -1    0    0    0    0  0.00000000000E+00  0.00000000000E+00  0.74505805969E-08  0.10566000000E+00  0.10566000000E+00 0.  1.
     999900   -1    0    0    0    0 -0.00000000000E+00 -0.00000000000E+00 -0.74505805969E-08  0.93827000000E+00  0.93827000000E+00 0.  1.
     999902    2    1    2    0    0  0.90063551345E-02  0.13082814703E-01  0.16253327525E-01  0.10212045709E+01  0.10209516788E+01 0.  0.
     999903    2    3    3    0    0  0.40251477457E-01  0.10507781696E-01  0.12567738838E+00  0.13387345254E+00  0.19917339984E-01 0.  0.
         14    1    1    2    0    0 -0.90063551345E-02 -0.13082814703E-01 -0.16253327525E-01  0.22725429127E-01  0.00000000000E+00 0. -1.
     999901    1    3    3    0    0 -0.31245122322E-01  0.25750330078E-02 -0.10942406085E+00  0.88733111833E+00  0.88000000000E+00 0.  1.
        -11    1    4    4    0    0  0.46172205986E-02  0.35374252959E-02  0.45288620586E-01  0.45663468762E-01  0.51100000000E-03 0.  1.
         11    1    4    4    0    0  0.35634256858E-01  0.69703563997E-02  0.80388767794E-01  0.88209983781E-01  0.51100000000E-03 0. -1.
</event>
<event>
 8    1  0.1123450E+005  0.1043930E+01  0.7957747E-01            NaN
         13   -1    0    0    0    0  0.00000000000E+00  0.00000000000E+00  0.74505805969E-08  0.10566000000E+00  0.10566000000E+00 0. -1.
     999900   -1    0    0    0    0 -0.00000000000E+00 -0.00000000000E+00 -0.74505805969E-08  0.93827000000E+00  0.93827000000E+00 0. -1.
     999902    2    1    2    0    0 -0.14307320018E-02  0.23047941333E-01 -0.21217338464E-01  0.10125703118E+01  0.10120845845E+01 0.  0.
     999903    2    3    3    0    0 -0.78898208281E-01 -0.76114870790E-01  0.47169927361E-01  0.12099233352E+00  0.19893262641E-01 0.  0.
         14    1    1    2    0    0  0.14307320018E-02 -0.23047941333E-01  0.21217338464E-01  0.31359688220E-01  0.00000000000E+00 0. -1.
     999901    1    3    3    0    0  0.77467476279E-01  0.99162812122E-01 -0.68387265825E-01  0.89157797826E+00  0.88000000000E+00 0. -1.
        -11    1    4    4    0    0 -0.45088356019E-01 -0.50742824240E-01  0.20108237024E-01  0.70798279482E-01  0.51100000000E-03 0.  1.
         11    1    4    4    0    0 -0.33809852261E-01 -0.25372046550E-01  0.27061690336E-01  0.50194054039E-01  0.51100000000E-03 0. -1.
</event>
<event>
 8    1  0.1123450E+005  0.1043930E+01  0.7957747E-01            NaN
         13   -1    0    0    0    0  0.00000000000E+00  0.00000000000E+00  0.74505805969E-08  0.10566000000E+00  0.10566000000E+00 0.  1.
     999900   -1    0    0    0    0 -0.00000000000E+00 -0.00000000000E+00 -0.74505805969E-08  0.93827000000E+00  0.93827000000E+00 0.  1.
     999902    2    1    2    0    0 -0.11340939353E-01 -0.14286360474E-01  0.14981374321E-01  0.10203257932E+01  0.10200527269E+01 0.  0.
     999903    2    3    3    0    0 -0.64758339531E-01  0.42668654539E-01  0.10522728724E+00  0.13227083030E+00  0.20212222744E-01 0.  0.
         14    1    1    2    0    0  0.11340939353E-01  0.14286360474E-01 -0.14981374321E-01  0.23604206777E-01  0.00000000000E+00 0.  1.
     999901    1    3    3    0    0  0.53417400178E-01 -0.56955015013E-01 -0.90245912922E-01  0.88805496293E+00  0.88000000000E+00 0.  1.
        -11    1    4    4    0    0 -0.65552990031E-01  0.38974582297E-01  0.99016069829E-01  0.12498262188E+00  0.51100000000E-03 0. -1.
         11    1    4    4    0    0  0.79465050002E-03  0.36940722420E-02  0.62112174142E-02  0.72882084158E-02  0.51100000000E-03 0.  1.
</event>
<event>
 8    1  0.1123450E+005  0.1043930E+01  0.7957747E-01            NaN
         13   -1    0    0    0    0  0.00000000000E+00  0.00000000000E+00  0.74505805969E-08  0.10566000000E+00  0.10566000000E+00 0. -1.
     999900   -1    0    0    0    0 -0.00000000000E+00 -0.00000000000E+00 -0.74505805969E-08  0.93827000000E+00  0.93827000000E+00 0. -1.
     999902    2    1    2    0    0 -0.17822102209E-01 -0.14392873231E-01  0.93209559420E-02  0.10191981916E+01  0.10188980771E+01 0.  0.
     999903    2    3    3    0    0 -0.10628105333E+00 -0.44456632794E-01  0.63226641253E-01  0.13261224620E+00  0.17786095188E-01 0.  0.
         14    1    1    2    0    0  0.17822102209E-01  0.14392873231E-01 -0.93209559420E-02  0.24731808398E-01  0.00000000000E+00 0.  1.
     999901    1    3    3    0    0  0.88458951122E-01  0.30063759563E-01 -0.53905685311E-01  0.88658594540E+00  0.88000000000E+00 0. -1.
        -11    1    4    4    0    0 -0.23223339754E-01 -0.23099521635E-02  0.14726847211E-01  0.27600734376E-01  0.51100000000E-03 0. -1.
         11    1    4    4    0    0 -0.83057713576E-01 -0.42146680630E-01  0.48499794041E-01  0.10501151182E+00  0.51100000000E-03 0.  1.
</event>
<event>
 8    1  0.1123450E+005  0.1043930E+01  0.7957747E-01            NaN
         13   -1    0    0    0    0  0.00000000000E+00  0.00000000000E+00  0.74505805969E-08  0.10566000000E+00  0.10566000000E+00 0.  1.
     999900   -1    0    0    0    0 -0.00000000000E+00 -0.00000000000E+00 -0.74505805969E-08  0.93827000000E+00  0.93827000000E+00 0. -1.
     999902    2    1    2    0    0  0.21146810530E-01  0.15943278219E-02 -0.12848481298E-01  0.10191345781E+01  0.10188328986E+01 0.  0.
     999903    2    3    3    0    0  0.42506213879E-01  0.21700415719E-01 -0.12140888355E+00  0.13197853779E+00  0.20013274845E-01 0.  0.
         14    1    1    2    0    0 -0.21146810530E-01 -0.15943278219E-02  0.12848481298E-01  0.24795421926E-01  0.00000000000E+00 0. -1.
     999901    1    3    3    0    0 -0.21359403349E-01 -0.20106087897E-01  0.10856040225E+00  0.88715604029E+00  0.88000000000E+00 0.  1.
        -11    1    4    4    0    0  0.57064487407E-02  0.60398878985E-02 -0.44698681260E-01  0.45467318267E-01  0.51100000000E-03 0. -1.
         11    1    4    4    0    0  0.36799765138E-01  0.15660527821E-01 -0.76710202293E-01  0.86511219519E-01  0.51100000000E-03 0.  1.
</event>
<event>
 8    1  0.1123450E+005  0.1043930E+01  0.7957747E-01            NaN
         13   -1    0    0    0    0  0.00000000000E+00  0.00000000000E+00  0.74505805969E-08  0.10566000000E+00  0.10566000000E+00 0.  1.
     999900   -1    0    0    0    0 -0.00000000000E+00 -0.00000000000E+00 -0.74505805969E-08  0.93827000000E+00  0.93827000000E+00 0.  1.
     999902    2    1    2    0    0 -0.14564682362E-01  0.23069377439E-01 -0.14533822255E-02  0.10166089739E+01  0.10162417859E+01 0.  0.
     999903    2    3    3    0    0  0.20288241190E-01 -0.79940021078E-01 -0.92391561863E-01  0.12526425103E+00  0.18785957026E-01 0.  0.
         14    1    1    2    0    0  0.14564682362E-01 -0.23069377439E-01  0.14533822255E-02  0.27321026108E-01  0.00000000000E+00 0.  1.
     999901    1    3    3    0    0 -0.34852923552E-01  0.10300939852E+00  0.90938179637E-01  0.89134472286E+00  0.88000000000E+00 0. -1.
        -11    1    4    4    0    0 -0.13825434924E-02 -0.29759690973E-01 -0.29337458159E-01  0.41815047597E-01  0.51100000000E-03 0. -1.
         11    1    4    4    0    0  0.21670784683E-01 -0.50180330105E-01 -0.63054103704E-01  0.83449203430E-01  0.51100000000E-03 0.  1.
</event>
<event>
 8    1  0.1123450E+005  0.1043930E+01  0.7957747E-01            NaN
         13   -1    0    0    0    0  0.00000000000E+00  0.00000000000E+00  0.74505805969E-08  0.10566000000E+00  0.10566000000E+00 0. -1.
     999900   -1    0    0    0    0 -0.00000000000E+00 -0.00000000000E+00 -0.74505805969E-08  0.93827000000E+00  0.93827000000E+00 0. -1.
     999902    2    1    2    0    0 -0.20800224256E-01  0.28435551347E-02  0.11375894670E-01  0.10200522674E+01  0.10197727600E+01 0.  0.
     999903    2    3    3    0    0 -0.10731380708E+00  0.33135264637E-01  0.69283769945E-01  0.13339815800E+00  0.19509711115E-01 0.  0.
         14    1    1    2    0    0  0.20800224256E-01 -0.28435551347E-02 -0.11375894670E-01  0.23877732607E-01  0.00000000000E+00 0.  1.
     999901    1    3    3    0    0  0.86513582827E-01 -0.30291709502E-01 -0.57907875275E-01  0.88665410939E+00  0.88000000000E+00 0. -1.
        -11    1    4    4    0    0 -0.48261081069E-01  0.12202085790E-01  0.19866670247E-01  0.53600079770E-01  0.51100000000E-03 0.  1.
         11    1    4    4    0    0 -0.59052726014E-01  0.20933178847E-01  0.49417099698E-01  0.79798078234E-01  0.51100000000E-03 0. -1.
</event>
<event>
 8    1  0.1123450E+005  0.1043930E+01  0.7957747E-01            NaN
         13   -1    0    0    0    0  0.00000000000E+00  0.00000000000E+00  0.74505805969E-08  0.10566000000E+00  0.10566000000E+00 0.  1.
     999900   -1    0    0    0    0 -0.00000000000E+00 -0.00000000000E+00 -0.74505805969E-08  0.93827000000E+00  0.93827000000E+00 0. -1.
     999902    2    1    2    0    0 -0.11994912088E-01  0.33754808816E-02 -0.20183531888E-01  0.10202098241E+01  0.10199340363E+01 0.  0.
     999903    2    3    3    0    0 -0.84253169912E-02  0.28755286211E-01 -0.12693695975E+00  0.13338787412E+00  0.27954977376E-01 0.  0.
         14    1    1    2    0    0  0.11994912088E-01 -0.33754808816E-02  0.20183531888E-01  0.23720175941E-01  0.00000000000E+00 0.  1.
     999901    1    3    3    0    0 -0.35695950970E-02 -0.25379805330E-01  0.10675342787E+00  0.88682194994E+00  0.88000000000E+00 0.  1.
        -11    1    4    4    0    0 -0.15756412999E-01  0.22635286803E-01 -0.63477123269E-01  0.69211466237E-01  0.51100000000E-03 0. -1.
         11    1    4    4    0    0  0.73310960079E-02  0.61199994086E-02 -0.63459836485E-01  0.64176407886E-01  0.51100000000E-03 0.  1.
</event>
<event>
 8    1  0.1123450E+005  0.1043930E+01  0.7957747E-01            NaN
         13   -1    0    0    0    0  0.00000000000E+00  0.00000000000E+00  0.74505805969E-08  0.10566000000E+00  0.10566000000E+00 0. -1.
     999900   -1    0    0    0    0 -0.00000000000E+00 -0.00000000000E+00 -0.74505805969E-08  0.93827000000E+00  0.93827000000E+00 0. -1.
     999902    2    1    2    0    0  0.35500048622E-02  0.60601537332E-02  0.24267104808E-01  0.10186669762E+01  0.10183536655E+01 0.  0.
     999903    2    3    3    0    0 -0.12202819250E+00  0.89823353519E-02  0.37795354286E-01  0.12964423386E+00  0.20188522836E-01 0.  0.
         14    1    1    2    0    0 -0.35500048622E-02 -0.60601537332E-02 -0.24267104808E-01  0.25263023841E-01  0.00000000000E+00 0.  1.
     999901    1    3    3    0    0  0.12557819736E+00 -0.29221816188E-02 -0.13528249477E-01  0.88902274230E+00  0.88000000000E+00 0. -1.
        -11    1    4    4    0    0 -0.53806166782E-01  0.10622569477E-01  0.24714581443E-01  0.60158243184E-01  0.51100000000E-03 0. -1.
         11    1    4    4    0    0 -0.68222025715E-01 -0.16402341253E-02  0.13080772843E-01  0.69485990673E-01  0.51100000000E-03 0.  1.
</event>
<event>
 8    1  0.1123450E+005  0.1043930E+01  0.7957747E-01            NaN
         13   -1    0    0    0    0  0.00000000000E+00  0.00000000000E+00  0.74505805969E-08  0.10566000000E+00  0.10566000000E+00 0. -1.
     999900   -1    0    0    0    0 -0.00000000000E+00 -0.00000000000E+00 -0.74505805969E-08  0.93827000000E+00  0.93827000000E+00 0.  1.
     999902    2    1    2    0    0  0.13825836046E-01  0.57004586789E-02 -0.18297875278E-01  0.10202982161E+01  0.10200245039E+01 0.  0.
     999903    2    3    3    0    0  0.11546048192E+00 -0.16948174666E-01  0.56161821094E-01  0.13103627030E+00  0.19949698640E-01 0.  0.
         14    1    1    2    0    0 -0.13825836046E-01 -0.57004586789E-02  0.18297875278E-01  0.23631783919E-01  0.00000000000E+00 0.  1.
     999901    1    3    3    0    0 -0.10163464587E+00  0.22648633345E-01 -0.74459696372E-01  0.88926194578E+00  0.88000000000E+00 0.  1.
        -11    1    4    4    0    0  0.64816677159E-01 -0.21384843083E-03  0.26716127527E-01  0.70108914984E-01  0.51100000000E-03 0. -1.
         11    1    4    4    0    0  0.50643804758E-01 -0.16734326236E-01  0.29445693567E-01  0.60927355314E-01  0.51100000000E-03 0.  1.
</event>
<event>
 8    1  0.1262614E+005  0.1043930E+01  0.7957747E-01            NaN
         13   -1    0    0    0    0  0.00000000000E+00  0.00000000000E+00  0.74505805969E-08  0.10566000000E+00  0.10566000000E+00 0. -1.
     999900   -1    0    0    0    0 -0.00000000000E+00 -0.00000000000E+00 -0.74505805969E-08  0.93827000000E+00  0.93827000000E+00 0. -1.
     999902    2    1    2    0    0 -0.12710843134E-02 -0.16679898505E-01  0.18371521194E-01  0.10190835222E+01  0.10187805837E+01 0.  0.
     999903    2    3    3    0    0 -0.46141265979E-01 -0.10360538973E+00 -0.60594164481E-01  0.13014879243E+00  0.20098810769E-01 0.  0.
         14    1    1    2    0    0  0.12710843134E-02  0.16679898505E-01 -0.18371521194E-01  0.24846477828E-01  0.00000000000E+00 0.  1.
     999901    1    3    3    0    0  0.44870181665E-01  0.86925491226E-01  0.78965685675E-01  0.88893472974E+00  0.88000000000E+00 0.  1.
        -11    1    4    4    0    0 -0.94517810105E-02 -0.45397566512E-01 -0.24142881548E-01  0.52282072070E-01  0.51100000000E-03 0. -1.
         11    1    4    4    0    0 -0.36689484968E-01 -0.58207823219E-01 -0.36451282933E-01  0.77866720360E-01  0.51100000000E-03 0.  1.
</event>
<event>
 8    1  0.1123450E+005  0.1043930E+01  0.7957747E-01            NaN
         13   -1    0    0    0    0  0.00000000000E+00  0.00000000000E+00  0.74505805969E-08  0.10566000000E+00  0.10566000000E+00 0. -1.
     999900   -1    0    0    0    0 -0.00000000000E+00 -0.00000000000E+00 -0.74505805969E-08  0.93827000000E+00  0.93827000000E+00 0.  1.
     999902    2    1    2    0    0 -0.91089360555E-03  0.13360278412E-01 -0.19479305065E-01  0.10202916817E+01  0.10200178163E+01 0.  0.
     999903    2    3    3    0    0 -0.11378910887E+00  0.59273485945E-01 -0.16915038585E-01  0.13189082084E+00  0.25451181885E-01 0.  0.
         14    1    1    2    0    0  0.91089360555E-03 -0.13360278412E-01  0.19479305065E-01  0.23638318304E-01  0.00000000000E+00 0. -1.
     999901    1    3    3    0    0  0.11287821526E+00 -0.45913207533E-01 -0.25642664802E-02  0.88840086086E+00  0.88000000000E+00 0.  1.
        -11    1    4    4    0    0 -0.39027644957E-01  0.86122975416E-02  0.21002014511E-03  0.39970413675E-01  0.51100000000E-03 0. -1.
         11    1    4    4    0    0 -0.74761463908E-01  0.50661188404E-01 -0.17125058730E-01  0.91920407166E-01  0.51100000000E-03 0.  1.
</event>
<event>
 8    1  0.1123450E+005  0.1043930E+01  0.7957747E-01            NaN
         13   -1    0    0    0    0  0.00000000000E+00  0.00000000000E+00  0.74505805969E-08  0.10566000000E+00  0.10566000000E+00 0. -1.
     999900   -1    0    0    0    0 -0.00000000000E+00 -0.00000000000E+00 -0.74505805969E-08  0.93827000000E+00  0.93827000000E+00 0.  1.
     999902    2    1    2    0    0 -0.17719486802E-01  0.10742037455E-01 -0.10843544977E-01  0.10205429513E+01  0.10202749440E+01 0.  0.
     999903    2    3    3    0    0  0.10078327150E+00 -0.45102675042E-01 -0.64164112589E-01  0.12924916211E+00  0.19919675005E-01 0.  0.
         14    1    1    2    0    0  0.17719486802E-01 -0.10742037455E-01  0.10843544977E-01  0.23387048742E-01  0.00000000000E+00 0. -1.
     999901    1    3    3    0    0 -0.11850275830E+00  0.55844712498E-01  0.53320567612E-01  0.89129378915E+00  0.88000000000E+00 0. -1.
        -11    1    4    4    0    0  0.51397851158E-01 -0.12426961856E-01 -0.32959718821E-01  0.62311898305E-01  0.51100000000E-03 0. -1.
         11    1    4    4    0    0  0.49385420341E-01 -0.32675713187E-01 -0.31204393768E-01  0.66937263807E-01  0.51100000000E-03 0.  1.
</event>
<event>
 8    1  0.1123450E+005  0.1043930E+01  0.7957747E-01            NaN
         13   -1    0    0    0    0  0.00000000000E+00  0.00000000000E+00  0.74505805969E-08  0.10566000000E+00  0.10566000000E+00 0. -1.
     999900   -1    0    0    0    0 -0.00000000000E+00 -0.00000000000E+00 -0.74505805969E-08  0.93827000000E+00  0.93827000000E+00 0.  1.
     999902    2    1    2    0    0 -0.61117103702E-02  0.21892156957E-01  0.71916301988E-02  0.10200901366E+01  0.10198115256E+01 0.  0.
     999903    2    3    3    0    0 -0.15754765111E-01 -0.88897187586E-01 -0.88564203352E-01  0.12793743277E+00  0.19324751082E-01 0.  0.
         14    1    1    2    0    0  0.61117103702E-02 -0.21892156957E-01 -0.71916301988E-02  0.23839863355E-01  0.00000000000E+00 0. -1.
     999901    1    3    3    0    0  0.96430547406E-02  0.11078934454E+00  0.95755833551E-01  0.89215270387E+00  0.88000000000E+00 0.  1.
        -11    1    4    4    0    0 -0.31258506431E-02 -0.46978685825E-01 -0.34518803880E-01  0.58383018134E-01  0.51100000000E-03 0.  1.
         11    1    4    4    0    0 -0.12628914468E-01 -0.41918501761E-01 -0.54045399472E-01  0.69554414638E-01  0.51100000000E-03 0. -1.
</event>
<event>
 8    1  0.1123450E+005  0.1043930E+01  0.7957747E-01            NaN
         13   -1    0    0    0    0  0.00000000000E+00  0.00000000000E+00  0.74505805969E-08  0.10566000000E+00  0.10566000000E+00 0. -1.
     999900   -1    0    0    0    0 -0.00000000000E+00 -0.00000000000E+00 -0.74505805969E-08  0.93827000000E+00  0.93827000000E+00 0. -1.
     999902    2    1    2    0    0 -0.10440739738E-02 -0.19967441227E-01 -0.14814186966E-01  0.10190452871E+01  0.10187414040E+01 0.  0.
     999903    2    3    3    0    0 -0.82889192119E-01  0.54106899250E-01  0.77720358751E-01  0.12733441838E+00  0.19375892824E-01 0.  0.
         14    1    1    2    0    0  0.10440739738E-02  0.19967441227E-01  0.14814186966E-01  0.24884712880E-01  0.00000000000E+00 0. -1.
     999901    1    3    3    0    0  0.81845118146E-01 -0.74074340478E-01 -0.92534545717E-01  0.89171086874E+00  0.88000000000E+00 0. -1.
        -11    1    4    4    0    0 -0.24325812016E-01  0.17706482217E-01  0.13057139349E-01  0.32802662266E-01  0.51100000000E-03 0. -1.
         11    1    4    4    0    0 -0.58563380104E-01  0.36400417033E-01  0.64663219402E-01  0.94531756113E-01  0.51100000000E-03 0.  1.
</event>
<event>
 8    1  0.1123450E+005  0.1043930E+01  0.7957747E-01            NaN
         13   -1    0    0    0    0  0.00000000000E+00  0.00000000000E+00  0.74505805969E-08  0.10566000000E+00  0.10566000000E+00 0. -1.
     999900   -1    0    0    0    0 -0.00000000000E+00 -0.00000000000E+00 -0.74505805969E-08  0.93827000000E+00  0.93827000000E+00 0.  1.
     999902    2    1    2    0    0 -0.15792333330E-01 -0.12701484829E-01  0.12821578204E-01  0.10199483742E+01  0.10196664002E+01 0.  0.
     999903    2    3    3    0    0 -0.83989350227E-01 -0.10057773716E+00 -0.50953033143E-02  0.13276514425E+00  0.20749198767E-01 0.  0.
         14    1    1    2    0    0  0.15792333330E-01  0.12701484829E-01 -0.12821578204E-01  0.23981625811E-01  0.00000000000E+00 0.  1.
     999901    1    3    3    0    0  0.68197016897E-01  0.87876252328E-01  0.17916881518E-01  0.88718322994E+00  0.88000000000E+00 0. -1.
        -11    1    4    4    0    0 -0.43400952676E-01 -0.42677149092E-01 -0.10808755131E-01  0.61822908830E-01  0.51100000000E-03 0.  1.
         11    1    4    4    0    0 -0.40588397551E-01 -0.57900588066E-01  0.57134518168E-02  0.70942235423E-01  0.51100000000E-03 0. -1.
</event>
<event>
 8    1  0.1123450E+005  0.1043930E+01  0.7957747E-01            NaN
         13   -1    0    0    0    0  0.00000000000E+00  0.00000000000E+00  0.74505805969E-08  0.10566000000E+00  0.10566000000E+00 0.  1.
     999900   -1    0    0    0    0 -0.00000000000E+00 -0.00000000000E+00 -0.74505805969E-08  0.93827000000E+00  0.93827000000E+00 0.  1.
     999902    2    1    2    0    0 -0.15445832592E-01  0.68058053148E-02 -0.15121416444E-01  0.10212683592E+01  0.10210169007E+01 0.  0.
     999903    2    3    3    0    0  0.17971509576E-01 -0.83983818613E-01  0.94379688169E-01  0.12922017297E+00  0.20348725209E-01 0.  0.
         14    1    1    2    0    0  0.15445832592E-01 -0.68058053148E-02  0.15121416444E-01  0.22661640844E-01  0.00000000000E+00 0. -1.
     999901    1    3    3    0    0 -0.33417342168E-01  0.90789623928E-01 -0.10950110461E+00  0.89204818619E+00  0.88000000000E+00 0.  1.
        -11    1    4    4    0    0  0.10601739099E-02 -0.28707204019E-01  0.19950784924E-01  0.34978886080E-01  0.51100000000E-03 0.  1.
         11    1    4    4    0    0  0.16911335666E-01 -0.55276614594E-01  0.74428903246E-01  0.94241286888E-01  0.51100000000E-03 0. -1.
</event>
<event>
 8    1  0.1123450E+005  0.1043930E+01  0.7957747E-01            NaN
         13   -1    0    0    0    0  0.00000000000E+00  0.00000000000E+00  0.74505805969E-08  0.10566000000E+00  0.10566000000E+00 0. -1.
     999900   -1    0    0    0    0 -0.00000000000E+00 -0.00000000000E+00 -0.74505805969E-08  0.93827000000E+00  0.93827000000E+00 0. -1.
     999902    2    1    2    0    0  0.12083624364E-01  0.17079847792E-01 -0.11385987013E-01  0.10201103468E+01  0.10198322135E+01 0.  0.
     999903    2    3    3    0    0 -0.27903389694E-02  0.95098658241E-01 -0.90669156916E-01  0.13298352915E+00  0.20302271234E-01 0.  0.
         14    1    1    2    0    0 -0.12083624364E-01 -0.17079847792E-01  0.11385987013E-01  0.23819653202E-01  0.00000000000E+00 0. -1.
     999901    1    3    3    0    0  0.14873963334E-01 -0.78018810449E-01  0.79283169903E-01  0.88712681765E+00  0.88000000000E+00 0.  1.
        -11    1    4    4    0    0  0.52497732118E-02  0.46544543165E-01 -0.33741811966E-01  0.57729763666E-01  0.51100000000E-03 0.  1.
         11    1    4    4    0    0 -0.80401121812E-02  0.48554115076E-01 -0.56927344950E-01  0.75253765479E-01  0.51100000000E-03 0. -1.
</event>
<event>
 8    1  0.1123450E+005  0.1043930E+01  0.7957747E-01            NaN
         13   -1    0    0    0    0  0.00000000000E+00  0.00000000000E+00  0.74505805969E-08  0.10566000000E+00  0.10566000000E+00 0. -1.
     999900   -1    0    0    0    0 -0.00000000000E+00 -0.00000000000E+00 -0.74505805969E-08  0.93827000000E+00  0.93827000000E+00 0.  1.
     999902    2    1    2    0    0  0.16521638167E-01 -0.16885680306E-01  0.84469629785E-03  0.10202909594E+01  0.10200170771E+01 0.  0.
     999903    2    3    3    0    0  0.10939792194E+00 -0.63537215064E-01 -0.32794961525E-01  0.13353620396E+00  0.27413960729E-01 0.  0.
         14    1    1    2    0    0 -0.16521638167E-01  0.16885680306E-01 -0.84469629785E-03  0.23639040568E-01  0.00000000000E+00 0. -1.
     999901    1    3    3    0    0 -0.92876283771E-01  0.46651534758E-01  0.33639657823E-01  0.88675475548E+00  0.88000000000E+00 0.  1.
        -11    1    4    4    0    0  0.58241926508E-01 -0.34223559566E-01 -0.33668077991E-02  0.67638528580E-01  0.51100000000E-03 0.  1.
         11    1    4    4    0    0  0.51155995431E-01 -0.29313655498E-01 -0.29428153726E-01  0.65897675375E-01  0.51100000000E-03 0. -1.
</event>
<event>
 8    1  0.1123450E+005  0.1043930E+01  0.7957747E-01            NaN
         13   -1    0    0    0    0  0.00000000000E+00  0.00000000000E+00  0.74505805969E-08  0.10566000000E+00  0.10566000000E+00 0.  1.
     999900   -1    0    0    0    0 -0.00000000000E+00 -0.00000000000E+00 -0.74505805969E-08  0.93827000000E+00  0.93827000000E+00 0.  1.
     999902    2    1    2    0    0  0.80617239359E-02  0.19740000988E-01  0.99566906023E-02  0.10203971566E+01  0.10201257581E+01 0.  0.
     999903    2    3    3    0    0  0.53038120046E-01  0.40199561160E-01  0.11334165445E+00  0.13296833095E+00  0.20129567939E-01 0.  0.
         14    1    1    2    0    0 -0.80617239359E-02 -0.19740000988E-01 -0.99566906023E-02  0.23532843423E-01  0.00000000000E+00 0. -1.
     999901    1    3    3    0    0 -0.44976396110E-01 -0.20459560172E-01 -0.10338496385E+00  0.88742882563E+00  0.88000000000E+00 0.  1.
        -11    1    4    4    0    0  0.22400692275E-01  0.19765187478E-01  0.32585594677E-01  0.44210131778E-01  0.51100000000E-03 0. -1.
         11    1    4    4    0    0  0.30637427771E-01  0.20434373683E-01  0.80756059775E-01  0.88758199169E-01  0.51100000000E-03 0.  1.
</event>
<event>
 8    1  0.1123450E+005  0.1043930E+01  0.7957747E-01            NaN
         13   -1    0    0    0    0  0.00000000000E+00  0.00000000000E+00  0.74505805969E-08  0.10566000000E+00  0.10566000000E+00 0. -1.
     999900   -1    0    0    0    0 -0.00000000000E+00 -0.00000000000E+00 -0.74505805969E-08  0.93827000000E+00  0.93827000000E+00 0. -1.
     999902    2    1    2    0    0  0.14728129287E-01 -0.77161597303E-02 -0.16998815600E-01  0.10201515088E+01  0.10198743473E+01 0.  0.
     999903    2    3    3    0    0  0.76010932299E-01 -0.54405422859E-01 -0.93244483226E-01  0.13350114303E+00  0.19758787234E-01 0.  0.
         14    1    1    2    0    0 -0.14728129287E-01  0.77161597303E-02  0.16998815600E-01  0.23778491228E-01  0.00000000000E+00 0. -1.
     999901    1    3    3    0    0 -0.61282803012E-01  0.46689263129E-01  0.76245667627E-01  0.88665036574E+00  0.88000000000E+00 0.  1.
        -11    1    4    4    0    0  0.37984508951E-01 -0.18261377592E-01 -0.32422004200E-01  0.53176576696E-01  0.51100000000E-03 0.  1.
         11    1    4    4    0    0  0.38026423348E-01 -0.36144045268E-01 -0.60822479026E-01  0.80324566335E-01  0.51100000000E-03 0. -1.
</event>
<event>
 8    1  0.1123450E+005  0.1043930E+01  0.7957747E-01            NaN
         13   -1    0    0    0    0  0.00000000000E+00  0.00000000000E+00  0.74505805969E-08  0.10566000000E+00  0.10566000000E+00 0. -1.
     999900   -1    0    0    0    0 -0.00000000000E+00 -0.00000000000E+00 -0.74505805969E-08  0.93827000000E+00  0.93827000000E+00 0. -1.
     999902    2    1    2    0    0  0.17435171415E-01 -0.14883172905E-01  0.56795686658E-02  0.10203132361E+01  0.10200398758E+01 0.  0.
     999903    2    3    3    0    0 -0.82554374872E-01 -0.94602219127E-01 -0.28974162798E-01  0.13039530907E+00  0.19965716718E-01 0.  0.
         14    1    1    2    0    0 -0.17435171415E-01  0.14883172905E-01 -0.56795686658E-02  0.23616763924E-01  0.00000000000E+00 0.  1.
     999901    1    3    3    0    0  0.99989546287E-01  0.79719046222E-01  0.34653731464E-01  0.88991792700E+00  0.88000000000E+00 0.  1.
        -11    1    4    4    0    0 -0.61862068903E-01 -0.56853939802E-01 -0.21106177178E-01  0.86631506255E-01  0.51100000000E-03 0.  1.
         11    1    4    4    0    0 -0.20692305968E-01 -0.37748279326E-01 -0.78679856200E-02  0.43763802818E-01  0.51100000000E-03 0. -1.
</event>
<event>
 8    1  0.1123450E+005  0.1043930E+01  0.7957747E-01            NaN
         13   -1    0    0    0    0  0.00000000000E+00  0.00000000000E+00  0.74505805969E-08  0.10566000000E+00  0.10566000000E+00 0.  1.
     999900   -1    0    0    0    0 -0.00000000000E+00 -0.00000000000E+00 -0.74505805969E-08  0.93827000000E+00  0.93827000000E+00 0.  1.
     999902    2    1    2    0    0 -0.52855281321E-03  0.19298214015E-01 -0.11944394746E-02  0.10245876341E+01  0.10244050434E+01 0.  0.
     999903    2    3    3    0    0  0.75387918861E-01 -0.96573567000E-01 -0.46462645044E-01  0.13260176498E+00  0.20363166204E-01 0.  0.
         14    1    1    2    0    0  0.52855281321E-03 -0.19298214015E-01  0.11944394746E-02  0.19342365882E-01  0.00000000000E+00 0.  1.
     999901    1    3    3    0    0 -0.75916471675E-01  0.11587178102E+00  0.45268205569E-01  0.89198586914E+00  0.88000000000E+00 0. -1.
        -11    1    4    4    0    0  0.48061403122E-01 -0.49669248731E-01 -0.33407918728E-01  0.76767720393E-01  0.51100000000E-03 0. -1.
         11    1    4    4    0    0  0.27326515739E-01 -0.46904318269E-01 -0.13054726315E-01  0.55834044586E-01  0.51100000000E-03 0.  1.
</event>
<event>
 8    1  0.1123450E+005  0.1043930E+01  0.7957747E-01            NaN
         13   -1    0    0    0    0  0.00000000000E+00  0.00000000000E+00  0.74505805969E-08  0.10566000000E+00  0.10566000000E+00 0.  1.
     999900   -1    0    0    0    0 -0.00000000000E+00 -0.00000000000E+00 -0.74505805969E-08  0.93827000000E+00  0.93827000000E+00 0. -1.
     999902    2    1    2    0    0  0.18708436836E-01  0.54150297912E-02 -0.13854584071E-01  0.10200285846E+01  0.10197485160E+01 0.  0.
     999903    2    3    3    0    0 -0.99471926466E-02  0.12798264992E+00 -0.14878830490E-01  0.13107132150E+00  0.21904483595E-01 0.  0.
         14    1    1    2    0    0 -0.18708436836E-01 -0.54150297912E-02  0.13854584071E-01  0.23901415361E-01  0.00000000000E+00 0. -1.
     999901    1    3    3    0    0  0.28655629482E-01 -0.12256762013E+00  0.10242464189E-02  0.88895726314E+00  0.88000000000E+00 0. -1.
        -11    1    4    4    0    0 -0.12489122698E-01  0.60155949436E-01 -0.14786240389E-01  0.63195019299E-01  0.51100000000E-03 0. -1.
         11    1    4    4    0    0  0.25419300519E-02  0.67826700483E-01 -0.92590100570E-04  0.67876302203E-01  0.51100000000E-03 0.  1.
</event>
<event>
 8    1  0.1123450E+005  0.1043930E+01  0.7957747E-01            NaN
         13   -1    0    0    0    0  0.00000000000E+00  0.00000000000E+00  0.74505805969E-08  0.10566000000E+00  0.10566000000E+00 0. -1.
     999900   -1    0    0    0    0 -0.00000000000E+00 -0.00000000000E+00 -0.74505805969E-08  0.93827000000E+00  0.93827000000E+00 0. -1.
     999902    2    1    2    0    0 -0.18052375743E-01  0.12673992268E-01 -0.54062952214E-02  0.10212199498E+01  0.10209674038E+01 0.  0.
     999903    2    3    3    0    0 -0.57307879307E-01 -0.13404559359E-01 -0.11733445463E+00  0.13287936297E+00  0.20631907756E-01 0.  0.
         14    1    1    2    0    0  0.18052375743E-01 -0.12673992268E-01  0.54062952214E-02  0.22710050154E-01  0.00000000000E+00 0. -1.
     999901    1    3    3    0    0  0.39255503564E-01  0.26078551627E-01  0.11192815941E+00  0.88834058687E+00  0.88000000000E+00 0.  1.
        -11    1    4    4    0    0 -0.29786172269E-01 -0.72541249478E-02 -0.82775090037E-01  0.88271258283E-01  0.51100000000E-03 0.  1.
         11    1    4    4    0    0 -0.27521707038E-01 -0.61504344107E-02 -0.34559364597E-01  0.44608104691E-01  0.51100000000E-03 0. -1.
</event>
<event>
 8    1  0.1123450E+005  0.1043930E+01  0.7957747E-01            NaN
         13   -1    0    0    0    0  0.00000000000E+00  0.00000000000E+00  0.74505805969E-08  0.10566000000E+00  0.10566000000E+00 0.  1.
     999900   -1    0    0    0    0 -0.00000000000E+00 -0.00000000000E+00 -0.74505805969E-08  0.93827000000E+00  0.93827000000E+00 0. -1.
     999902    2    1    2    0    0  0.14502594929E-01  0.17423125920E-01  0.27847332404E-02  0.10210904441E+01  0.10208349767E+01 0.  0.
     999903    2    3    3    0    0  0.11401111997E+00 -0.24878759397E-01 -0.59320822847E-01  0.13229997597E+00  0.19152949449E-01 0.  0.
         14    1    1    2    0    0 -0.14502594929E-01 -0.17423125920E-01 -0.27847332404E-02  0.22839555944E-01  0.00000000000E+00 0.  1.
     999901    1    3    3    0    0 -0.99508525044E-01  0.42301885317E-01  0.62105556087E-01  0.88879046808E+00  0.88000000000E+00 0. -1.
        -11    1    4    4    0    0  0.16933959781E-01  0.45994064851E-03 -0.29035565059E-02  0.17194833545E-01  0.51100000000E-03 0.  1.
         11    1    4    4    0    0  0.97077160192E-01 -0.25338700046E-01 -0.56417266341E-01  0.11510514243E+00  0.51100000000E-03 0. -1.
</event>
<event>
 8    1  0.1123450E+005  0.1043930E+01  0.7957747E-01            NaN
         13   -1    0    0    0    0  0.00000000000E+00  0.00000000000E+00  0.74505805969E-08  0.10566000000E+00  0.10566000000E+00 0. -1.
     999900   -1    0    0    0    0 -0.00000000000E+00 -0.00000000000E+00 -0.74505805969E-08  0.93827000000E+00  0.93827000000E+00 0. -1.
     999902    2    1    2    0    0 -0.12170957067E-01 -0.12080840529E-01 -0.14570810821E-01  0.10214269462E+01  0.10211790337E+01 0.  0.
     999903    2    3    3    0    0 -0.86042407228E-01  0.92232865096E-01 -0.33256058385E-01  0.13199596020E+00  0.20168560764E-01 0.  0.
         14    1    1    2    0    0  0.12170957067E-01  0.12080840529E-01  0.14570810821E-01  0.22503053833E-01  0.00000000000E+00 0. -1.
     999901    1    3    3    0    0  0.73871450161E-01 -0.10431370562E+00  0.18685247564E-01  0.88943098597E+00  0.88000000000E+00 0.  1.
        -11    1    4    4    0    0 -0.31935435134E-02  0.11140555615E-01 -0.52288679682E-02  0.12724499236E-01  0.51100000000E-03 0. -1.
         11    1    4    4    0    0 -0.82848863715E-01  0.81092309480E-01 -0.28027190417E-01  0.11927146096E+00  0.51100000000E-03 0.  1.
</event>
<event>
 8    1  0.1123450E+005  0.1043930E+01  0.7957747E-01            NaN
         13   -1    0    0    0    0  0.00000000000E+00  0.00000000000E+00  0.74505805969E-08  0.10566000000E+00  0.10566000000E+00 0.  1.
     999900   -1    0    0    0    0 -0.00000000000E+00 -0.00000000000E+00 -0.74505805969E-08  0.93827000000E+00  0.93827000000E+00 0.  1.
     999902    2    1    2    0    0  0.72777095276E-02  0.27147562996E-02  0.22942916769E-01  0.10197078534E+01  0.10194201263E+01 0.  0.
     999903    2    3    3    0    0 -0.32791702280E-01  0.55661104054E-01  0.11315563793E+00  0.13260740327E+00  0.24638806061E-01 0.  0.
         14    1    1    2    0    0 -0.72777095276E-02 -0.27147562996E-02 -0.22942916769E-01  0.24222146635E-01  0.00000000000E+00 0. -1.
     999901    1    3    3    0    0  0.40069411808E-01 -0.52946347754E-01 -0.90212721158E-01  0.88710045010E+00  0.88000000000E+00 0.  1.
        -11    1    4    4    0    0 -0.13725334090E-01  0.55349120661E-02  0.32922560696E-01  0.36099531455E-01  0.51100000000E-03 0. -1.
         11    1    4    4    0    0 -0.19066368190E-01  0.50126191988E-01  0.80233077231E-01  0.96507871814E-01  0.51100000000E-03 0.  1.
</event>
<event>
 8    1  0.1123450E+005  0.1043930E+01  0.7957747E-01            NaN
         13   -1    0    0    0    0  0.00000000000E+00  0.00000000000E+00  0.74505805969E-08  0.10566000000E+00  0.10566000000E+00 0.  1.
     999900   -1    0    0    0    0 -0.00000000000E+00 -0.00000000000E+00 -0.74505805969E-08  0.93827000000E+00  0.93827000000E+00 0. -1.
     999902    2    1    2    0    0 -0.13777870443E-01 -0.51257382636E-02  0.19728607504E-01  0.10193267307E+01  0.10190297655E+01 0.  0.
     999903    2    3    3    0    0 -0.95260764031E-01 -0.55118049416E-01  0.71263795319E-01  0.13265059551E+00  0.20125591412E-01 0.  0.
         14    1    1    2    0    0  0.13777870443E-01  0.51257382636E-02 -0.19728607504E-01  0.24603269310E-01  0.00000000000E+00 0. -1.
     999901    1    3    3    0    0  0.81482893589E-01  0.49992311153E-01 -0.51535187815E-01  0.88667613518E+00  0.88000000000E+00 0. -1.
        -11    1    4    4    0    0 -0.45048964382E-01 -0.15963245070E-01  0.36210805662E-01  0.59964305655E-01  0.51100000000E-03 0.  1.
         11    1    4    4    0    0 -0.50211799650E-01 -0.39154804346E-01  0.35052989657E-01  0.72686289851E-01  0.51100000000E-03 0. -1.
</event>
<event>
 8    1  0.1123450E+005  0.1043930E+01  0.7957747E-01            NaN
         13   -1    0    0    0    0  0.00000000000E+00  0.00000000000E+00  0.74505805969E-08  0.10566000000E+00  0.10566000000E+00 0. -1.
     999900   -1    0    0    0    0 -0.00000000000E+00 -0.00000000000E+00 -0.74505805969E-08  0.93827000000E+00  0.93827000000E+00 0. -1.
     999902    2    1    2    0    0 -0.20115109993E-01  0.78242083404E-02 -0.89671436755E-02  0.10205581034E+01  0.10202904473E+01 0.  0.
     999903    2    3    3    0    0 -0.51831790771E-01  0.11306366274E+00  0.40760436206E-01  0.13232720839E+00  0.19471788683E-01 0.  0.
         14    1    1    2    0    0  0.20115109993E-01 -0.78242083404E-02  0.89671436755E-02  0.23371896626E-01  0.00000000000E+00 0.  1.
     999901    1    3    3    0    0  0.31716680778E-01 -0.10523945440E+00 -0.49727579882E-01  0.88823089498E+00  0.88000000000E+00 0.  1.
        -11    1    4    4    0    0 -0.38828561313E-01  0.62483191273E-01  0.21250532222E-01  0.76574490570E-01  0.51100000000E-03 0. -1.
         11    1    4    4    0    0 -0.13003229458E-01  0.50580471465E-01  0.19509903984E-01  0.55752717821E-01  0.51100000000E-03 0.  1.
</event>
<event>
 8    1  0.1123450E+005  0.1043930E+01  0.7957747E-01            NaN
         13   -1    0    0    0    0  0.00000000000E+00  0.00000000000E+00  0.74505805969E-08  0.10566000000E+00  0.10566000000E+00 0. -1.
     999900   -1    0    0    0    0 -0.00000000000E+00 -0.00000000000E+00 -0.74505805969E-08  0.93827000000E+00  0.93827000000E+00 0.  1.
     999902    2    1    2    0    0 -0.93313850402E-02 -0.11051195439E-01  0.17019846784E-01  0.10215944039E+01  0.10213502080E+01 0.  0.
     999903    2    3    3    0    0  0.46193198712E-01 -0.11877369381E+00 -0.28534405663E-01  0.13212135432E+00  0.20020939379E-01 0.  0.
         14    1    1    2    0    0  0.93313850402E-02  0.11051195439E-01 -0.17019846784E-01  0.22335596073E-01  0.00000000000E+00 0.  1.
     999901    1    3    3    0    0 -0.55524583752E-01  0.10772249837E+00  0.45554252447E-01  0.88947304960E+00  0.88000000000E+00 0. -1.
        -11    1    4    4    0    0  0.36384538739E-01 -0.93697214014E-01 -0.13902662466E-01  0.10147190605E+00  0.51100000000E-03 0. -1.
         11    1    4    4    0    0  0.98086599733E-02 -0.25076479793E-01 -0.14631743197E-01  0.30649448270E-01  0.51100000000E-03 0.  1.
</event>
<event>
 8    1  0.1123450E+005  0.1043930E+01  0.7957747E-01            NaN
         13   -1    0    0    0    0  0.00000000000E+00  0.00000000000E+00  0.74505805969E-08  0.10566000000E+00  0.10566000000E+00 0. -1.
     999900   -1    0    0    0    0 -0.00000000000E+00 -0.00000000000E+00 -0.74505805969E-08  0.93827000000E+00  0.93827000000E+00 0.  1.
     999902    2    1    2    0    0 -0.18718954377E-02 -0.23561183818E-01  0.17498217951E-01  0.10145221608E+01  0.10140958504E+01 0.  0.
     999903    2    3    3    0    0 -0.73307635343E-01 -0.60060223756E-01  0.84425884163E-01  0.12834240625E+00  0.19047400049E-01 0.  0.
         14    1    1    2    0    0  0.18718954377E-02  0.23561183818E-01 -0.17498217951E-01  0.29407839208E-01  0.00000000000E+00 0.  1.
     999901    1    3    3    0    0  0.71435739905E-01  0.36499039938E-01 -0.66927666213E-01  0.88617975454E+00  0.88000000000E+00 0.  1.
        -11    1    4    4    0    0 -0.21054662164E-01 -0.14220269748E-01  0.12514403862E-01  0.28326423981E-01  0.51100000000E-03 0. -1.
         11    1    4    4    0    0 -0.52252973179E-01 -0.45839954009E-01  0.71911480301E-01  0.10001598227E+00  0.51100000000E-03 0.  1.
</event>
<event>
 8    1  0.1123450E+005  0.1043930E+01  0.7957747E-01            NaN
         13   -1    0    0    0    0  0.00000000000E+00  0.00000000000E+00  0.74505805969E-08  0.10566000000E+00  0.10566000000E+00 0.  1.
     999900   -1    0    0    0    0 -0.00000000000E+00 -0.00000000000E+00 -0.74505805969E-08  0.93827000000E+00  0.93827000000E+00 0.  1.
     999902    2    1    2    0    0 -0.19673746806E-01 -0.14765630839E-01 -0.41533844303E-02  0.10189834417E+01  0.10186780275E+01 0.  0.
     999903    2    3    3    0    0 -0.27171271520E-01  0.11604467729E-01 -0.12603675629E+00  0.13015997708E+00  0.13543043590E-01 0.  0.
         14    1    1    2    0    0  0.19673746806E-01  0.14765630839E-01  0.41533844303E-02  0.24946558273E-01  0.00000000000E+00 0.  1.
     999901    1    3    3    0    0  0.74975247138E-02 -0.26370098568E-01  0.12188337186E+00  0.88882346465E+00  0.88000000000E+00 0. -1.
        -11    1    4    4    0    0 -0.10758695691E-01  0.70406585754E-02 -0.30317133036E-01  0.32934937114E-01  0.51100000000E-03 0.  1.
         11    1    4    4    0    0 -0.16412575829E-01  0.45638091533E-02 -0.95719623252E-01  0.97225039964E-01  0.51100000000E-03 0. -1.
</event>
<event>
 8    1  0.1123450E+005  0.1043930E+01  0.7957747E-01            NaN
         13   -1    0    0    0    0  0.00000000000E+00  0.00000000000E+00  0.74505805969E-08  0.10566000000E+00  0.10566000000E+00 0.  1.
     999900   -1    0    0    0    0 -0.00000000000E+00 -0.00000000000E+00 -0.74505805969E-08  0.93827000000E+00  0.93827000000E+00 0.  1.
     999902    2    1    2    0    0 -0.16031639332E-01  0.16404738850E-01 -0.79280784235E-02  0.10196610210E+01  0.10193721667E+01 0.  0.
     999903    2    3    3    0    0 -0.12804258678E+00  0.23017554437E-01  0.13308318761E-01  0.13228220318E+00  0.19918787314E-01 0.  0.
         14    1    1    2    0    0  0.16031639332E-01 -0.16404738850E-01  0.79280784235E-02  0.24268979045E-01  0.00000000000E+00 0.  1.
     999901    1    3    3    0    0  0.11201094744E+00 -0.66128155869E-02 -0.21236397184E-01  0.88737881778E+00  0.88000000000E+00 0. -1.
        -11    1    4    4    0    0 -0.57959364670E-01  0.14627120867E-01  0.15164618693E-01  0.61672257936E-01  0.51100000000E-03 0.  1.
         11    1    4    4    0    0 -0.70083222107E-01  0.83904335699E-02 -0.18562999317E-02  0.70609945240E-01  0.51100000000E-03 0. -1.
</event>
<event>
 8    1  0.1123450E+005  0.1043930E+01  0.7957747E-01            NaN
         13   -1    0    0    0    0  0.00000000000E+00  0.00000000000E+00  0.74505805969E-08  0.10566000000E+00  0.10566000000E+00 0. -1.
     999900   -1    0    0    0    0 -0.00000000000E+00 -0.00000000000E+00 -0.74505805969E-08  0.93827000000E+00  0.93827000000E+00 0.  1.
     999902    2    1    2    0    0  0.12958592070E-02  0.20717312864E-01 -0.11146100387E-01  0.10203689759E+01  0.10200969195E+01 0.  0.
     999903    2    3    3    0    0 -0.38187125716E-01  0.25332047765E-02 -0.12480691959E+00  0.13199498386E+00  0.19525237242E-01 0.  0.
         14    1    1    2    0    0 -0.12958592070E-02 -0.20717312864E-01  0.11146100387E-01  0.23561024112E-01  0.00000000000E+00 0. -1.
     999901    1    3    3    0    0  0.39482984923E-01  0.18184108088E-01  0.11366081921E+00  0.88837399203E+00  0.88000000000E+00 0. -1.
        -11    1    4    4    0    0 -0.87875759992E-02  0.57124676039E-02 -0.57894268942E-01  0.58837583868E-01  0.51100000000E-03 0. -1.
         11    1    4    4    0    0 -0.29399549717E-01 -0.31792628274E-02 -0.66912650652E-01  0.73157399994E-01  0.51100000000E-03 0.  1.
</event>
<event>
 8    1  0.1123450E+005  0.1043930E+01  0.7957747E-01            NaN
         13   -1    0    0    0    0  0.00000000000E+00  0.00000000000E+00  0.74505805969E-08  0.10566000000E+00  0.10566000000E+00 0. -1.
     999900   -1    0    0    0    0 -0.00000000000E+00 -0.00000000000E+00 -0.74505805969E-08  0.93827000000E+00  0.93827000000E+00 0. -1.
     999902    2    1    2    0    0  0.42833515855E-02 -0.67956882747E-02 -0.17192122496E-01  0.10249537634E+01  0.10247780831E+01 0.  0.
     999903    2    3    3    0    0  0.44379214750E-01  0.10866684613E+00  0.59459390591E-01  0.13320563216E+00  0.20744231992E-01 0.  0.
         14    1    1    2    0    0 -0.42833515855E-02  0.67956882747E-02  0.17192122496E-01  0.18976236609E-01  0.00000000000E+00 0. -1.
     999901    1    3    3    0    0 -0.40095863165E-01 -0.11546253440E+00 -0.76651513088E-01  0.89174813123E+00  0.88000000000E+00 0. -1.
        -11    1    4    4    0    0  0.18339499568E-01  0.43029456383E-01  0.12559539822E-01  0.48434228832E-01  0.51100000000E-03 0. -1.
         11    1    4    4    0    0  0.26039715182E-01  0.65637389744E-01  0.46899850770E-01  0.84771403329E-01  0.51100000000E-03 0.  1.
</event>
<event>
 8    1  0.1123450E+005  0.1043930E+01  0.7957747E-01            NaN
         13   -1    0    0    0    0  0.00000000000E+00  0.00000000000E+00  0.74505805969E-08  0.10566000000E+00  0.10566000000E+00 0. -1.
     999900   -1    0    0    0    0 -0.00000000000E+00 -0.00000000000E+00 -0.74505805969E-08  0.93827000000E+00  0.93827000000E+00 0. -1.
     999902    2    1    2    0    0 -0.16106290972E-01 -0.13940495576E-01  0.93024033155E-02  0.10206859742E+01  0.10204212725E+01 0.  0.
     999903    2    3    3    0    0 -0.11439946506E-01 -0.11457802034E+00 -0.61296249901E-01  0.13212879770E+00  0.21018891703E-01 0.  0.
         14    1    1    2    0    0  0.16106290972E-01  0.13940495576E-01 -0.93024033155E-02  0.23244025753E-01  0.00000000000E+00 0. -1.
     999901    1    3    3    0    0 -0.46663444660E-02  0.10063752476E+00  0.70598653216E-01  0.88855717655E+00  0.88000000000E+00 0.  1.
        -11    1    4    4    0    0 -0.97838395448E-02 -0.69500581057E-01 -0.48238823439E-01  0.85166304906E-01  0.51100000000E-03 0.  1.
         11    1    4    4    0    0 -0.16561069608E-02 -0.45077439282E-01 -0.13057426462E-01  0.46962492792E-01  0.51100000000E-03 0. -1.
</event>
<event>
 7    1  0.1123450E+005  0.1043930E+01  0.7957747E-01            NaN
         13   -1    0    0    0    0  0.00000000000E+00  0.00000000000E+00  0.74505805969E-08  0.10566000000E+00  0.10566000000E+00 0.  1.
     999900   -1    0    0    0    0 -0.00000000000E+00 -0.00000000000E+00 -0.74505805969E-08  0.93827000000E+00  0.93827000000E+00 0.  1.
     999902    2    1    2    0    0 -0.24004616247E-01 -0.60032280384E-02 -0.44817944153E-02  0.10187834927E+01  0.10184731014E+01 0.  0.
         14    1    1    2    0    0  0.24004616247E-01  0.60032280384E-02  0.44817944153E-02  0.25146507297E-01  0.00000000000E+00 0.  1.
     999901    1    3    3    0    0 -0.11800320922E+00 -0.41089946953E-01 -0.81080379852E-01  0.89251732147E+00  0.88000000000E+00 0.  1.
        -11    1    3    3    0    0  0.37130972669E-01  0.15278743041E-01  0.31095527211E-01  0.50787223332E-01  0.51100000000E-03 0.  1.
         11    1    3    3    0    0  0.56867620304E-01  0.19807975874E-01  0.45503058226E-01  0.75478947901E-01  0.51100000000E-03 0. -1.
</event>
<event>
 8    1  0.1123450E+005  0.1043930E+01  0.7957747E-01            NaN
         13   -1    0    0    0    0  0.00000000000E+00  0.00000000000E+00  0.74505805969E-08  0.10566000000E+00  0.10566000000E+00 0. -1.
     999900   -1    0    0    0    0 -0.00000000000E+00 -0.00000000000E+00 -0.74505805969E-08  0.93827000000E+00  0.93827000000E+00 0. -1.
     999902    2    1    2    0    0 -0.14619358768E-01  0.15328647612E-01 -0.93923499254E-02  0.10207586961E+01  0.10204956670E+01 0.  0.
     999903    2    3    3    0    0 -0.56284236841E-01  0.89029131652E-01  0.77666849500E-01  0.13241921839E+00  0.20214061651E-01 0.  0.
         14    1    1    2    0    0  0.14619358768E-01 -0.15328647612E-01  0.93923499254E-02  0.23171303923E-01  0.00000000000E+00 0. -1.
     999901    1    3    3    0    0  0.41664878073E-01 -0.73700484040E-01 -0.87059199425E-01  0.88833947769E+00  0.88000000000E+00 0. -1.
        -11    1    4    4    0    0 -0.14040266713E-01  0.38505412713E-01  0.35438504313E-01  0.54184357581E-01  0.51100000000E-03 0. -1.
         11    1    4    4    0    0 -0.42243970127E-01  0.50523718938E-01  0.42228345187E-01  0.78234860809E-01  0.51100000000E-03 0.  1.
</event>
<event>
 8    1  0.1123450E+005  0.1043930E+01  0.7957747E-01            NaN
         13   -1    0    0    0    0  0.00000000000E+00  0.00000000000E+00  0.74505805969E-08  0.10566000000E+00  0.10566000000E+00 0. -1.
     999900   -1    0    0    0    0 -0.00000000000E+00 -0.00000000000E+00 -0.74505805969E-08  0.93827000000E+00  0.93827000000E+00 0.  1.
     999902    2    1    2    0    0  0.20825314666E-02 -0.18580468170E-01 -0.14323374717E-01  0.10203772974E+01  0.10201054354E+01 0.  0.
     999903    2    3    3    0    0  0.72312037514E-02 -0.11976209602E+00  0.51197262255E-01  0.13214467897E+00  0.21114131909E-01 0.  0.
         14    1    1    2    0    0 -0.20825314666E-02  0.18580468170E-01  0.14323374717E-01  0.23552702563E-01  0.00000000000E+00 0. -1.
     999901    1    3    3    0    0 -0.51486722847E-02  0.10118162785E+00 -0.65520636972E-01  0.88823261847E+00  0.88000000000E+00 0.  1.
        -11    1    4    4    0    0 -0.30617005692E-02 -0.63216409321E-01  0.35473460876E-01  0.72555606023E-01  0.51100000000E-03 0.  1.
         11    1    4    4    0    0  0.10292904321E-01 -0.56545686700E-01  0.15723801379E-01  0.59589072946E-01  0.51100000000E-03 0. -1.
</event>
<event>
 8    1  0.1123450E+005  0.1043930E+01  0.7957747E-01            NaN
         13   -1    0    0    0    0  0.00000000000E+00  0.00000000000E+00  0.74505805969E-08  0.10566000000E+00  0.10566000000E+00 0.  1.
     999900   -1    0    0    0    0 -0.00000000000E+00 -0.00000000000E+00 -0.74505805969E-08  0.93827000000E+00  0.93827000000E+00 0. -1.
     999902    2    1    2    0    0 -0.68289228599E-02  0.15834602498E-01  0.16259274503E-01  0.10202290964E+01  0.10199537619E+01 0.  0.
     999903    2    3    3    0    0  0.42225271258E-02  0.56377222012E-01  0.11933895838E+00  0.13321654871E+00  0.17568180492E-01 0.  0.
         14    1    1    2    0    0  0.68289228599E-02 -0.15834602498E-01 -0.16259274503E-01  0.23700903592E-01  0.00000000000E+00 0. -1.
     999901    1    3    3    0    0 -0.11051449986E-01 -0.40542619513E-01 -0.10307968388E+00  0.88701254770E+00  0.88000000000E+00 0. -1.
        -11    1    4    4    0    0  0.49839226083E-02  0.27219742495E-01  0.39636487710E-01  0.48343211985E-01  0.51100000000E-03 0. -1.
         11    1    4    4    0    0 -0.76139548243E-03  0.29157479517E-01  0.79702470672E-01  0.84873336726E-01  0.51100000000E-03 0.  1.
</event>
<event>
 8    1  0.1123450E+005  0.1043930E+01  0.7957747E-01            NaN
         13   -1    0    0    0    0  0.00000000000E+00  0.00000000000E+00  0.74505805969E-08  0.10566000000E+00  0.10566000000E+00 0. -1.
     999900   -1    0    0    0    0 -0.00000000000E+00 -0.00000000000E+00 -0.74505805969E-08  0.93827000000E+00  0.93827000000E+00 0.  1.
     999902    2    1    2    0    0  0.46109798967E-03 -0.23197129158E-01 -0.40675482929E-02  0.10203744410E+01  0.10201025122E+01 0.  0.
     999903    2    3    3    0    0 -0.58328628150E-01 -0.56226541348E-01  0.10162427661E+00  0.13148865762E+00  0.19952961524E-01 0.  0.
         14    1    1    2    0    0 -0.46109798967E-03  0.23197129158E-01  0.40675482929E-02  0.23555559039E-01  0.00000000000E+00 0. -1.
     999901    1    3    3    0    0  0.58789726140E-01  0.33029412190E-01 -0.10569182490E+00  0.88888578334E+00  0.88000000000E+00 0.  1.
        -11    1    4    4    0    0 -0.51048999556E-01 -0.51118139392E-01  0.78381202149E-01  0.10659708487E+00  0.51100000000E-03 0.  1.
         11    1    4    4    0    0 -0.72796285937E-02 -0.51084019558E-02  0.23243074460E-01  0.24891572758E-01  0.51100000000E-03 0. -1.
</event>
<event>
 8    1  0.1123450E+005  0.1043930E+01  0.7957747E-01            NaN
         13   -1    0    0    0    0  0.00000000000E+00  0.00000000000E+00  0.74505805969E-08  0.10566000000E+00  0.10566000000E+00 0. -1.
     999900   -1    0    0    0    0 -0.00000000000E+00 -0.00000000000E+00 -0.74505805969E-08  0.93827000000E+00  0.93827000000E+00 0.  1.
     999902    2    1    2    0    0 -0.15227312460E-01  0.44984179063E-02  0.11601615673E-03  0.10280517045E+01  0.10279290768E+01 0.  0.
     999903    2    3    3    0    0  0.10398785145E+00  0.85862360044E-01 -0.58959466540E-02  0.13627343044E+00  0.18704746323E-01 0.  0.
         14    1    1    2    0    0  0.15227312460E-01 -0.44984179063E-02 -0.11601615673E-03  0.15878295506E-01  0.00000000000E+00 0. -1.
     999901    1    3    3    0    0 -0.11921516391E+00 -0.81363942138E-01  0.60119628108E-02  0.89177827406E+00  0.88000000000E+00 0. -1.
        -11    1    4    4    0    0  0.26384615100E-01  0.28595726902E-01  0.49219465855E-02  0.39221807584E-01  0.51100000000E-03 0.  1.
         11    1    4    4    0    0  0.77603236347E-01  0.57266633143E-01 -0.10817893240E-01  0.97051622852E-01  0.51100000000E-03 0. -1.
</event>
<event>
 8    1  0.1123450E+005  0.1043930E+01  0.7957747E-01            NaN
         13   -1    0    0    0    0  0.00000000000E+00  0.00000000000E+00  0.74505805969E-08  0.10566000000E+00  0.10566000000E+00 0.  1.
     999900   -1    0    0    0    0 -0.00000000000E+00 -0.00000000000E+00 -0.74505805969E-08  0.93827000000E+00  0.93827000000E+00 0. -1.
     999902    2    1    2    0    0  0.20908130568E-01 -0.47230041734E-02 -0.14517048992E-01  0.10180417516E+01  0.10177125364E+01 0.  0.
     999903    2    3    3    0    0 -0.39135362363E-01  0.10531919075E+00  0.54784358810E-01  0.12646046491E+00  0.19162846537E-01 0.  0.
         14    1    1    2    0    0 -0.20908130568E-01  0.47230041734E-02  0.14517048992E-01  0.25888248370E-01  0.00000000000E+00 0. -1.
     999901    1    3    3    0    0  0.60043492931E-01 -0.11004219492E+00 -0.69301407802E-01  0.89158128672E+00  0.88000000000E+00 0. -1.
        -11    1    4    4    0    0 -0.20113602527E-01  0.47685188714E-01  0.14987275493E-01  0.53882406934E-01  0.51100000000E-03 0. -1.
         11    1    4    4    0    0 -0.19021759836E-01  0.57634002035E-01  0.39797083317E-01  0.72578057975E-01  0.51100000000E-03 0.  1.
</event>
<event>
 8    1  0.1123450E+005  0.1043930E+01  0.7957747E-01            NaN
         13   -1    0    0    0    0  0.00000000000E+00  0.00000000000E+00  0.74505805969E-08  0.10566000000E+00  0.10566000000E+00 0.  1.
     999900   -1    0    0    0    0 -0.00000000000E+00 -0.00000000000E+00 -0.74505805969E-08  0.93827000000E+00  0.93827000000E+00 0.  1.
     999902    2    1    2    0    0 -0.21291496242E-01 -0.91873260230E-02 -0.15922688500E-03  0.10207403444E+01  0.10204768937E+01 0.  0.
     999903    2    3    3    0    0  0.73850194162E-01  0.54106662717E-01  0.88572728309E-01  0.12892678201E+00  0.19889816276E-01 0.  0.
         14    1    1    2    0    0  0.21291496242E-01  0.91873260230E-02  0.15922688500E-03  0.23189655558E-01  0.00000000000E+00 0.  1.
     999901    1    3    3    0    0 -0.95141690404E-01 -0.63293988740E-01 -0.88731955194E-01  0.89181356243E+00  0.88000000000E+00 0.  1.
        -11    1    4    4    0    0  0.45764449519E-01  0.22990429510E-01  0.41725901319E-01  0.66062520772E-01  0.51100000000E-03 0. -1.
         11    1    4    4    0    0  0.28085744643E-01  0.31116233207E-01  0.46846826990E-01  0.62864261239E-01  0.51100000000E-03 0.  1.
</event>
<event>
 8    1  0.1123450E+005  0.1043930E+01  0.7957747E-01            NaN
         13   -1    0    0    0    0  0.00000000000E+00  0.00000000000E+00  0.74505805969E-08  0.10566000000E+00  0.10566000000E+00 0.  1.
     999900   -1    0    0    0    0 -0.00000000000E+00 -0.00000000000E+00 -0.74505805969E-08  0.93827000000E+00  0.93827000000E+00 0.  1.
     999902    2    1    2    0    0  0.30639846426E-02  0.66667202754E-02  0.24088461542E-01  0.10187489130E+01  0.10184376567E+01 0.  0.
     999903    2    3    3    0    0  0.87210867714E-01 -0.90385866710E-01  0.23545589549E-01  0.12942321495E+00  0.20509349875E-01 0.  0.
         14    1    1    2    0    0 -0.30639846426E-02 -0.66667202754E-02 -0.24088461542E-01  0.25181086962E-01  0.00000000000E+00 0. -1.
     999901    1    3    3    0    0 -0.84146883071E-01  0.97052586985E-01  0.54287199301E-03  0.88932569809E+00  0.88000000000E+00 0.  1.
        -11    1    4    4    0    0  0.19795354185E-01 -0.34082798007E-01  0.80366644878E-02  0.40228624938E-01  0.51100000000E-03 0. -1.
         11    1    4    4    0    0  0.67415513529E-01 -0.56303068703E-01  0.15508925061E-01  0.89194590011E-01  0.51100000000E-03 0.  1.
</event>
<event>
 8    1  0.1123450E+005  0.1043930E+01  0.7957747E-01            NaN
         13   -1    0    0    0    0  0.00000000000E+00  0.00000000000E+00  0.74505805969E-08  0.10566000000E+00  0.10566000000E+00 0. -1.
     999900   -1    0    0    0    0 -0.00000000000E+00 -0.00000000000E+00 -0.74505805969E-08  0.93827000000E+00  0.93827000000E+00 0.  1.
     999902    2    1    2    0    0 -0.69969606530E-02 -0.37873782388E-02  0.22276489740E-01  0.10202753242E+01  0.10200010752E+01 0.  0.
     999903    2    3    3    0    0  0.54670654131E-01  0.79203487815E-01  0.87656881240E-01  0.13181318423E+00  0.20710234244E-01 0.  0.
         14    1    1    2    0    0  0.69969606530E-02  0.37873782388E-02 -0.22276489740E-01  0.23654675805E-01  0.00000000000E+00 0.  1.
     999901    1    3    3    0    0 -0.61667614784E-01 -0.82990866054E-01 -0.65380391500E-01  0.88846213997E+00  0.88000000000E+00 0.  1.
        -11    1    4    4    0    0  0.28387925650E-01  0.32513877718E-01  0.51382535112E-01  0.67107768571E-01  0.51100000000E-03 0.  1.
         11    1    4    4    0    0  0.26282728481E-01  0.46689610097E-01  0.36274346128E-01  0.64705415657E-01  0.51100000000E-03 0. -1.
</event>
<event>
 8    1  0.1123450E+005  0.1043930E+01  0.7957747E-01            NaN
         13   -1    0    0    0    0  0.00000000000E+00  0.00000000000E+00  0.74505805969E-08  0.10566000000E+00  0.10566000000E+00 0. -1.
     999900   -1    0    0    0    0 -0.00000000000E+00 -0.00000000000E+00 -0.74505805969E-08  0.93827000000E+00  0.93827000000E+00 0. -1.
     999902    2    1    2    0    0  0.10223159545E-01  0.21377114973E-01  0.21391724179E-02  0.10201377724E+01  0.10198602868E+01 0.  0.
     999903    2    3    3    0    0  0.42386685217E-01 -0.11835080993E+00 -0.16962238606E-01  0.12832879662E+00  0.19416930927E-01 0.  0.
         14    1    1    2    0    0 -0.10223159545E-01 -0.21377114973E-01 -0.21391724179E-02  0.23792227602E-01  0.00000000000E+00 0. -1.
     999901    1    3    3    0    0 -0.32163525672E-01  0.13972792491E+00  0.19101411023E-01  0.89180897578E+00  0.88000000000E+00 0.  1.
        -11    1    4    4    0    0  0.37782845549E-01 -0.79676758485E-01 -0.13719635427E-01  0.89243592362E-01  0.51100000000E-03 0.  1.
         11    1    4    4    0    0  0.46038396679E-02 -0.38674051449E-01 -0.32426031784E-02  0.39085204254E-01  0.51100000000E-03 0. -1.
</event>
<event>
 8    1  0.1123450E+005  0.1043930E+01  0.7957747E-01            NaN
         13   -1    0    0    0    0  0.00000000000E+00  0.00000000000E+00  0.74505805969E-08  0.10566000000E+00  0.10566000000E+00 0. -1.
     999900   -1    0    0    0    0 -0.00000000000E+00 -0.00000000000E+00 -0.74505805969E-08  0.93827000000E+00  0.93827000000E+00 0. -1.
     999902    2    1    2    0    0  0.17818617525E-01 -0.11456859573E-01 -0.99449475433E-02  0.10205277620E+01  0.10202594024E+01 0.  0.
     999903    2    3    3    0    0  0.19599362608E-01  0.57561256236E-01 -0.11492398733E+00  0.13160297882E+00  0.20356520699E-01 0.  0.
         14    1    1    2    0    0 -0.17818617525E-01  0.11456859573E-01  0.99449475433E-02  0.23402238000E-01  0.00000000000E+00 0. -1.
     999901    1    3    3    0    0 -0.17807450836E-02 -0.69018115809E-01  0.10497903979E+00  0.88892478318E+00  0.88000000000E+00 0.  1.
        -11    1    4    4    0    0  0.49642689636E-02  0.35033824239E-01 -0.49249627695E-01  0.60644865868E-01  0.51100000000E-03 0.  1.
         11    1    4    4    0    0  0.14635093645E-01  0.22527431997E-01 -0.65674359637E-01  0.70958112948E-01  0.51100000000E-03 0. -1.
</event>
<event>
 8    1  0.1123450E+005  0.1043930E+01  0.7957747E-01            NaN
         13   -1    0    0    0    0  0.00000000000E+00  0.00000000000E+00  0.74505805969E-08  0.10566000000E+00  0.10566000000E+00 0.  1.
     999900   -1    0    0    0    0 -0.00000000000E+00 -0.00000000000E+00 -0.74505805969E-08  0.93827000000E+00  0.93827000000E+00 0. -1.
     999902    2    1    2    0    0  0.43441477266E-02  0.23969677997E-02 -0.26623422858E-01  0.10168482032E+01  0.10164875034E+01 0.  0.
     999903    2    3    3    0    0 -0.37176692504E-01 -0.87279561896E-01 -0.85545932122E-01  0.12935864141E+00  0.20389291698E-01 0.  0.
         14    1    1    2    0    0 -0.43441477266E-02 -0.23969677997E-02  0.26623422858E-01  0.27081796816E-01  0.00000000000E+00 0.  1.
     999901    1    3    3    0    0  0.41520840231E-01  0.89676529695E-01  0.58922509264E-01  0.88748956177E+00  0.88000000000E+00 0.  1.
        -11    1    4    4    0    0 -0.38513217870E-01 -0.78369515705E-01 -0.72506830033E-01  0.11350132363E+00  0.51100000000E-03 0.  1.
         11    1    4    4    0    0  0.13365253655E-02 -0.89100461904E-02 -0.13039102088E-01  0.15857317788E-01  0.51100000000E-03 0. -1.
</event>
<event>
 8    1  0.1123450E+005  0.1043930E+01  0.7957747E-01            NaN
         13   -1    0    0    0    0  0.00000000000E+00  0.00000000000E+00  0.74505805969E-08  0.10566000000E+00  0.10566000000E+00 0. -1.
     999900   -1    0    0    0    0 -0.00000000000E+00 -0.00000000000E+00 -0.74505805969E-08  0.93827000000E+00  0.93827000000E+00 0.  1.
     999902    2    1    2    0    0 -0.62745510166E-02  0.14281523309E-02  0.23219463232E-01  0.10198353308E+01  0.10195506603E+01 0.  0.
     999903    2    3    3    0    0  0.10650671583E+00  0.56436318201E-01 -0.40205843214E-01  0.12867413219E+00  0.20292460107E-01 0.  0.
         14    1    1    2    0    0  0.62745510166E-02 -0.14281523309E-02 -0.23219463232E-01  0.24094669168E-01  0.00000000000E+00 0.  1.
     999901    1    3    3    0    0 -0.11278126685E+00 -0.55008165870E-01  0.63425306445E-01  0.89116119864E+00  0.88000000000E+00 0. -1.
        -11    1    4    4    0    0  0.40130537575E-01  0.17178469307E-01 -0.24192106972E-01  0.49910710419E-01  0.51100000000E-03 0. -1.
         11    1    4    4    0    0  0.66376178258E-01  0.39257848894E-01 -0.16013736241E-01  0.78763421773E-01  0.51100000000E-03 0.  1.
</event>
<event>
 8    1  0.1123450E+005  0.1043930E+01  0.7957747E-01            NaN
         13   -1    0    0    0    0  0.00000000000E+00  0.00000000000E+00  0.74505805969E-08  0.10566000000E+00  0.10566000000E+00 0.  1.
     999900   -1    0    0    0    0 -0.00000000000E+00 -0.00000000000E+00 -0.74505805969E-08  0.93827000000E+00  0.93827000000E+00 0. -1.
     999902    2    1    2    0    0 -0.13528667451E-01 -0.63152813150E-02  0.17762200638E-01  0.10207264789E+01  0.10204627094E+01 0.  0.
     999903    2    3    3    0    0  0.63257061026E-02  0.80924026350E-01  0.10236333371E+00  0.13215332788E+00  0.19938339513E-01 0.  0.
         14    1    1    2    0    0  0.13528667451E-01  0.63152813150E-02 -0.17762200638E-01  0.23203521125E-01  0.00000000000E+00 0.  1.
     999901    1    3    3    0    0 -0.19854373553E-01 -0.87239307665E-01 -0.84601133075E-01  0.88857315099E+00  0.88000000000E+00 0. -1.
        -11    1    4    4    0    0  0.60187889250E-02  0.57730924059E-02  0.86340705286E-02  0.12015103451E-01  0.51100000000E-03 0. -1.
         11    1    4    4    0    0  0.30691717751E-03  0.75150933944E-01  0.93729263185E-01  0.12013822443E+00  0.51100000000E-03 0.  1.
</event>
<event>
 8    1  0.1123450E+005  0.1043930E+01  0.7957747E-01            NaN
         13   -1    0    0    0    0  0.00000000000E+00  0.00000000000E+00  0.74505805969E-08  0.10566000000E+00  0.10566000000E+00 0. -1.
     999900   -1    0    0    0    0 -0.00000000000E+00 -0.00000000000E+00 -0.74505805969E-08  0.93827000000E+00  0.93827000000E+00 0.  1.
     999902    2    1    2    0    0  0.20665088700E-01 -0.59805765147E-02 -0.73958067067E-02  0.10211811287E+01  0.10209277088E+01 0.  0.
     999903    2    3    3    0    0 -0.83238623790E-01 -0.82481967710E-01 -0.54284545090E-01  0.13053698089E+00  0.19003895829E-01 0.  0.
         14    1    1    2    0    0 -0.20665088700E-01  0.59805765147E-02  0.73958067067E-02  0.22748871252E-01  0.00000000000E+00 0. -1.
     999901    1    3    3    0    0  0.10390371249E+00  0.76501391195E-01  0.46888738383E-01  0.89064414786E+00  0.88000000000E+00 0.  1.
        -11    1    4    4    0    0 -0.30755949230E-01 -0.21851867688E-01 -0.24522672058E-01  0.45000612222E-01  0.51100000000E-03 0.  1.
         11    1    4    4    0    0 -0.52482674561E-01 -0.60630100022E-01 -0.29761873032E-01  0.85536368669E-01  0.51100000000E-03 0. -1.
</event>
<event>
 8    1  0.1123450E+005  0.1043930E+01  0.7957747E-01            NaN
         13   -1    0    0    0    0  0.00000000000E+00  0.00000000000E+00  0.74505805969E-08  0.10566000000E+00  0.10566000000E+00 0.  1.
     999900   -1    0    0    0    0 -0.00000000000E+00 -0.00000000000E+00 -0.74505805969E-08  0.93827000000E+00  0.93827000000E+00 0. -1.
     999902    2    1    2    0    0 -0.11908619735E-02  0.13758347188E-01  0.19260026918E-01  0.10202306560E+01  0.10199553581E+01 0.  0.
     999903    2    3    3    0    0  0.20374415121E-01  0.87934363739E-01  0.96157976336E-01  0.13350610054E+00  0.20735316531E-01 0.  0.
         14    1    1    2    0    0  0.11908619735E-02 -0.13758347188E-01 -0.19260026918E-01  0.23699344010E-01  0.00000000000E+00 0. -1.
     999901    1    3    3    0    0 -0.21565277095E-01 -0.74176016551E-01 -0.76897949417E-01  0.88672455545E+00  0.88000000000E+00 0. -1.
        -11    1    4    4    0    0  0.97562203118E-02  0.21267622207E-01  0.14403136894E-01  0.27481030957E-01  0.51100000000E-03 0.  1.
         11    1    4    4    0    0  0.10618194809E-01  0.66666741532E-01  0.81754839442E-01  0.10602506959E+00  0.51100000000E-03 0. -1.
</event>
<event>
 8    1  0.1123450E+005  0.1043930E+01  0.7957747E-01            NaN
         13   -1    0    0    0    0  0.00000000000E+00  0.00000000000E+00  0.74505805969E-08  0.10566000000E+00  0.10566000000E+00 0. -1.
     999900   -1    0    0    0    0 -0.00000000000E+00 -0.00000000000E+00 -0.74505805969E-08  0.93827000000E+00  0.93827000000E+00 0.  1.
     999902    2    1    2    0    0  0.66024355217E-02  0.22380982576E-01  0.51488713896E-02  0.10200341549E+01  0.10197542183E+01 0.  0.
     999903    2    3    3    0    0 -0.26182708221E-02 -0.44340695918E-01  0.12063388085E+00  0.12993663710E+00  0.18922045205E-01 0.  0.
         14    1    1    2    0    0 -0.66024355217E-02 -0.22380982576E-01 -0.51488713896E-02  0.23895845088E-01  0.00000000000E+00 0.  1.
     999901    1    3    3    0    0  0.92207063437E-02  0.66721678493E-01 -0.11548500946E+00  0.89009751781E+00  0.88000000000E+00 0.  1.
        -11    1    4    4    0    0 -0.65632912179E-02 -0.22022067655E-01  0.81818916802E-01  0.84986143123E-01  0.51100000000E-03 0. -1.
         11    1    4    4    0    0  0.39450203958E-02 -0.22318628263E-01  0.38814964050E-01  0.44950493976E-01  0.51100000000E-03 0.  1.
</event>
<event>
 8    1  0.1123450E+005  0.1043930E+01  0.7957747E-01            NaN
         13   -1    0    0    0    0  0.00000000000E+00  0.00000000000E+00  0.74505805969E-08  0.10566000000E+00  0.10566000000E+00 0. -1.
     999900   -1    0    0    0    0 -0.00000000000E+00 -0.00000000000E+00 -0.74505805969E-08  0.93827000000E+00  0.93827000000E+00 0. -1.
     999902    2    1    2    0    0  0.77763048318E-02  0.19219654158E-01  0.87774839893E-02  0.10214153326E+01  0.10211671614E+01 0.  0.
     999903    2    3    3    0    0  0.11110619494E+00  0.69569687326E-01  0.18257399669E-01  0.13388952406E+00  0.20212472910E-01 0.  0.
         14    1    1    2    0    0 -0.77763048318E-02 -0.19219654158E-01 -0.87774839893E-02  0.22514667396E-01  0.00000000000E+00 0.  1.
     999901    1    3    3    0    0 -0.10332989011E+00 -0.50350033168E-01 -0.94799156795E-02  0.88752580854E+00  0.88000000000E+00 0. -1.
        -11    1    4    4    0    0  0.19510885344E-01  0.20534562107E-01 -0.39147355504E-03  0.28332971260E-01  0.51100000000E-03 0. -1.
         11    1    4    4    0    0  0.91595309597E-01  0.49035125219E-01  0.18648873224E-01  0.10555655280E+00  0.51100000000E-03 0.  1.
</event>
<event>
 8    1  0.1123450E+005  0.1043930E+01  0.7957747E-01            NaN
         13   -1    0    0    0    0  0.00000000000E+00  0.00000000000E+00  0.74505805969E-08  0.10566000000E+00  0.10566000000E+00 0. -1.
     999900   -1    0    0    0    0 -0.00000000000E+00 -0.00000000000E+00 -0.74505805969E-08  0.93827000000E+00  0.93827000000E+00 0. -1.
     999902    2    1    2    0    0  0.14094615281E-01 -0.32182347907E-01  0.19775467305E-02  0.10087409053E+01  0.10081269472E+01 0.  0.
     999903    2    3    3    0    0  0.40343745695E-02  0.11180260585E+00  0.26540877259E-01  0.11664436758E+00  0.19631389931E-01 0.  0.
         14    1    1    2    0    0 -0.14094615281E-01  0.32182347907E-01 -0.19775467305E-02  0.35189094728E-01  0.00000000000E+00 0. -1.
     999901    1    3    3    0    0  0.10060240711E-01 -0.14398495375E+00 -0.24563330529E-01  0.89209653769E+00  0.88000000000E+00 0. -1.
        -11    1    4    4    0    0 -0.45001173991E-02  0.67456339418E-01  0.90433314889E-02  0.68210349286E-01  0.51100000000E-03 0. -1.
         11    1    4    4    0    0  0.85344919686E-02  0.44346266429E-01  0.17497545771E-01  0.48434018297E-01  0.51100000000E-03 0.  1.
</event>
<event>
 8    1  0.1123450E+005  0.1043930E+01  0.7957747E-01            NaN
         13   -1    0    0    0    0  0.00000000000E+00  0.00000000000E+00  0.74505805969E-08  0.10566000000E+00  0.10566000000E+00 0. -1.
     999900   -1    0    0    0    0 -0.00000000000E+00 -0.00000000000E+00 -0.74505805969E-08  0.93827000000E+00  0.93827000000E+00 0. -1.
     999902    2    1    2    0    0  0.16518144055E-01 -0.20439153452E-01  0.14107665110E-02  0.10176127369E+01  0.10172723745E+01 0.  0.
     999903    2    3    3    0    0 -0.90671462053E-01 -0.26876625482E-01 -0.82918588397E-01  0.12708340394E+00  0.18194291037E-01 0.  0.
         14    1    1    2    0    0 -0.16518144055E-01  0.20439153452E-01 -0.14107665110E-02  0.26317263137E-01  0.00000000000E+00 0. -1.
     999901    1    3    3    0    0  0.10718960611E+00  0.64374720306E-02  0.84329354908E-01  0.89052933293E+00  0.88000000000E+00 0.  1.
        -11    1    4    4    0    0 -0.72037572639E-01 -0.28016472662E-01 -0.70802749146E-01  0.10482187281E+00  0.51100000000E-03 0.  1.
         11    1    4    4    0    0 -0.18633889414E-01  0.11398471799E-02 -0.12115839251E-01  0.22261531125E-01  0.51100000000E-03 0. -1.
</event>
<event>
 8    1  0.1123450E+005  0.1043930E+01  0.7957747E-01            NaN
         13   -1    0    0    0    0  0.00000000000E+00  0.00000000000E+00  0.74505805969E-08  0.10566000000E+00  0.10566000000E+00 0. -1.
     999900   -1    0    0    0    0 -0.00000000000E+00 -0.00000000000E+00 -0.74505805969E-08  0.93827000000E+00  0.93827000000E+00 0.  1.
     999902    2    1    2    0    0 -0.20996618152E-02  0.23235824444E-01 -0.33733253952E-03  0.10205970638E+01  0.10203303096E+01 0.  0.
     999903    2    3    3    0    0  0.89271097859E-01 -0.45739581792E-01 -0.79589375430E-01  0.12964975411E+00  0.20326135971E-01 0.  0.
         14    1    1    2    0    0  0.20996618152E-02 -0.23235824444E-01  0.33733253952E-03  0.23332936176E-01  0.00000000000E+00 0.  1.
     999901    1    3    3    0    0 -0.91370759674E-01  0.68975406236E-01  0.79252042890E-01  0.89094730972E+00  0.88000000000E+00 0. -1.
        -11    1    4    4    0    0  0.39215359181E-01 -0.25549867476E-01 -0.48303761210E-01  0.67261836072E-01  0.51100000000E-03 0.  1.
         11    1    4    4    0    0  0.50055738678E-01 -0.20189714316E-01 -0.31285614220E-01  0.62387918036E-01  0.51100000000E-03 0. -1.
</event>
<event>
 8    1  0.1123450E+005  0.1043930E+01  0.7957747E-01            NaN
         13   -1    0    0    0    0  0.00000000000E+00  0.00000000000E+00  0.74505805969E-08  0.10566000000E+00  0.10566000000E+00 0.  1.
     999900   -1    0    0    0    0 -0.00000000000E+00 -0.00000000000E+00 -0.74505805969E-08  0.93827000000E+00  0.93827000000E+00 0.  1.
     999902    2    1    2    0    0  0.18771142771E-01  0.50596913319E-02 -0.14570724769E-01  0.10196346857E+01  0.10193451967E+01 0.  0.
     999903    2    3    3    0    0  0.87695555747E-01  0.14227264547E-01  0.93344949981E-01  0.13032011144E+00  0.19419737529E-01 0.  0.
         14    1    1    2    0    0 -0.18771142771E-01 -0.50596913319E-02  0.14570724769E-01  0.24295314314E-01  0.00000000000E+00 0.  1.
     999901    1    3    3    0    0 -0.68924412975E-01 -0.91675732153E-02 -0.10791567475E+00  0.88931457424E+00  0.88000000000E+00 0.  1.
        -11    1    4    4    0    0  0.28889723780E-01  0.13251392462E-01  0.27511471544E-01  0.42039953970E-01  0.51100000000E-03 0. -1.
         11    1    4    4    0    0  0.58805831967E-01  0.97587208541E-03  0.65833478436E-01  0.88280157475E-01  0.51100000000E-03 0.  1.
</event>
<event>
 8    1  0.1123450E+005  0.1043930E+01  0.7957747E-01            NaN
         13   -1    0    0    0    0  0.00000000000E+00  0.00000000000E+00  0.74505805969E-08  0.10566000000E+00  0.10566000000E+00 0. -1.
     999900   -1    0    0    0    0 -0.00000000000E+00 -0.00000000000E+00 -0.74505805969E-08  0.93827000000E+00  0.93827000000E+00 0.  1.
     999902    2    1    2    0    0  0.15731976702E-01  0.22169109965E-01 -0.30274302845E-02  0.10165780373E+01  0.10162100059E+01 0.  0.
     999903    2    3    3    0    0  0.79032604500E-01  0.77789880596E-01 -0.65614669947E-01  0.13034003196E+00  0.19642324740E-01 0.  0.
         14    1    1    2    0    0 -0.15731976702E-01 -0.22169109965E-01  0.30274302845E-02  0.27351962666E-01  0.00000000000E+00 0.  1.
     999901    1    3    3    0    0 -0.63300627798E-01 -0.55620770631E-01  0.62587239662E-01  0.88623800538E+00  0.88000000000E+00 0.  1.
        -11    1    4    4    0    0  0.38997996382E-01  0.25913420282E-01 -0.31772613194E-01  0.56587181788E-01  0.51100000000E-03 0. -1.
         11    1    4    4    0    0  0.40034608118E-01  0.51876460313E-01 -0.33842056753E-01  0.73752850169E-01  0.51100000000E-03 0.  1.
</event>
<event>
 8    1  0.1123450E+005  0.1043930E+01  0.7957747E-01            NaN
         13   -1    0    0    0    0  0.00000000000E+00  0.00000000000E+00  0.74505805969E-08  0.10566000000E+00  0.10566000000E+00 0. -1.
     999900   -1    0    0    0    0 -0.00000000000E+00 -0.00000000000E+00 -0.74505805969E-08  0.93827000000E+00  0.93827000000E+00 0. -1.
     999902    2    1    2    0    0 -0.43723448620E-02 -0.30852223652E-01  0.77201712479E-02  0.10118273810E+01  0.10113179870E+01 0.  0.
     999903    2    3    3    0    0  0.38597572302E-01 -0.11837143086E+00 -0.79319787449E-02  0.12630436309E+00  0.19705522534E-01 0.  0.
         14    1    1    2    0    0  0.43723448620E-02  0.30852223652E-01 -0.77201712479E-02  0.32102619021E-01  0.00000000000E+00 0.  1.
     999901    1    3    3    0    0 -0.42969917164E-01  0.87519207205E-01  0.15652149993E-01  0.88552301789E+00  0.88000000000E+00 0.  1.
        -11    1    4    4    0    0  0.38249470277E-02 -0.40861720136E-01 -0.43759551618E-02  0.41276149249E-01  0.51100000000E-03 0. -1.
         11    1    4    4    0    0  0.34772625274E-01 -0.77509710721E-01 -0.35560235831E-02  0.85028213842E-01  0.51100000000E-03 0.  1.
</event>
<event>
 8    1  0.1123450E+005  0.1043930E+01  0.7957747E-01            NaN
         13   -1    0    0    0    0  0.00000000000E+00  0.00000000000E+00  0.74505805969E-08  0.10566000000E+00  0.10566000000E+00 0. -1.
     999900   -1    0    0    0    0 -0.00000000000E+00 -0.00000000000E+00 -0.74505805969E-08  0.93827000000E+00  0.93827000000E+00 0.  1.
     999902    2    1    2    0    0  0.19131832761E-01 -0.17836859969E-01  0.65816834351E-02  0.10169578077E+01  0.10166000608E+01 0.  0.
     999903    2    3    3    0    0  0.89213638742E-01 -0.70404756072E-01  0.61734355157E-01  0.13088971757E+00  0.20126712168E-01 0.  0.
         14    1    1    2    0    0 -0.19131832761E-01  0.17836859969E-01 -0.65816834351E-02  0.26972192258E-01  0.00000000000E+00 0.  1.
     999901    1    3    3    0    0 -0.70081805981E-01  0.52567896103E-01 -0.55152671722E-01  0.88606809018E+00  0.88000000000E+00 0.  1.
        -11    1    4    4    0    0  0.46228222149E-01 -0.33716398504E-01  0.42181160293E-01  0.71086957002E-01  0.51100000000E-03 0.  1.
         11    1    4    4    0    0  0.42985416593E-01 -0.36688357568E-01  0.19553194865E-01  0.59802760565E-01  0.51100000000E-03 0. -1.
</event>
<event>
 8    1  0.1123450E+005  0.1043930E+01  0.7957747E-01            NaN
         13   -1    0    0    0    0  0.00000000000E+00  0.00000000000E+00  0.74505805969E-08  0.10566000000E+00  0.10566000000E+00 0. -1.
     999900   -1    0    0    0    0 -0.00000000000E+00 -0.00000000000E+00 -0.74505805969E-08  0.93827000000E+00  0.93827000000E+00 0.  1.
     999902    2    1    2    0    0 -0.13708217303E-02 -0.23069279773E-01  0.22197843161E-02  0.10207136639E+01  0.10204495996E+01 0.  0.
     999903    2    3    3    0    0  0.95428323883E-01  0.80611195667E-01 -0.20394150096E-01  0.12906849586E+00  0.25259164676E-01 0.  0.
         14    1    1    2    0    0  0.13708217303E-02  0.23069279773E-01 -0.22197843161E-02  0.23216336142E-01  0.00000000000E+00 0. -1.
     999901    1    3    3    0    0 -0.96799145613E-01 -0.10368047544E+00  0.22613934413E-01  0.89164516799E+00  0.88000000000E+00 0. -1.
        -11    1    4    4    0    0  0.38333828257E-01  0.43911221220E-01 -0.18538570372E-01  0.61168762046E-01  0.51100000000E-03 0. -1.
         11    1    4    4    0    0  0.57094495626E-01  0.36699974447E-01 -0.18555797245E-02  0.67899733816E-01  0.51100000000E-03 0.  1.
</event>
<event>
 8    1  0.1123450E+005  0.1043930E+01  0.7957747E-01            NaN
         13   -1    0    0    0    0  0.00000000000E+00  0.00000000000E+00  0.74505805969E-08  0.10566000000E+00  0.10566000000E+00 0. -1.
     999900   -1    0    0    0    0 -0.00000000000E+00 -0.00000000000E+00 -0.74505805969E-08  0.93827000000E+00  0.93827000000E+00 0. -1.
     999902    2    1    2    0    0  0.20170762390E-01 -0.96648535861E-02  0.74333612118E-02  0.10203604453E+01  0.10200881895E+01 0.  0.
     999903    2    3    3    0    0  0.10221063704E+00  0.80829998531E-01  0.33307436455E-02  0.13191422252E+00  0.20242659471E-01 0.  0.
         14    1    1    2    0    0 -0.20170762390E-01  0.96648535861E-02 -0.74333612118E-02  0.23569554708E-01  0.00000000000E+00 0.  1.
     999901    1    3    3    0    0 -0.82039874650E-01 -0.90494852117E-01  0.41026175663E-02  0.88844622278E+00  0.88000000000E+00 0.  1.
        -11    1    4    4    0    0  0.69614002303E-01  0.42932267035E-01 -0.32524397090E-03  0.81790315894E-01  0.51100000000E-03 0.  1.
         11    1    4    4    0    0  0.32596634737E-01  0.37897731496E-01  0.36559876164E-02  0.50123906623E-01  0.51100000000E-03 0. -1.
</event>
<event>
 8    1  0.1123450E+005  0.1043930E+01  0.7957747E-01            NaN
         13   -1    0    0    0    0  0.00000000000E+00  0.00000000000E+00  0.74505805969E-08  0.10566000000E+00  0.10566000000E+00 0.  1.
     999900   -1    0    0    0    0 -0.00000000000E+00 -0.00000000000E+00 -0.74505805969E-08  0.93827000000E+00  0.93827000000E+00 0. -1.
     999902    2    1    2    0    0 -0.14983672412E-01  0.86400345754E-02  0.14949235240E-01  0.10210686730E+01  0.10208127129E+01 0.  0.
     999903    2    3    3    0    0  0.12607714460E-01  0.10628098941E+00  0.76895302675E-01  0.13307522939E+00  0.18480420146E-01 0.  0.
         14    1    1    2    0    0  0.14983672412E-01 -0.86400345754E-02 -0.14949235240E-01  0.22861326967E-01  0.00000000000E+00 0. -1.
     999901    1    3    3    0    0 -0.27591386873E-01 -0.97640954834E-01 -0.61946067434E-01  0.88799344365E+00  0.88000000000E+00 0. -1.
        -11    1    4    4    0    0 -0.16162776391E-02  0.27130002570E-01  0.11898876983E-01  0.29673115565E-01  0.51100000000E-03 0.  1.
         11    1    4    4    0    0  0.14223992099E-01  0.79150986839E-01  0.64996425691E-01  0.10340211382E+00  0.51100000000E-03 0. -1.
</event>
<event>
 8    1  0.1123450E+005  0.1043930E+01  0.7957747E-01            NaN
         13   -1    0    0    0    0  0.00000000000E+00  0.00000000000E+00  0.74505805969E-08  0.10566000000E+00  0.10566000000E+00 0.  1.
     999900   -1    0    0    0    0 -0.00000000000E+00 -0.00000000000E+00 -0.74505805969E-08  0.93827000000E+00  0.93827000000E+00 0.  1.
     999902    2    1    2    0    0 -0.19815802397E-01  0.10798015601E-01 -0.80223835487E-02  0.10199795970E+01  0.10196983655E+01 0.  0.
     999903    2    3    3    0    0  0.29143337308E-02 -0.28170450968E-01  0.12415338420E+00  0.12896577329E+00  0.20397064138E-01 0.  0.
         14    1    1    2    0    0  0.19815802397E-01 -0.10798015601E-01  0.80223835487E-02  0.23950402989E-01  0.00000000000E+00 0. -1.
     999901    1    3    3    0    0 -0.22730136128E-01  0.38968466568E-01 -0.13217576774E+00  0.89101382372E+00  0.88000000000E+00 0.  1.
        -11    1    4    4    0    0  0.78354054553E-02 -0.89356571012E-02  0.23140521500E-01  0.26018923936E-01  0.51100000000E-03 0.  1.
         11    1    4    4    0    0 -0.49210717244E-02 -0.19234793867E-01  0.10101286269E+00  0.10294684936E+00  0.51100000000E-03 0. -1.
</event>
<event>
 8    1  0.1123450E+005  0.1043930E+01  0.7957747E-01            NaN
         13   -1    0    0    0    0  0.00000000000E+00  0.00000000000E+00  0.74505805969E-08  0.10566000000E+00  0.10566000000E+00 0. -1.
     999900   -1    0    0    0    0 -0.00000000000E+00 -0.00000000000E+00 -0.74505805969E-08  0.93827000000E+00  0.93827000000E+00 0.  1.
     999902    2    1    2    0    0  0.21545272405E-01  0.14053041219E-01 -0.10914111224E-01  0.10159871198E+01  0.10156027880E+01 0.  0.
     999903    2    3    3    0    0  0.78509175954E-01 -0.96944896337E-01 -0.14977216984E-01  0.12717783919E+00  0.19694723114E-01 0.  0.
         14    1    1    2    0    0 -0.21545272405E-01 -0.14053041219E-01  0.10914111224E-01  0.27942880208E-01  0.00000000000E+00 0. -1.
     999901    1    3    3    0    0 -0.56963903549E-01  0.11099793756E+00  0.40631057598E-02  0.88880928060E+00  0.88000000000E+00 0. -1.
        -11    1    4    4    0    0  0.53129571744E-01 -0.78430993662E-01 -0.86447823108E-02  0.95127102041E-01  0.51100000000E-03 0.  1.
         11    1    4    4    0    0  0.25379604210E-01 -0.18513902674E-01 -0.63324346728E-02  0.32050737152E-01  0.51100000000E-03 0. -1.
</event>
<event>
 8    1  0.1123450E+005  0.1043930E+01  0.7957747E-01            NaN
         13   -1    0    0    0    0  0.00000000000E+00  0.00000000000E+00  0.74505805969E-08  0.10566000000E+00  0.10566000000E+00 0. -1.
     999900   -1    0    0    0    0 -0.00000000000E+00 -0.00000000000E+00 -0.74505805969E-08  0.93827000000E+00  0.93827000000E+00 0.  1.
     999902    2    1    2    0    0 -0.23815251420E-01  0.47863795730E-02  0.40716175053E-03  0.10196351156E+01  0.10193456369E+01 0.  0.
     999903    2    3    3    0    0  0.61925703336E-01  0.64709954140E-01  0.90521841963E-01  0.12886971338E+00  0.19774434424E-01 0.  0.
         14    1    1    2    0    0  0.23815251420E-01 -0.47863795730E-02 -0.40716175053E-03  0.24294884447E-01  0.00000000000E+00 0. -1.
     999901    1    3    3    0    0 -0.85740954756E-01 -0.59923574567E-01 -0.90114680213E-01  0.89076540217E+00  0.88000000000E+00 0.  1.
        -11    1    4    4    0    0  0.35138505163E-02  0.38660359035E-02  0.14124535244E-01  0.15068410530E-01  0.51100000000E-03 0. -1.
         11    1    4    4    0    0  0.58411852820E-01  0.60843918236E-01  0.76397306719E-01  0.11380130285E+00  0.51100000000E-03 0.  1.
</event>
<event>
 8    1  0.1123450E+005  0.1043930E+01  0.7957747E-01            NaN
         13   -1    0    0    0    0  0.00000000000E+00  0.00000000000E+00  0.74505805969E-08  0.10566000000E+00  0.10566000000E+00 0. -1.
     999900   -1    0    0    0    0 -0.00000000000E+00 -0.00000000000E+00 -0.74505805969E-08  0.93827000000E+00  0.93827000000E+00 0.  1.
     999902    2    1    2    0    0  0.52534864902E-02  0.19023703670E-01  0.13106386157E-01  0.10202386982E+01  0.10199635893E+01 0.  0.
     999903    2    3    3    0    0  0.55850586731E-01  0.10228541159E-01 -0.11465790586E+00  0.12953047678E+00  0.20194007687E-01 0.  0.
         14    1    1    2    0    0 -0.52534864902E-02 -0.19023703670E-01 -0.13106386157E-01  0.23691301774E-01  0.00000000000E+00 0.  1.
     999901    1    3    3    0    0 -0.50597100241E-01  0.87951625107E-02  0.12776429202E+00  0.89070822145E+00  0.88000000000E+00 0. -1.
        -11    1    4    4    0    0  0.26874185972E-01  0.13999695244E-01 -0.68407651600E-01  0.74820326496E-01  0.51100000000E-03 0. -1.
         11    1    4    4    0    0  0.28976400759E-01 -0.37711540842E-02 -0.46250254260E-01  0.54710150285E-01  0.51100000000E-03 0.  1.
</event>
<event>
 8    1  0.1123450E+005  0.1043930E+01  0.7957747E-01            NaN
         13   -1    0    0    0    0  0.00000000000E+00  0.00000000000E+00  0.74505805969E-08  0.10566000000E+00  0.10566000000E+00 0. -1.
     999900   -1    0    0    0    0 -0.00000000000E+00 -0.00000000000E+00 -0.74505805969E-08  0.93827000000E+00  0.93827000000E+00 0.  1.
     999902    2    1    2    0    0  0.30296054712E-02  0.18098866781E-01  0.14824365279E-01  0.10203395508E+01  0.10200668064E+01 0.  0.
     999903    2    3    3    0    0  0.96699647077E-01  0.59580408054E-01 -0.61585371062E-01  0.13110772344E+00  0.22267250578E-01 0.  0.
         14    1    1    2    0    0 -0.30296054712E-02 -0.18098866781E-01 -0.14824365279E-01  0.23590449211E-01  0.00000000000E+00 0.  1.
     999901    1    3    3    0    0 -0.93670041606E-01 -0.41481541273E-01  0.76409736341E-01  0.88923182735E+00  0.88000000000E+00 0.  1.
        -11    1    4    4    0    0  0.70759561796E-01  0.36065559871E-01 -0.51539165433E-01  0.94679389990E-01  0.51100000000E-03 0. -1.
         11    1    4    4    0    0  0.25940085281E-01  0.23514848183E-01 -0.10046205629E-01  0.36428333451E-01  0.51100000000E-03 0.  1.
</event>
<event>
 8    1  0.1123450E+005  0.1043930E+01  0.7957747E-01            NaN
         13   -1    0    0    0    0  0.00000000000E+00  0.00000000000E+00  0.74505805969E-08  0.10566000000E+00  0.10566000000E+00 0.  1.
     999900   -1    0    0    0    0 -0.00000000000E+00 -0.00000000000E+00 -0.74505805969E-08  0.93827000000E+00  0.93827000000E+00 0.  1.
     999902    2    1    2    0    0 -0.21294006110E-01  0.57269346066E-02 -0.62037640371E-02  0.10210232507E+01  0.10207662608E+01 0.  0.
     999903    2    3    3    0    0 -0.48176040100E-02  0.62951365461E-01  0.11296515607E+00  0.13099665623E+00  0.20320278937E-01 0.  0.
         14    1    1    2    0    0  0.21294006110E-01 -0.57269346066E-02  0.62037640371E-02  0.22906749321E-01  0.00000000000E+00 0.  1.
     999901    1    3    3    0    0 -0.16476402100E-01 -0.57224430855E-01 -0.11916892010E+00  0.89002659445E+00  0.88000000000E+00 0.  1.
        -11    1    4    4    0    0 -0.48677948702E-02  0.16248176887E-01  0.15787861483E-01  0.23177928515E-01  0.51100000000E-03 0. -1.
         11    1    4    4    0    0  0.50190860242E-04  0.46703188574E-01  0.97177294582E-01  0.10781872771E+00  0.51100000000E-03 0.  1.
</event>
<event>
 8    1  0.1123450E+005  0.1043930E+01  0.7957747E-01            NaN
         13   -1    0    0    0    0  0.00000000000E+00  0.00000000000E+00  0.74505805969E-08  0.10566000000E+00  0.10566000000E+00 0.  1.
     999900   -1    0    0    0    0 -0.00000000000E+00 -0.00000000000E+00 -0.74505805969E-08  0.93827000000E+00  0.93827000000E+00 0.  1.
     999902    2    1    2    0    0  0.12103708654E-01  0.19450316947E-01  0.48628485041E-02  0.10205107368E+01  0.10202419821E+01 0.  0.
     999903    2    3    3    0    0  0.39223331466E-01 -0.94981286117E-01  0.76596887696E-01  0.12979426223E+00  0.20482989509E-01 0.  0.
         14    1    1    2    0    0 -0.12103708654E-01 -0.19450316947E-01 -0.48628485041E-02  0.23419263184E-01  0.00000000000E+00 0.  1.
     999901    1    3    3    0    0 -0.27119622812E-01  0.11443160306E+00 -0.71734039192E-01  0.89071647459E+00  0.88000000000E+00 0. -1.
        -11    1    4    4    0    0  0.50419493430E-03 -0.12998354767E-01  0.39253997987E-02  0.13597107184E-01  0.51100000000E-03 0. -1.
         11    1    4    4    0    0  0.38719136532E-01 -0.81982931349E-01  0.72671487897E-01  0.11619715505E+00  0.51100000000E-03 0.  1.
</event>
<event>
 8    1  0.1123450E+005  0.1043930E+01  0.7957747E-01            NaN
         13   -1    0    0    0    0  0.00000000000E+00  0.00000000000E+00  0.74505805969E-08  0.10566000000E+00  0.10566000000E+00 0.  1.
     999900   -1    0    0    0    0 -0.00000000000E+00 -0.00000000000E+00 -0.74505805969E-08  0.93827000000E+00  0.93827000000E+00 0.  1.
     999902    2    1    2    0    0  0.22858513862E-03 -0.22294848077E-01  0.32900982865E-02  0.10213925368E+01  0.10211438571E+01 0.  0.
     999903    2    3    3    0    0  0.10031884590E+00 -0.76337647690E-01 -0.37654855906E-01  0.13312727585E+00  0.20339029106E-01 0.  0.
         14    1    1    2    0    0 -0.22858513862E-03  0.22294848077E-01 -0.32900982865E-02  0.22537463226E-01  0.00000000000E+00 0. -1.
     999901    1    3    3    0    0 -0.10009026076E+00  0.54042799613E-01  0.40944954193E-01  0.88826526092E+00  0.88000000000E+00 0. -1.
        -11    1    4    4    0    0  0.60190622186E-01 -0.57312302410E-01 -0.27745412543E-01  0.87622371828E-01  0.51100000000E-03 0.  1.
         11    1    4    4    0    0  0.40128223712E-01 -0.19025345280E-01 -0.99094433629E-02  0.45504904022E-01  0.51100000000E-03 0. -1.
</event>
<event>
 8    1  0.1123450E+005  0.1043930E+01  0.7957747E-01            NaN
         13   -1    0    0    0    0  0.00000000000E+00  0.00000000000E+00  0.74505805969E-08  0.10566000000E+00  0.10566000000E+00 0. -1.
     999900   -1    0    0    0    0 -0.00000000000E+00 -0.00000000000E+00 -0.74505805969E-08  0.93827000000E+00  0.93827000000E+00 0. -1.
     999902    2    1    2    0    0  0.91373768677E-02  0.12706092794E-01 -0.18104758952E-01  0.10199984571E+01  0.10197176735E+01 0.  0.
     999903    2    3    3    0    0 -0.11571101835E+00 -0.47389296320E-01  0.20806121523E-01  0.12830757218E+00  0.19878461003E-01 0.  0.
         14    1    1    2    0    0 -0.91373768677E-02 -0.12706092794E-01  0.18104758952E-01  0.23931542926E-01  0.00000000000E+00 0. -1.
     999901    1    3    3    0    0  0.12484839522E+00  0.60095389114E-01 -0.38910880475E-01  0.89169088489E+00  0.88000000000E+00 0. -1.
        -11    1    4    4    0    0 -0.74949009717E-01 -0.20307925391E-01  0.13734333484E-01  0.78858474044E-01  0.51100000000E-03 0. -1.
         11    1    4    4    0    0 -0.40762008637E-01 -0.27081370928E-01  0.70717880391E-02  0.49449098137E-01  0.51100000000E-03 0.  1.
</event>
<event>
 8    1  0.1123450E+005  0.1043930E+01  0.7957747E-01            NaN
         13   -1    0    0    0    0  0.00000000000E+00  0.00000000000E+00  0.74505805969E-08  0.10566000000E+00  0.10566000000E+00 0. -1.
     999900   -1    0    0    0    0 -0.00000000000E+00 -0.00000000000E+00 -0.74505805969E-08  0.93827000000E+00  0.93827000000E+00 0.  1.
     999902    2    1    2    0    0 -0.19970563580E-01  0.96938072870E-02 -0.69529834476E-02  0.10206676422E+01  0.10204025180E+01 0.  0.
     999903    2    3    3    0    0 -0.11084572546E+00 -0.63656583429E-01  0.27532056678E-01  0.13228270718E+00  0.20044076612E-01 0.  0.
         14    1    1    2    0    0  0.19970563580E-01 -0.96938072870E-02  0.69529834476E-02  0.23262357754E-01  0.00000000000E+00 0.  1.
     999901    1    3    3    0    0  0.90875161877E-01  0.73350390716E-01 -0.34485040125E-01  0.88838493507E+00  0.88000000000E+00 0. -1.
        -11    1    4    4    0    0 -0.13926449598E-01 -0.62481549931E-02  0.10062106257E-01  0.18289137283E-01  0.51100000000E-03 0. -1.
         11    1    4    4    0    0 -0.96919275860E-01 -0.57408428436E-01  0.17469950421E-01  0.11399356989E+00  0.51100000000E-03 0.  1.
</event>
<event>
 8    1  0.1123450E+005  0.1043930E+01  0.7957747E-01            NaN
         13   -1    0    0    0    0  0.00000000000E+00  0.00000000000E+00  0.74505805969E-08  0.10566000000E+00  0.10566000000E+00 0. -1.
     999900   -1    0    0    0    0 -0.00000000000E+00 -0.00000000000E+00 -0.74505805969E-08  0.93827000000E+00  0.93827000000E+00 0.  1.
     999902    2    1    2    0    0  0.55025798749E-02 -0.20087734299E-01 -0.11093716365E-01  0.10203319917E+01  0.10200590705E+01 0.  0.
     999903    2    3    3    0    0 -0.18636506919E-01  0.11677335668E+00 -0.46745294468E-01  0.12871285282E+00  0.19963459259E-01 0.  0.
         14    1    1    2    0    0 -0.55025798749E-02  0.20087734299E-01  0.11093716365E-01  0.23598008334E-01  0.00000000000E+00 0.  1.
     999901    1    3    3    0    0  0.24139086794E-01 -0.13686109098E+00  0.35651578103E-01  0.89161913885E+00  0.88000000000E+00 0. -1.
        -11    1    4    4    0    0 -0.18067220186E-01  0.72807390564E-01 -0.21630768366E-01  0.78073630805E-01  0.51100000000E-03 0. -1.
         11    1    4    4    0    0 -0.56928673281E-03  0.43965966117E-01 -0.25114526102E-01  0.50639222015E-01  0.51100000000E-03 0.  1.
</event>
<event>
 8    1  0.1123450E+005  0.1043930E+01  0.7957747E-01            NaN
         13   -1    0    0    0    0  0.00000000000E+00  0.00000000000E+00  0.74505805969E-08  0.10566000000E+00  0.10566000000E+00 0. -1.
     999900   -1    0    0    0    0 -0.00000000000E+00 -0.00000000000E+00 -0.74505805969E-08  0.93827000000E+00  0.93827000000E+00 0.  1.
     999902    2    1    2    0    0  0.21984597509E-01 -0.18945571477E-01  0.18687575612E-01  0.10094121396E+01  0.10088217805E+01 0.  0.
     999903    2    3    3    0    0 -0.64564021834E-01 -0.66273098381E-01  0.75796405344E-01  0.12206103840E+00  0.24354990221E-01 0.  0.
         14    1    1    2    0    0 -0.21984597509E-01  0.18945571477E-01 -0.18687575612E-01  0.34517860427E-01  0.00000000000E+00 0.  1.
     999901    1    3    3    0    0  0.86548619343E-01  0.47327526903E-01 -0.57108829732E-01  0.88735110117E+00  0.88000000000E+00 0.  1.
        -11    1    4    4    0    0 -0.29459916681E-01 -0.32516202806E-01  0.20679764600E-01  0.48508802507E-01  0.51100000000E-03 0. -1.
         11    1    4    4    0    0 -0.35104105153E-01 -0.33756895575E-01  0.55116640744E-01  0.73552235896E-01  0.51100000000E-03 0.  1.
</event>
<event>
 8    1  0.1123450E+005  0.1043930E+01  0.7957747E-01            NaN
         13   -1    0    0    0    0  0.00000000000E+00  0.00000000000E+00  0.74505805969E-08  0.10566000000E+00  0.10566000000E+00 0. -1.
     999900   -1    0    0    0    0 -0.00000000000E+00 -0.00000000000E+00 -0.74505805969E-08  0.93827000000E+00  0.93827000000E+00 0. -1.
     999902    2    1    2    0    0 -0.55501018670E-02  0.18062032816E-01  0.14431562757E-01  0.10201537374E+01  0.10198766284E+01 0.  0.
     999903    2    3    3    0    0  0.95883043010E-01 -0.37270846409E-02 -0.83344222714E-01  0.12868104978E+00  0.20127195952E-01 0.  0.
         14    1    1    2    0    0  0.55501018670E-02 -0.18062032816E-01 -0.14431562757E-01  0.23776262612E-01  0.00000000000E+00 0.  1.
     999901    1    3    3    0    0 -0.10143314488E+00  0.21789117457E-01  0.97775785471E-01  0.89147268760E+00  0.88000000000E+00 0.  1.
        -11    1    4    4    0    0  0.74166695870E-01 -0.11324493150E-01 -0.63355382555E-01  0.98199330655E-01  0.51100000000E-03 0.  1.
         11    1    4    4    0    0  0.21716347140E-01  0.75974085087E-02 -0.19988840160E-01  0.30481719130E-01  0.51100000000E-03 0. -1.
</event>
<event>
 8    1  0.1123450E+005  0.1043930E+01  0.7957747E-01            NaN
         13   -1    0    0    0    0  0.00000000000E+00  0.00000000000E+00  0.74505805969E-08  0.10566000000E+00  0.10566000000E+00 0. -1.
     999900   -1    0    0    0    0 -0.00000000000E+00 -0.00000000000E+00 -0.74505805969E-08  0.93827000000E+00  0.93827000000E+00 0.  1.
     999902    2    1    2    0    0  0.14745428007E-01 -0.12554420744E-01 -0.13521345351E-01  0.10203107725E+01  0.10200373545E+01 0.  0.
     999903    2    3    3    0    0 -0.12405140662E+00 -0.19258439743E-01  0.19705754089E-01  0.12878761223E+00  0.20935456386E-01 0.  0.
         14    1    1    2    0    0 -0.14745428007E-01  0.12554420744E-01  0.13521345351E-01  0.23619227495E-01  0.00000000000E+00 0. -1.
     999901    1    3    3    0    0  0.13879683462E+00  0.67040189986E-02 -0.33227099441E-01  0.89152316028E+00  0.88000000000E+00 0. -1.
        -11    1    4    4    0    0 -0.54598027289E-01 -0.28944112322E-02  0.17453260204E-01  0.57395118372E-01  0.51100000000E-03 0.  1.
         11    1    4    4    0    0 -0.69453379329E-01 -0.16364028511E-01  0.22524938855E-02  0.71392493856E-01  0.51100000000E-03 0. -1.
</event>
<event>
 8    1  0.1123450E+005  0.1043930E+01  0.7957747E-01            NaN
         13   -1    0    0    0    0  0.00000000000E+00  0.00000000000E+00  0.74505805969E-08  0.10566000000E+00  0.10566000000E+00 0.  1.
     999900   -1    0    0    0    0 -0.00000000000E+00 -0.00000000000E+00 -0.74505805969E-08  0.93827000000E+00  0.93827000000E+00 0.  1.
     999902    2    1    2    0    0 -0.37893888947E-02  0.14961955932E-01  0.17032730627E-01  0.10209444936E+01  0.10206857133E+01 0.  0.
     999903    2    3    3    0    0 -0.55904100851E-01  0.79382575067E-01 -0.85722257087E-01  0.13109925597E+00  0.20294034572E-01 0.  0.
         14    1    1    2    0    0  0.37893888947E-02 -0.14961955932E-01 -0.17032730627E-01  0.22985506436E-01  0.00000000000E+00 0.  1.
     999901    1    3    3    0    0  0.52114711956E-01 -0.64420619135E-01  0.10275498771E+00  0.88984523760E+00  0.88000000000E+00 0. -1.
        -11    1    4    4    0    0 -0.51144079480E-01  0.58549483952E-01 -0.65161628114E-01  0.10143992230E+00  0.51100000000E-03 0. -1.
         11    1    4    4    0    0 -0.47600213707E-02  0.20833091115E-01 -0.20560628973E-01  0.29659333668E-01  0.51100000000E-03 0.  1.
</event>
<event>
 8    1  0.1123450E+005  0.1043930E+01  0.7957747E-01            NaN
         13   -1    0    0    0    0  0.00000000000E+00  0.00000000000E+00  0.74505805969E-08  0.10566000000E+00  0.10566000000E+00 0. -1.
     999900   -1    0    0    0    0 -0.00000000000E+00 -0.00000000000E+00 -0.74505805969E-08  0.93827000000E+00  0.93827000000E+00 0.  1.
     999902    2    1    2    0    0 -0.18395671830E-01 -0.26529333782E-02 -0.13716162387E-01  0.10208308245E+01  0.10205694491E+01 0.  0.
     999903    2    3    3    0    0 -0.12544901089E+00  0.19046460214E-01  0.33755559549E-01  0.13280782623E+00  0.19956425749E-01 0.  0.
         14    1    1    2    0    0  0.18395671830E-01  0.26529333782E-02  0.13716162387E-01  0.23099175488E-01  0.00000000000E+00 0. -1.
     999901    1    3    3    0    0  0.10705333906E+00 -0.21699393592E-01 -0.47471721937E-01  0.88802299828E+00  0.88000000000E+00 0.  1.
        -11    1    4    4    0    0 -0.57146225086E-01  0.33738306116E-02  0.65051569682E-02  0.57616420947E-01  0.51100000000E-03 0. -1.
         11    1    4    4    0    0 -0.68302785804E-01  0.15672629603E-01  0.27250402581E-01  0.75191405287E-01  0.51100000000E-03 0.  1.
</event>
<event>
 8    1  0.1123450E+005  0.1043930E+01  0.7957747E-01            NaN
         13   -1    0    0    0    0  0.00000000000E+00  0.00000000000E+00  0.74505805969E-08  0.10566000000E+00  0.10566000000E+00 0.  1.
     999900   -1    0    0    0    0 -0.00000000000E+00 -0.00000000000E+00 -0.74505805969E-08  0.93827000000E+00  0.93827000000E+00 0.  1.
     999902    2    1    2    0    0 -0.68880748569E-03 -0.23703694673E-01  0.41769624127E-03  0.10202126210E+01  0.10199368990E+01 0.  0.
     999903    2    3    3    0    0 -0.61236718308E-01  0.96101305455E-01  0.55453339283E-01  0.12833358796E+00  0.20224746745E-01 0.  0.
         14    1    1    2    0    0  0.68880748569E-03  0.23703694673E-01 -0.41769624127E-03  0.23717379009E-01  0.00000000000E+00 0. -1.
     999901    1    3    3    0    0  0.60547910823E-01 -0.11980500013E+00 -0.55035643041E-01  0.89187903303E+00  0.88000000000E+00 0.  1.
        -11    1    4    4    0    0 -0.16165973751E-01  0.41637067896E-01  0.16517281325E-01  0.47624214783E-01  0.51100000000E-03 0.  1.
         11    1    4    4    0    0 -0.45070744558E-01  0.54464237559E-01  0.38936057958E-01  0.80709373174E-01  0.51100000000E-03 0. -1.
</event>
<event>
 8    1  0.1123450E+005  0.1043930E+01  0.7957747E-01            NaN
         13   -1    0    0    0    0  0.00000000000E+00  0.00000000000E+00  0.74505805969E-08  0.10566000000E+00  0.10566000000E+00 0.  1.
     999900   -1    0    0    0    0 -0.00000000000E+00 -0.00000000000E+00 -0.74505805969E-08  0.93827000000E+00  0.93827000000E+00 0. -1.
     999902    2    1    2    0    0 -0.16788624560E-01 -0.18684903959E-01 -0.65362654632E-02  0.10179741468E+01  0.10176431876E+01 0.  0.
     999903    2    3    3    0    0  0.12321513182E+00 -0.15314933533E-01  0.14177652589E-01  0.12665968212E+00  0.20619246919E-01 0.  0.
         14    1    1    2    0    0  0.16788624560E-01  0.18684903959E-01  0.65362654632E-02  0.25955853228E-01  0.00000000000E+00 0.  1.
     999901    1    3    3    0    0 -0.14000375638E+00 -0.33699704257E-02 -0.20713918053E-01  0.89131446465E+00  0.88000000000E+00 0.  1.
        -11    1    4    4    0    0  0.71505545828E-01 -0.96161149143E-03  0.15677698317E-02  0.71531019873E-01  0.51100000000E-03 0.  1.
         11    1    4    4    0    0  0.51709585990E-01 -0.14353322041E-01  0.12609882758E-01  0.55128662246E-01  0.51100000000E-03 0. -1.
</event>
<event>
 8    1  0.1123450E+005  0.1043930E+01  0.7957747E-01            NaN
         13   -1    0    0    0    0  0.00000000000E+00  0.00000000000E+00  0.74505805969E-08  0.10566000000E+00  0.10566000000E+00 0.  1.
     999900   -1    0    0    0    0 -0.00000000000E+00 -0.00000000000E+00 -0.74505805969E-08  0.93827000000E+00  0.93827000000E+00 0. -1.
     999902    2    1    2    0    0  0.23166723818E-01 -0.49721763763E-02 -0.33026822362E-02  0.10200066361E+01  0.10197260467E+01 0.  0.
     999903    2    3    3    0    0 -0.12265252338E+00 -0.13398530563E-01  0.23344005421E-01  0.12756935412E+00  0.22490784964E-01 0.  0.
         14    1    1    2    0    0 -0.23166723818E-01  0.49721763763E-02  0.33026822362E-02  0.23923363900E-01  0.00000000000E+00 0.  1.
     999901    1    3    3    0    0  0.14581924720E+00  0.84263541868E-02 -0.26646687658E-01  0.89243728198E+00  0.88000000000E+00 0.  1.
        -11    1    4    4    0    0 -0.55041361011E-01  0.96838786035E-03  0.14832033627E-02  0.55072227213E-01  0.51100000000E-03 0.  1.
         11    1    4    4    0    0 -0.67611162373E-01 -0.14366918423E-01  0.21860802059E-01  0.72497126909E-01  0.51100000000E-03 0. -1.
</event>
<event>
 8    1  0.1123450E+005  0.1043930E+01  0.7957747E-01            NaN
         13   -1    0    0    0    0  0.00000000000E+00  0.00000000000E+00  0.74505805969E-08  0.10566000000E+00  0.10566000000E+00 0. -1.
     999900   -1    0    0    0    0 -0.00000000000E+00 -0.00000000000E+00 -0.74505805969E-08  0.93827000000E+00  0.93827000000E+00 0. -1.
     999902    2    1    2    0    0 -0.10150472261E-01  0.92771511946E-02 -0.57007023738E-02  0.10290439116E+01  0.10289362353E+01 0.  0.
     999903    2    3    3    0    0 -0.11954593140E+00  0.68985636095E-01 -0.13823144236E-01  0.14022534531E+00  0.20538267940E-01 0.  0.
         14    1    1    2    0    0  0.10150472261E-01 -0.92771511946E-02  0.57007023738E-02  0.14886088438E-01  0.00000000000E+00 0.  1.
     999901    1    3    3    0    0  0.10939545914E+00 -0.59708484900E-01  0.81224418621E-02  0.88881856625E+00  0.88000000000E+00 0. -1.
        -11    1    4    4    0    0 -0.59607639052E-01  0.41541873866E-01 -0.15446934814E-01  0.74280999144E-01  0.51100000000E-03 0.  1.
         11    1    4    4    0    0 -0.59938292348E-01  0.27443762228E-01  0.16237905784E-02  0.65944346169E-01  0.51100000000E-03 0. -1.
</event>
<event>
 8    1  0.1123450E+005  0.1043930E+01  0.7957747E-01            NaN
         13   -1    0    0    0    0  0.00000000000E+00  0.00000000000E+00  0.74505805969E-08  0.10566000000E+00  0.10566000000E+00 0.  1.
     999900   -1    0    0    0    0 -0.00000000000E+00 -0.00000000000E+00 -0.74505805969E-08  0.93827000000E+00  0.93827000000E+00 0.  1.
     999902    2    1    2    0    0  0.13955239370E-01  0.14430224824E-02 -0.19309675561E-01  0.10200617242E+01  0.10197824408E+01 0.  0.
     999903    2    3    3    0    0 -0.80267228628E-01 -0.58808036397E-01 -0.82850084305E-01  0.13071058594E+00  0.17885962941E-01 0.  0.
         14    1    1    2    0    0 -0.13955239370E-01 -0.14430224824E-02  0.19309675561E-01  0.23868275808E-01  0.00000000000E+00 0.  1.
     999901    1    3    3    0    0  0.94222467998E-01  0.60251058880E-01  0.63540408744E-01  0.88935113825E+00  0.88000000000E+00 0. -1.
        -11    1    4    4    0    0 -0.28002344318E-01 -0.10734692042E-01 -0.27183691376E-01  0.40479366329E-01  0.51100000000E-03 0. -1.
         11    1    4    4    0    0 -0.52264884309E-01 -0.48073344355E-01 -0.55666392929E-01  0.90231219609E-01  0.51100000000E-03 0.  1.
</event>
<event>
 8    1  0.1123450E+005  0.1043930E+01  0.7957747E-01            NaN
         13   -1    0    0    0    0  0.00000000000E+00  0.00000000000E+00  0.74505805969E-08  0.10566000000E+00  0.10566000000E+00 0. -1.
     999900   -1    0    0    0    0 -0.00000000000E+00 -0.00000000000E+00 -0.74505805969E-08  0.93827000000E+00  0.93827000000E+00 0. -1.
     999902    2    1    2    0    0  0.80489150671E-02  0.27138594189E-03 -0.21609453728E-01  0.10208686216E+01  0.10206081106E+01 0.  0.
     999903    2    3    3    0    0  0.56597955196E-01  0.40065573015E-01 -0.11364209145E+00  0.13384517599E+00  0.13835733193E-01 0.  0.
         14    1    1    2    0    0 -0.80489150671E-02 -0.27138594189E-03  0.21609453728E-01  0.23061378417E-01  0.00000000000E+00 0. -1.
     999901    1    3    3    0    0 -0.48549040129E-01 -0.39794187073E-01  0.92032637725E-01  0.88702344559E+00  0.88000000000E+00 0.  1.
        -11    1    4    4    0    0  0.30892220905E-01  0.19957379496E-01 -0.72785657686E-01  0.81551452437E-01  0.51100000000E-03 0.  1.
         11    1    4    4    0    0  0.25705734291E-01  0.20108193519E-01 -0.40856433767E-01  0.52293723555E-01  0.51100000000E-03 0. -1.
</event>
<event>
 8    1  0.1123450E+005  0.1043930E+01  0.7957747E-01            NaN
         13   -1    0    0    0    0  0.00000000000E+00  0.00000000000E+00  0.74505805969E-08  0.10566000000E+00  0.10566000000E+00 0.  1.
     999900   -1    0    0    0    0 -0.00000000000E+00 -0.00000000000E+00 -0.74505805969E-08  0.93827000000E+00  0.93827000000E+00 0. -1.
     999902    2    1    2    0    0  0.32082434293E-02  0.23267860417E-01 -0.80776886568E-02  0.10190918195E+01  0.10187890859E+01 0.  0.
     999903    2    3    3    0    0  0.72030346332E-01  0.83230905023E-01  0.68184870310E-01  0.13108955239E+00  0.20482672283E-01 0.  0.
         14    1    1    2    0    0 -0.32082434293E-02 -0.23267860417E-01  0.80776886568E-02  0.24838180455E-01  0.00000000000E+00 0.  1.
     999901    1    3    3    0    0 -0.68822102903E-01 -0.59963044607E-01 -0.76262558967E-01  0.88800226715E+00  0.88000000000E+00 0.  1.
        -11    1    4    4    0    0  0.69810957928E-01  0.71706667928E-01  0.58974952778E-01  0.11616248210E+00  0.51100000000E-03 0.  1.
         11    1    4    4    0    0  0.22193884041E-02  0.11524237095E-01  0.92099175322E-02  0.14927070291E-01  0.51100000000E-03 0. -1.
</event>
<event>
 8    1  0.1123450E+005  0.1043930E+01  0.7957747E-01            NaN
         13   -1    0    0    0    0  0.00000000000E+00  0.00000000000E+00  0.74505805969E-08  0.10566000000E+00  0.10566000000E+00 0. -1.
     999900   -1    0    0    0    0 -0.00000000000E+00 -0.00000000000E+00 -0.74505805969E-08  0.93827000000E+00  0.93827000000E+00 0.  1.
     999902    2    1    2    0    0  0.19579256448E-01 -0.68491644029E-02  0.12020658208E-01  0.10199559607E+01  0.10196741672E+01 0.  0.
     999903    2    3    3    0    0  0.91689605808E-01  0.73864878028E-01 -0.53606898219E-01  0.13089936224E+00  0.19948420433E-01 0.  0.
         14    1    1    2    0    0 -0.19579256448E-01  0.68491644029E-02 -0.12020658208E-01  0.23974039289E-01  0.00000000000E+00 0. -1.
     999901    1    3    3    0    0 -0.72110349360E-01 -0.80714042431E-01  0.65627556426E-01  0.88905659848E+00  0.88000000000E+00 0.  1.
        -11    1    4    4    0    0  0.33255288098E-01  0.15354746661E-01 -0.18853676949E-01  0.41199571443E-01  0.51100000000E-03 0. -1.
         11    1    4    4    0    0  0.58434317709E-01  0.58510131367E-01 -0.34753221269E-01  0.89699790793E-01  0.51100000000E-03 0.  1.
</event>
<event>
 8    1  0.1123450E+005  0.1043930E+01  0.7957747E-01            NaN
         13   -1    0    0    0    0  0.00000000000E+00  0.00000000000E+00  0.74505805969E-08  0.10566000000E+00  0.10566000000E+00 0.  1.
     999900   -1    0    0    0    0 -0.00000000000E+00 -0.00000000000E+00 -0.74505805969E-08  0.93827000000E+00  0.93827000000E+00 0. -1.
     999902    2    1    2    0    0  0.71526622418E-02  0.19415523049E-01  0.11420009544E-01  0.10202965548E+01  0.10200228037E+01 0.  0.
     999903    2    3    3    0    0 -0.11010109451E-01  0.37748613498E-01 -0.12220719867E+00  0.12983475371E+00  0.19398029132E-01 0.  0.
         14    1    1    2    0    0 -0.71526622418E-02 -0.19415523049E-01 -0.11420009544E-01  0.23633445165E-01  0.00000000000E+00 0.  1.
     999901    1    3    3    0    0  0.18162771692E-01 -0.18333090449E-01  0.13362720821E+00  0.89046180112E+00  0.88000000000E+00 0.  1.
        -11    1    4    4    0    0 -0.99687107030E-02  0.57715040345E-02 -0.39682762235E-01  0.41323942110E-01  0.51100000000E-03 0.  1.
         11    1    4    4    0    0 -0.10413987476E-02  0.31977109463E-01 -0.82524436434E-01  0.88510811604E-01  0.51100000000E-03 0. -1.
</event>
<event>
 8    1  0.1123450E+005  0.1043930E+01  0.7957747E-01            NaN
         13   -1    0    0    0    0  0.00000000000E+00  0.00000000000E+00  0.74505805969E-08  0.10566000000E+00  0.10566000000E+00 0. -1.
     999900   -1    0    0    0    0 -0.00000000000E+00 -0.00000000000E+00 -0.74505805969E-08  0.93827000000E+00  0.93827000000E+00 0. -1.
     999902    2    1    2    0    0  0.76730197282E-02  0.14181730462E-01 -0.16828109646E-01  0.10206237351E+01  0.10203575974E+01 0.  0.
     999903    2    3    3    0    0  0.41042015570E-01  0.64554970757E-01  0.10365708309E+00  0.13036105761E+00  0.19935475255E-01 0.  0.
         14    1    1    2    0    0 -0.76730197282E-02 -0.14181730462E-01  0.16828109646E-01  0.23306264928E-01  0.00000000000E+00 0. -1.
     999901    1    3    3    0    0 -0.33368995842E-01 -0.50373240296E-01 -0.12048519274E+00  0.89026267747E+00  0.88000000000E+00 0. -1.
        -11    1    4    4    0    0  0.11730233397E-01  0.34769997605E-01  0.56247359339E-01  0.67160834291E-01  0.51100000000E-03 0.  1.
         11    1    4    4    0    0  0.29311782173E-01  0.29784973152E-01  0.47409723751E-01  0.63200223314E-01  0.51100000000E-03 0. -1.
</event>
<event>
 8    1  0.1123450E+005  0.1043930E+01  0.7957747E-01            NaN
         13   -1    0    0    0    0  0.00000000000E+00  0.00000000000E+00  0.74505805969E-08  0.10566000000E+00  0.10566000000E+00 0.  1.
     999900   -1    0    0    0    0 -0.00000000000E+00 -0.00000000000E+00 -0.74505805969E-08  0.93827000000E+00  0.93827000000E+00 0.  1.
     999902    2    1    2    0    0  0.12494039878E-01  0.75859763170E-02  0.17685256550E-01  0.10209862347E+01  0.10207284041E+01 0.  0.
     999903    2    3    3    0    0 -0.85098981987E-01  0.27458212582E-01 -0.90478856201E-01  0.12878738967E+00  0.20099207600E-01 0.  0.
         14    1    1    2    0    0 -0.12494039878E-01 -0.75859763170E-02 -0.17685256550E-01  0.22943765349E-01  0.00000000000E+00 0. -1.
     999901    1    3    3    0    0  0.97593021865E-01 -0.19872236265E-01  0.10816411275E+00  0.89219884498E+00  0.88000000000E+00 0. -1.
        -11    1    4    4    0    0 -0.18558778942E-01  0.21764732574E-02 -0.94950259999E-02  0.20966209752E-01  0.51100000000E-03 0.  1.
         11    1    4    4    0    0 -0.66540203045E-01  0.25281739325E-01 -0.80983830201E-01  0.10782117992E+00  0.51100000000E-03 0. -1.
</event>
<event>
 8    1  0.1123450E+005  0.1043930E+01  0.7957747E-01            NaN
         13   -1    0    0    0    0  0.00000000000E+00  0.00000000000E+00  0.74505805969E-08  0.10566000000E+00  0.10566000000E+00 0.  1.
     999900   -1    0    0    0    0 -0.00000000000E+00 -0.00000000000E+00 -0.74505805969E-08  0.93827000000E+00  0.93827000000E+00 0.  1.
     999902    2    1    2    0    0 -0.85461103817E-02 -0.54319443923E-02  0.21877020016E-01  0.10198230295E+01  0.10195380647E+01 0.  0.
     999903    2    3    3    0    0 -0.68958849519E-02  0.37313888082E-01 -0.11982998847E+00  0.12746054389E+00  0.21144376097E-01 0.  0.
         14    1    1    2    0    0  0.85461103817E-02  0.54319443923E-02 -0.21877020016E-01  0.24106970513E-01  0.00000000000E+00 0. -1.
     999901    1    3    3    0    0 -0.16502254298E-02 -0.42745832474E-01  0.14170700848E+00  0.89236248559E+00  0.88000000000E+00 0. -1.
        -11    1    4    4    0    0  0.52354570219E-02  0.19973842507E-01 -0.42014308234E-01  0.46816958595E-01  0.51100000000E-03 0.  1.
         11    1    4    4    0    0 -0.12131341974E-01  0.17340045575E-01 -0.77815680235E-01  0.80643585300E-01  0.51100000000E-03 0. -1.
</event>
<event>
 8    1  0.1123450E+005  0.1043930E+01  0.7957747E-01            NaN
         13   -1    0    0    0    0  0.00000000000E+00  0.00000000000E+00  0.74505805969E-08  0.10566000000E+00  0.10566000000E+00 0. -1.
     999900   -1    0    0    0    0 -0.00000000000E+00 -0.00000000000E+00 -0.74505805969E-08  0.93827000000E+00  0.93827000000E+00 0. -1.
     999902    2    1    2    0    0 -0.65530519503E-02 -0.19761521289E-01 -0.11928153190E-01  0.10199353954E+01  0.10196531124E+01 0.  0.
     999903    2    3    3    0    0 -0.95377038617E-01  0.40994734152E-02  0.85741443242E-01  0.12976777196E+00  0.19351857077E-01 0.  0.
         14    1    1    2    0    0  0.65530519503E-02  0.19761521289E-01  0.11928153190E-01  0.23994604645E-01  0.00000000000E+00 0. -1.
     999901    1    3    3    0    0  0.88823986666E-01 -0.23860994705E-01 -0.97669596433E-01  0.89016762340E+00  0.88000000000E+00 0. -1.
        -11    1    4    4    0    0 -0.69230076640E-01  0.24081889204E-02  0.72967506311E-01  0.10061372165E+00  0.51100000000E-03 0. -1.
         11    1    4    4    0    0 -0.26146961976E-01  0.16912844949E-02  0.12773936931E-01  0.29154050311E-01  0.51100000000E-03 0.  1.
</event>
<event>
 8    1  0.1123450E+005  0.1043930E+01  0.7957747E-01            NaN
         13   -1    0    0    0    0  0.00000000000E+00  0.00000000000E+00  0.74505805969E-08  0.10566000000E+00  0.10566000000E+00 0.  1.
     999900   -1    0    0    0    0 -0.00000000000E+00 -0.00000000000E+00 -0.74505805969E-08  0.93827000000E+00  0.93827000000E+00 0.  1.
     999902    2    1    2    0    0 -0.69158487384E-02  0.20663020919E-01  0.19887257563E-01  0.10144292812E+01  0.10140002338E+01 0.  0.
     999903    2    3    3    0    0 -0.88811129512E-01  0.92641030446E-02  0.89051813900E-01  0.12785130481E+00  0.21035452263E-01 0.  0.
         14    1    1    2    0    0  0.69158487384E-02 -0.20663020919E-01 -0.19887257563E-01  0.29500718816E-01  0.00000000000E+00 0. -1.
     999901    1    3    3    0    0  0.81895280774E-01  0.11398917875E-01 -0.69164556337E-01  0.88657797638E+00  0.88000000000E+00 0.  1.
        -11    1    4    4    0    0 -0.69498466725E-01 -0.54924290590E-03  0.73648650807E-01  0.10126560834E+00  0.51100000000E-03 0. -1.
         11    1    4    4    0    0 -0.19312662787E-01  0.98133459505E-02  0.15403163092E-01  0.26585696472E-01  0.51100000000E-03 0.  1.
</event>
<event>
 8    1  0.1123450E+005  0.1043930E+01  0.7957747E-01            NaN
         13   -1    0    0    0    0  0.00000000000E+00  0.00000000000E+00  0.74505805969E-08  0.10566000000E+00  0.10566000000E+00 0. -1.
     999900   -1    0    0    0    0 -0.00000000000E+00 -0.00000000000E+00 -0.74505805969E-08  0.93827000000E+00  0.93827000000E+00 0.  1.
     999902    2    1    2    0    0  0.23539759448E-01 -0.84916040767E-02  0.34523808938E-02  0.10186684373E+01  0.10183551633E+01 0.  0.
     999903    2    3    3    0    0 -0.99944420663E-01  0.72340271155E-01 -0.19782553419E-01  0.12607558672E+00  0.16783983263E-01 0.  0.
         14    1    1    2    0    0 -0.23539759448E-01  0.84916040767E-02 -0.34523808938E-02  0.25261562669E-01  0.00000000000E+00 0. -1.
     999901    1    3    3    0    0  0.12348418011E+00 -0.80831875232E-01  0.23234934312E-01  0.89259285061E+00  0.88000000000E+00 0. -1.
        -11    1    4    4    0    0 -0.53160852435E-01  0.43247221235E-01 -0.34819636238E-02  0.68620576854E-01  0.51100000000E-03 0.  1.
         11    1    4    4    0    0 -0.46783568229E-01  0.29093049920E-01 -0.16300589795E-01  0.57455009864E-01  0.51100000000E-03 0. -1.
</event>
<event>
 8    1  0.1123450E+005  0.1043930E+01  0.7957747E-01            NaN
         13   -1    0    0    0    0  0.00000000000E+00  0.00000000000E+00  0.74505805969E-08  0.10566000000E+00  0.10566000000E+00 0.  1.
     999900   -1    0    0    0    0 -0.00000000000E+00 -0.00000000000E+00 -0.74505805969E-08  0.93827000000E+00  0.93827000000E+00 0. -1.
     999902    2    1    2    0    0  0.11550511906E-01  0.79221928671E-03  0.20308284159E-01  0.10205533377E+01  0.10202855711E+01 0.  0.
     999903    2    3    3    0    0 -0.19046905656E-01 -0.20808178892E-01 -0.12341916720E+00  0.12810705948E+00  0.19579656076E-01 0.  0.
         14    1    1    2    0    0 -0.11550511906E-01 -0.79221928671E-03 -0.20308284159E-01  0.23376662340E-01  0.00000000000E+00 0. -1.
     999901    1    3    3    0    0  0.30597417562E-01  0.21600398179E-01  0.14372745136E+00  0.89244627818E+00  0.88000000000E+00 0.  1.
        -11    1    4    4    0    0 -0.11492321234E-01  0.43522922704E-03 -0.49674017189E-01  0.50990508691E-01  0.51100000000E-03 0.  1.
         11    1    4    4    0    0 -0.75545844219E-02 -0.21243408119E-01 -0.73745150012E-01  0.77116550789E-01  0.51100000000E-03 0. -1.
</event>
<event>
 8    1  0.1123450E+005  0.1043930E+01  0.7957747E-01            NaN
         13   -1    0    0    0    0  0.00000000000E+00  0.00000000000E+00  0.74505805969E-08  0.10566000000E+00  0.10566000000E+00 0.  1.
     999900   -1    0    0    0    0 -0.00000000000E+00 -0.00000000000E+00 -0.74505805969E-08  0.93827000000E+00  0.93827000000E+00 0. -1.
     999902    2    1    2    0    0  0.17459302056E-01  0.10136097506E-01  0.12216625934E-01  0.10203331008E+01  0.10200602056E+01 0.  0.
     999903    2    3    3    0    0  0.52568219066E-01 -0.25605445262E-01 -0.11436901797E+00  0.12986467401E+00  0.19118179838E-01 0.  0.
         14    1    1    2    0    0 -0.17459302056E-01 -0.10136097506E-01 -0.12216625934E-01  0.23596899164E-01  0.00000000000E+00 0. -1.
     999901    1    3    3    0    0 -0.35108917010E-01  0.35741542769E-01  0.12658564391E+00  0.89046842683E+00  0.88000000000E+00 0.  1.
        -11    1    4    4    0    0  0.37261568847E-01 -0.93531530930E-02 -0.62091883530E-01  0.73017594504E-01  0.51100000000E-03 0. -1.
         11    1    4    4    0    0  0.15306650219E-01 -0.16252292169E-01 -0.52277134443E-01  0.56847079505E-01  0.51100000000E-03 0.  1.
</event>
<event>
 8    1  0.1123450E+005  0.1043930E+01  0.7957747E-01            NaN
         13   -1    0    0    0    0  0.00000000000E+00  0.00000000000E+00  0.74505805969E-08  0.10566000000E+00  0.10566000000E+00 0. -1.
     999900   -1    0    0    0    0 -0.00000000000E+00 -0.00000000000E+00 -0.74505805969E-08  0.93827000000E+00  0.93827000000E+00 0.  1.
     999902    2    1    2    0    0 -0.22520006971E-01 -0.98577508472E-02  0.20041922563E-02  0.10192653947E+01  0.10189669289E+01 0.  0.
     999903    2    3    3    0    0 -0.12142424707E+00  0.42819396665E-01  0.22151685391E-01  0.13193070476E+00  0.18375668273E-01 0.  0.
         14    1    1    2    0    0  0.22520006971E-01  0.98577508472E-02 -0.20041922563E-02  0.24664605254E-01  0.00000000000E+00 0. -1.
     999901    1    3    3    0    0  0.98904240099E-01 -0.52677147513E-01 -0.20147493134E-01  0.88733468999E+00  0.88000000000E+00 0. -1.
        -11    1    4    4    0    0 -0.73643421605E-01  0.27716202684E-01  0.22408156393E-01  0.81816428857E-01  0.51100000000E-03 0. -1.
         11    1    4    4    0    0 -0.47780825465E-01  0.15103193982E-01 -0.25647100247E-03  0.50114275900E-01  0.51100000000E-03 0.  1.
</event>
<event>
 8    1  0.1123450E+005  0.1043930E+01  0.7957747E-01            NaN
         13   -1    0    0    0    0  0.00000000000E+00  0.00000000000E+00  0.74505805969E-08  0.10566000000E+00  0.10566000000E+00 0. -1.
     999900   -1    0    0    0    0 -0.00000000000E+00 -0.00000000000E+00 -0.74505805969E-08  0.93827000000E+00  0.93827000000E+00 0. -1.
     999902    2    1    2    0    0  0.16231121682E-02  0.34919344282E-01  0.11184260312E-01  0.10072273737E+01  0.10065584432E+01 0.  0.
     999903    2    3    3    0    0  0.84081689371E-02 -0.68621390915E-01  0.92815028114E-01  0.11737890172E+00  0.19585314130E-01 0.  0.
         14    1    1    2    0    0 -0.16231121682E-02 -0.34919344282E-01 -0.11184260312E-01  0.36702626295E-01  0.00000000000E+00 0.  1.
     999901    1    3    3    0    0 -0.67850567689E-02  0.10354073520E+00 -0.81630767802E-01  0.88984847198E+00  0.88000000000E+00 0.  1.
        -11    1    4    4    0    0 -0.45531836294E-02 -0.36820622421E-01  0.41953536769E-01  0.56007589531E-01  0.51100000000E-03 0.  1.
         11    1    4    4    0    0  0.12961352566E-01 -0.31800768494E-01  0.50861491345E-01  0.61371312191E-01  0.51100000000E-03 0. -1.
</event>
<event>
 8    1  0.1123450E+005  0.1043930E+01  0.7957747E-01            NaN
         13   -1    0    0    0    0  0.00000000000E+00  0.00000000000E+00  0.74505805969E-08  0.10566000000E+00  0.10566000000E+00 0. -1.
     999900   -1    0    0    0    0 -0.00000000000E+00 -0.00000000000E+00 -0.74505805969E-08  0.93827000000E+00  0.93827000000E+00 0. -1.
     999902    2    1    2    0    0 -0.16686358189E-01  0.11920472064E-01  0.14723306401E-01  0.10186850410E+01  0.10183721838E+01 0.  0.
     999903    2    3    3    0    0  0.21017609825E-01 -0.93875537464E-01 -0.79754458398E-01  0.12653010329E+00  0.19867987976E-01 0.  0.
         14    1    1    2    0    0  0.16686358189E-01 -0.11920472064E-01 -0.14723306401E-01  0.25244959006E-01  0.00000000000E+00 0.  1.
     999901    1    3    3    0    0 -0.37703968014E-01  0.10579600953E+00  0.94477764799E-01  0.89215493771E+00  0.88000000000E+00 0. -1.
        -11    1    4    4    0    0  0.93126637341E-02 -0.70373442957E-01 -0.49915378944E-01  0.86781065651E-01  0.51100000000E-03 0. -1.
         11    1    4    4    0    0  0.11704946091E-01 -0.23502094507E-01 -0.29839079454E-01  0.39749037634E-01  0.51100000000E-03 0.  1.
</event>
<event>
 8    1  0.1123450E+005  0.1043930E+01  0.7957747E-01            NaN
         13   -1    0    0    0    0  0.00000000000E+00  0.00000000000E+00  0.74505805969E-08  0.10566000000E+00  0.10566000000E+00 0.  1.
     999900   -1    0    0    0    0 -0.00000000000E+00 -0.00000000000E+00 -0.74505805969E-08  0.93827000000E+00  0.93827000000E+00 0.  1.
     999902    2    1    2    0    0 -0.19673976614E-01 -0.12378850228E-01 -0.25743972048E-02  0.10205434909E+01  0.10202754961E+01 0.  0.
     999903    2    3    3    0    0  0.89295150439E-01 -0.92253687341E-01 -0.88945560006E-02  0.13020973060E+00  0.19776099110E-01 0.  0.
         14    1    1    2    0    0  0.19673976614E-01  0.12378850228E-01  0.25743972048E-02  0.23386509140E-01  0.00000000000E+00 0. -1.
     999901    1    3    3    0    0 -0.10896912705E+00  0.79874837114E-01  0.63201587958E-02  0.89033376026E+00  0.88000000000E+00 0. -1.
        -11    1    4    4    0    0  0.63691501729E-01 -0.52497957682E-01 -0.35178893641E-02  0.82615250528E-01  0.51100000000E-03 0. -1.
         11    1    4    4    0    0  0.25603648710E-01 -0.39755729659E-01 -0.53766666365E-02  0.47594480070E-01  0.51100000000E-03 0.  1.
</event>
<event>
 8    1  0.1123450E+005  0.1043930E+01  0.7957747E-01            NaN
         13   -1    0    0    0    0  0.00000000000E+00  0.00000000000E+00  0.74505805969E-08  0.10566000000E+00  0.10566000000E+00 0. -1.
     999900   -1    0    0    0    0 -0.00000000000E+00 -0.00000000000E+00 -0.74505805969E-08  0.93827000000E+00  0.93827000000E+00 0.  1.
     999902    2    1    2    0    0  0.17814497157E-01  0.19047067043E-01 -0.85150088169E-02  0.10164954880E+01  0.10161252013E+01 0.  0.
     999903    2    3    3    0    0  0.83162496263E-01  0.95669443369E-01 -0.24299962971E-01  0.13061145819E+00  0.20005540033E-01 0.  0.
         14    1    1    2    0    0 -0.17814497157E-01 -0.19047067043E-01  0.85150088169E-02  0.27434511970E-01  0.00000000000E+00 0.  1.
     999901    1    3    3    0    0 -0.65347999106E-01 -0.76622376326E-01  0.15784954154E-01  0.88588402984E+00  0.88000000000E+00 0.  1.
        -11    1    4    4    0    0  0.29124313560E-01  0.32065998252E-01 -0.18003141625E-01  0.46912984488E-01  0.51100000000E-03 0. -1.
         11    1    4    4    0    0  0.54038182703E-01  0.63603445117E-01 -0.62968213452E-02  0.83698473706E-01  0.51100000000E-03 0.  1.
</event>
<event>
 8    1  0.1123450E+005  0.1043930E+01  0.7957747E-01            NaN
         13   -1    0    0    0    0  0.00000000000E+00  0.00000000000E+00  0.74505805969E-08  0.10566000000E+00  0.10566000000E+00 0.  1.
     999900   -1    0    0    0    0 -0.00000000000E+00 -0.00000000000E+00 -0.74505805969E-08  0.93827000000E+00  0.93827000000E+00 0. -1.
     999902    2    1    2    0    0 -0.36486054216E-03  0.35053945760E-02 -0.23419259041E-01  0.10202470397E+01  0.10199721268E+01 0.  0.
     999903    2    3    3    0    0 -0.55554348064E-01  0.11003448579E+00 -0.42119742545E-01  0.13190924647E+00  0.20787085872E-01 0.  0.
         14    1    1    2    0    0  0.36486054216E-03 -0.35053945760E-02  0.23419259041E-01  0.23682960296E-01  0.00000000000E+00 0.  1.
     999901    1    3    3    0    0  0.55189487522E-01 -0.10652909122E+00  0.18700483504E-01  0.88833779324E+00  0.88000000000E+00 0. -1.
        -11    1    4    4    0    0 -0.41723903568E-01  0.93958471231E-01 -0.28441557405E-01  0.10666893528E+00  0.51100000000E-03 0. -1.
         11    1    4    4    0    0 -0.13830444496E-01  0.16076014562E-01 -0.13678185140E-01  0.25240311188E-01  0.51100000000E-03 0.  1.
</event>
<event>
 8    1  0.1123450E+005  0.1043930E+01  0.7957747E-01            NaN
         13   -1    0    0    0    0  0.00000000000E+00  0.00000000000E+00  0.74505805969E-08  0.10566000000E+00  0.10566000000E+00 0.  1.
     999900   -1    0    0    0    0 -0.00000000000E+00 -0.00000000000E+00 -0.74505805969E-08  0.93827000000E+00  0.93827000000E+00 0. -1.
     999902    2    1    2    0    0  0.22423997036E-01  0.82211932056E-02 -0.20710548207E-02  0.10199568290E+01  0.10196750561E+01 0.  0.
     999903    2    3    3    0    0 -0.76141148487E-01 -0.86453417877E-01 -0.52041025177E-01  0.12800651207E+00  0.20142762353E-01 0.  0.
         14    1    1    2    0    0 -0.22423997036E-01 -0.82211932056E-02  0.20710548207E-02  0.23973171022E-01  0.00000000000E+00 0. -1.
     999901    1    3    3    0    0  0.98565145522E-01  0.94674611083E-01  0.49969970356E-01  0.89195031691E+00  0.88000000000E+00 0.  1.
        -11    1    4    4    0    0 -0.46462355854E-01 -0.66674356482E-01 -0.37046580583E-01  0.89313664003E-01  0.51100000000E-03 0.  1.
         11    1    4    4    0    0 -0.29678792632E-01 -0.19779061396E-01 -0.14994444593E-01  0.38692848066E-01  0.51100000000E-03 0. -1.
</event>
<event>
 8    1  0.1123450E+005  0.1043930E+01  0.7957747E-01            NaN
         13   -1    0    0    0    0  0.00000000000E+00  0.00000000000E+00  0.74505805969E-08  0.10566000000E+00  0.10566000000E+00 0.  1.
     999900   -1    0    0    0    0 -0.00000000000E+00 -0.00000000000E+00 -0.74505805969E-08  0.93827000000E+00  0.93827000000E+00 0. -1.
     999902    2    1    2    0    0  0.20816424894E-01  0.10788162379E-02  0.10314124129E-01  0.10206734193E+01  0.10204084282E+01 0.  0.
     999903    2    3    3    0    0  0.48179001227E-01 -0.77722937241E-01 -0.90964081139E-01  0.13094553853E+00  0.22587582233E-01 0.  0.
         14    1    1    2    0    0 -0.20816424894E-01 -0.10788162379E-02 -0.10314124129E-01  0.23256580712E-01  0.00000000000E+00 0. -1.
     999901    1    3    3    0    0 -0.27362576333E-01  0.78801753479E-01  0.10127820527E+00  0.88972788076E+00  0.88000000000E+00 0. -1.
        -11    1    4    4    0    0  0.26502421935E-01 -0.29015593424E-01 -0.50624132588E-01  0.64088586749E-01  0.51100000000E-03 0.  1.
         11    1    4    4    0    0  0.21676579291E-01 -0.48707343817E-01 -0.40339948550E-01  0.66856951781E-01  0.51100000000E-03 0. -1.
</event>
<event>
 8    1  0.1123450E+005  0.1043930E+01  0.7957747E-01            NaN
         13   -1    0    0    0    0  0.00000000000E+00  0.00000000000E+00  0.74505805969E-08  0.10566000000E+00  0.10566000000E+00 0. -1.
     999900   -1    0    0    0    0 -0.00000000000E+00 -0.00000000000E+00 -0.74505805969E-08  0.93827000000E+00  0.93827000000E+00 0.  1.
     999902    2    1    2    0    0  0.22563533182E-01  0.33441490452E-02 -0.49735180546E-02  0.10205840744E+01  0.10203170196E+01 0.  0.
     999903    2    3    3    0    0  0.10942907211E+00  0.30726464129E-02 -0.74263499415E-01  0.13359659018E+00  0.18676685523E-01 0.  0.
         14    1    1    2    0    0 -0.22563533182E-01 -0.33441490452E-02  0.49735180546E-02  0.23345925647E-01  0.00000000000E+00 0.  1.
     999901    1    3    3    0    0 -0.86865538931E-01  0.27150263227E-03  0.69289981361E-01  0.88698748418E+00  0.88000000000E+00 0.  1.
        -11    1    4    4    0    0  0.54291654751E-01  0.88003693951E-02 -0.44006691646E-01  0.70440615469E-01  0.51100000000E-03 0. -1.
         11    1    4    4    0    0  0.55137417362E-01 -0.57277229822E-02 -0.30256807770E-01  0.63155974708E-01  0.51100000000E-03 0.  1.
</event>
<event>
 8    1  0.1123450E+005  0.1043930E+01  0.7957747E-01            NaN
         13   -1    0    0    0    0  0.00000000000E+00  0.00000000000E+00  0.74505805969E-08  0.10566000000E+00  0.10566000000E+00 0. -1.
     999900   -1    0    0    0    0 -0.00000000000E+00 -0.00000000000E+00 -0.74505805969E-08  0.93827000000E+00  0.93827000000E+00 0. -1.
     999902    2    1    2    0    0 -0.17769632852E-01  0.27154443846E-02 -0.15521482541E-01  0.10201802651E+01  0.10199037814E+01 0.  0.
     999903    2    3    3    0    0 -0.95561948153E-01  0.83195464704E-01  0.31003501884E-01  0.13187105528E+00  0.19369739517E-01 0.  0.
         14    1    1    2    0    0  0.17769632852E-01 -0.27154443846E-02  0.15521482541E-01  0.23749734950E-01  0.00000000000E+00 0. -1.
     999901    1    3    3    0    0  0.77792315301E-01 -0.80480020319E-01 -0.46524984425E-01  0.88830920977E+00  0.88000000000E+00 0.  1.
        -11    1    4    4    0    0 -0.46557956532E-01  0.53139177118E-01  0.15593691420E-01  0.72352192740E-01  0.51100000000E-03 0.  1.
         11    1    4    4    0    0 -0.49003991622E-01  0.30056287586E-01  0.15409810464E-01  0.59518862538E-01  0.51100000000E-03 0. -1.
</event>
<event>
 8    1  0.1123450E+005  0.1043930E+01  0.7957747E-01            NaN
         13   -1    0    0    0    0  0.00000000000E+00  0.00000000000E+00  0.74505805969E-08  0.10566000000E+00  0.10566000000E+00 0.  1.
     999900   -1    0    0    0    0 -0.00000000000E+00 -0.00000000000E+00 -0.74505805969E-08  0.93827000000E+00  0.93827000000E+00 0. -1.
     999902    2    1    2    0    0  0.16825966258E-01 -0.28264366888E-02  0.69754724735E-02  0.10254974445E+01  0.10253317754E+01 0.  0.
     999903    2    3    3    0    0  0.99313077063E-01 -0.77751855073E-01  0.49763653025E-01  0.13743845428E+00  0.22460394252E-01 0.  0.
         14    1    1    2    0    0 -0.16825966258E-01  0.28264366888E-02 -0.69754724735E-02  0.18432555468E-01  0.00000000000E+00 0.  1.
     999901    1    3    3    0    0 -0.82487110806E-01  0.74925418384E-01 -0.42788180552E-01  0.88805899025E+00  0.88000000000E+00 0. -1.
        -11    1    4    4    0    0  0.72558144266E-01 -0.63306859792E-01  0.28822510110E-01  0.10051587440E+00  0.51100000000E-03 0. -1.
         11    1    4    4    0    0  0.26754932797E-01 -0.14444995281E-01  0.20941142915E-01  0.36922579883E-01  0.51100000000E-03 0.  1.
</event>
<event>
 8    1  0.1123450E+005  0.1043930E+01  0.7957747E-01            NaN
         13   -1    0    0    0    0  0.00000000000E+00  0.00000000000E+00  0.74505805969E-08  0.10566000000E+00  0.10566000000E+00 0.  1.
     999900   -1    0    0    0    0 -0.00000000000E+00 -0.00000000000E+00 -0.74505805969E-08  0.93827000000E+00  0.93827000000E+00 0. -1.
     999902    2    1    2    0    0 -0.20832259509E-01  0.70028794172E-03  0.10012362950E-01  0.10208059681E+01  0.10205440234E+01 0.  0.
     999903    2    3    3    0    0  0.96082347774E-01 -0.34241189268E-01  0.77815946313E-01  0.12980245624E+00  0.19725099492E-01 0.  0.
         14    1    1    2    0    0  0.20832259509E-01 -0.70028794172E-03 -0.10012362950E-01  0.23124031899E-01  0.00000000000E+00 0. -1.
     999901    1    3    3    0    0 -0.11691460728E+00  0.34941477209E-01 -0.67803583363E-01  0.89100351186E+00  0.88000000000E+00 0. -1.
        -11    1    4    4    0    0  0.40594613081E-01 -0.16479733285E-01  0.21638181147E-01  0.48866923626E-01  0.51100000000E-03 0.  1.
         11    1    4    4    0    0  0.55487734693E-01 -0.17761455983E-01  0.56177765166E-01  0.80935532617E-01  0.51100000000E-03 0. -1.
</event>
<event>
 8    1  0.1123450E+005  0.1043930E+01  0.7957747E-01            NaN
         13   -1    0    0    0    0  0.00000000000E+00  0.00000000000E+00  0.74505805969E-08  0.10566000000E+00  0.10566000000E+00 0. -1.
     999900   -1    0    0    0    0 -0.00000000000E+00 -0.00000000000E+00 -0.74505805969E-08  0.93827000000E+00  0.93827000000E+00 0. -1.
     999902    2    1    2    0    0  0.49492043442E-02 -0.73818275208E-02  0.22133265576E-01  0.10200790577E+01  0.10198001846E+01 0.  0.
     999903    2    3    3    0    0  0.12249312229E+00 -0.32625543807E-01  0.30322221956E-01  0.13186687766E+00  0.20011125971E-01 0.  0.
         14    1    1    2    0    0 -0.49492043442E-02  0.73818275208E-02 -0.22133265576E-01  0.23850942251E-01  0.00000000000E+00 0.  1.
     999901    1    3    3    0    0 -0.11754391794E+00  0.25243716286E-01 -0.81889563800E-02  0.88821218009E+00  0.88000000000E+00 0.  1.
        -11    1    4    4    0    0  0.84459276127E-01 -0.23553926038E-01  0.11388237947E-01  0.88420076002E-01  0.51100000000E-03 0. -1.
         11    1    4    4    0    0  0.38033846159E-01 -0.90716177687E-02  0.18933984009E-01  0.43446801655E-01  0.51100000000E-03 0.  1.
</event>
<event>
 8    1  0.1123450E+005  0.1043930E+01  0.7957747E-01            NaN
         13   -1    0    0    0    0  0.00000000000E+00  0.00000000000E+00  0.74505805969E-08  0.10566000000E+00  0.10566000000E+00 0. -1.
     999900   -1    0    0    0    0 -0.00000000000E+00 -0.00000000000E+00 -0.74505805969E-08  0.93827000000E+00  0.93827000000E+00 0. -1.
     999902    2    1    2    0    0  0.98007604909E-02 -0.13137179585E-01  0.16890556442E-01  0.10203942550E+01  0.10201227889E+01 0.  0.
     999903    2    3    3    0    0 -0.53824498143E-01  0.21204364889E-01 -0.11248943721E+00  0.12800045298E+00  0.19584197401E-01 0.  0.
         14    1    1    2    0    0 -0.98007604909E-02  0.13137179585E-01 -0.16890556442E-01  0.23535744955E-01  0.00000000000E+00 0.  1.
     999901    1    3    3    0    0  0.63625258634E-01 -0.34341544475E-01  0.12937999365E+00  0.89239380207E+00  0.88000000000E+00 0.  1.
        -11    1    4    4    0    0 -0.26789045759E-01  0.17776827922E-01 -0.45841544136E-01  0.55994436094E-01  0.51100000000E-03 0. -1.
         11    1    4    4    0    0 -0.27035452384E-01  0.34275369675E-02 -0.66647893073E-01  0.72006016883E-01  0.51100000000E-03 0.  1.
</event>
<event>
 8    1  0.1123450E+005  0.1043930E+01  0.7957747E-01            NaN
         13   -1    0    0    0    0  0.00000000000E+00  0.00000000000E+00  0.74505805969E-08  0.10566000000E+00  0.10566000000E+00 0. -1.
     999900   -1    0    0    0    0 -0.00000000000E+00 -0.00000000000E+00 -0.74505805969E-08  0.93827000000E+00  0.93827000000E+00 0. -1.
     999902    2    1    2    0    0  0.25987696303E-02  0.15731918899E-01  0.25330253442E-01  0.10139989356E+01  0.10135570891E+01 0.  0.
     999903    2    3    3    0    0  0.10960164866E+00  0.56706753371E-01 -0.13400555028E-01  0.12572610100E+00  0.19982500648E-01 0.  0.
         14    1    1    2    0    0 -0.25987696303E-02 -0.15731918899E-01 -0.25330253442E-01  0.29931064386E-01  0.00000000000E+00 0.  1.
     999901    1    3    3    0    0 -0.10700287903E+00 -0.40974834472E-01  0.38730808470E-01  0.88827283461E+00  0.88000000000E+00 0.  1.
        -11    1    4    4    0    0  0.58452318839E-01  0.20333389730E-01 -0.11381577094E-01  0.62927909020E-01  0.51100000000E-03 0. -1.
         11    1    4    4    0    0  0.51149329821E-01  0.36373363640E-01 -0.20189779343E-02  0.62798191984E-01  0.51100000000E-03 0.  1.
</event>
<event>
 8    1  0.1123450E+005  0.1043930E+01  0.7957747E-01            NaN
         13   -1    0    0    0    0  0.00000000000E+00  0.00000000000E+00  0.74505805969E-08  0.10566000000E+00  0.10566000000E+00 0. -1.
     999900   -1    0    0    0    0 -0.00000000000E+00 -0.00000000000E+00 -0.74505805969E-08  0.93827000000E+00  0.93827000000E+00 0. -1.
     999902    2    1    2    0    0  0.43675122965E-02 -0.74634459901E-03 -0.25553486865E-01  0.10179952186E+01  0.10176648035E+01 0.  0.
     999903    2    3    3    0    0  0.91364200052E-01  0.13393954756E-01  0.84575293274E-01  0.12676196074E+00  0.19717996441E-01 0.  0.
         14    1    1    2    0    0 -0.43675122965E-02  0.74634459901E-03  0.25553486865E-01  0.25934781373E-01  0.00000000000E+00 0. -1.
     999901    1    3    3    0    0 -0.86996687755E-01 -0.14140299355E-01 -0.11012878014E+00  0.89123325789E+00  0.88000000000E+00 0.  1.
        -11    1    4    4    0    0  0.78791316908E-01  0.43890533403E-02  0.71949559253E-01  0.10679108393E+00  0.51100000000E-03 0.  1.
         11    1    4    4    0    0  0.12572883143E-01  0.90049014154E-02  0.12625734021E-01  0.19970876811E-01  0.51100000000E-03 0. -1.
</event>
<event>
 8    1  0.1123450E+005  0.1043930E+01  0.7957747E-01            NaN
         13   -1    0    0    0    0  0.00000000000E+00  0.00000000000E+00  0.74505805969E-08  0.10566000000E+00  0.10566000000E+00 0.  1.
     999900   -1    0    0    0    0 -0.00000000000E+00 -0.00000000000E+00 -0.74505805969E-08  0.93827000000E+00  0.93827000000E+00 0. -1.
     999902    2    1    2    0    0  0.21457753722E-01  0.92358784548E-02 -0.72572988721E-03  0.10205577231E+01  0.10202900582E+01 0.  0.
     999903    2    3    3    0    0  0.10465659203E+00  0.16205089011E-01  0.77859450192E-01  0.13311969867E+00  0.21051200106E-01 0.  0.
         14    1    1    2    0    0 -0.21457753722E-01 -0.92358784548E-02  0.72572988721E-03  0.23372276943E-01  0.00000000000E+00 0.  1.
     999901    1    3    3    0    0 -0.83198838307E-01 -0.69692105565E-02 -0.78585180080E-01  0.88743802438E+00  0.88000000000E+00 0. -1.
        -11    1    4    4    0    0  0.65880726279E-01  0.12374949393E-02  0.53978192846E-01  0.85180443252E-01  0.51100000000E-03 0. -1.
         11    1    4    4    0    0  0.38775865750E-01  0.14967594072E-01  0.23881257347E-01  0.47939255422E-01  0.51100000000E-03 0.  1.
</event>
<event>
 8    1  0.1197406E+005  0.1043930E+01  0.7957747E-01            NaN
         13   -1    0    0    0    0  0.00000000000E+00  0.00000000000E+00  0.74505805969E-08  0.10566000000E+00  0.10566000000E+00 0. -1.
     999900   -1    0    0    0    0 -0.00000000000E+00 -0.00000000000E+00 -0.74505805969E-08  0.93827000000E+00  0.93827000000E+00 0. -1.
     999902    2    1    2    0    0 -0.71420702245E-02  0.18096755649E-01  0.15406497813E-01  0.10191134348E+01  0.10188112343E+01 0.  0.
     999903    2    3    3    0    0 -0.14649165237E-01 -0.12282760748E+00  0.25434595975E-01  0.12781292694E+00  0.19697878567E-01 0.  0.
         14    1    1    2    0    0  0.71420702245E-02 -0.18096755649E-01 -0.15406497813E-01  0.24816565173E-01  0.00000000000E+00 0.  1.
     999901    1    3    3    0    0  0.75070950128E-02  0.14092436313E+00 -0.10028098163E-01  0.89130050788E+00  0.88000000000E+00 0. -1.
        -11    1    4    4    0    0 -0.17881130928E-01 -0.68029077614E-01  0.13185674554E-01  0.71566845527E-01  0.51100000000E-03 0.  1.
         11    1    4    4    0    0  0.32319656907E-02 -0.54798529867E-01  0.12248921421E-01  0.56246081417E-01  0.51100000000E-03 0. -1.
</event>
<event>
 8    1  0.1123450E+005  0.1043930E+01  0.7957747E-01            NaN
         13   -1    0    0    0    0  0.00000000000E+00  0.00000000000E+00  0.74505805969E-08  0.10566000000E+00  0.10566000000E+00 0.  1.
     999900   -1    0    0    0    0 -0.00000000000E+00 -0.00000000000E+00 -0.74505805969E-08  0.93827000000E+00  0.93827000000E+00 0.  1.
     999902    2    1    2    0    0 -0.15534117433E-01  0.12957121287E-01 -0.18542062645E-01  0.10164890838E+01  0.10161186218E+01 0.  0.
     999903    2    3    3    0    0  0.41725100815E-01  0.45824154451E-01  0.10657898813E+00  0.12518995481E+00  0.21739523992E-01 0.  0.
         14    1    1    2    0    0  0.15534117433E-01 -0.12957121287E-01  0.18542062645E-01  0.27440916231E-01  0.00000000000E+00 0.  1.
     999901    1    3    3    0    0 -0.57259218248E-01 -0.32867033164E-01 -0.12512105078E+00  0.89129912896E+00  0.88000000000E+00 0.  1.
        -11    1    4    4    0    0  0.42868939358E-01  0.36637814152E-01  0.92315227050E-01  0.10817780574E+00  0.51100000000E-03 0.  1.
         11    1    4    4    0    0 -0.11438385438E-02  0.91863402994E-02  0.14263761083E-01  0.17012149069E-01  0.51100000000E-03 0. -1.
</event>
<event>
 8    1  0.1123450E+005  0.1043930E+01  0.7957747E-01            NaN
         13   -1    0    0    0    0  0.00000000000E+00  0.00000000000E+00  0.74505805969E-08  0.10566000000E+00  0.10566000000E+00 0.  1.
     999900   -1    0    0    0    0 -0.00000000000E+00 -0.00000000000E+00 -0.74505805969E-08  0.93827000000E+00  0.93827000000E+00 0. -1.
     999902    2    1    2    0    0  0.11420235739E-01 -0.20344848155E-01 -0.11204816426E-01  0.10180479108E+01  0.10177188542E+01 0.  0.
     999903    2    3    3    0    0 -0.12350660037E+00  0.15724929040E-01  0.13502400175E-01  0.12669123331E+00  0.19162464876E-01 0.  0.
         14    1    1    2    0    0 -0.11420235739E-01  0.20344848155E-01  0.11204816426E-01  0.25882089211E-01  0.00000000000E+00 0.  1.
     999901    1    3    3    0    0  0.13492683611E+00 -0.36069777195E-01 -0.24707216601E-01  0.89135667748E+00  0.88000000000E+00 0. -1.
        -11    1    4    4    0    0 -0.29878547757E-01 -0.33656893544E-02  0.72355562197E-02  0.30930080435E-01  0.51100000000E-03 0. -1.
         11    1    4    4    0    0 -0.93628052611E-01  0.19090618394E-01  0.62668439554E-02  0.95761152878E-01  0.51100000000E-03 0.  1.
</event>
<event>
 8    1  0.1123450E+005  0.1043930E+01  0.7957747E-01            NaN
         13   -1    0    0    0    0  0.00000000000E+00  0.00000000000E+00  0.74505805969E-08  0.10566000000E+00  0.10566000000E+00 0.  1.
     999900   -1    0    0    0    0 -0.00000000000E+00 -0.00000000000E+00 -0.74505805969E-08  0.93827000000E+00  0.93827000000E+00 0. -1.
     999902    2    1    2    0    0  0.12788929996E-01 -0.21364996233E-01 -0.76285970662E-02  0.10178874332E+01  0.10175542301E+01 0.  0.
     999903    2    3    3    0    0 -0.40529170412E-01 -0.21138060841E-01 -0.11917897647E+00  0.12924444609E+00  0.20274790786E-01 0.  0.
         14    1    1    2    0    0 -0.12788929996E-01  0.21364996233E-01  0.76285970662E-02  0.26042566841E-01  0.00000000000E+00 0. -1.
     999901    1    3    3    0    0  0.53318100408E-01 -0.22693539166E-03  0.11155037940E+00  0.88864298707E+00  0.88000000000E+00 0. -1.
        -11    1    4    4    0    0 -0.24763411896E-01 -0.16527864206E-02 -0.63607821600E-01  0.68280116882E-01  0.51100000000E-03 0.  1.
         11    1    4    4    0    0 -0.15765758516E-01 -0.19485274421E-01 -0.55571154868E-01  0.60964329203E-01  0.51100000000E-03 0. -1.
</event>
<event>
 8    1  0.1123450E+005  0.1043930E+01  0.7957747E-01            NaN
         13   -1    0    0    0    0  0.00000000000E+00  0.00000000000E+00  0.74505805969E-08  0.10566000000E+00  0.10566000000E+00 0.  1.
     999900   -1    0    0    0    0 -0.00000000000E+00 -0.00000000000E+00 -0.74505805969E-08  0.93827000000E+00  0.93827000000E+00 0.  1.
     999902    2    1    2    0    0  0.87698575441E-03  0.64594211571E-03 -0.23369815230E-01  0.10205348165E+01  0.10202666206E+01 0.  0.
     999903    2    3    3    0    0  0.10735519388E+00 -0.51749258520E-01  0.47086354248E-01  0.12977843140E+00  0.20547337760E-01 0.  0.
         14    1    1    2    0    0 -0.87698575441E-03 -0.64594211571E-03  0.23369815230E-01  0.23395183460E-01  0.00000000000E+00 0.  1.
     999901    1    3    3    0    0 -0.10647820813E+00  0.52395200636E-01 -0.70456169478E-01  0.89075638514E+00  0.88000000000E+00 0.  1.
        -11    1    4    4    0    0  0.94454317546E-01 -0.38140759479E-01  0.43059008189E-01  0.11059238194E+00  0.51100000000E-03 0.  1.
         11    1    4    4    0    0  0.12900876334E-01 -0.13608499041E-01  0.40273460587E-02  0.19186049453E-01  0.51100000000E-03 0. -1.
</event>
<event>
 8    1  0.1123450E+005  0.1043930E+01  0.7957747E-01            NaN
         13   -1    0    0    0    0  0.00000000000E+00  0.00000000000E+00  0.74505805969E-08  0.10566000000E+00  0.10566000000E+00 0.  1.
     999900   -1    0    0    0    0 -0.00000000000E+00 -0.00000000000E+00 -0.74505805969E-08  0.93827000000E+00  0.93827000000E+00 0. -1.
     999902    2    1    2    0    0  0.16512042028E-01  0.89379608033E-02  0.14921759039E-01  0.10199468065E+01  0.10196647952E+01 0.  0.
     999903    2    3    3    0    0 -0.26386029110E-01  0.10377757271E+00  0.74115646046E-01  0.13183717776E+00  0.20540333972E-01 0.  0.
         14    1    1    2    0    0 -0.16512042028E-01 -0.89379608033E-02 -0.14921759039E-01  0.23983193450E-01  0.00000000000E+00 0. -1.
     999901    1    3    3    0    0  0.42898071138E-01 -0.94839611911E-01 -0.59193887007E-01  0.88810962879E+00  0.88000000000E+00 0. -1.
        -11    1    4    4    0    0 -0.11950480115E-01  0.71338015758E-01  0.58570160519E-01  0.93073365102E-01  0.51100000000E-03 0. -1.
         11    1    4    4    0    0 -0.14435548996E-01  0.32439556956E-01  0.15545485527E-01  0.38763812655E-01  0.51100000000E-03 0.  1.
</event>
<event>
 8    1  0.1123450E+005  0.1043930E+01  0.7957747E-01            NaN
         13   -1    0    0    0    0  0.00000000000E+00  0.00000000000E+00  0.74505805969E-08  0.10566000000E+00  0.10566000000E+00 0. -1.
     999900   -1    0    0    0    0 -0.00000000000E+00 -0.00000000000E+00 -0.74505805969E-08  0.93827000000E+00  0.93827000000E+00 0.  1.
     999902    2    1    2    0    0  0.52192158328E-02  0.11265225862E-02  0.22599615260E-01  0.10207082025E+01  0.10204440126E+01 0.  0.
     999903    2    3    3    0    0  0.12798927599E+00 -0.71417265824E-02 -0.19214786201E-01  0.13116377095E+00  0.20061599498E-01 0.  0.
         14    1    1    2    0    0 -0.52192158328E-02 -0.11265225862E-02 -0.22599615260E-01  0.23221797453E-01  0.00000000000E+00 0.  1.
     999901    1    3    3    0    0 -0.12277006016E+00  0.82682491686E-02  0.41814401462E-01  0.88954443160E+00  0.88000000000E+00 0. -1.
        -11    1    4    4    0    0  0.67107739027E-01 -0.28636480627E-02 -0.20132914362E-01  0.70123066670E-01  0.51100000000E-03 0.  1.
         11    1    4    4    0    0  0.60881536962E-01 -0.42780785197E-02  0.91812816103E-03  0.61040704280E-01  0.51100000000E-03 0. -1.
</event>
<event>
 8    1  0.1123450E+005  0.1043930E+01  0.7957747E-01            NaN
         13   -1    0    0    0    0  0.00000000000E+00  0.00000000000E+00  0.74505805969E-08  0.10566000000E+00  0.10566000000E+00 0.  1.
     999900   -1    0    0    0    0 -0.00000000000E+00 -0.00000000000E+00 -0.74505805969E-08  0.93827000000E+00  0.93827000000E+00 0. -1.
     999902    2    1    2    0    0 -0.89224067246E-05  0.33721038374E-02 -0.23521968508E-01  0.10201675471E+01  0.10198907638E+01 0.  0.
     999903    2    3    3    0    0 -0.21397752397E-02 -0.12845007038E+00 -0.32332302506E-02  0.13011515595E+00  0.20383836987E-01 0.  0.
         14    1    1    2    0    0  0.89224067246E-05 -0.33721038374E-02  0.23521968508E-01  0.23762452870E-01  0.00000000000E+00 0.  1.
     999901    1    3    3    0    0  0.21308528329E-02  0.13182217422E+00 -0.20288738258E-01  0.89005239118E+00  0.88000000000E+00 0. -1.
        -11    1    4    4    0    0 -0.14674138707E-02 -0.58757456859E-02  0.40796142249E-02  0.73199770531E-02  0.51100000000E-03 0. -1.
         11    1    4    4    0    0 -0.67236136896E-03 -0.12257432470E+00 -0.73128444755E-02  0.12279517889E+00  0.51100000000E-03 0.  1.
</event>
<event>
 8    1  0.1123450E+005  0.1043930E+01  0.7957747E-01            NaN
         13   -1    0    0    0    0  0.00000000000E+00  0.00000000000E+00  0.74505805969E-08  0.10566000000E+00  0.10566000000E+00 0.  1.
     999900   -1    0    0    0    0 -0.00000000000E+00 -0.00000000000E+00 -0.74505805969E-08  0.93827000000E+00  0.93827000000E+00 0. -1.
     999902    2    1    2    0    0 -0.10688287212E-01  0.19500064744E-01 -0.89210795159E-02  0.10199700820E+01  0.10196886243E+01 0.  0.
     999903    2    3    3    0    0 -0.11355488219E+00 -0.57199366488E-01  0.19444781120E-01  0.13021227165E+00  0.20264683056E-01 0.  0.
         14    1    1    2    0    0  0.10688287212E-01 -0.19500064744E-01  0.89210795159E-02  0.23959917952E-01  0.00000000000E+00 0. -1.
     999901    1    3    3    0    0  0.10286659498E+00  0.76699431231E-01 -0.28365860636E-01  0.88975781040E+00  0.88000000000E+00 0. -1.
        -11    1    4    4    0    0 -0.75978063789E-01 -0.30284568349E-01  0.19069428599E-01  0.83986460131E-01  0.51100000000E-03 0.  1.
         11    1    4    4    0    0 -0.37576818403E-01 -0.26914798139E-01  0.37535252115E-03  0.46225811520E-01  0.51100000000E-03 0. -1.
</event>
<event>
 8    1  0.1123450E+005  0.1043930E+01  0.7957747E-01            NaN
         13   -1    0    0    0    0  0.00000000000E+00  0.00000000000E+00  0.74505805969E-08  0.10566000000E+00  0.10566000000E+00 0. -1.
     999900   -1    0    0    0    0 -0.00000000000E+00 -0.00000000000E+00 -0.74505805969E-08  0.93827000000E+00  0.93827000000E+00 0.  1.
     999902    2    1    2    0    0 -0.10719845088E-01 -0.99480746569E-02  0.18117271055E-01  0.10206466416E+01  0.10203810329E+01 0.  0.
     999903    2    3    3    0    0  0.59804219833E-03  0.11047741475E+00 -0.63292788717E-01  0.12865000993E+00  0.18418228135E-01 0.  0.
         14    1    1    2    0    0  0.10719845088E-01  0.99480746569E-02 -0.18117271055E-01  0.23283358404E-01  0.00000000000E+00 0.  1.
     999901    1    3    3    0    0 -0.11317887286E-01 -0.12042548941E+00  0.81410059772E-01  0.89199663167E+00  0.88000000000E+00 0. -1.
        -11    1    4    4    0    0 -0.80968392679E-02  0.46847294639E-01 -0.22819215888E-01  0.52737136402E-01  0.51100000000E-03 0. -1.
         11    1    4    4    0    0  0.86948814662E-02  0.63630120109E-01 -0.40473572829E-01  0.75912873529E-01  0.51100000000E-03 0.  1.
</event>
<event>
 8    1  0.1123450E+005  0.1043930E+01  0.7957747E-01            NaN
         13   -1    0    0    0    0  0.00000000000E+00  0.00000000000E+00  0.74505805969E-08  0.10566000000E+00  0.10566000000E+00 0.  1.
     999900   -1    0    0    0    0 -0.00000000000E+00 -0.00000000000E+00 -0.74505805969E-08  0.93827000000E+00  0.93827000000E+00 0.  1.
     999902    2    1    2    0    0  0.10550504922E-01  0.99129807222E-02  0.17841889760E-01  0.10209536345E+01  0.10206950624E+01 0.  0.
     999903    2    3    3    0    0 -0.66860868319E-01 -0.10714000380E+00 -0.18434949324E-01  0.12909606127E+00  0.19405915406E-01 0.  0.
         14    1    1    2    0    0 -0.10550504922E-01 -0.99129807222E-02 -0.17841889760E-01  0.22976365490E-01  0.00000000000E+00 0. -1.
     999901    1    3    3    0    0  0.77411373241E-01  0.11705298452E+00  0.36276839084E-01  0.89185757324E+00  0.88000000000E+00 0.  1.
        -11    1    4    4    0    0 -0.48222174950E-01 -0.74420169548E-01 -0.21698487892E-01  0.91295264336E-01  0.51100000000E-03 0. -1.
         11    1    4    4    0    0 -0.18638693369E-01 -0.32719834250E-01  0.32635385682E-02  0.37800796934E-01  0.51100000000E-03 0.  1.
</event>
<event>
 8    1  0.1123450E+005  0.1043930E+01  0.7957747E-01            NaN
         13   -1    0    0    0    0  0.00000000000E+00  0.00000000000E+00  0.74505805969E-08  0.10566000000E+00  0.10566000000E+00 0. -1.
     999900   -1    0    0    0    0 -0.00000000000E+00 -0.00000000000E+00 -0.74505805969E-08  0.93827000000E+00  0.93827000000E+00 0. -1.
     999902    2    1    2    0    0 -0.10987937477E-01 -0.23019842025E-01  0.75223961213E-02  0.10173361221E+01  0.10169884714E+01 0.  0.
     999903    2    3    3    0    0 -0.31760399361E-01  0.11924518414E+00  0.99842493558E-02  0.12566527840E+00  0.21539267668E-01 0.  0.
         14    1    1    2    0    0  0.10987937477E-01  0.23019842025E-01 -0.75223961213E-02  0.26593877871E-01  0.00000000000E+00 0.  1.
     999901    1    3    3    0    0  0.20772461884E-01 -0.14226502616E+00 -0.24618532345E-02  0.89167084373E+00  0.88000000000E+00 0.  1.
        -11    1    4    4    0    0 -0.46687793556E-03  0.39670431799E-01  0.52971082283E-02  0.40028509974E-01  0.51100000000E-03 0. -1.
         11    1    4    4    0    0 -0.31293521426E-01  0.79574752338E-01  0.46871411275E-02  0.85636768422E-01  0.51100000000E-03 0.  1.
</event>
<event>
 8    1  0.1123450E+005  0.1043930E+01  0.7957747E-01            NaN
         13   -1    0    0    0    0  0.00000000000E+00  0.00000000000E+00  0.74505805969E-08  0.10566000000E+00  0.10566000000E+00 0. -1.
     999900   -1    0    0    0    0 -0.00000000000E+00 -0.00000000000E+00 -0.74505805969E-08  0.93827000000E+00  0.93827000000E+00 0. -1.
     999902    2    1    2    0    0  0.12939824864E-01 -0.15545641597E-01 -0.91761413678E-02  0.10217194707E+01  0.10214780317E+01 0.  0.
     999903    2    3    3    0    0 -0.32903599564E-01  0.12304787256E+00  0.11620861523E-01  0.12945140727E+00  0.19979905298E-01 0.  0.
         14    1    1    2    0    0 -0.12939824864E-01  0.15545641597E-01  0.91761413678E-02  0.22210529273E-01  0.00000000000E+00 0.  1.
     999901    1    3    3    0    0  0.45843424428E-01 -0.13859351416E+00 -0.20797002891E-01  0.89226806345E+00  0.88000000000E+00 0. -1.
        -11    1    4    4    0    0 -0.10536846673E-01  0.23815144188E-01  0.94389288142E-02  0.27704525418E-01  0.51100000000E-03 0.  1.
         11    1    4    4    0    0 -0.22366752891E-01  0.99232728377E-01  0.21819327087E-02  0.10174688186E+00  0.51100000000E-03 0. -1.
</event>
<event>
 7    1  0.1123450E+005  0.1043930E+01  0.7957747E-01            NaN
         13   -1    0    0    0    0  0.00000000000E+00  0.00000000000E+00  0.74505805969E-08  0.10566000000E+00  0.10566000000E+00 0.  1.
     999900   -1    0    0    0    0 -0.00000000000E+00 -0.00000000000E+00 -0.74505805969E-08  0.93827000000E+00  0.93827000000E+00 0.  1.
     999902    2    1    2    0    0  0.21992839917E-01 -0.65527682332E-02 -0.98786135664E-02  0.10189457893E+01  0.10186394410E+01 0.  0.
         14    1    1    2    0    0 -0.21992839917E-01  0.65527682332E-02  0.98786135664E-02  0.24984210716E-01  0.00000000000E+00 0.  1.
     999901    1    3    3    0    0  0.43699854887E-01  0.74882185467E-01  0.71002528383E-01  0.88710674558E+00  0.88000000000E+00 0.  1.
        -11    1    3    3    0    0 -0.41045834791E-01 -0.71137426055E-01 -0.61880292267E-01  0.10283348497E+00  0.51100000000E-03 0. -1.
         11    1    3    3    0    0  0.19338819820E-01 -0.10297527645E-01 -0.19000849682E-01  0.29005558731E-01  0.51100000000E-03 0.  1.
</event>
<event>
 8    1  0.1123450E+005  0.1043930E+01  0.7957747E-01            NaN
         13   -1    0    0    0    0  0.00000000000E+00  0.00000000000E+00  0.74505805969E-08  0.10566000000E+00  0.10566000000E+00 0. -1.
     999900   -1    0    0    0    0 -0.00000000000E+00 -0.00000000000E+00 -0.74505805969E-08  0.93827000000E+00  0.93827000000E+00 0. -1.
     999902    2    1    2    0    0  0.20629753603E-01 -0.32291289799E-02  0.10520479618E-01  0.10205485009E+01  0.10202806223E+01 0.  0.
     999903    2    3    3    0    0  0.93449794369E-01  0.76848017944E-01  0.51862833553E-01  0.13295383103E+00  0.18667773074E-01 0.  0.
         14    1    1    2    0    0 -0.20629753603E-01  0.32291289799E-02 -0.10520479618E-01  0.23381499077E-01  0.00000000000E+00 0.  1.
     999901    1    3    3    0    0 -0.72820040765E-01 -0.80077146924E-01 -0.41342353935E-01  0.88759466989E+00  0.88000000000E+00 0. -1.
        -11    1    4    4    0    0  0.10854476540E-01  0.16491307518E-01  0.12324193045E-01  0.23279384438E-01  0.51100000000E-03 0. -1.
         11    1    4    4    0    0  0.82595317829E-01  0.60356710426E-01  0.39538640508E-01  0.10967444659E+00  0.51100000000E-03 0.  1.
</event>
<event>
 8    1  0.1123450E+005  0.1043930E+01  0.7957747E-01            NaN
         13   -1    0    0    0    0  0.00000000000E+00  0.00000000000E+00  0.74505805969E-08  0.10566000000E+00  0.10566000000E+00 0. -1.
     999900   -1    0    0    0    0 -0.00000000000E+00 -0.00000000000E+00 -0.74505805969E-08  0.93827000000E+00  0.93827000000E+00 0. -1.
     999902    2    1    2    0    0  0.58893609856E-03  0.22145327418E-01 -0.85621036257E-02  0.10201798002E+01  0.10199033056E+01 0.  0.
     999903    2    3    3    0    0 -0.74115304208E-01  0.93167991068E-01  0.53466421589E-01  0.13199486438E+00  0.19764440482E-01 0.  0.
         14    1    1    2    0    0 -0.58893609856E-03 -0.22145327418E-01  0.85621036257E-02  0.23750199803E-01  0.00000000000E+00 0. -1.
     999901    1    3    3    0    0  0.74704240307E-01 -0.71022663650E-01 -0.62028525215E-01  0.88818493582E+00  0.88000000000E+00 0. -1.
        -11    1    4    4    0    0 -0.42801795631E-01  0.37990468122E-01  0.24862325799E-01  0.62399244727E-01  0.51100000000E-03 0. -1.
         11    1    4    4    0    0 -0.31313508577E-01  0.55177522947E-01  0.28604095790E-01  0.69595619653E-01  0.51100000000E-03 0.  1.
</event>
<event>
 8    1  0.1123450E+005  0.1043930E+01  0.7957747E-01            NaN
         13   -1    0    0    0    0  0.00000000000E+00  0.00000000000E+00  0.74505805969E-08  0.10566000000E+00  0.10566000000E+00 0.  1.
     999900   -1    0    0    0    0 -0.00000000000E+00 -0.00000000000E+00 -0.74505805969E-08  0.93827000000E+00  0.93827000000E+00 0.  1.
     999902    2    1    2    0    0  0.19202252423E-01 -0.16381063486E-02  0.14273756992E-01  0.10199477143E+01  0.10196657245E+01 0.  0.
     999903    2    3    3    0    0  0.75399531778E-02  0.12514596369E+00 -0.27285186624E-01  0.12981437850E+00  0.19721266014E-01 0.  0.
         14    1    1    2    0    0 -0.19202252423E-01  0.16381063486E-02 -0.14273756992E-01  0.23982285738E-01  0.00000000000E+00 0.  1.
     999901    1    3    3    0    0  0.11662299246E-01 -0.12678407004E+00  0.41558943616E-01  0.89013333576E+00  0.88000000000E+00 0. -1.
        -11    1    4    4    0    0  0.59693348898E-02  0.25504272606E-01  0.10162397830E-02  0.26218213983E-01  0.51100000000E-03 0. -1.
         11    1    4    4    0    0  0.15706182880E-02  0.99641691089E-01 -0.28301426407E-01  0.10359616452E+00  0.51100000000E-03 0.  1.
</event>
<event>
 8    1  0.1123450E+005  0.1043930E+01  0.7957747E-01            NaN
         13   -1    0    0    0    0  0.00000000000E+00  0.00000000000E+00  0.74505805969E-08  0.10566000000E+00  0.10566000000E+00 0. -1.
     999900   -1    0    0    0    0 -0.00000000000E+00 -0.00000000000E+00 -0.74505805969E-08  0.93827000000E+00  0.93827000000E+00 0.  1.
     999902    2    1    2    0    0  0.56839026491E-02  0.11161592328E-01 -0.19696592406E-01  0.10205881139E+01  0.10203211527E+01 0.  0.
     999903    2    3    3    0    0 -0.72948029455E-01  0.33517189847E-01  0.98844076601E-01  0.12888488769E+00  0.19908434880E-01 0.  0.
         14    1    1    2    0    0 -0.56839026491E-02 -0.11161592328E-01  0.19696592406E-01  0.23341886064E-01  0.00000000000E+00 0. -1.
     999901    1    3    3    0    0  0.78631932104E-01 -0.22355597519E-01 -0.11854066901E+00  0.89170322624E+00  0.88000000000E+00 0.  1.
        -11    1    4    4    0    0 -0.98139777551E-02  0.76479212570E-02  0.64373394480E-02  0.14018035494E-01  0.51100000000E-03 0. -1.
         11    1    4    4    0    0 -0.63134051700E-01  0.25869268590E-01  0.92406737153E-01  0.11486685220E+00  0.51100000000E-03 0.  1.
</event>
<event>
 8    1  0.1553532E+005  0.1043930E+01  0.7957747E-01            NaN
         13   -1    0    0    0    0  0.00000000000E+00  0.00000000000E+00  0.74505805969E-08  0.10566000000E+00  0.10566000000E+00 0. -1.
     999900   -1    0    0    0    0 -0.00000000000E+00 -0.00000000000E+00 -0.74505805969E-08  0.93827000000E+00  0.93827000000E+00 0.  1.
     999902    2    1    2    0    0 -0.16513204460E-01  0.89159088000E-02 -0.14306151148E-01  0.10203324300E+01  0.10200595190E+01 0.  0.
     999903    2    3    3    0    0  0.94465603397E-01 -0.84483650901E-01  0.41091321249E-02  0.12826802858E+00  0.19353673929E-01 0.  0.
         14    1    1    2    0    0  0.16513204460E-01 -0.89159088000E-02  0.14306151148E-01  0.23597570043E-01  0.00000000000E+00 0. -1.
     999901    1    3    3    0    0 -0.11097880786E+00  0.93399559701E-01 -0.18415283273E-01  0.89206440138E+00  0.88000000000E+00 0. -1.
        -11    1    4    4    0    0  0.51618105603E-01 -0.50725417524E-01  0.11286386355E-01  0.73247119035E-01  0.51100000000E-03 0. -1.
         11    1    4    4    0    0  0.42847497794E-01 -0.33758233377E-01 -0.71772542304E-02  0.55020909545E-01  0.51100000000E-03 0.  1.
</event>
<event>
 8    1  0.1123450E+005  0.1043930E+01  0.7957747E-01            NaN
         13   -1    0    0    0    0  0.00000000000E+00  0.00000000000E+00  0.74505805969E-08  0.10566000000E+00  0.10566000000E+00 0.  1.
     999900   -1    0    0    0    0 -0.00000000000E+00 -0.00000000000E+00 -0.74505805969E-08  0.93827000000E+00  0.93827000000E+00 0.  1.
     999902    2    1    2    0    0 -0.83099412307E-02  0.23070465074E-01 -0.10083600964E-02  0.10193878267E+01  0.10190923525E+01 0.  0.
     999903    2    3    3    0    0 -0.10047829783E+00 -0.41158937148E-01 -0.67946310977E-01  0.12972434459E+00  0.20536746620E-01 0.  0.
         14    1    1    2    0    0  0.83099412307E-02 -0.23070465074E-01  0.10083600964E-02  0.24542173336E-01  0.00000000000E+00 0. -1.
     999901    1    3    3    0    0  0.92168356601E-01  0.64229402221E-01  0.66937950880E-01  0.88966348207E+00  0.88000000000E+00 0. -1.
        -11    1    4    4    0    0 -0.54799691195E-01 -0.21458184470E-01 -0.48673908641E-01  0.76373230514E-01  0.51100000000E-03 0. -1.
         11    1    4    4    0    0 -0.45678606637E-01 -0.19700752678E-01 -0.19272402336E-01  0.53351114076E-01  0.51100000000E-03 0.  1.
</event>
<event>
 8    1  0.1123450E+005  0.1043930E+01  0.7957747E-01            NaN
         13   -1    0    0    0    0  0.00000000000E+00  0.00000000000E+00  0.74505805969E-08  0.10566000000E+00  0.10566000000E+00 0.  1.
     999900   -1    0    0    0    0 -0.00000000000E+00 -0.00000000000E+00 -0.74505805969E-08  0.93827000000E+00  0.93827000000E+00 0. -1.
     999902    2    1    2    0    0 -0.29705508704E-02  0.68731451116E-02  0.24860491743E-01  0.10179664034E+01  0.10176352442E+01 0.  0.
     999903    2    3    3    0    0 -0.86717065397E-01  0.84964111369E-01  0.43105428762E-01  0.13036032222E+00  0.19924506737E-01 0.  0.
         14    1    1    2    0    0  0.29705508704E-02 -0.68731451116E-02 -0.24860491743E-01  0.25963596552E-01  0.00000000000E+00 0. -1.
     999901    1    3    3    0    0  0.83746514527E-01 -0.78090966258E-01 -0.18244937020E-01  0.88760608123E+00  0.88000000000E+00 0.  1.
        -11    1    4    4    0    0 -0.25321945893E-02  0.82607014625E-02  0.20082003440E-03  0.86575197243E-02  0.51100000000E-03 0.  1.
         11    1    4    4    0    0 -0.84184870808E-01  0.76703409907E-01  0.42904608728E-01  0.12170280250E+00  0.51100000000E-03 0. -1.
</event>
<event>
 7    1  0.1123450E+005  0.1043930E+01  0.7957747E-01            NaN
         13   -1    0    0    0    0  0.00000000000E+00  0.00000000000E+00  0.74505805969E-08  0.10566000000E+00  0.10566000000E+00 0. -1.
     999900   -1    0    0    0    0 -0.00000000000E+00 -0.00000000000E+00 -0.74505805969E-08  0.93827000000E+00  0.93827000000E+00 0.  1.
     999903    2    1    2    0    0  0.30846559674E-01  0.16341685447E-01 -0.95418011942E-01  0.10314272533E+00  0.17755671191E-01 0.  0.
         14    1    1    2    0    0 -0.40478341234E-02  0.45159894252E-01  0.32904896550E-01  0.56022613531E-01  0.00000000000E+00 0.  1.
     999901    1    1    2    0    0 -0.26798725550E-01 -0.61501579699E-01  0.62513115392E-01  0.88476466113E+00  0.88000000000E+00 0. -1.
        -11    1    3    3    0    0 -0.12919547078E-02  0.12645413672E-02 -0.16498725361E-01  0.16605338641E-01  0.51100000000E-03 0. -1.
         11    1    3    3    0    0  0.32138514381E-01  0.15077144080E-01 -0.78919286581E-01  0.86537386693E-01  0.51100000000E-03 0.  1.
</event>
<event>
 8    1  0.1123450E+005  0.1043930E+01  0.7957747E-01            NaN
         13   -1    0    0    0    0  0.00000000000E+00  0.00000000000E+00  0.74505805969E-08  0.10566000000E+00  0.10566000000E+00 0.  1.
     999900   -1    0    0    0    0 -0.00000000000E+00 -0.00000000000E+00 -0.74505805969E-08  0.93827000000E+00  0.93827000000E+00 0.  1.
     999902    2    1    2    0    0  0.18340282270E-02 -0.18277952436E-01  0.14665572232E-01  0.10204241238E+01  0.10201533543E+01 0.  0.
     999903    2    3    3    0    0  0.15312191000E-01 -0.75499112158E-01  0.10742270673E+00  0.13359843185E+00  0.19347453058E-01 0.  0.
         14    1    1    2    0    0 -0.18340282270E-02  0.18277952436E-01 -0.14665572232E-01  0.23505876152E-01  0.00000000000E+00 0.  1.
     999901    1    3    3    0    0 -0.13478162773E-01  0.57221159721E-01 -0.92757134503E-01  0.88682569200E+00  0.88000000000E+00 0.  1.
        -11    1    4    4    0    0  0.10223394743E-01 -0.58816032456E-01  0.68009624703E-01  0.90495379149E-01  0.51100000000E-03 0. -1.
         11    1    4    4    0    0  0.50887962571E-02 -0.16683079702E-01  0.39413082032E-01  0.43103052698E-01  0.51100000000E-03 0.  1.
</event>
<event>
 8    1  0.1123450E+005  0.1043930E+01  0.7957747E-01            NaN
         13   -1    0    0    0    0  0.00000000000E+00  0.00000000000E+00  0.74505805969E-08  0.10566000000E+00  0.10566000000E+00 0.  1.
     999900   -1    0    0    0    0 -0.00000000000E+00 -0.00000000000E+00 -0.74505805969E-08  0.93827000000E+00  0.93827000000E+00 0. -1.
     999902    2    1    2    0    0 -0.19469550400E-01 -0.87849124790E-02  0.97872844409E-02  0.10204347022E+01  0.10201641792E+01 0.  0.
     999903    2    3    3    0    0  0.37647051317E-01 -0.64324722849E-01 -0.10444507855E+00  0.12948239741E+00  0.17376603905E-01 0.  0.
         14    1    1    2    0    0  0.19469550400E-01  0.87849124790E-02 -0.97872844409E-02  0.23495297759E-01  0.00000000000E+00 0. -1.
     999901    1    3    3    0    0 -0.57116601717E-01  0.55539810371E-01  0.11423236299E+00  0.89095230483E+00  0.88000000000E+00 0.  1.
        -11    1    4    4    0    0  0.24798629889E-01 -0.40372051882E-01 -0.79699366397E-01  0.92720681310E-01  0.51100000000E-03 0.  1.
         11    1    4    4    0    0  0.12848421428E-01 -0.23952670968E-01 -0.24745712154E-01  0.36761716101E-01  0.51100000000E-03 0. -1.
</event>
<event>
 8    1  0.1123450E+005  0.1043930E+01  0.7957747E-01            NaN
         13   -1    0    0    0    0  0.00000000000E+00  0.00000000000E+00  0.74505805969E-08  0.10566000000E+00  0.10566000000E+00 0.  1.
     999900   -1    0    0    0    0 -0.00000000000E+00 -0.00000000000E+00 -0.74505805969E-08  0.93827000000E+00  0.93827000000E+00 0. -1.
     999902    2    1    2    0    0 -0.32849583201E-02  0.22902190623E-01 -0.74167688421E-02  0.10196337092E+01  0.10193441966E+01 0.  0.
     999903    2    3    3    0    0 -0.47466948355E-01  0.12243217132E+00  0.21304964051E-05  0.13289062050E+00  0.20424721558E-01 0.  0.
         14    1    1    2    0    0  0.32849583201E-02 -0.22902190623E-01  0.74167688421E-02  0.24296290798E-01  0.00000000000E+00 0. -1.
     999901    1    3    3    0    0  0.44181990035E-01 -0.99529980697E-01 -0.74188993385E-02  0.88674308871E+00  0.88000000000E+00 0. -1.
        -11    1    4    4    0    0 -0.39507136332E-02  0.23284582320E-01 -0.62383989251E-02  0.24432737345E-01  0.51100000000E-03 0.  1.
         11    1    4    4    0    0 -0.43516234722E-01  0.99147589000E-01  0.62405294215E-02  0.10845788315E+00  0.51100000000E-03 0. -1.
</event>
<event>
 8    1  0.1123450E+005  0.1043930E+01  0.7957747E-01            NaN
         13   -1    0    0    0    0  0.00000000000E+00  0.00000000000E+00  0.74505805969E-08  0.10566000000E+00  0.10566000000E+00 0.  1.
     999900   -1    0    0    0    0 -0.00000000000E+00 -0.00000000000E+00 -0.74505805969E-08  0.93827000000E+00  0.93827000000E+00 0.  1.
     999902    2    1    2    0    0  0.74125094091E-05 -0.21951370235E-01  0.74138567867E-02  0.10207604514E+01  0.10204974626E+01 0.  0.
     999903    2    3    3    0    0 -0.79918635102E-02  0.11596932403E+00  0.51861724364E-01  0.12887384467E+00  0.20151312325E-01 0.  0.
         14    1    1    2    0    0 -0.74125094091E-05  0.21951370235E-01 -0.74138567867E-02  0.23169548606E-01  0.00000000000E+00 0. -1.
     999901    1    3    3    0    0  0.79992760196E-02 -0.13792069426E+00 -0.44447867578E-01  0.89188660672E+00  0.88000000000E+00 0.  1.
        -11    1    4    4    0    0 -0.14777821609E-01  0.83297466051E-01  0.36638758026E-01  0.92192795666E-01  0.51100000000E-03 0.  1.
         11    1    4    4    0    0  0.67859580987E-02  0.32671857975E-01  0.15222966338E-01  0.36681049004E-01  0.51100000000E-03 0. -1.
</event>
<event>
 8    1  0.1123450E+005  0.1043930E+01  0.7957747E-01            NaN
         13   -1    0    0    0    0  0.00000000000E+00  0.00000000000E+00  0.74505805969E-08  0.10566000000E+00  0.10566000000E+00 0. -1.
     999900   -1    0    0    0    0 -0.00000000000E+00 -0.00000000000E+00 -0.74505805969E-08  0.93827000000E+00  0.93827000000E+00 0. -1.
     999902    2    1    2    0    0 -0.44968631099E-02  0.17073803168E-01 -0.16436188766E-01  0.10198077109E+01  0.10195223795E+01 0.  0.
     999903    2    3    3    0    0 -0.25721238076E-02  0.63762836297E-01 -0.11500868286E+00  0.13307206421E+00  0.20220336988E-01 0.  0.
         14    1    1    2    0    0  0.44968631099E-02 -0.17073803168E-01  0.16436188766E-01  0.24122289145E-01  0.00000000000E+00 0. -1.
     999901    1    3    3    0    0 -0.19247393023E-02 -0.46689033130E-01  0.98572494090E-01  0.88673564664E+00  0.88000000000E+00 0. -1.
        -11    1    4    4    0    0 -0.64553911979E-02  0.25998772484E-01 -0.64831359517E-01  0.70149658189E-01  0.51100000000E-03 0. -1.
         11    1    4    4    0    0  0.38832673903E-02  0.37764063813E-01 -0.50177323339E-01  0.62922406023E-01  0.51100000000E-03 0.  1.
</event>
<event>
 8    1  0.1123450E+005  0.1043930E+01  0.7957747E-01            NaN
         13   -1    0    0    0    0  0.00000000000E+00  0.00000000000E+00  0.74505805969E-08  0.10566000000E+00  0.10566000000E+00 0.  1.
     999900   -1    0    0    0    0 -0.00000000000E+00 -0.00000000000E+00 -0.74505805969E-08  0.93827000000E+00  0.93827000000E+00 0. -1.
     999902    2    1    2    0    0 -0.18831318043E-01 -0.10263343626E-01 -0.10576590878E-01  0.10200172621E+01  0.10197369248E+01 0.  0.
     999903    2    3    3    0    0  0.68343536825E-01 -0.46086951720E-01  0.96766043825E-01  0.12849876676E+00  0.18799459492E-01 0.  0.
         14    1    1    2    0    0  0.18831318043E-01  0.10263343626E-01  0.10576590878E-01  0.23912737949E-01  0.00000000000E+00 0. -1.
     999901    1    3    3    0    0 -0.87174854868E-01  0.35823608094E-01 -0.10734263470E+00  0.89151849529E+00  0.88000000000E+00 0. -1.
        -11    1    4    4    0    0  0.27482935653E-01 -0.16034660535E-01  0.24281420127E-01  0.40028372125E-01  0.51100000000E-03 0. -1.
         11    1    4    4    0    0  0.40860601172E-01 -0.30052291185E-01  0.72484623698E-01  0.88470394637E-01  0.51100000000E-03 0.  1.
</event>
<event>
 8    1  0.1123450E+005  0.1043930E+01  0.7957747E-01            NaN
         13   -1    0    0    0    0  0.00000000000E+00  0.00000000000E+00  0.74505805969E-08  0.10566000000E+00  0.10566000000E+00 0. -1.
     999900   -1    0    0    0    0 -0.00000000000E+00 -0.00000000000E+00 -0.74505805969E-08  0.93827000000E+00  0.93827000000E+00 0.  1.
     999902    2    1    2    0    0  0.10532937324E-01  0.14525991169E-02 -0.20694553219E-01  0.10206637724E+01  0.10203985589E+01 0.  0.
     999903    2    3    3    0    0 -0.12655399183E+00 -0.17560507974E-01  0.87472394553E-02  0.12936071311E+00  0.18259124017E-01 0.  0.
         14    1    1    2    0    0 -0.10532937324E-01 -0.14525991169E-02  0.20694553219E-01  0.23266227580E-01  0.00000000000E+00 0. -1.
     999901    1    3    3    0    0  0.13708692915E+00  0.19013107091E-01 -0.29441792675E-01  0.89130305931E+00  0.88000000000E+00 0.  1.
        -11    1    4    4    0    0 -0.55792177678E-01 -0.10299056471E-02  0.99385916875E-02  0.56682135823E-01  0.51100000000E-03 0. -1.
         11    1    4    4    0    0 -0.70761814148E-01 -0.16530602327E-01 -0.11913522322E-02  0.72678577284E-01  0.51100000000E-03 0.  1.
</event>
<event>
 8    1  0.1123450E+005  0.1043930E+01  0.7957747E-01            NaN
         13   -1    0    0    0    0  0.00000000000E+00  0.00000000000E+00  0.74505805969E-08  0.10566000000E+00  0.10566000000E+00 0.  1.
     999900   -1    0    0    0    0 -0.00000000000E+00 -0.00000000000E+00 -0.74505805969E-08  0.93827000000E+00  0.93827000000E+00 0. -1.
     999902    2    1    2    0    0  0.18850465616E-01  0.80750444363E-02  0.38330948531E-02  0.10230676173E+01  0.10228548824E+01 0.  0.
     999903    2    3    3    0    0  0.90897994070E-01 -0.70517038617E-01  0.66471488819E-01  0.13442194533E+00  0.20388783673E-01 0.  0.
         14    1    1    2    0    0 -0.18850465616E-01 -0.80750444363E-02 -0.38330948531E-02  0.20862382720E-01  0.00000000000E+00 0.  1.
     999901    1    3    3    0    0 -0.72047528453E-01  0.78592083054E-01 -0.62638393965E-01  0.88864567195E+00  0.88000000000E+00 0. -1.
        -11    1    4    4    0    0  0.86807470478E-01 -0.60223484274E-01  0.58524454724E-01  0.12077987378E+00  0.51100000000E-03 0. -1.
         11    1    4    4    0    0  0.40905235913E-02 -0.10293554344E-01  0.79470340943E-02  0.13642071550E-01  0.51100000000E-03 0.  1.
</event>
<event>
 8    1  0.1123450E+005  0.1043930E+01  0.7957747E-01            NaN
         13   -1    0    0    0    0  0.00000000000E+00  0.00000000000E+00  0.74505805969E-08  0.10566000000E+00  0.10566000000E+00 0. -1.
     999900   -1    0    0    0    0 -0.00000000000E+00 -0.00000000000E+00 -0.74505805969E-08  0.93827000000E+00  0.93827000000E+00 0. -1.
     999902    2    1    2    0    0  0.16777614022E-01 -0.69553841532E-02  0.14316292718E-01  0.10208037824E+01  0.10205417876E+01 0.  0.
     999903    2    3    3    0    0  0.63806229393E-02 -0.10339601785E+00  0.81077256562E-01  0.13296037309E+00  0.19325900333E-01 0.  0.
         14    1    1    2    0    0 -0.16777614022E-01  0.69553841532E-02 -0.14316292718E-01  0.23126217550E-01  0.00000000000E+00 0.  1.
     999901    1    3    3    0    0  0.10396991083E-01  0.96440633699E-01 -0.66760963844E-01  0.88784340936E+00  0.88000000000E+00 0. -1.
        -11    1    4    4    0    0  0.12155418566E-01 -0.54387184636E-01  0.47974161125E-01  0.73535714519E-01  0.51100000000E-03 0.  1.
         11    1    4    4    0    0 -0.57747956263E-02 -0.49008833216E-01  0.33103095437E-01  0.59424658570E-01  0.51100000000E-03 0. -1.
</event>
<event>
 8    1  0.1123450E+005  0.1043930E+01  0.7957747E-01            NaN
         13   -1    0    0    0    0  0.00000000000E+00  0.00000000000E+00  0.74505805969E-08  0.10566000000E+00  0.10566000000E+00 0. -1.
     999900   -1    0    0    0    0 -0.00000000000E+00 -0.00000000000E+00 -0.74505805969E-08  0.93827000000E+00  0.93827000000E+00 0. -1.
     999902    2    1    2    0    0  0.24686382579E-02 -0.22414892028E-01  0.64211913154E-02  0.10204831824E+01  0.10202137875E+01 0.  0.
     999903    2    3    3    0    0 -0.49283464609E-01 -0.11176031199E+00 -0.47963644517E-01  0.13277906804E+00  0.20261848225E-01 0.  0.
         14    1    1    2    0    0 -0.24686382579E-02  0.22414892028E-01 -0.64211913154E-02  0.23446817639E-01  0.00000000000E+00 0.  1.
     999901    1    3    3    0    0  0.51752102867E-01  0.89345419962E-01  0.54384835832E-01  0.88770411432E+00  0.88000000000E+00 0.  1.
        -11    1    4    4    0    0 -0.42233471538E-01 -0.91661315366E-01 -0.31101071580E-01  0.10560776784E+00  0.51100000000E-03 0.  1.
         11    1    4    4    0    0 -0.70499930711E-02 -0.20098996624E-01 -0.16862572937E-01  0.27171300201E-01  0.51100000000E-03 0. -1.
</event>
<event>
 8    1  0.1123450E+005  0.1043930E+01  0.7957747E-01            NaN
         13   -1    0    0    0    0  0.00000000000E+00  0.00000000000E+00  0.74505805969E-08  0.10566000000E+00  0.10566000000E+00 0.  1.
     999900   -1    0    0    0    0 -0.00000000000E+00 -0.00000000000E+00 -0.74505805969E-08  0.93827000000E+00  0.93827000000E+00 0. -1.
     999902    2    1    2    0    0  0.51959082985E-02  0.22217379306E-01  0.54911616906E-02  0.10204616753E+01  0.10201917803E+01 0.  0.
     999903    2    3    3    0    0  0.81258812687E-02  0.13200493359E+00 -0.29638714491E-02  0.13359450410E+00  0.18637986822E-01 0.  0.
         14    1    1    2    0    0 -0.51959082985E-02 -0.22217379306E-01 -0.54911616906E-02  0.23468324673E-01  0.00000000000E+00 0.  1.
     999901    1    3    3    0    0 -0.29299729701E-02 -0.10978755428E+00  0.84550331396E-02  0.88686717123E+00  0.88000000000E+00 0.  1.
        -11    1    4    4    0    0  0.11565704938E-01  0.45236701590E-01 -0.23670959533E-02  0.46754560908E-01  0.51100000000E-03 0. -1.
         11    1    4    4    0    0 -0.34398236690E-02  0.86768232000E-01 -0.59677549575E-03  0.86839943190E-01  0.51100000000E-03 0.  1.
</event>
<event>
 8    1  0.1123450E+005  0.1043930E+01  0.7957747E-01            NaN
         13   -1    0    0    0    0  0.00000000000E+00  0.00000000000E+00  0.74505805969E-08  0.10566000000E+00  0.10566000000E+00 0. -1.
     999900   -1    0    0    0    0 -0.00000000000E+00 -0.00000000000E+00 -0.74505805969E-08  0.93827000000E+00  0.93827000000E+00 0. -1.
     999902    2    1    2    0    0  0.97291897239E-02 -0.48144310034E-02 -0.21052898210E-01  0.10202432864E+01  0.10199682853E+01 0.  0.
     999903    2    3    3    0    0  0.12788515127E+00 -0.50508365707E-02 -0.27401663812E-01  0.13232369884E+00  0.19457318131E-01 0.  0.
         14    1    1    2    0    0 -0.97291897239E-02  0.48144310034E-02  0.21052898210E-01  0.23686713610E-01  0.00000000000E+00 0. -1.
     999901    1    3    3    0    0 -0.11815596155E+00  0.23640556733E-03  0.63487656017E-02  0.88791958755E+00  0.88000000000E+00 0.  1.
        -11    1    4    4    0    0  0.60827716157E-01 -0.11247863999E-01 -0.17221926428E-01  0.64213560626E-01  0.51100000000E-03 0. -1.
         11    1    4    4    0    0  0.67057435113E-01  0.61970274285E-02 -0.10179737384E-01  0.68110138211E-01  0.51100000000E-03 0.  1.
</event>
<event>
 8    1  0.1123450E+005  0.1043930E+01  0.7957747E-01            NaN
         13   -1    0    0    0    0  0.00000000000E+00  0.00000000000E+00  0.74505805969E-08  0.10566000000E+00  0.10566000000E+00 0.  1.
     999900   -1    0    0    0    0 -0.00000000000E+00 -0.00000000000E+00 -0.74505805969E-08  0.93827000000E+00  0.93827000000E+00 0. -1.
     999902    2    1    2    0    0  0.14447953888E-01 -0.11463967435E-01  0.15856800642E-01  0.10196070880E+01  0.10193169330E+01 0.  0.
     999903    2    3    3    0    0  0.83017132557E-01  0.48165555742E-01  0.88090838408E-01  0.13198376221E+00  0.21164891156E-01 0.  0.
         14    1    1    2    0    0 -0.14447953888E-01  0.11463967435E-01 -0.15856800642E-01  0.24322911987E-01  0.00000000000E+00 0. -1.
     999901    1    3    3    0    0 -0.68569178669E-01 -0.59629523178E-01 -0.72234037766E-01  0.88762332580E+00  0.88000000000E+00 0. -1.
        -11    1    4    4    0    0  0.41632155844E-01  0.14134795926E-01  0.47771666138E-01  0.64926281757E-01  0.51100000000E-03 0. -1.
         11    1    4    4    0    0  0.41384976713E-01  0.34030759817E-01  0.40319172270E-01  0.67057480453E-01  0.51100000000E-03 0.  1.
</event>
<event>
 8    1  0.1123450E+005  0.1043930E+01  0.7957747E-01            NaN
         13   -1    0    0    0    0  0.00000000000E+00  0.00000000000E+00  0.74505805969E-08  0.10566000000E+00  0.10566000000E+00 0.  1.
     999900   -1    0    0    0    0 -0.00000000000E+00 -0.00000000000E+00 -0.74505805969E-08  0.93827000000E+00  0.93827000000E+00 0. -1.
     999902    2    1    2    0    0 -0.13083135634E-01  0.44611768813E-02  0.20567049527E-01  0.10191494822E+01  0.10188481697E+01 0.  0.
     999903    2    3    3    0    0  0.61844381755E-01 -0.19712472128E-01  0.11183031855E+00  0.13093358363E+00  0.20597914051E-01 0.  0.
         14    1    1    2    0    0  0.13083135634E-01 -0.44611768813E-02 -0.20567049527E-01  0.24780517820E-01  0.00000000000E+00 0. -1.
     999901    1    3    3    0    0 -0.74927517388E-01  0.24173649009E-01 -0.91263269021E-01  0.88821589855E+00  0.88000000000E+00 0. -1.
        -11    1    4    4    0    0  0.12454721017E-01  0.25923292851E-02  0.12860153531E-01  0.18096544327E-01  0.51100000000E-03 0.  1.
         11    1    4    4    0    0  0.49389660737E-01 -0.22304801413E-01  0.98970165017E-01  0.11283703930E+00  0.51100000000E-03 0. -1.
</event>
<event>
 8    1  0.1123450E+005  0.1043930E+01  0.7957747E-01            NaN
         13   -1    0    0    0    0  0.00000000000E+00  0.00000000000E+00  0.74505805969E-08  0.10566000000E+00  0.10566000000E+00 0.  1.
     999900   -1    0    0    0    0 -0.00000000000E+00 -0.00000000000E+00 -0.74505805969E-08  0.93827000000E+00  0.93827000000E+00 0.  1.
     999902    2    1    2    0    0  0.23122686860E-01  0.40335188506E-02 -0.37271835624E-02  0.10201640618E+01  0.10198871963E+01 0.  0.
     999903    2    3    3    0    0  0.45933411007E-01  0.12115021565E+00  0.42726358407E-02  0.13207586407E+00  0.25269061212E-01 0.  0.
         14    1    1    2    0    0 -0.23122686860E-01 -0.40335188506E-02  0.37271835624E-02  0.23765938215E-01  0.00000000000E+00 0.  1.
     999901    1    3    3    0    0 -0.22810724147E-01 -0.11711669680E+00 -0.79998194031E-02  0.88808819771E+00  0.88000000000E+00 0.  1.
        -11    1    4    4    0    0  0.37452064888E-01  0.66848219516E-01 -0.26918492524E-02  0.76673651212E-01  0.51100000000E-03 0. -1.
         11    1    4    4    0    0  0.84813461189E-02  0.54301996135E-01  0.69644850931E-02  0.55402212860E-01  0.51100000000E-03 0.  1.
</event>
<event>
 8    1  0.1123450E+005  0.1043930E+01  0.7957747E-01            NaN
         13   -1    0    0    0    0  0.00000000000E+00  0.00000000000E+00  0.74505805969E-08  0.10566000000E+00  0.10566000000E+00 0. -1.
     999900   -1    0    0    0    0 -0.00000000000E+00 -0.00000000000E+00 -0.74505805969E-08  0.93827000000E+00  0.93827000000E+00 0.  1.
     999902    2    1    2    0    0 -0.23503974969E-01 -0.20145215485E-02  0.26049515687E-02  0.10201964602E+01  0.10199203580E+01 0.  0.
     999903    2    3    3    0    0  0.10389459087E+00  0.68383578967E-01  0.23039761785E-01  0.12800597128E+00  0.19603524624E-01 0.  0.
         14    1    1    2    0    0  0.23503974969E-01  0.20145215485E-02 -0.26049515687E-02  0.23733539750E-01  0.00000000000E+00 0.  1.
     999901    1    3    3    0    0 -0.12739856583E+00 -0.70398100516E-01 -0.20434810216E-01  0.89219048897E+00  0.88000000000E+00 0.  1.
        -11    1    4    4    0    0  0.61544223124E-01  0.51377156865E-01  0.12186513136E-01  0.81093007534E-01  0.51100000000E-03 0.  1.
         11    1    4    4    0    0  0.42350367741E-01  0.17006422102E-01  0.10853248648E-01  0.46912963750E-01  0.51100000000E-03 0. -1.
</event>
<event>
 8    1  0.1123450E+005  0.1043930E+01  0.7957747E-01            NaN
         13   -1    0    0    0    0  0.00000000000E+00  0.00000000000E+00  0.74505805969E-08  0.10566000000E+00  0.10566000000E+00 0. -1.
     999900   -1    0    0    0    0 -0.00000000000E+00 -0.00000000000E+00 -0.74505805969E-08  0.93827000000E+00  0.93827000000E+00 0. -1.
     999902    2    1    2    0    0  0.29531077008E-02  0.21346389290E-01  0.12799600878E-01  0.10188657034E+01  0.10185573634E+01 0.  0.
     999903    2    3    3    0    0 -0.10953923008E-01  0.10537204055E+00 -0.73884726280E-01  0.13051448450E+00  0.18756932761E-01 0.  0.
         14    1    1    2    0    0 -0.29531077008E-02 -0.21346389290E-01 -0.12799600878E-01  0.25064296588E-01  0.00000000000E+00 0. -1.
     999901    1    3    3    0    0  0.13907030709E-01 -0.84025651262E-01  0.86684327158E-01  0.88835121892E+00  0.88000000000E+00 0.  1.
        -11    1    4    4    0    0 -0.56577308592E-02  0.11228383540E-01 -0.13939739253E-01  0.18779349479E-01  0.51100000000E-03 0.  1.
         11    1    4    4    0    0 -0.52961921487E-02  0.94143657011E-01 -0.59944987027E-01  0.11173513502E+00  0.51100000000E-03 0. -1.
</event>
<event>
 8    1  0.1123450E+005  0.1043930E+01  0.7957747E-01            NaN
         13   -1    0    0    0    0  0.00000000000E+00  0.00000000000E+00  0.74505805969E-08  0.10566000000E+00  0.10566000000E+00 0.  1.
     999900   -1    0    0    0    0 -0.00000000000E+00 -0.00000000000E+00 -0.74505805969E-08  0.93827000000E+00  0.93827000000E+00 0. -1.
     999902    2    1    2    0    0 -0.16571875674E-01 -0.15645556494E-01 -0.60903012928E-02  0.10203396996E+01  0.10200669588E+01 0.  0.
     999903    2    3    3    0    0  0.94410902104E-01 -0.37834956804E-01  0.77631228749E-01  0.12915013448E+00  0.17556969187E-01 0.  0.
         14    1    1    2    0    0  0.16571875674E-01  0.15645556494E-01  0.60903012928E-02  0.23590300363E-01  0.00000000000E+00 0. -1.
     999901    1    3    3    0    0 -0.11098277778E+00  0.22189400309E-01 -0.83721530042E-01  0.89118956516E+00  0.88000000000E+00 0. -1.
        -11    1    4    4    0    0  0.56919439691E-01 -0.31896073317E-01  0.49522800807E-01  0.81914290747E-01  0.51100000000E-03 0.  1.
         11    1    4    4    0    0  0.37491462413E-01 -0.59388834864E-02  0.28108427942E-01  0.47235843734E-01  0.51100000000E-03 0. -1.
</event>
<event>
 8    1  0.1123450E+005  0.1043930E+01  0.7957747E-01            NaN
         13   -1    0    0    0    0  0.00000000000E+00  0.00000000000E+00  0.74505805969E-08  0.10566000000E+00  0.10566000000E+00 0. -1.
     999900   -1    0    0    0    0 -0.00000000000E+00 -0.00000000000E+00 -0.74505805969E-08  0.93827000000E+00  0.93827000000E+00 0.  1.
     999902    2    1    2    0    0  0.21375235785E-01 -0.66654218583E-02 -0.66481860929E-02  0.10205734820E+01  0.10203061821E+01 0.  0.
     999903    2    3    3    0    0  0.86143112064E-01  0.67153346752E-01  0.70762985017E-01  0.13173346391E+00  0.20398473695E-01 0.  0.
         14    1    1    2    0    0 -0.21375235785E-01  0.66654218583E-02  0.66481860929E-02  0.23356517972E-01  0.00000000000E+00 0. -1.
     999901    1    3    3    0    0 -0.64767876278E-01 -0.73818768611E-01 -0.77411171110E-01  0.88884001812E+00  0.88000000000E+00 0.  1.
        -11    1    4    4    0    0  0.17797155675E-01  0.81259862962E-02  0.20656345006E-01  0.28455511125E-01  0.51100000000E-03 0. -1.
         11    1    4    4    0    0  0.68345956389E-01  0.59027360456E-01  0.50106640011E-01  0.10327795278E+00  0.51100000000E-03 0.  1.
</event>
<event>
 8    1  0.1123450E+005  0.1043930E+01  0.7957747E-01            NaN
         13   -1    0    0    0    0  0.00000000000E+00  0.00000000000E+00  0.74505805969E-08  0.10566000000E+00  0.10566000000E+00 0.  1.
     999900   -1    0    0    0    0 -0.00000000000E+00 -0.00000000000E+00 -0.74505805969E-08  0.93827000000E+00  0.93827000000E+00 0.  1.
     999902    2    1    2    0    0 -0.23038728280E-01 -0.27329049085E-02  0.64511352305E-02  0.10198495325E+01  0.10195652014E+01 0.  0.
     999903    2    3    3    0    0 -0.11692019604E+00 -0.59837642565E-01  0.79868243737E-02  0.13301412532E+00  0.19444599851E-01 0.  0.
         14    1    1    2    0    0  0.23038728280E-01  0.27329049085E-02 -0.64511352305E-02  0.24080467515E-01  0.00000000000E+00 0. -1.
     999901    1    3    3    0    0  0.93881467757E-01  0.57104737656E-01 -0.15356891432E-02  0.88683540716E+00  0.88000000000E+00 0. -1.
        -11    1    4    4    0    0 -0.65798200728E-01 -0.26653235104E-01 -0.31124820977E-02  0.71061570672E-01  0.51100000000E-03 0.  1.
         11    1    4    4    0    0 -0.51121995309E-01 -0.33184407461E-01  0.11099306471E-01  0.61952554653E-01  0.51100000000E-03 0. -1.
</event>
<event>
 8    1  0.1123450E+005  0.1043930E+01  0.7957747E-01            NaN
         13   -1    0    0    0    0  0.00000000000E+00  0.00000000000E+00  0.74505805969E-08  0.10566000000E+00  0.10566000000E+00 0.  1.
     999900   -1    0    0    0    0 -0.00000000000E+00 -0.00000000000E+00 -0.74505805969E-08  0.93827000000E+00  0.93827000000E+00 0. -1.
     999902    2    1    2    0    0 -0.80784582336E-02 -0.10898472546E-02  0.20829246948E-01  0.10215624614E+01  0.10213175587E+01 0.  0.
     999903    2    3    3    0    0  0.90068374321E-01 -0.82519762947E-01  0.45059920067E-01  0.13203969192E+00  0.21960430692E-01 0.  0.
         14    1    1    2    0    0  0.80784582336E-02  0.10898472546E-02 -0.20829246948E-01  0.22367538597E-01  0.00000000000E+00 0. -1.
     999901    1    3    3    0    0 -0.98146832554E-01  0.81429915692E-01 -0.24230673119E-01  0.88952276948E+00  0.88000000000E+00 0.  1.
        -11    1    4    4    0    0  0.78882072999E-01 -0.61013860685E-01  0.38707150507E-01  0.10697465708E+00  0.51100000000E-03 0.  1.
         11    1    4    4    0    0  0.11186301321E-01 -0.21505902261E-01  0.63527695597E-02  0.25065034837E-01  0.51100000000E-03 0. -1.
</event>
<event>
 8    1  0.1123450E+005  0.1043930E+01  0.7957747E-01            NaN
         13   -1    0    0    0    0  0.00000000000E+00  0.00000000000E+00  0.74505805969E-08  0.10566000000E+00  0.10566000000E+00 0.  1.
     999900   -1    0    0    0    0 -0.00000000000E+00 -0.00000000000E+00 -0.74505805969E-08  0.93827000000E+00  0.93827000000E+00 0. -1.
     999902    2    1    2    0    0  0.15585452187E-01 -0.14050343638E-01 -0.10222217056E-01  0.10205887876E+01  0.10203218419E+01 0.  0.
     999903    2    3    3    0    0  0.87693985576E-01  0.54898942771E-02 -0.97854797208E-01  0.13308615062E+00  0.20395786449E-01 0.  0.
         14    1    1    2    0    0 -0.15585452187E-01  0.14050343638E-01  0.10222217056E-01  0.23341212431E-01  0.00000000000E+00 0.  1.
     999901    1    3    3    0    0 -0.72108533389E-01 -0.19540237915E-01  0.87632580152E-01  0.88750263695E+00  0.88000000000E+00 0.  1.
        -11    1    4    4    0    0  0.33468105917E-01  0.12033073591E-01 -0.37581004900E-01  0.51744584489E-01  0.51100000000E-03 0. -1.
         11    1    4    4    0    0  0.54225879660E-01 -0.65431793142E-02 -0.60273792309E-01  0.81341566131E-01  0.51100000000E-03 0.  1.
</event>
<event>
 8    1  0.1123450E+005  0.1043930E+01  0.7957747E-01            NaN
         13   -1    0    0    0    0  0.00000000000E+00  0.00000000000E+00  0.74505805969E-08  0.10566000000E+00  0.10566000000E+00 0. -1.
     999900   -1    0    0    0    0 -0.00000000000E+00 -0.00000000000E+00 -0.74505805969E-08  0.93827000000E+00  0.93827000000E+00 0. -1.
     999902    2    1    2    0    0  0.19252914390E-01 -0.10555388037E-01  0.77923676011E-02  0.10206316756E+01  0.10203657213E+01 0.  0.
     999903    2    3    3    0    0  0.79361449020E-01  0.37014585711E-01 -0.93984764974E-01  0.13145535836E+00  0.27911575549E-01 0.  0.
         14    1    1    2    0    0 -0.19252914390E-01  0.10555388037E-01 -0.77923676011E-02  0.23298324445E-01  0.00000000000E+00 0. -1.
     999901    1    3    3    0    0 -0.60108534630E-01 -0.47569973748E-01  0.10177713257E+00  0.88917631719E+00  0.88000000000E+00 0.  1.
        -11    1    4    4    0    0  0.23003087021E-01 -0.74708965052E-03 -0.15699660207E-01  0.27864683868E-01  0.51100000000E-03 0.  1.
         11    1    4    4    0    0  0.56358361999E-01  0.37761675361E-01 -0.78285104767E-01  0.10359067450E+00  0.51100000000E-03 0. -1.
</event>
<event>
 8    1  0.1123450E+005  0.1043930E+01  0.7957747E-01            NaN
         13   -1    0    0    0    0  0.00000000000E+00  0.00000000000E+00  0.74505805969E-08  0.10566000000E+00  0.10566000000E+00 0. -1.
     999900   -1    0    0    0    0 -0.00000000000E+00 -0.00000000000E+00 -0.74505805969E-08  0.93827000000E+00  0.93827000000E+00 0.  1.
     999902    2    1    2    0    0  0.14007079896E-01 -0.19297506655E-01  0.38520493803E-02  0.10197756974E+01  0.10194895991E+01 0.  0.
     999903    2    3    3    0    0  0.33431153549E-01 -0.66013702806E-01 -0.10661470758E+00  0.13142745373E+00  0.20761231561E-01 0.  0.
         14    1    1    2    0    0 -0.14007079896E-01  0.19297506655E-01 -0.38520493803E-02  0.24154302614E-01  0.00000000000E+00 0.  1.
     999901    1    3    3    0    0 -0.19424073653E-01  0.46716196151E-01  0.11046675696E+00  0.88834824366E+00  0.88000000000E+00 0. -1.
        -11    1    4    4    0    0  0.11821421702E-01 -0.36501184843E-01 -0.69037938098E-01  0.78984685375E-01  0.51100000000E-03 0.  1.
         11    1    4    4    0    0  0.21609731847E-01 -0.29512517963E-01 -0.37576769477E-01  0.52442768352E-01  0.51100000000E-03 0. -1.
</event>
<event>
 8    1  0.1123450E+005  0.1043930E+01  0.7957747E-01            NaN
         13   -1    0    0    0    0  0.00000000000E+00  0.00000000000E+00  0.74505805969E-08  0.10566000000E+00  0.10566000000E+00 0.  1.
     999900   -1    0    0    0    0 -0.00000000000E+00 -0.00000000000E+00 -0.74505805969E-08  0.93827000000E+00  0.93827000000E+00 0. -1.
     999902    2    1    2    0    0 -0.56859985834E-02  0.11728634666E-01 -0.19929949411E-01  0.10201162574E+01  0.10198382638E+01 0.  0.
     999903    2    3    3    0    0 -0.17307820291E-01 -0.98761074055E-01 -0.81938270071E-01  0.13096605961E+00  0.19619334249E-01 0.  0.
         14    1    1    2    0    0  0.56859985834E-02 -0.11728634666E-01  0.19929949411E-01  0.23813742557E-01  0.00000000000E+00 0.  1.
     999901    1    3    3    0    0  0.11621821708E-01  0.11048970872E+00  0.62008320660E-01  0.88915019783E+00  0.88000000000E+00 0.  1.
        -11    1    4    4    0    0  0.26398165154E-03 -0.54695046978E-01 -0.42389554259E-01  0.69200818503E-01  0.51100000000E-03 0.  1.
         11    1    4    4    0    0 -0.17571801943E-01 -0.44066027077E-01 -0.39548715812E-01  0.61765241109E-01  0.51100000000E-03 0. -1.
</event>
<event>
 8    1  0.1123450E+005  0.1043930E+01  0.7957747E-01            NaN
         13   -1    0    0    0    0  0.00000000000E+00  0.00000000000E+00  0.74505805969E-08  0.10566000000E+00  0.10566000000E+00 0.  1.
     999900   -1    0    0    0    0 -0.00000000000E+00 -0.00000000000E+00 -0.74505805969E-08  0.93827000000E+00  0.93827000000E+00 0. -1.
     999902    2    1    2    0    0  0.42075001032E-02 -0.12766768849E-01 -0.19121106565E-01  0.10205567212E+01  0.10202890331E+01 0.  0.
     999903    2    3    3    0    0 -0.58604393379E-01  0.10455413122E+00  0.41273350902E-01  0.12850458260E+00  0.21068862673E-01 0.  0.
         14    1    1    2    0    0 -0.42075001032E-02  0.12766768849E-01  0.19121106565E-01  0.23373278765E-01  0.00000000000E+00 0.  1.
     999901    1    3    3    0    0  0.62811893482E-01 -0.11732090007E+00 -0.60394457467E-01  0.89205213864E+00  0.88000000000E+00 0. -1.
        -11    1    4    4    0    0 -0.63507441618E-02  0.29853649746E-01  0.10916160776E-01  0.32419069106E-01  0.51100000000E-03 0. -1.
         11    1    4    4    0    0 -0.52253649217E-01  0.74700481478E-01  0.30357190126E-01  0.96085513491E-01  0.51100000000E-03 0.  1.
</event>
<event>
 8    1  0.1123450E+005  0.1043930E+01  0.7957747E-01            NaN
         13   -1    0    0    0    0  0.00000000000E+00  0.00000000000E+00  0.74505805969E-08  0.10566000000E+00  0.10566000000E+00 0. -1.
     999900   -1    0    0    0    0 -0.00000000000E+00 -0.00000000000E+00 -0.74505805969E-08  0.93827000000E+00  0.93827000000E+00 0. -1.
     999902    2    1    2    0    0 -0.49554237889E-03 -0.20826834461E-02 -0.24054655566E-01  0.10197802674E+01  0.10194942786E+01 0.  0.
     999903    2    3    3    0    0 -0.80628878653E-01  0.98828375054E-01 -0.16948258732E-01  0.13036759925E+00  0.20985796880E-01 0.  0.
         14    1    1    2    0    0  0.49554237889E-03  0.20826834461E-02  0.24054655566E-01  0.24149732648E-01  0.00000000000E+00 0. -1.
     999901    1    3    3    0    0  0.80133336274E-01 -0.10091105850E+00 -0.71063968342E-02  0.88941266811E+00  0.88000000000E+00 0. -1.
        -11    1    4    4    0    0 -0.15576979908E-01  0.83669505434E-02 -0.44842266259E-02  0.18248769106E-01  0.51100000000E-03 0.  1.
         11    1    4    4    0    0 -0.65051898744E-01  0.90461424510E-01 -0.12464032106E-01  0.11211883014E+00  0.51100000000E-03 0. -1.
</event>
<event>
 8    1  0.1123450E+005  0.1043930E+01  0.7957747E-01            NaN
         13   -1    0    0    0    0  0.00000000000E+00  0.00000000000E+00  0.74505805969E-08  0.10566000000E+00  0.10566000000E+00 0.  1.
     999900   -1    0    0    0    0 -0.00000000000E+00 -0.00000000000E+00 -0.74505805969E-08  0.93827000000E+00  0.93827000000E+00 0.  1.
     999902    2    1    2    0    0 -0.11011065677E-01 -0.18518823234E-01  0.89337690973E-02  0.10206061364E+01  0.10203395921E+01 0.  0.
     999903    2    3    3    0    0  0.97751565774E-01 -0.47726720086E-01 -0.68144547515E-01  0.13008747962E+00  0.21115505612E-01 0.  0.
         14    1    1    2    0    0  0.11011065677E-01  0.18518823234E-01 -0.89337690973E-02  0.23323863565E-01  0.00000000000E+00 0.  1.
     999901    1    3    3    0    0 -0.10876263145E+00  0.29207896852E-01  0.77078316612E-01  0.89051865681E+00  0.88000000000E+00 0. -1.
        -11    1    4    4    0    0  0.51804644220E-01 -0.15150677375E-01 -0.39574569267E-01  0.66930350674E-01  0.51100000000E-03 0.  1.
         11    1    4    4    0    0  0.45946921554E-01 -0.32576042711E-01 -0.28569978248E-01  0.63157128949E-01  0.51100000000E-03 0. -1.
</event>
<event>
 8    1  0.1123450E+005  0.1043930E+01  0.7957747E-01            NaN
         13   -1    0    0    0    0  0.00000000000E+00  0.00000000000E+00  0.74505805969E-08  0.10566000000E+00  0.10566000000E+00 0. -1.
     999900   -1    0    0    0    0 -0.00000000000E+00 -0.00000000000E+00 -0.74505805969E-08  0.93827000000E+00  0.93827000000E+00 0. -1.
     999902    2    1    2    0    0  0.37571418050E-02  0.12831412960E-01  0.19504640606E-01  0.10202827533E+01  0.10200086786E+01 0.  0.
     999903    2    3    3    0    0  0.70921865817E-01  0.10856532756E+00 -0.14275248823E-01  0.13190380063E+00  0.19454780680E-01 0.  0.
         14    1    1    2    0    0 -0.37571418050E-02 -0.12831412960E-01 -0.19504640606E-01  0.23647246737E-01  0.00000000000E+00 0.  1.
     999901    1    3    3    0    0 -0.67164724012E-01 -0.95733914602E-01  0.33779889429E-01  0.88837895264E+00  0.88000000000E+00 0.  1.
        -11    1    4    4    0    0  0.12961946135E-01  0.28474335803E-01  0.33916441706E-02  0.31473230184E-01  0.51100000000E-03 0. -1.
         11    1    4    4    0    0  0.57959919683E-01  0.80090991758E-01 -0.17666892993E-01  0.10043057044E+00  0.51100000000E-03 0.  1.
</event>
<event>
 8    1  0.1123450E+005  0.1043930E+01  0.7957747E-01            NaN
         13   -1    0    0    0    0  0.00000000000E+00  0.00000000000E+00  0.74505805969E-08  0.10566000000E+00  0.10566000000E+00 0. -1.
     999900   -1    0    0    0    0 -0.00000000000E+00 -0.00000000000E+00 -0.74505805969E-08  0.93827000000E+00  0.93827000000E+00 0.  1.
     999902    2    1    2    0    0 -0.20240751247E-01 -0.94563928474E-02  0.62563312297E-02  0.10207297186E+01  0.10204660236E+01 0.  0.
     999903    2    3    3    0    0  0.66555263259E-01  0.10670134278E+00  0.19369768074E-01  0.12876664206E+00  0.19770699904E-01 0.  0.
         14    1    1    2    0    0  0.20240751247E-01  0.94563928474E-02 -0.62563312297E-02  0.23200281403E-01  0.00000000000E+00 0.  1.
     999901    1    3    3    0    0 -0.86796014506E-01 -0.11615773562E+00 -0.13113436844E-01  0.89196307654E+00  0.88000000000E+00 0.  1.
        -11    1    4    4    0    0  0.24243459287E-01  0.25146950231E-01  0.10411685412E-01  0.36452417454E-01  0.51100000000E-03 0.  1.
         11    1    4    4    0    0  0.42311803972E-01  0.81554392545E-01  0.89580826614E-02  0.92314224606E-01  0.51100000000E-03 0. -1.
</event>
<event>
 8    1  0.1123450E+005  0.1043930E+01  0.7957747E-01            NaN
         13   -1    0    0    0    0  0.00000000000E+00  0.00000000000E+00  0.74505805969E-08  0.10566000000E+00  0.10566000000E+00 0. -1.
     999900   -1    0    0    0    0 -0.00000000000E+00 -0.00000000000E+00 -0.74505805969E-08  0.93827000000E+00  0.93827000000E+00 0. -1.
     999902    2    1    2    0    0 -0.10277248356E-01  0.13102373853E-01  0.14749273882E-01  0.10216851104E+01  0.10214429155E+01 0.  0.
     999903    2    3    3    0    0  0.23674249736E-01  0.11720902728E+00  0.57336474256E-01  0.13387625192E+00  0.18356289731E-01 0.  0.
         14    1    1    2    0    0  0.10277248356E-01 -0.13102373853E-01 -0.14749273882E-01  0.22244889624E-01  0.00000000000E+00 0.  1.
     999901    1    3    3    0    0 -0.33951498092E-01 -0.10410665343E+00 -0.42587200374E-01  0.88780885845E+00  0.88000000000E+00 0. -1.
        -11    1    4    4    0    0  0.24969089804E-01  0.83872235946E-01  0.43914784052E-01  0.97912087035E-01  0.51100000000E-03 0.  1.
         11    1    4    4    0    0 -0.12948400682E-02  0.33336791334E-01  0.13421690204E-01  0.35964164889E-01  0.51100000000E-03 0. -1.
</event>
<event>
 8    1  0.1123450E+005  0.1043930E+01  0.7957747E-01            NaN
         13   -1    0    0    0    0  0.00000000000E+00  0.00000000000E+00  0.74505805969E-08  0.10566000000E+00  0.10566000000E+00 0. -1.
     999900   -1    0    0    0    0 -0.00000000000E+00 -0.00000000000E+00 -0.74505805969E-08  0.93827000000E+00  0.93827000000E+00 0. -1.
     999902    2    1    2    0    0  0.17575621018E-01  0.17043755814E-01 -0.10022218187E-01  0.10174755689E+01  0.10171316023E+01 0.  0.
     999903    2    3    3    0    0 -0.47370577214E-01  0.75734204979E-01 -0.91497196671E-01  0.12938731339E+00  0.19740782119E-01 0.  0.
         14    1    1    2    0    0 -0.17575621018E-01 -0.17043755814E-01  0.10022218187E-01  0.26454431080E-01  0.00000000000E+00 0.  1.
     999901    1    3    3    0    0  0.64946198232E-01 -0.58690449165E-01  0.81474978484E-01  0.88808825553E+00  0.88000000000E+00 0. -1.
        -11    1    4    4    0    0 -0.28194135994E-01  0.60438262557E-01 -0.62477847651E-01  0.91386188527E-01  0.51100000000E-03 0. -1.
         11    1    4    4    0    0 -0.19176441220E-01  0.15295942422E-01 -0.29019349020E-01  0.38001124864E-01  0.51100000000E-03 0.  1.
</event>
<event>
 8    1  0.1123450E+005  0.1043930E+01  0.7957747E-01            NaN
         13   -1    0    0    0    0  0.00000000000E+00  0.00000000000E+00  0.74505805969E-08  0.10566000000E+00  0.10566000000E+00 0.  1.
     999900   -1    0    0    0    0 -0.00000000000E+00 -0.00000000000E+00 -0.74505805969E-08  0.93827000000E+00  0.93827000000E+00 0.  1.
     999902    2    1    2    0    0  0.22630089131E-02  0.23568834594E-02  0.23642648669E-01  0.10200626385E+01  0.10197833768E+01 0.  0.
     999903    2    3    3    0    0 -0.15929697121E-01  0.10480191753E+00  0.76550814968E-01  0.13235478474E+00  0.20507671794E-01 0.  0.
         14    1    1    2    0    0 -0.22630089131E-02 -0.23568834594E-02 -0.23642648669E-01  0.23867361502E-01  0.00000000000E+00 0. -1.
     999901    1    3    3    0    0  0.18192706035E-01 -0.10244503408E+00 -0.52908166299E-01  0.88770785376E+00  0.88000000000E+00 0.  1.
        -11    1    4    4    0    0 -0.36605956625E-02  0.37880595950E-01  0.39619763912E-01  0.54939296716E-01  0.51100000000E-03 0. -1.
         11    1    4    4    0    0 -0.12269101459E-01  0.66921321584E-01  0.36931051056E-01  0.77415488026E-01  0.51100000000E-03 0.  1.
</event>
<event>
 8    1  0.1123450E+005  0.1043930E+01  0.7957747E-01            NaN
         13   -1    0    0    0    0  0.00000000000E+00  0.00000000000E+00  0.74505805969E-08  0.10566000000E+00  0.10566000000E+00 0.  1.
     999900   -1    0    0    0    0 -0.00000000000E+00 -0.00000000000E+00 -0.74505805969E-08  0.93827000000E+00  0.93827000000E+00 0.  1.
     999902    2    1    2    0    0 -0.27348659871E-02 -0.21976233738E-01 -0.69940042018E-02  0.10207060805E+01  0.10204418417E+01 0.  0.
     999903    2    3    3    0    0 -0.31628634187E-01 -0.78436928362E-01  0.98671431638E-01  0.13211852478E+00  0.23801910380E-01 0.  0.
         14    1    1    2    0    0  0.27348659871E-02  0.21976233738E-01  0.69940042018E-02  0.23223919481E-01  0.00000000000E+00 0. -1.
     999901    1    3    3    0    0  0.28893768200E-01  0.56460694624E-01 -0.10566543584E+00  0.88858755574E+00  0.88000000000E+00 0.  1.
        -11    1    4    4    0    0 -0.96358448343E-03 -0.12334060199E-01  0.27959012666E-01  0.30578179251E-01  0.51100000000E-03 0.  1.
         11    1    4    4    0    0 -0.30665049704E-01 -0.66102868164E-01  0.70712418972E-01  0.10154034553E+00  0.51100000000E-03 0. -1.
</event>
<event>
 8    1  0.1123450E+005  0.1043930E+01  0.7957747E-01            NaN
         13   -1    0    0    0    0  0.00000000000E+00  0.00000000000E+00  0.74505805969E-08  0.10566000000E+00  0.10566000000E+00 0.  1.
     999900   -1    0    0    0    0 -0.00000000000E+00 -0.00000000000E+00 -0.74505805969E-08  0.93827000000E+00  0.93827000000E+00 0. -1.
     999902    2    1    2    0    0 -0.12229921351E-01  0.17453226727E-01  0.14631922126E-01  0.10180789024E+01  0.10177506435E+01 0.  0.
     999903    2    3    3    0    0 -0.97051215853E-01 -0.78263778690E-01  0.25806571637E-01  0.12876384584E+00  0.19235157957E-01 0.  0.
         14    1    1    2    0    0  0.12229921351E-01 -0.17453226727E-01 -0.14631922126E-01  0.25851097550E-01  0.00000000000E+00 0.  1.
     999901    1    3    3    0    0  0.84821294501E-01  0.95717005418E-01 -0.11174649511E-01  0.88931505661E+00  0.88000000000E+00 0. -1.
        -11    1    4    4    0    0 -0.70467048742E-01 -0.66838696425E-01  0.21877671515E-01  0.99558575372E-01  0.51100000000E-03 0. -1.
         11    1    4    4    0    0 -0.26584167111E-01 -0.11425082266E-01  0.39289001215E-02  0.29205270465E-01  0.51100000000E-03 0.  1.
</event>
<event>
 8    1  0.1123450E+005  0.1043930E+01  0.7957747E-01            NaN
         13   -1    0    0    0    0  0.00000000000E+00  0.00000000000E+00  0.74505805969E-08  0.10566000000E+00  0.10566000000E+00 0. -1.
     999900   -1    0    0    0    0 -0.00000000000E+00 -0.00000000000E+00 -0.74505805969E-08  0.93827000000E+00  0.93827000000E+00 0. -1.
     999902    2    1    2    0    0 -0.18648743879E-01  0.34713882343E-02  0.14006046754E-01  0.10203504425E+01  0.10200779529E+01 0.  0.
     999903    2    3    3    0    0 -0.36160554004E-01  0.79970031890E-01 -0.94192755289E-01  0.13025736497E+00  0.19796825814E-01 0.  0.
         14    1    1    2    0    0  0.18648743879E-01 -0.34713882343E-02 -0.14006046754E-01  0.23579557465E-01  0.00000000000E+00 0.  1.
     999901    1    3    3    0    0  0.17511810125E-01 -0.76498643656E-01  0.10819880204E+00  0.89009307757E+00  0.88000000000E+00 0.  1.
        -11    1    4    4    0    0 -0.31800694890E-01  0.54671669431E-01 -0.75527041531E-01  0.98513302438E-01  0.51100000000E-03 0.  1.
         11    1    4    4    0    0 -0.43598591140E-02  0.25298362459E-01 -0.18665713758E-01  0.31744062527E-01  0.51100000000E-03 0. -1.
</event>
<event>
 8    1  0.1123450E+005  0.1043930E+01  0.7957747E-01            NaN
         13   -1    0    0    0    0  0.00000000000E+00  0.00000000000E+00  0.74505805969E-08  0.10566000000E+00  0.10566000000E+00 0. -1.
     999900   -1    0    0    0    0 -0.00000000000E+00 -0.00000000000E+00 -0.74505805969E-08  0.93827000000E+00  0.93827000000E+00 0. -1.
     999902    2    1    2    0    0 -0.22192622279E-01  0.56585239337E-02  0.74880799700E-02  0.10198343008E+01  0.10195496057E+01 0.  0.
     999903    2    3    3    0    0 -0.19840640346E-02  0.64451264769E-01  0.11297819512E+00  0.13135631203E+00  0.18234749671E-01 0.  0.
         14    1    1    2    0    0  0.22192622279E-01 -0.56585239337E-02 -0.74880799700E-02  0.24095699167E-01  0.00000000000E+00 0.  1.
     999901    1    3    3    0    0 -0.20208558244E-01 -0.58792740835E-01 -0.10549011515E+00  0.88847798881E+00  0.88000000000E+00 0. -1.
        -11    1    4    4    0    0  0.42069318906E-02  0.95396965919E-02  0.29048939714E-01  0.30867557508E-01  0.51100000000E-03 0. -1.
         11    1    4    4    0    0 -0.61909959252E-02  0.54911568177E-01  0.83929255408E-01  0.10048875452E+00  0.51100000000E-03 0.  1.
</event>
<event>
 8    1  0.1123450E+005  0.1043930E+01  0.7957747E-01            NaN
         13   -1    0    0    0    0  0.00000000000E+00  0.00000000000E+00  0.74505805969E-08  0.10566000000E+00  0.10566000000E+00 0. -1.
     999900   -1    0    0    0    0 -0.00000000000E+00 -0.00000000000E+00 -0.74505805969E-08  0.93827000000E+00  0.93827000000E+00 0.  1.
     999902    2    1    2    0    0  0.18154924240E-01 -0.71533612305E-02  0.12438647953E-01  0.10207893039E+01  0.10205269772E+01 0.  0.
     999903    2    3    3    0    0  0.99301393478E-01  0.61448107477E-01  0.60885925092E-01  0.13307423161E+00  0.19105459592E-01 0.  0.
         14    1    1    2    0    0 -0.18154924240E-01  0.71533612305E-02 -0.12438647953E-01  0.23140696056E-01  0.00000000000E+00 0.  1.
     999901    1    3    3    0    0 -0.81146469238E-01 -0.68601468707E-01 -0.48447277138E-01  0.88771507233E+00  0.88000000000E+00 0.  1.
        -11    1    4    4    0    0  0.73500934314E-01  0.37906555433E-01  0.49256664265E-01  0.96258892500E-01  0.51100000000E-03 0. -1.
         11    1    4    4    0    0  0.25800459164E-01  0.23541552044E-01  0.11629260827E-01  0.36815339114E-01  0.51100000000E-03 0.  1.
</event>
<event>
 8    1  0.1123450E+005  0.1043930E+01  0.7957747E-01            NaN
         13   -1    0    0    0    0  0.00000000000E+00  0.00000000000E+00  0.74505805969E-08  0.10566000000E+00  0.10566000000E+00 0.  1.
     999900   -1    0    0    0    0 -0.00000000000E+00 -0.00000000000E+00 -0.74505805969E-08  0.93827000000E+00  0.93827000000E+00 0. -1.
     999902    2    1    2    0    0  0.43233043356E-02 -0.12119816526E-01  0.19986989531E-01  0.10201589953E+01  0.10198820104E+01 0.  0.
     999903    2    3    3    0    0 -0.33261220664E-01  0.29416276205E-01  0.12254651640E+00  0.13243364361E+00  0.23439180298E-01 0.  0.
         14    1    1    2    0    0 -0.43233043356E-02  0.12119816526E-01 -0.19986989531E-01  0.23771004681E-01  0.00000000000E+00 0.  1.
     999901    1    3    3    0    0  0.37584525000E-01 -0.41536092731E-01 -0.10255952686E+00  0.88772535171E+00  0.88000000000E+00 0. -1.
        -11    1    4    4    0    0  0.31030395291E-03  0.97887815063E-03  0.29351760861E-01  0.29374163437E-01  0.51100000000E-03 0. -1.
         11    1    4    4    0    0 -0.33571524617E-01  0.28437398054E-01  0.93194755535E-01  0.10305948017E+00  0.51100000000E-03 0.  1.
</event>
<event>
 8    1  0.1123450E+005  0.1043930E+01  0.7957747E-01            NaN
         13   -1    0    0    0    0  0.00000000000E+00  0.00000000000E+00  0.74505805969E-08  0.10566000000E+00  0.10566000000E+00 0. -1.
     999900   -1    0    0    0    0 -0.00000000000E+00 -0.00000000000E+00 -0.74505805969E-08  0.93827000000E+00  0.93827000000E+00 0. -1.
     999902    2    1    2    0    0  0.17761052709E-01  0.62021019755E-02  0.13841221487E-01  0.10205740484E+01  0.10203067616E+01 0.  0.
     999903    2    3    3    0    0 -0.25506195275E-01  0.10664225045E+00 -0.66189055427E-01  0.13020046199E+00  0.23410118879E-01 0.  0.
         14    1    1    2    0    0 -0.17761052709E-01 -0.62021019755E-02 -0.13841221487E-01  0.23355951586E-01  0.00000000000E+00 0.  1.
     999901    1    3    3    0    0  0.43267247984E-01 -0.10044014848E+00  0.80030276914E-01  0.89037358642E+00  0.88000000000E+00 0.  1.
        -11    1    4    4    0    0 -0.14567863252E-01  0.36214607012E-01 -0.12577374501E-01  0.41014288621E-01  0.51100000000E-03 0.  1.
         11    1    4    4    0    0 -0.10938332023E-01  0.70427643439E-01 -0.53611680926E-01  0.89186173371E-01  0.51100000000E-03 0. -1.
</event>
<event>
 8    1  0.1123450E+005  0.1043930E+01  0.7957747E-01            NaN
         13   -1    0    0    0    0  0.00000000000E+00  0.00000000000E+00  0.74505805969E-08  0.10566000000E+00  0.10566000000E+00 0. -1.
     999900   -1    0    0    0    0 -0.00000000000E+00 -0.00000000000E+00 -0.74505805969E-08  0.93827000000E+00  0.93827000000E+00 0.  1.
     999902    2    1    2    0    0 -0.22922087811E-01  0.87980522714E-03  0.57014359713E-02  0.10202931106E+01  0.10200192788E+01 0.  0.
     999903    2    3    3    0    0  0.11869195422E+00 -0.27601394402E-01 -0.33632569130E-01  0.12764935213E+00  0.17708484477E-01 0.  0.
         14    1    1    2    0    0  0.22922087811E-01 -0.87980522714E-03 -0.57014359713E-02  0.23636889368E-01  0.00000000000E+00 0. -1.
     999901    1    3    3    0    0 -0.14161404204E+00  0.28481199629E-01  0.39334005102E-01  0.89264375850E+00  0.88000000000E+00 0.  1.
        -11    1    4    4    0    0  0.64891670561E-01 -0.11850221997E-01 -0.96294856998E-02  0.66665919220E-01  0.51100000000E-03 0.  1.
         11    1    4    4    0    0  0.53800283663E-01 -0.15751172405E-01 -0.24003083430E-01  0.60983432911E-01  0.51100000000E-03 0. -1.
</event>
<event>
 8    1  0.1123450E+005  0.1043930E+01  0.7957747E-01            NaN
         13   -1    0    0    0    0  0.00000000000E+00  0.00000000000E+00  0.74505805969E-08  0.10566000000E+00  0.10566000000E+00 0.  1.
     999900   -1    0    0    0    0 -0.00000000000E+00 -0.00000000000E+00 -0.74505805969E-08  0.93827000000E+00  0.93827000000E+00 0.  1.
     999902    2    1    2    0    0 -0.86079205558E-02 -0.17243985744E-01 -0.12773846846E-01  0.10208080947E+01  0.10205461987E+01 0.  0.
     999903    2    3    3    0    0  0.87342741413E-01  0.91977180983E-01 -0.53338298017E-02  0.12884893273E+00  0.22023656080E-01 0.  0.
         14    1    1    2    0    0  0.86079205558E-02  0.17243985744E-01  0.12773846846E-01  0.23121905282E-01  0.00000000000E+00 0. -1.
     999901    1    3    3    0    0 -0.95950661968E-01 -0.10922116673E+00 -0.74400170445E-02  0.89195916198E+00  0.88000000000E+00 0.  1.
        -11    1    4    4    0    0  0.43234849508E-01  0.33305378991E-01  0.46195181217E-02  0.54773182766E-01  0.51100000000E-03 0.  1.
         11    1    4    4    0    0  0.44107891905E-01  0.58671801992E-01 -0.99533479235E-02  0.74075749967E-01  0.51100000000E-03 0. -1.
</event>
<event>
 8    1  0.1123450E+005  0.1043930E+01  0.7957747E-01            NaN
         13   -1    0    0    0    0  0.00000000000E+00  0.00000000000E+00  0.74505805969E-08  0.10566000000E+00  0.10566000000E+00 0. -1.
     999900   -1    0    0    0    0 -0.00000000000E+00 -0.00000000000E+00 -0.74505805969E-08  0.93827000000E+00  0.93827000000E+00 0.  1.
     999902    2    1    2    0    0 -0.17000029148E-01 -0.57779149513E-02  0.20013448877E-01  0.10170427646E+01  0.10166872978E+01 0.  0.
     999903    2    3    3    0    0 -0.89396897937E-01 -0.51203056871E-01 -0.73405110149E-01  0.12798046233E+00  0.19419839024E-01 0.  0.
         14    1    1    2    0    0  0.17000029148E-01  0.57779149513E-02 -0.20013448877E-01  0.26887235413E-01  0.00000000000E+00 0.  1.
     999901    1    3    3    0    0  0.72396868789E-01  0.45425141920E-01  0.93418559026E-01  0.88906230226E+00  0.88000000000E+00 0. -1.
        -11    1    4    4    0    0 -0.77334424440E-01 -0.50889648683E-01 -0.62425807677E-01  0.11165846198E+00  0.51100000000E-03 0. -1.
         11    1    4    4    0    0 -0.12062473497E-01 -0.31340818791E-03 -0.10979302472E-01  0.16322000347E-01  0.51100000000E-03 0.  1.
</event>
<event>
 8    1  0.1123450E+005  0.1043930E+01  0.7957747E-01            NaN
         13   -1    0    0    0    0  0.00000000000E+00  0.00000000000E+00  0.74505805969E-08  0.10566000000E+00  0.10566000000E+00 0. -1.
     999900   -1    0    0    0    0 -0.00000000000E+00 -0.00000000000E+00 -0.74505805969E-08  0.93827000000E+00  0.93827000000E+00 0. -1.
     999902    2    1    2    0    0 -0.19263542515E-01 -0.10008479409E-01  0.12165996729E-01  0.10190449602E+01  0.10187410690E+01 0.  0.
     999903    2    3    3    0    0  0.70037773580E-01  0.42058365396E-01  0.98083373789E-01  0.12883853633E+00  0.17459221129E-01 0.  0.
         14    1    1    2    0    0  0.19263542515E-01  0.10008479409E-01 -0.12165996729E-01  0.24885039818E-01  0.00000000000E+00 0.  1.
     999901    1    3    3    0    0 -0.89301316095E-01 -0.52066844805E-01 -0.85917377059E-01  0.89020642385E+00  0.88000000000E+00 0.  1.
        -11    1    4    4    0    0  0.21581741263E-01  0.22183599150E-01  0.40915384465E-01  0.51305101443E-01  0.51100000000E-03 0.  1.
         11    1    4    4    0    0  0.48456032318E-01  0.19874766246E-01  0.57167989323E-01  0.77533434888E-01  0.51100000000E-03 0. -1.
</event>
<event>
 8    1  0.1123450E+005  0.1043930E+01  0.7957747E-01            NaN
         13   -1    0    0    0    0  0.00000000000E+00  0.00000000000E+00  0.74505805969E-08  0.10566000000E+00  0.10566000000E+00 0. -1.
     999900   -1    0    0    0    0 -0.00000000000E+00 -0.00000000000E+00 -0.74505805969E-08  0.93827000000E+00  0.93827000000E+00 0. -1.
     999902    2    1    2    0    0  0.20093199808E-01  0.83734114247E-02 -0.77387357500E-02  0.10208272138E+01  0.10205657557E+01 0.  0.
     999903    2    3    3    0    0  0.92726650722E-01 -0.82498914984E-01  0.39823097369E-01  0.13189778702E+00  0.20170384443E-01 0.  0.
         14    1    1    2    0    0 -0.20093199808E-01 -0.83734114247E-02  0.77387357500E-02  0.23102786161E-01  0.00000000000E+00 0. -1.
     999901    1    3    3    0    0 -0.72633450914E-01  0.90872326409E-01 -0.47561833119E-01  0.88892942682E+00  0.88000000000E+00 0. -1.
        -11    1    4    4    0    0  0.10133147217E-01 -0.19049400177E-01  0.63211164638E-02  0.22489507642E-01  0.51100000000E-03 0. -1.
         11    1    4    4    0    0  0.82593503505E-01 -0.63449514807E-01  0.33501980905E-01  0.10940827938E+00  0.51100000000E-03 0.  1.
</event>
<event>
 8    1  0.1123450E+005  0.1043930E+01  0.7957747E-01            NaN
         13   -1    0    0    0    0  0.00000000000E+00  0.00000000000E+00  0.74505805969E-08  0.10566000000E+00  0.10566000000E+00 0. -1.
     999900   -1    0    0    0    0 -0.00000000000E+00 -0.00000000000E+00 -0.74505805969E-08  0.93827000000E+00  0.93827000000E+00 0. -1.
     999902    2    1    2    0    0  0.81650968504E-02 -0.10754939517E-01  0.18902568264E-01  0.10206997478E+01  0.10204353632E+01 0.  0.
     999903    2    3    3    0    0 -0.92903426692E-01 -0.84872579018E-01 -0.28143027988E-01  0.13057528511E+00  0.20578476562E-01 0.  0.
         14    1    1    2    0    0 -0.81650968504E-02  0.10754939517E-01 -0.18902568264E-01  0.23230252206E-01  0.00000000000E+00 0.  1.
     999901    1    3    3    0    0  0.10106852354E+00  0.74117639500E-01  0.47045596252E-01  0.89012446268E+00  0.88000000000E+00 0.  1.
        -11    1    4    4    0    0 -0.78237212660E-01 -0.62160623056E-01 -0.17158354791E-01  0.10138873095E+00  0.51100000000E-03 0.  1.
         11    1    4    4    0    0 -0.14666214032E-01 -0.22711955961E-01 -0.10984673197E-01  0.29186554162E-01  0.51100000000E-03 0. -1.
</event>
<event>
 7    1  0.1123450E+005  0.1043930E+01  0.7957747E-01            NaN
         13   -1    0    0    0    0  0.00000000000E+00  0.00000000000E+00  0.74505805969E-08  0.10566000000E+00  0.10566000000E+00 0. -1.
     999900   -1    0    0    0    0 -0.00000000000E+00 -0.00000000000E+00 -0.74505805969E-08  0.93827000000E+00  0.93827000000E+00 0. -1.
     999903    2    1    2    0    0  0.42633792367E-01  0.42132057261E-01 -0.75481251160E-01  0.98429054599E-01  0.19952669295E-01 0.  0.
         14    1    1    2    0    0  0.20254319984E-01 -0.56605679523E-01  0.47487602325E-02  0.60307471809E-01  0.00000000000E+00 0.  1.
     999901    1    1    2    0    0 -0.62888112351E-01  0.14473622262E-01  0.70732490927E-01  0.88519347359E+00  0.88000000000E+00 0.  1.
        -11    1    3    3    0    0  0.13856516351E-01  0.26833239472E-01 -0.30977355173E-01  0.43265268293E-01  0.51100000000E-03 0.  1.
         11    1    3    3    0    0  0.28777276016E-01  0.15298817789E-01 -0.44503895987E-01  0.55163786306E-01  0.51100000000E-03 0. -1.
</event>
<event>
 8    1  0.1123450E+005  0.1043930E+01  0.7957747E-01            NaN
         13   -1    0    0    0    0  0.00000000000E+00  0.00000000000E+00  0.74505805969E-08  0.10566000000E+00  0.10566000000E+00 0.  1.
     999900   -1    0    0    0    0 -0.00000000000E+00 -0.00000000000E+00 -0.74505805969E-08  0.93827000000E+00  0.93827000000E+00 0.  1.
     999902    2    1    2    0    0  0.30829533884E-02  0.50285844491E-02 -0.21197119959E-01  0.10219275193E+01  0.10216906310E+01 0.  0.
     999903    2    3    3    0    0  0.41799047191E-01 -0.72636378823E-01  0.96943600143E-01  0.12980196075E+00  0.20670837700E-01 0.  0.
         14    1    1    2    0    0 -0.30829533884E-02 -0.50285844491E-02  0.21197119959E-01  0.22002480718E-01  0.00000000000E+00 0.  1.
     999901    1    3    3    0    0 -0.38716093803E-01  0.77664963272E-01 -0.11814072010E+00  0.89212555853E+00  0.88000000000E+00 0.  1.
        -11    1    4    4    0    0  0.15182032088E-01 -0.46003750356E-01  0.59033628883E-01  0.76367988092E-01  0.51100000000E-03 0.  1.
         11    1    4    4    0    0  0.26617015103E-01 -0.26632628467E-01  0.37909971260E-01  0.53433972659E-01  0.51100000000E-03 0. -1.
</event>
<event>
 8    1  0.1123450E+005  0.1043930E+01  0.7957747E-01            NaN
         13   -1    0    0    0    0  0.00000000000E+00  0.00000000000E+00  0.74505805969E-08  0.10566000000E+00  0.10566000000E+00 0. -1.
     999900   -1    0    0    0    0 -0.00000000000E+00 -0.00000000000E+00 -0.74505805969E-08  0.93827000000E+00  0.93827000000E+00 0.  1.
     999902    2    1    2    0    0 -0.52080658550E-02  0.22045758871E-01 -0.79860744896E-02  0.10199109072E+01  0.10196280409E+01 0.  0.
     999903    2    3    3    0    0  0.12654517835E+00  0.21478654818E-01  0.52725683265E-02  0.13000359146E+00  0.19952920535E-01 0.  0.
         14    1    1    2    0    0  0.52080658550E-02 -0.22045758871E-01  0.79860744896E-02  0.24019092820E-01  0.00000000000E+00 0. -1.
     999901    1    3    3    0    0 -0.13175324421E+00  0.56710405295E-03 -0.13258642816E-01  0.88990731572E+00  0.88000000000E+00 0. -1.
        -11    1    4    4    0    0  0.79388675683E-01  0.19454169569E-01 -0.42515059446E-02  0.81849636310E-01  0.51100000000E-03 0.  1.
         11    1    4    4    0    0  0.47156502671E-01  0.20244852491E-02  0.95240742711E-02  0.48153955148E-01  0.51100000000E-03 0. -1.
</event>
<event>
 8    1  0.1123450E+005  0.1043930E+01  0.7957747E-01            NaN
         13   -1    0    0    0    0  0.00000000000E+00  0.00000000000E+00  0.74505805969E-08  0.10566000000E+00  0.10566000000E+00 0. -1.
     999900   -1    0    0    0    0 -0.00000000000E+00 -0.00000000000E+00 -0.74505805969E-08  0.93827000000E+00  0.93827000000E+00 0. -1.
     999902    2    1    2    0    0 -0.14393392236E-01  0.15467592401E-01  0.11761668994E-01  0.10197483331E+01  0.10194615784E+01 0.  0.
     999903    2    3    3    0    0 -0.97515610776E-01 -0.35561326410E-02 -0.84189055386E-01  0.13043525731E+00  0.20090268240E-01 0.  0.
         14    1    1    2    0    0  0.14393392236E-01 -0.15467592401E-01 -0.11761668994E-01  0.24181666863E-01  0.00000000000E+00 0. -1.
     999901    1    3    3    0    0  0.83122218540E-01  0.19023725042E-01  0.95950724381E-01  0.88931307583E+00  0.88000000000E+00 0. -1.
        -11    1    4    4    0    0 -0.46649034161E-01  0.20112787515E-02 -0.52424868034E-01  0.70205452351E-01  0.51100000000E-03 0. -1.
         11    1    4    4    0    0 -0.50866576615E-01 -0.55674113925E-02 -0.31764187352E-01  0.60229804958E-01  0.51100000000E-03 0.  1.
</event>
<event>
 8    1  0.1123450E+005  0.1043930E+01  0.7957747E-01            NaN
         13   -1    0    0    0    0  0.00000000000E+00  0.00000000000E+00  0.74505805969E-08  0.10566000000E+00  0.10566000000E+00 0. -1.
     999900   -1    0    0    0    0 -0.00000000000E+00 -0.00000000000E+00 -0.74505805969E-08  0.93827000000E+00  0.93827000000E+00 0. -1.
     999902    2    1    2    0    0 -0.23524745387E-01  0.90060451990E-02  0.41129264730E-02  0.10184067036E+01  0.10180868211E+01 0.  0.
     999903    2    3    3    0    0  0.74578995526E-01 -0.44805309070E-01 -0.89393558173E-01  0.12640700151E+00  0.20444546807E-01 0.  0.
         14    1    1    2    0    0  0.23524745387E-01 -0.90060451990E-02 -0.41129264730E-02  0.25523296413E-01  0.00000000000E+00 0.  1.
     999901    1    3    3    0    0 -0.98103740912E-01  0.53811354269E-01  0.93506484646E-01  0.89199970207E+00  0.88000000000E+00 0.  1.
        -11    1    4    4    0    0  0.37486002513E-01 -0.10741813077E-01 -0.38008952176E-01  0.54456666251E-01  0.51100000000E-03 0.  1.
         11    1    4    4    0    0  0.37092993012E-01 -0.34063495993E-01 -0.51384605996E-01  0.71950335262E-01  0.51100000000E-03 0. -1.
</event>
<event>
 8    1  0.1123450E+005  0.1043930E+01  0.7957747E-01            NaN
         13   -1    0    0    0    0  0.00000000000E+00  0.00000000000E+00  0.74505805969E-08  0.10566000000E+00  0.10566000000E+00 0.  1.
     999900   -1    0    0    0    0 -0.00000000000E+00 -0.00000000000E+00 -0.74505805969E-08  0.93827000000E+00  0.93827000000E+00 0.  1.
     999902    2    1    2    0    0  0.65553872291E-03 -0.37074618662E-02 -0.22707115223E-01  0.10209128741E+01  0.10206533733E+01 0.  0.
     999903    2    3    3    0    0 -0.22052917490E-01 -0.10435326852E+00  0.71372928576E-01  0.12990428431E+00  0.20126905542E-01 0.  0.
         14    1    1    2    0    0 -0.65553872291E-03  0.37074618662E-02  0.22707115223E-01  0.23017125934E-01  0.00000000000E+00 0.  1.
     999901    1    3    3    0    0  0.22708456213E-01  0.10064580666E+00 -0.94080043798E-01  0.89100858976E+00  0.88000000000E+00 0.  1.
        -11    1    4    4    0    0 -0.10030636857E-01 -0.47259682446E-01  0.20467962018E-01  0.52471800529E-01  0.51100000000E-03 0.  1.
         11    1    4    4    0    0 -0.12022280633E-01 -0.57093586078E-01  0.50904966558E-01  0.77432483779E-01  0.51100000000E-03 0. -1.
</event>
<event>
 8    1  0.1123450E+005  0.1043930E+01  0.7957747E-01            NaN
         13   -1    0    0    0    0  0.00000000000E+00  0.00000000000E+00  0.74505805969E-08  0.10566000000E+00  0.10566000000E+00 0. -1.
     999900   -1    0    0    0    0 -0.00000000000E+00 -0.00000000000E+00 -0.74505805969E-08  0.93827000000E+00  0.93827000000E+00 0. -1.
     999902    2    1    2    0    0 -0.15848290887E-01  0.17016424109E-02 -0.17510283362E-01  0.10202514457E+01  0.10199766362E+01 0.  0.
     999903    2    3    3    0    0  0.10619546183E+00  0.48486661031E-01  0.48800675027E-01  0.12813000847E+00  0.20183180490E-01 0.  0.
         14    1    1    2    0    0  0.15848290887E-01 -0.17016424109E-02  0.17510283362E-01  0.23678554313E-01  0.00000000000E+00 0. -1.
     999901    1    3    3    0    0 -0.12204375272E+00 -0.46785018620E-01 -0.66310958389E-01  0.89212143722E+00  0.88000000000E+00 0. -1.
        -11    1    4    4    0    0  0.71995111711E-01  0.34758160530E-01  0.43130012764E-01  0.90839886370E-01  0.51100000000E-03 0. -1.
         11    1    4    4    0    0  0.34200350122E-01  0.13728500501E-01  0.56706622635E-02  0.37290122097E-01  0.51100000000E-03 0.  1.
</event>
<event>
 8    1  0.1123450E+005  0.1043930E+01  0.7957747E-01            NaN
         13   -1    0    0    0    0  0.00000000000E+00  0.00000000000E+00  0.74505805969E-08  0.10566000000E+00  0.10566000000E+00 0.  1.
     999900   -1    0    0    0    0 -0.00000000000E+00 -0.00000000000E+00 -0.74505805969E-08  0.93827000000E+00  0.93827000000E+00 0.  1.
     999902    2    1    2    0    0 -0.60899264836E-02  0.38198228018E-03  0.22794258752E-01  0.10203331496E+01  0.10200602555E+01 0.  0.
     999903    2    3    3    0    0  0.32373945912E-01 -0.71558587026E-01  0.10364593247E+00  0.13286939931E+00  0.27259754310E-01 0.  0.
         14    1    1    2    0    0  0.60899264836E-02 -0.38198228018E-03 -0.22794258752E-01  0.23596850364E-01  0.00000000000E+00 0. -1.
     999901    1    3    3    0    0 -0.38463872396E-01  0.71940569306E-01 -0.80851673721E-01  0.88746375032E+00  0.88000000000E+00 0.  1.
        -11    1    4    4    0    0  0.23598733311E-01 -0.42742206772E-01  0.42617758060E-01  0.64809959703E-01  0.51100000000E-03 0. -1.
         11    1    4    4    0    0  0.87752126016E-02 -0.28816380254E-01  0.61028174413E-01  0.68059439612E-01  0.51100000000E-03 0.  1.
</event>
<event>
 8    1  0.1123450E+005  0.1043930E+01  0.7957747E-01            NaN
         13   -1    0    0    0    0  0.00000000000E+00  0.00000000000E+00  0.74505805969E-08  0.10566000000E+00  0.10566000000E+00 0. -1.
     999900   -1    0    0    0    0 -0.00000000000E+00 -0.00000000000E+00 -0.74505805969E-08  0.93827000000E+00  0.93827000000E+00 0.  1.
     999902    2    1    2    0    0 -0.11053941111E-01 -0.19495652860E-01 -0.96953820580E-02  0.10195113488E+01  0.10192188773E+01 0.  0.
     999903    2    3    3    0    0  0.88244068795E-01  0.56507836989E-01 -0.71554980726E-01  0.12852131786E+00  0.20431900513E-01 0.  0.
         14    1    1    2    0    0  0.11053941111E-01  0.19495652860E-01  0.96953820580E-02  0.24418651228E-01  0.00000000000E+00 0.  1.
     999901    1    3    3    0    0 -0.99298009906E-01 -0.76003489849E-01  0.61859598669E-01  0.89099003091E+00  0.88000000000E+00 0.  1.
        -11    1    4    4    0    0  0.29355377806E-01  0.96206503105E-02 -0.27108056131E-01  0.41102347217E-01  0.51100000000E-03 0. -1.
         11    1    4    4    0    0  0.58888690989E-01  0.46887186678E-01 -0.44446924596E-01  0.87418970642E-01  0.51100000000E-03 0.  1.
</event>
<event>
 8    1  0.1123450E+005  0.1043930E+01  0.7957747E-01            NaN
         13   -1    0    0    0    0  0.00000000000E+00  0.00000000000E+00  0.74505805969E-08  0.10566000000E+00  0.10566000000E+00 0.  1.
     999900   -1    0    0    0    0 -0.00000000000E+00 -0.00000000000E+00 -0.74505805969E-08  0.93827000000E+00  0.93827000000E+00 0.  1.
     999902    2    1    2    0    0 -0.16020925678E-01 -0.86308142328E-02 -0.91545304327E-02  0.10235592749E+01  0.10233565472E+01 0.  0.
     999903    2    3    3    0    0  0.35200357245E-01 -0.45141397135E-01  0.11764691657E+00  0.13224830253E+00  0.19287448229E-01 0.  0.
         14    1    1    2    0    0  0.16020925678E-01  0.86308142328E-02  0.91545304327E-02  0.20370725106E-01  0.00000000000E+00 0.  1.
     999901    1    3    3    0    0 -0.51221282924E-01  0.36510582903E-01 -0.12680144700E+00  0.89131097236E+00  0.88000000000E+00 0.  1.
        -11    1    4    4    0    0  0.24285472208E-01 -0.16148701831E-01  0.51019817283E-01  0.58769444508E-01  0.51100000000E-03 0. -1.
         11    1    4    4    0    0  0.10914885037E-01 -0.28992695305E-01  0.66627099286E-01  0.73478858025E-01  0.51100000000E-03 0.  1.
</event>
<event>
 8    1  0.1123450E+005  0.1043930E+01  0.7957747E-01            NaN
         13   -1    0    0    0    0  0.00000000000E+00  0.00000000000E+00  0.74505805969E-08  0.10566000000E+00  0.10566000000E+00 0.  1.
     999900   -1    0    0    0    0 -0.00000000000E+00 -0.00000000000E+00 -0.74505805969E-08  0.93827000000E+00  0.93827000000E+00 0. -1.
     999902    2    1    2    0    0 -0.12346062408E-01 -0.14080461591E-01 -0.14113090915E-01  0.10204808211E+01  0.10202113714E+01 0.  0.
     999903    2    3    3    0    0 -0.40795830595E-01  0.45793662340E-03  0.12116455472E+00  0.12957072702E+00  0.21052659686E-01 0.  0.
         14    1    1    2    0    0  0.12346062408E-01  0.14080461591E-01  0.14113090915E-01  0.23449178893E-01  0.00000000000E+00 0.  1.
     999901    1    3    3    0    0  0.28449768187E-01 -0.14538398214E-01 -0.13527764564E+00  0.89091009408E+00  0.88000000000E+00 0. -1.
        -11    1    4    4    0    0 -0.20371380271E-01  0.50983966857E-02  0.86947138852E-01  0.89448604564E-01  0.51100000000E-03 0. -1.
         11    1    4    4    0    0 -0.20424450324E-01 -0.46404600623E-02  0.34217415871E-01  0.40122122458E-01  0.51100000000E-03 0.  1.
</event>
<event>
 8    1  0.1123450E+005  0.1043930E+01  0.7957747E-01            NaN
         13   -1    0    0    0    0  0.00000000000E+00  0.00000000000E+00  0.74505805969E-08  0.10566000000E+00  0.10566000000E+00 0.  1.
     999900   -1    0    0    0    0 -0.00000000000E+00 -0.00000000000E+00 -0.74505805969E-08  0.93827000000E+00  0.93827000000E+00 0.  1.
     999902    2    1    2    0    0 -0.20227749868E-01  0.29855859846E-03  0.88618809248E-02  0.10218441689E+01  0.10216054628E+01 0.  0.
     999903    2    3    3    0    0  0.10846371006E+00  0.23605663069E-01 -0.62946556436E-01  0.12928539512E+00  0.20756702410E-01 0.  0.
         14    1    1    2    0    0  0.20227749868E-01 -0.29855859846E-03 -0.88618809248E-02  0.22085831102E-01  0.00000000000E+00 0.  1.
     999901    1    3    3    0    0 -0.12869145993E+00 -0.23307104470E-01  0.71808437361E-01  0.89255877378E+00  0.88000000000E+00 0.  1.
        -11    1    4    4    0    0  0.59084764777E-01  0.19442361833E-01 -0.25752808629E-01  0.67323718968E-01  0.51100000000E-03 0. -1.
         11    1    4    4    0    0  0.49378945282E-01  0.41633012354E-02 -0.37193747807E-01  0.61961676149E-01  0.51100000000E-03 0.  1.
</event>
<event>
 8    1  0.1123450E+005  0.1043930E+01  0.7957747E-01            NaN
         13   -1    0    0    0    0  0.00000000000E+00  0.00000000000E+00  0.74505805969E-08  0.10566000000E+00  0.10566000000E+00 0.  1.
     999900   -1    0    0    0    0 -0.00000000000E+00 -0.00000000000E+00 -0.74505805969E-08  0.93827000000E+00  0.93827000000E+00 0. -1.
     999902    2    1    2    0    0  0.71624820848E-02 -0.22481162066E-01 -0.27023105507E-02  0.10201811836E+01  0.10199047216E+01 0.  0.
     999903    2    3    3    0    0 -0.87105522596E-01 -0.60956906487E-01 -0.74692376722E-01  0.13139020186E+00  0.19527352350E-01 0.  0.
         14    1    1    2    0    0 -0.71624820848E-02  0.22481162066E-01  0.27023105507E-02  0.23748816387E-01  0.00000000000E+00 0.  1.
     999901    1    3    3    0    0  0.94268004681E-01  0.38475744421E-01  0.71990066172E-01  0.88879098175E+00  0.88000000000E+00 0.  1.
        -11    1    4    4    0    0 -0.18664824957E-01 -0.43262370945E-02 -0.15396534490E-01  0.24584678428E-01  0.51100000000E-03 0.  1.
         11    1    4    4    0    0 -0.68440697639E-01 -0.56630669392E-01 -0.59295842232E-01  0.10680552343E+00  0.51100000000E-03 0. -1.
</event>
<event>
 7    1  0.1123450E+005  0.1043930E+01  0.7957747E-01            NaN
         13   -1    0    0    0    0  0.00000000000E+00  0.00000000000E+00  0.74505805969E-08  0.10566000000E+00  0.10566000000E+00 0.  1.
     999900   -1    0    0    0    0 -0.00000000000E+00 -0.00000000000E+00 -0.74505805969E-08  0.93827000000E+00  0.93827000000E+00 0. -1.
     999902    2    1    2    0    0 -0.84173864548E-02 -0.86357190046E-02  0.20071049110E-01  0.10205147261E+01  0.10202460641E+01 0.  0.
         14    1    1    2    0    0  0.84173864548E-02  0.86357190046E-02 -0.20071049110E-01  0.23415273857E-01  0.00000000000E+00 0. -1.
     999901    1    3    3    0    0 -0.52299388699E-01  0.10944586194E+00 -0.19166854408E-01  0.88852742842E+00  0.88000000000E+00 0.  1.
        -11    1    3    3    0    0  0.81653830407E-02 -0.23346171467E-01  0.89624475394E-02  0.26311666410E-01  0.51100000000E-03 0.  1.
         11    1    3    3    0    0  0.35716619203E-01 -0.94735409480E-01  0.30275455978E-01  0.10567563131E+00  0.51100000000E-03 0. -1.
</event>
<event>
 8    1  0.1123450E+005  0.1043930E+01  0.7957747E-01            NaN
         13   -1    0    0    0    0  0.00000000000E+00  0.00000000000E+00  0.74505805969E-08  0.10566000000E+00  0.10566000000E+00 0.  1.
     999900   -1    0    0    0    0 -0.00000000000E+00 -0.00000000000E+00 -0.74505805969E-08  0.93827000000E+00  0.93827000000E+00 0.  1.
     999902    2    1    2    0    0 -0.19578082912E-01 -0.13018617281E-01  0.19340175379E-02  0.10203391935E+01  0.10200664408E+01 0.  0.
     999903    2    3    3    0    0  0.51630756976E-01 -0.70948125398E-01  0.94834804291E-01  0.13070045619E+00  0.19738226348E-01 0.  0.
         14    1    1    2    0    0  0.19578082912E-01  0.13018617281E-01 -0.19340175379E-02  0.23590806477E-01  0.00000000000E+00 0.  1.
     999901    1    3    3    0    0 -0.71208839887E-01  0.57929508116E-01 -0.92900786753E-01  0.88963873734E+00  0.88000000000E+00 0.  1.
        -11    1    4    4    0    0  0.15996123403E-01 -0.35912624322E-01  0.49599512719E-01  0.63292695729E-01  0.51100000000E-03 0.  1.
         11    1    4    4    0    0  0.35634633572E-01 -0.35035501075E-01  0.45235291571E-01  0.67407760458E-01  0.51100000000E-03 0. -1.
</event>
<event>
 8    1  0.1123450E+005  0.1043930E+01  0.7957747E-01            NaN
         13   -1    0    0    0    0  0.00000000000E+00  0.00000000000E+00  0.74505805969E-08  0.10566000000E+00  0.10566000000E+00 0. -1.
     999900   -1    0    0    0    0 -0.00000000000E+00 -0.00000000000E+00 -0.74505805969E-08  0.93827000000E+00  0.93827000000E+00 0. -1.
     999902    2    1    2    0    0  0.11933487433E-01  0.10473569280E-01  0.16037311596E-01  0.10213623431E+01  0.10211129892E+01 0.  0.
     999903    2    3    3    0    0  0.97924341786E-01  0.11126837434E-01 -0.84291641118E-01  0.13149676191E+00  0.21756249801E-01 0.  0.
         14    1    1    2    0    0 -0.11933487433E-01 -0.10473569280E-01 -0.16037311596E-01  0.22567656923E-01  0.00000000000E+00 0.  1.
     999901    1    3    3    0    0 -0.85990854352E-01 -0.65326815467E-03  0.10032895271E+00  0.88986558117E+00  0.88000000000E+00 0. -1.
        -11    1    4    4    0    0  0.53681479181E-01  0.10435346226E-01 -0.59332156789E-01  0.80691781540E-01  0.51100000000E-03 0. -1.
         11    1    4    4    0    0  0.44242862605E-01  0.69149120836E-03 -0.24959484329E-01  0.50804980371E-01  0.51100000000E-03 0.  1.
</event>
<event>
 8    1  0.1123450E+005  0.1043930E+01  0.7957747E-01            NaN
         13   -1    0    0    0    0  0.00000000000E+00  0.00000000000E+00  0.74505805969E-08  0.10566000000E+00  0.10566000000E+00 0. -1.
     999900   -1    0    0    0    0 -0.00000000000E+00 -0.00000000000E+00 -0.74505805969E-08  0.93827000000E+00  0.93827000000E+00 0.  1.
     999902    2    1    2    0    0  0.18642892084E-01 -0.61068886423E-02  0.14883055022E-01  0.10193056860E+01  0.10190082064E+01 0.  0.
     999903    2    3    3    0    0 -0.10727417200E+00  0.20007907297E-01  0.65291721814E-01  0.12853179588E+00  0.18690887677E-01 0.  0.
         14    1    1    2    0    0 -0.18642892084E-01  0.61068886423E-02 -0.14883055022E-01  0.24624314020E-01  0.00000000000E+00 0.  1.
     999901    1    3    3    0    0  0.12591706408E+00 -0.26114795939E-01 -0.50408666792E-01  0.89077389010E+00  0.88000000000E+00 0.  1.
        -11    1    4    4    0    0 -0.40382861161E-01 -0.14106061503E-02  0.21753525518E-01  0.45893815255E-01  0.51100000000E-03 0. -1.
         11    1    4    4    0    0 -0.66891310839E-01  0.21418513447E-01  0.43538196297E-01  0.82637980626E-01  0.51100000000E-03 0.  1.
</event>
<event>
 8    1  0.1123450E+005  0.1043930E+01  0.7957747E-01            NaN
         13   -1    0    0    0    0  0.00000000000E+00  0.00000000000E+00  0.74505805969E-08  0.10566000000E+00  0.10566000000E+00 0. -1.
     999900   -1    0    0    0    0 -0.00000000000E+00 -0.00000000000E+00 -0.74505805969E-08  0.93827000000E+00  0.93827000000E+00 0.  1.
     999902    2    1    2    0    0 -0.24060450143E-01  0.45762555769E-02 -0.55066262091E-02  0.10188268068E+01  0.10185174971E+01 0.  0.
     999903    2    3    3    0    0 -0.12251493330E+00 -0.17175099439E-02 -0.45787464330E-01  0.13239833104E+00  0.20493107361E-01 0.  0.
         14    1    1    2    0    0  0.24060450143E-01 -0.45762555769E-02  0.55066262091E-02  0.25103193192E-01  0.00000000000E+00 0.  1.
     999901    1    3    3    0    0  0.98454483158E-01  0.62937655208E-02  0.40280838121E-01  0.88642847577E+00  0.88000000000E+00 0. -1.
        -11    1    4    4    0    0 -0.10807261868E+00 -0.68656454758E-02 -0.35643057334E-01  0.11400665179E+00  0.51100000000E-03 0.  1.
         11    1    4    4    0    0 -0.14442314622E-01  0.51481355318E-02 -0.10144406996E-01  0.18391679244E-01  0.51100000000E-03 0. -1.
</event>
<event>
 8    1  0.1123450E+005  0.1043930E+01  0.7957747E-01            NaN
         13   -1    0    0    0    0  0.00000000000E+00  0.00000000000E+00  0.74505805969E-08  0.10566000000E+00  0.10566000000E+00 0. -1.
     999900   -1    0    0    0    0 -0.00000000000E+00 -0.00000000000E+00 -0.74505805969E-08  0.93827000000E+00  0.93827000000E+00 0.  1.
     999902    2    1    2    0    0  0.13561873414E-01 -0.18185957714E-01 -0.23885957258E-02  0.10211186244E+01  0.10208637941E+01 0.  0.
     999903    2    3    3    0    0  0.43378079786E-01 -0.17962003155E-03 -0.12325314653E+00  0.13217460251E+00  0.19927301668E-01 0.  0.
         14    1    1    2    0    0 -0.13561873414E-01  0.18185957714E-01  0.23885957258E-02  0.22811375627E-01  0.00000000000E+00 0.  1.
     999901    1    3    3    0    0 -0.29816206372E-01 -0.18006337682E-01  0.12086455080E+00  0.88894402186E+00  0.88000000000E+00 0. -1.
        -11    1    4    4    0    0  0.25559938399E-01  0.87864827725E-02 -0.59079326432E-01  0.64970306011E-01  0.51100000000E-03 0. -1.
         11    1    4    4    0    0  0.17818141387E-01 -0.89661028040E-02 -0.64173820094E-01  0.67204296503E-01  0.51100000000E-03 0.  1.
</event>
<event>
 8    1  0.1123450E+005  0.1043930E+01  0.7957747E-01            NaN
         13   -1    0    0    0    0  0.00000000000E+00  0.00000000000E+00  0.74505805969E-08  0.10566000000E+00  0.10566000000E+00 0. -1.
     999900   -1    0    0    0    0 -0.00000000000E+00 -0.00000000000E+00 -0.74505805969E-08  0.93827000000E+00  0.93827000000E+00 0. -1.
     999902    2    1    2    0    0  0.12283910189E-02  0.21112208425E-01  0.91461129577E-02  0.10208890436E+01  0.10206289990E+01 0.  0.
     999903    2    3    3    0    0  0.10073679960E-01  0.68695958801E-01  0.11230944848E+00  0.13354180254E+00  0.19984669739E-01 0.  0.
         14    1    1    2    0    0 -0.12283910189E-02 -0.21112208425E-01 -0.91461129577E-02  0.23040956389E-01  0.00000000000E+00 0.  1.
     999901    1    3    3    0    0 -0.88452889408E-02 -0.47583750375E-01 -0.10316333552E+00  0.88734724107E+00  0.88000000000E+00 0. -1.
        -11    1    4    4    0    0 -0.18756596726E-02  0.28856235586E-01  0.32234040019E-01  0.43306984290E-01  0.51100000000E-03 0.  1.
         11    1    4    4    0    0  0.11949339632E-01  0.39839723214E-01  0.80075408463E-01  0.90234818252E-01  0.51100000000E-03 0. -1.
</event>
<event>
 8    1  0.1123450E+005  0.1043930E+01  0.7957747E-01            NaN
         13   -1    0    0    0    0  0.00000000000E+00  0.00000000000E+00  0.74505805969E-08  0.10566000000E+00  0.10566000000E+00 0.  1.
     999900   -1    0    0    0    0 -0.00000000000E+00 -0.00000000000E+00 -0.74505805969E-08  0.93827000000E+00  0.93827000000E+00 0. -1.
     999902    2    1    2    0    0 -0.19799533461E-01  0.12665416778E-01  0.36148450629E-02  0.10201497264E+01  0.10198725229E+01 0.  0.
     999903    2    3    3    0    0 -0.92869406271E-01 -0.63070366806E-01 -0.65103410083E-01  0.13121929391E+00  0.19428105911E-01 0.  0.
         14    1    1    2    0    0  0.19799533461E-01 -0.12665416778E-01 -0.36148450629E-02  0.23780273595E-01  0.00000000000E+00 0.  1.
     999901    1    3    3    0    0  0.73069872811E-01  0.75735783584E-01  0.68718255145E-01  0.88893043250E+00  0.88000000000E+00 0.  1.
        -11    1    4    4    0    0 -0.52103665378E-01 -0.46728681450E-01 -0.38873393058E-01  0.80060998150E-01  0.51100000000E-03 0. -1.
         11    1    4    4    0    0 -0.40765740893E-01 -0.16341685356E-01 -0.26230017025E-01  0.51158295759E-01  0.51100000000E-03 0.  1.
</event>
<event>
 8    1  0.1123450E+005  0.1043930E+01  0.7957747E-01            NaN
         13   -1    0    0    0    0  0.00000000000E+00  0.00000000000E+00  0.74505805969E-08  0.10566000000E+00  0.10566000000E+00 0. -1.
     999900   -1    0    0    0    0 -0.00000000000E+00 -0.00000000000E+00 -0.74505805969E-08  0.93827000000E+00  0.93827000000E+00 0.  1.
     999902    2    1    2    0    0 -0.10756739969E-01  0.21654753042E-01 -0.29493817600E-03  0.10197489584E+01  0.10194622187E+01 0.  0.
     999903    2    3    3    0    0  0.55874017730E-01  0.10069758741E+00 -0.56801791256E-01  0.13189736496E+00  0.30142352689E-01 0.  0.
         14    1    1    2    0    0  0.10756739969E-01 -0.21654753042E-01  0.29493817600E-03  0.24181041594E-01  0.00000000000E+00 0. -1.
     999901    1    3    3    0    0 -0.66630757700E-01 -0.79042834372E-01  0.56506853080E-01  0.88785159344E+00  0.88000000000E+00 0.  1.
        -11    1    4    4    0    0  0.48697912695E-01  0.70063104174E-01 -0.52377725333E-01  0.10011999051E+00  0.51100000000E-03 0. -1.
         11    1    4    4    0    0  0.71761050352E-02  0.30634483239E-01 -0.44240659229E-02  0.31777374453E-01  0.51100000000E-03 0.  1.
</event>
<event>
 8    1  0.1123450E+005  0.1043930E+01  0.7957747E-01            NaN
         13   -1    0    0    0    0  0.00000000000E+00  0.00000000000E+00  0.74505805969E-08  0.10566000000E+00  0.10566000000E+00 0. -1.
     999900   -1    0    0    0    0 -0.00000000000E+00 -0.00000000000E+00 -0.74505805969E-08  0.93827000000E+00  0.93827000000E+00 0.  1.
     999902    2    1    2    0    0  0.16943993633E-01  0.90029561686E-02 -0.12093696196E-01  0.10212493998E+01  0.10209975156E+01 0.  0.
     999903    2    3    3    0    0  0.94021033298E-01  0.52705642010E-01 -0.77678379474E-01  0.13437164861E+00  0.20099002699E-01 0.  0.
         14    1    1    2    0    0 -0.16943993633E-01 -0.90029561686E-02  0.12093696196E-01  0.22680600250E-01  0.00000000000E+00 0. -1.
     999901    1    3    3    0    0 -0.77077039664E-01 -0.43702685841E-01  0.65584683278E-01  0.88687775114E+00  0.88000000000E+00 0. -1.
        -11    1    4    4    0    0  0.27151970310E-01  0.24180180815E-01 -0.32553808922E-01  0.48804940655E-01  0.51100000000E-03 0. -1.
         11    1    4    4    0    0  0.66869062987E-01  0.28525461194E-01 -0.45124570552E-01  0.85566707952E-01  0.51100000000E-03 0.  1.
</event>
<event>
 8    1  0.1123450E+005  0.1043930E+01  0.7957747E-01            NaN
         13   -1    0    0    0    0  0.00000000000E+00  0.00000000000E+00  0.74505805969E-08  0.10566000000E+00  0.10566000000E+00 0. -1.
     999900   -1    0    0    0    0 -0.00000000000E+00 -0.00000000000E+00 -0.74505805969E-08  0.93827000000E+00  0.93827000000E+00 0.  1.
     999902    2    1    2    0    0  0.39089070267E-02 -0.18641008536E-01  0.18296332766E-01  0.10175193479E+01  0.10171765337E+01 0.  0.
     999903    2    3    3    0    0 -0.19428911835E-01 -0.11713351189E+00  0.52026992744E-01  0.13107522418E+00  0.19394952866E-01 0.  0.
         14    1    1    2    0    0 -0.39089070267E-02  0.18641008536E-01 -0.18296332766E-01  0.26410652132E-01  0.00000000000E+00 0.  1.
     999901    1    3    3    0    0  0.23337818862E-01  0.98492503351E-01 -0.33730659979E-01  0.88644412369E+00  0.88000000000E+00 0.  1.
        -11    1    4    4    0    0 -0.77979908967E-02 -0.83645776746E-01  0.29349707683E-01  0.88989275149E-01  0.51100000000E-03 0. -1.
         11    1    4    4    0    0 -0.11630920939E-01 -0.33487735141E-01  0.22677285061E-01  0.42085949027E-01  0.51100000000E-03 0.  1.
</event>
<event>
 8    1  0.1226883E+005  0.1043930E+01  0.7957747E-01            NaN
         13   -1    0    0    0    0  0.00000000000E+00  0.00000000000E+00  0.74505805969E-08  0.10566000000E+00  0.10566000000E+00 0. -1.
     999900   -1    0    0    0    0 -0.00000000000E+00 -0.00000000000E+00 -0.74505805969E-08  0.93827000000E+00  0.93827000000E+00 0.  1.
     999902    2    1    2    0    0 -0.18751921744E-01  0.11059562225E-01  0.79102841926E-02  0.10207670753E+01  0.10205042385E+01 0.  0.
     999903    2    3    3    0    0 -0.87903825493E-01  0.58829163406E-01  0.79719107102E-01  0.13385082915E+00  0.19312053877E-01 0.  0.
         14    1    1    2    0    0  0.18751921744E-01 -0.11059562225E-01 -0.79102841926E-02  0.23162924723E-01  0.00000000000E+00 0.  1.
     999901    1    3    3    0    0  0.69151903748E-01 -0.47769601181E-01 -0.71808822909E-01  0.88691624612E+00  0.88000000000E+00 0.  1.
        -11    1    4    4    0    0 -0.27630722195E-01  0.29159436525E-01  0.33453825467E-01  0.52279528564E-01  0.51100000000E-03 0. -1.
         11    1    4    4    0    0 -0.60273103297E-01  0.29669726881E-01  0.46265281635E-01  0.81571300590E-01  0.51100000000E-03 0.  1.
</event>
<event>
 8    1  0.1123450E+005  0.1043930E+01  0.7957747E-01            NaN
         13   -1    0    0    0    0  0.00000000000E+00  0.00000000000E+00  0.74505805969E-08  0.10566000000E+00  0.10566000000E+00 0. -1.
     999900   -1    0    0    0    0 -0.00000000000E+00 -0.00000000000E+00 -0.74505805969E-08  0.93827000000E+00  0.93827000000E+00 0. -1.
     999902    2    1    2    0    0 -0.11785070598E-01  0.24793339925E-02 -0.19672365386E-01  0.10208640739E+01  0.10206034590E+01 0.  0.
     999903    2    3    3    0    0 -0.85862693838E-01  0.44968298858E-01 -0.90198043445E-01  0.13392175468E+00  0.20119623234E-01 0.  0.
         14    1    1    2    0    0  0.11785070598E-01 -0.24793339925E-02  0.19672365386E-01  0.23065926079E-01  0.00000000000E+00 0. -1.
     999901    1    3    3    0    0  0.74077623240E-01 -0.42488964866E-01  0.70525678060E-01  0.88694231924E+00  0.88000000000E+00 0.  1.
        -11    1    4    4    0    0 -0.50553129557E-01  0.37269592011E-01 -0.55398574518E-01  0.83749057166E-01  0.51100000000E-03 0.  1.
         11    1    4    4    0    0 -0.35309564281E-01  0.76987068470E-02 -0.34799468927E-01  0.50172697510E-01  0.51100000000E-03 0. -1.
</event>
<event>
 8    1  0.1123450E+005  0.1043930E+01  0.7957747E-01            NaN
         13   -1    0    0    0    0  0.00000000000E+00  0.00000000000E+00  0.74505805969E-08  0.10566000000E+00  0.10566000000E+00 0.  1.
     999900   -1    0    0    0    0 -0.00000000000E+00 -0.00000000000E+00 -0.74505805969E-08  0.93827000000E+00  0.93827000000E+00 0. -1.
     999902    2    1    2    0    0  0.90203126918E-02 -0.25211636448E-01  0.54619181348E-02  0.10166018972E+01  0.10162345163E+01 0.  0.
     999903    2    3    3    0    0 -0.14023944029E-01  0.14600814398E-01  0.12411925552E+00  0.12744744901E+00  0.20673845336E-01 0.  0.
         14    1    1    2    0    0 -0.90203126918E-02  0.25211636448E-01 -0.54619181348E-02  0.27328102809E-01  0.00000000000E+00 0.  1.
     999901    1    3    3    0    0  0.23044256721E-01 -0.39812450845E-01 -0.11865733738E+00  0.88915444818E+00  0.88000000000E+00 0. -1.
        -11    1    4    4    0    0 -0.11304578963E-01  0.15923919614E-02  0.91654888592E-01  0.92364543746E-01  0.51100000000E-03 0.  1.
         11    1    4    4    0    0 -0.27193650659E-02  0.13008422436E-01  0.32464366926E-01  0.35082905261E-01  0.51100000000E-03 0. -1.
</event>
<event>
 8    1  0.1123450E+005  0.1043930E+01  0.7957747E-01            NaN
         13   -1    0    0    0    0  0.00000000000E+00  0.00000000000E+00  0.74505805969E-08  0.10566000000E+00  0.10566000000E+00 0.  1.
     999900   -1    0    0    0    0 -0.00000000000E+00 -0.00000000000E+00 -0.74505805969E-08  0.93827000000E+00  0.93827000000E+00 0.  1.
     999902    2    1    2    0    0 -0.12140732700E-01 -0.18028810069E-01 -0.10539014540E-01  0.10197741268E+01  0.10194879908E+01 0.  0.
     999903    2    3    3    0    0 -0.12466448981E+00 -0.38741122935E-01 -0.11580957566E-01  0.13236684630E+00  0.18567546835E-01 0.  0.
         14    1    1    2    0    0  0.12140732700E-01  0.18028810069E-01  0.10539014540E-01  0.24155873209E-01  0.00000000000E+00 0. -1.
     999901    1    3    3    0    0  0.11252375711E+00  0.20712312866E-01  0.10419430252E-02  0.88740728049E+00  0.88000000000E+00 0.  1.
        -11    1    4    4    0    0 -0.88291008804E-01 -0.27416087593E-01  0.32176181007E-03  0.92451656265E-01  0.51100000000E-03 0.  1.
         11    1    4    4    0    0 -0.36373481008E-01 -0.11325035343E-01 -0.11902719376E-01  0.39915190037E-01  0.51100000000E-03 0. -1.
</event>
<event>
 8    1  0.1123450E+005  0.1043930E+01  0.7957747E-01            NaN
         13   -1    0    0    0    0  0.00000000000E+00  0.00000000000E+00  0.74505805969E-08  0.10566000000E+00  0.10566000000E+00 0. -1.
     999900   -1    0    0    0    0 -0.00000000000E+00 -0.00000000000E+00 -0.74505805969E-08  0.93827000000E+00  0.93827000000E+00 0.  1.
     999902    2    1    2    0    0  0.22721011237E-02  0.18684416806E-01 -0.17548005771E-01  0.10181967068E+01  0.10178714709E+01 0.  0.
     999903    2    3    3    0    0 -0.12179788376E+00 -0.10746079844E-01  0.30272749591E-01  0.12772136182E+00  0.21121178433E-01 0.  0.
         14    1    1    2    0    0 -0.22721011237E-02 -0.18684416806E-01  0.17548005771E-01  0.25733293249E-01  0.00000000000E+00 0. -1.
     999901    1    3    3    0    0  0.12406998488E+00  0.29430496650E-01 -0.47820755362E-01  0.89047534493E+00  0.88000000000E+00 0.  1.
        -11    1    4    4    0    0 -0.26014560171E-01  0.34311950163E-02  0.13279895530E-01  0.29413384477E-01  0.51100000000E-03 0.  1.
         11    1    4    4    0    0 -0.95783323586E-01 -0.14177274860E-01  0.16992854061E-01  0.98307977346E-01  0.51100000000E-03 0. -1.
</event>
<event>
 8    1  0.1123450E+005  0.1043930E+01  0.7957747E-01            NaN
         13   -1    0    0    0    0  0.00000000000E+00  0.00000000000E+00  0.74505805969E-08  0.10566000000E+00  0.10566000000E+00 0. -1.
     999900   -1    0    0    0    0 -0.00000000000E+00 -0.00000000000E+00 -0.74505805969E-08  0.93827000000E+00  0.93827000000E+00 0. -1.
     999902    2    1    2    0    0 -0.15404328593E-01  0.66529907702E-02  0.41732421984E-02  0.10266392055E+01  0.10264935882E+01 0.  0.
     999903    2    3    3    0    0 -0.16039233244E-01 -0.12236853447E+00 -0.52046013921E-01  0.13545596849E+00  0.20204370939E-01 0.  0.
         14    1    1    2    0    0  0.15404328593E-01 -0.66529907702E-02 -0.41732421984E-02  0.17290794546E-01  0.00000000000E+00 0.  1.
     999901    1    3    3    0    0  0.63490465096E-03  0.12902152524E+00  0.56219256120E-01  0.89118323696E+00  0.88000000000E+00 0.  1.
        -11    1    4    4    0    0 -0.17938262167E-01 -0.97836595260E-01 -0.48252365311E-01  0.11055465843E+00  0.51100000000E-03 0.  1.
         11    1    4    4    0    0  0.18990289231E-02 -0.24531939207E-01 -0.37936486100E-02  0.24901310063E-01  0.51100000000E-03 0. -1.
</event>
<event>
 8    1  0.1123450E+005  0.1043930E+01  0.7957747E-01            NaN
         13   -1    0    0    0    0  0.00000000000E+00  0.00000000000E+00  0.74505805969E-08  0.10566000000E+00  0.10566000000E+00 0.  1.
     999900   -1    0    0    0    0 -0.00000000000E+00 -0.00000000000E+00 -0.74505805969E-08  0.93827000000E+00  0.93827000000E+00 0. -1.
     999902    2    1    2    0    0  0.13449459374E-01  0.12870048155E-02 -0.18986566401E-01  0.10206269092E+01  0.10203608448E+01 0.  0.
     999903    2    3    3    0    0  0.33138739501E-01  0.10767035101E+00 -0.67851475816E-01  0.13265570272E+00  0.17396325820E-01 0.  0.
         14    1    1    2    0    0 -0.13449459374E-01 -0.12870048155E-02  0.18986566401E-01  0.23303090836E-01  0.00000000000E+00 0.  1.
     999901    1    3    3    0    0 -0.19689280127E-01 -0.10638334619E+00  0.48864909415E-01  0.88797120644E+00  0.88000000000E+00 0.  1.
        -11    1    4    4    0    0  0.13067775101E-01  0.25507585134E-01 -0.10795518627E-01  0.30630181013E-01  0.51100000000E-03 0. -1.
         11    1    4    4    0    0  0.20070964400E-01  0.82162765875E-01 -0.57055957189E-01  0.10202552171E+00  0.51100000000E-03 0.  1.
</event>
<event>
 8    1  0.1123450E+005  0.1043930E+01  0.7957747E-01            NaN
         13   -1    0    0    0    0  0.00000000000E+00  0.00000000000E+00  0.74505805969E-08  0.10566000000E+00  0.10566000000E+00 0.  1.
     999900   -1    0    0    0    0 -0.00000000000E+00 -0.00000000000E+00 -0.74505805969E-08  0.93827000000E+00  0.93827000000E+00 0.  1.
     999902    2    1    2    0    0  0.11865988017E-01 -0.18088683833E-01  0.21788180150E-03  0.10222955454E+01  0.10220665988E+01 0.  0.
     999903    2    3    3    0    0  0.45106070342E-01  0.79056159112E-01 -0.92683494437E-01  0.13146857604E+00  0.20231719408E-01 0.  0.
         14    1    1    2    0    0 -0.11865988017E-01  0.18088683833E-01 -0.21788180150E-03  0.21634454625E-01  0.00000000000E+00 0. -1.
     999901    1    3    3    0    0 -0.33240082325E-01 -0.97144842945E-01  0.92901376239E-01  0.89082696933E+00  0.88000000000E+00 0.  1.
        -11    1    4    4    0    0  0.19322569007E-01  0.20621899472E-01 -0.19533178738E-01  0.34357395179E-01  0.51100000000E-03 0. -1.
         11    1    4    4    0    0  0.25783501335E-01  0.58434259640E-01 -0.73150315699E-01  0.97111180863E-01  0.51100000000E-03 0.  1.
</event>
<event>
 8    1  0.1123450E+005  0.1043930E+01  0.7957747E-01            NaN
         13   -1    0    0    0    0  0.00000000000E+00  0.00000000000E+00  0.74505805969E-08  0.10566000000E+00  0.10566000000E+00 0.  1.
     999900   -1    0    0    0    0 -0.00000000000E+00 -0.00000000000E+00 -0.74505805969E-08  0.93827000000E+00  0.93827000000E+00 0. -1.
     999902    2    1    2    0    0  0.52977105842E-02  0.16060047262E-02 -0.22518229132E-01  0.10207413038E+01  0.10204778751E+01 0.  0.
     999903    2    3    3    0    0 -0.26021776718E-01  0.16150491049E-01  0.12267255238E+00  0.12817600343E+00  0.21037146267E-01 0.  0.
         14    1    1    2    0    0 -0.52977105842E-02 -0.16060047262E-02  0.22518229132E-01  0.23188696208E-01  0.00000000000E+00 0.  1.
     999901    1    3    3    0    0  0.31319487302E-01 -0.14544486323E-01 -0.14519078152E+00  0.89256530036E+00  0.88000000000E+00 0. -1.
        -11    1    4    4    0    0 -0.11417996165E-02  0.10777080188E-01  0.50281851241E-01  0.51439040124E-01  0.51100000000E-03 0. -1.
         11    1    4    4    0    0 -0.24879977101E-01  0.53734108613E-02  0.72390701143E-01  0.76736963309E-01  0.51100000000E-03 0.  1.
</event>
<event>
 8    1  0.1123450E+005  0.1043930E+01  0.7957747E-01            NaN
         13   -1    0    0    0    0  0.00000000000E+00  0.00000000000E+00  0.74505805969E-08  0.10566000000E+00  0.10566000000E+00 0.  1.
     999900   -1    0    0    0    0 -0.00000000000E+00 -0.00000000000E+00 -0.74505805969E-08  0.93827000000E+00  0.93827000000E+00 0. -1.
     999902    2    1    2    0    0  0.32322790834E-02 -0.23216002014E-01 -0.46516802441E-03  0.10204854535E+01  0.10202161115E+01 0.  0.
     999903    2    3    3    0    0  0.23988979795E-02 -0.82491162735E-01 -0.10196779547E+00  0.13266958153E+00  0.19830277601E-01 0.  0.
         14    1    1    2    0    0 -0.32322790834E-02  0.23216002014E-01  0.46516802441E-03  0.23444546464E-01  0.00000000000E+00 0.  1.
     999901    1    3    3    0    0  0.83338110389E-03  0.59275160721E-01  0.10150262745E+00  0.88781587200E+00  0.88000000000E+00 0.  1.
        -11    1    4    4    0    0  0.95031622699E-02 -0.65594917662E-01 -0.75438622566E-01  0.10042036752E+00  0.51100000000E-03 0.  1.
         11    1    4    4    0    0 -0.71042642904E-02 -0.16896245074E-01 -0.26529172906E-01  0.32249214018E-01  0.51100000000E-03 0. -1.
</event>
<event>
 8    1  0.1123450E+005  0.1043930E+01  0.7957747E-01            NaN
         13   -1    0    0    0    0  0.00000000000E+00  0.00000000000E+00  0.74505805969E-08  0.10566000000E+00  0.10566000000E+00 0. -1.
     999900   -1    0    0    0    0 -0.00000000000E+00 -0.00000000000E+00 -0.74505805969E-08  0.93827000000E+00  0.93827000000E+00 0. -1.
     999902    2    1    2    0    0 -0.17678551046E-01 -0.10584440459E-01 -0.67271182184E-02  0.10222547684E+01  0.10220249487E+01 0.  0.
     999903    2    3    3    0    0  0.44583393889E-01 -0.32567475520E-01  0.11756047009E+00  0.13107172980E+00  0.17635610392E-01 0.  0.
         14    1    1    2    0    0  0.17678551046E-01  0.10584440459E-01  0.67271182184E-02  0.21675231635E-01  0.00000000000E+00 0.  1.
     999901    1    3    3    0    0 -0.62261944935E-01  0.21983035060E-01 -0.12428758830E+00  0.89118303856E+00  0.88000000000E+00 0. -1.
        -11    1    4    4    0    0  0.15880079942E-01 -0.11906872030E-01  0.62958296285E-01  0.66014837216E-01  0.51100000000E-03 0. -1.
         11    1    4    4    0    0  0.28703313947E-01 -0.20660603489E-01  0.54602173800E-01  0.65056892585E-01  0.51100000000E-03 0.  1.
</event>
<event>
 8    1  0.1123450E+005  0.1043930E+01  0.7957747E-01            NaN
         13   -1    0    0    0    0  0.00000000000E+00  0.00000000000E+00  0.74505805969E-08  0.10566000000E+00  0.10566000000E+00 0.  1.
     999900   -1    0    0    0    0 -0.00000000000E+00 -0.00000000000E+00 -0.74505805969E-08  0.93827000000E+00  0.93827000000E+00 0. -1.
     999902    2    1    2    0    0  0.43397656143E-02  0.99982246269E-02  0.20584254707E-01  0.10206381645E+01  0.10203723600E+01 0.  0.
     999903    2    3    3    0    0 -0.45980646167E-01 -0.68698299806E-01  0.10108237117E+00  0.13204082395E+00  0.19582063433E-01 0.  0.
         14    1    1    2    0    0 -0.43397656143E-02 -0.99982246269E-02 -0.20584254707E-01  0.23291835547E-01  0.00000000000E+00 0. -1.
     999901    1    3    3    0    0  0.50320411781E-01  0.78696524433E-01 -0.80498116467E-01  0.88859734051E+00  0.88000000000E+00 0. -1.
        -11    1    4    4    0    0 -0.22502219029E-01 -0.28377280014E-01  0.30096995370E-01  0.47092569833E-01  0.51100000000E-03 0. -1.
         11    1    4    4    0    0 -0.23478427138E-01 -0.40321019793E-01  0.70985375804E-01  0.84948254114E-01  0.51100000000E-03 0.  1.
</event>
<event>
 8    1  0.1123450E+005  0.1043930E+01  0.7957747E-01            NaN
         13   -1    0    0    0    0  0.00000000000E+00  0.00000000000E+00  0.74505805969E-08  0.10566000000E+00  0.10566000000E+00 0.  1.
     999900   -1    0    0    0    0 -0.00000000000E+00 -0.00000000000E+00 -0.74505805969E-08  0.93827000000E+00  0.93827000000E+00 0. -1.
     999902    2    1    2    0    0 -0.12827419553E-01  0.18874387534E-01  0.45923313272E-02  0.10206517977E+01  0.10203863079E+01 0.  0.
     999903    2    3    3    0    0  0.30912105766E-01  0.92296339742E-01  0.87534077937E-01  0.13262969069E+00  0.21313081406E-01 0.  0.
         14    1    1    2    0    0  0.12827419553E-01 -0.18874387534E-01 -0.45923313272E-02  0.23278202340E-01  0.00000000000E+00 0. -1.
     999901    1    3    3    0    0 -0.43739525319E-01 -0.73421952209E-01 -0.82941746609E-01  0.88802210697E+00  0.88000000000E+00 0. -1.
        -11    1    4    4    0    0  0.73600337239E-02  0.18790496202E-01  0.30832509155E-01  0.36853189628E-01  0.51100000000E-03 0. -1.
         11    1    4    4    0    0  0.23552072042E-01  0.73505843540E-01  0.56701568781E-01  0.95776501060E-01  0.51100000000E-03 0.  1.
</event>
<event>
 8    1  0.1123450E+005  0.1043930E+01  0.7957747E-01            NaN
         13   -1    0    0    0    0  0.00000000000E+00  0.00000000000E+00  0.74505805969E-08  0.10566000000E+00  0.10566000000E+00 0.  1.
     999900   -1    0    0    0    0 -0.00000000000E+00 -0.00000000000E+00 -0.74505805969E-08  0.93827000000E+00  0.93827000000E+00 0.  1.
     999902    2    1    2    0    0 -0.23635288606E-01  0.41592095332E-02  0.38298197156E-02  0.10196278723E+01  0.10193382189E+01 0.  0.
     999903    2    3    3    0    0 -0.78956155011E-01 -0.87948784840E-01 -0.53443133772E-01  0.13124480623E+00  0.19999186141E-01 0.  0.
         14    1    1    2    0    0  0.23635288606E-01 -0.41592095332E-02 -0.38298197156E-02  0.24302127694E-01  0.00000000000E+00 0. -1.
     999901    1    3    3    0    0  0.55320866405E-01  0.92107994373E-01  0.57272953487E-01  0.88838306607E+00  0.88000000000E+00 0. -1.
        -11    1    4    4    0    0 -0.57860415896E-01 -0.50250248143E-01 -0.32726548998E-01  0.83331886433E-01  0.51100000000E-03 0. -1.
         11    1    4    4    0    0 -0.21095739114E-01 -0.37698536697E-01 -0.20716584774E-01  0.47912919798E-01  0.51100000000E-03 0.  1.
</event>
<event>
 8    1  0.1123450E+005  0.1043930E+01  0.7957747E-01            NaN
         13   -1    0    0    0    0  0.00000000000E+00  0.00000000000E+00  0.74505805969E-08  0.10566000000E+00  0.10566000000E+00 0. -1.
     999900   -1    0    0    0    0 -0.00000000000E+00 -0.00000000000E+00 -0.74505805969E-08  0.93827000000E+00  0.93827000000E+00 0.  1.
     999902    2    1    2    0    0 -0.20046823080E-01  0.56950002522E-02  0.97591714725E-02  0.10209180559E+01  0.10206586733E+01 0.  0.
     999903    2    3    3    0    0  0.70055026298E-01  0.11118999717E-03  0.10869225577E+00  0.13078476399E+00  0.19568570607E-01 0.  0.
         14    1    1    2    0    0  0.20046823080E-01 -0.56950002522E-02 -0.97591714725E-02  0.23011944101E-01  0.00000000000E+00 0.  1.
     999901    1    3    3    0    0 -0.90101849378E-01  0.55838102550E-02 -0.98933084293E-01  0.89013329191E+00  0.88000000000E+00 0. -1.
        -11    1    4    4    0    0  0.46467660013E-01 -0.70863529935E-02  0.60195361944E-01  0.76375405376E-01  0.51100000000E-03 0.  1.
         11    1    4    4    0    0  0.23587366285E-01  0.71975429906E-02  0.48496893822E-01  0.54409358613E-01  0.51100000000E-03 0. -1.
</event>
<event>
 8    1  0.1123450E+005  0.1043930E+01  0.7957747E-01            NaN
         13   -1    0    0    0    0  0.00000000000E+00  0.00000000000E+00  0.74505805969E-08  0.10566000000E+00  0.10566000000E+00 0. -1.
     999900   -1    0    0    0    0 -0.00000000000E+00 -0.00000000000E+00 -0.74505805969E-08  0.93827000000E+00  0.93827000000E+00 0.  1.
     999902    2    1    2    0    0 -0.20123095955E-01  0.19148225852E-02 -0.11898601531E-01  0.10204740358E+01  0.10202044283E+01 0.  0.
     999903    2    3    3    0    0 -0.19262018330E-01 -0.41627684582E-01  0.11973017588E+00  0.12961892617E+00  0.19022658314E-01 0.  0.
         14    1    1    2    0    0  0.20123095955E-01 -0.19148225852E-02  0.11898601531E-01  0.23455964161E-01  0.00000000000E+00 0. -1.
     999901    1    3    3    0    0 -0.86107762493E-03  0.43542507167E-01 -0.13162877742E+00  0.89085510967E+00  0.88000000000E+00 0.  1.
        -11    1    4    4    0    0 -0.89889132376E-02 -0.56891771883E-02  0.42548957470E-01  0.43861625609E-01  0.51100000000E-03 0. -1.
         11    1    4    4    0    0 -0.10273105093E-01 -0.35938507393E-01  0.77181218415E-01  0.85757300557E-01  0.51100000000E-03 0.  1.
</event>
<event>
 8    1  0.1123450E+005  0.1043930E+01  0.7957747E-01            NaN
         13   -1    0    0    0    0  0.00000000000E+00  0.00000000000E+00  0.74505805969E-08  0.10566000000E+00  0.10566000000E+00 0.  1.
     999900   -1    0    0    0    0 -0.00000000000E+00 -0.00000000000E+00 -0.74505805969E-08  0.93827000000E+00  0.93827000000E+00 0. -1.
     999902    2    1    2    0    0  0.22771952894E-01  0.26778436907E-02  0.93426278633E-03  0.10209821127E+01  0.10207241884E+01 0.  0.
     999903    2    3    3    0    0  0.54850513134E-01 -0.45142788425E-01  0.11006909586E+00  0.13237294174E+00  0.18998413235E-01 0.  0.
         14    1    1    2    0    0 -0.22771952894E-01 -0.26778436907E-02 -0.93426278633E-03  0.22947887319E-01  0.00000000000E+00 0.  1.
     999901    1    3    3    0    0 -0.32078560240E-01  0.47820632115E-01 -0.10913483307E+00  0.88860917094E+00  0.88000000000E+00 0. -1.
        -11    1    4    4    0    0  0.38540862981E-01 -0.34108552133E-01  0.93071675580E-01  0.10635501570E+00  0.51100000000E-03 0. -1.
         11    1    4    4    0    0  0.16309650154E-01 -0.11034236292E-01  0.16997420278E-01  0.26017926047E-01  0.51100000000E-03 0.  1.
</event>
<event>
 8    1  0.1123450E+005  0.1043930E+01  0.7957747E-01            NaN
         13   -1    0    0    0    0  0.00000000000E+00  0.00000000000E+00  0.74505805969E-08  0.10566000000E+00  0.10566000000E+00 0. -1.
     999900   -1    0    0    0    0 -0.00000000000E+00 -0.00000000000E+00 -0.74505805969E-08  0.93827000000E+00  0.93827000000E+00 0. -1.
     999902    2    1    2    0    0  0.64568814026E-02  0.99710384761E-02  0.21722991741E-01  0.10191711370E+01  0.10188703574E+01 0.  0.
     999903    2    3    3    0    0  0.46604401104E-01  0.96339980498E-01  0.75234773832E-01  0.13241585607E+00  0.20501846245E-01 0.  0.
         14    1    1    2    0    0 -0.64568814026E-02 -0.99710384761E-02 -0.21722991741E-01  0.24758862977E-01  0.00000000000E+00 0.  1.
     999901    1    3    3    0    0 -0.40147519701E-01 -0.86368942021E-01 -0.53511782091E-01  0.88675528096E+00  0.88000000000E+00 0. -1.
        -11    1    4    4    0    0  0.20017825333E-01  0.57640104366E-01  0.33589654555E-01  0.69653578347E-01  0.51100000000E-03 0.  1.
         11    1    4    4    0    0  0.26586575771E-01  0.38699876131E-01  0.41645119276E-01  0.62762277718E-01  0.51100000000E-03 0. -1.
</event>
<event>
 8    1  0.1123450E+005  0.1043930E+01  0.7957747E-01            NaN
         13   -1    0    0    0    0  0.00000000000E+00  0.00000000000E+00  0.74505805969E-08  0.10566000000E+00  0.10566000000E+00 0. -1.
     999900   -1    0    0    0    0 -0.00000000000E+00 -0.00000000000E+00 -0.74505805969E-08  0.93827000000E+00  0.93827000000E+00 0. -1.
     999902    2    1    2    0    0 -0.26545059730E-02 -0.89004631986E-02  0.19306983317E-01  0.10225051487E+01  0.10222806635E+01 0.  0.
     999903    2    3    3    0    0 -0.69076236053E-02  0.12309858089E+00  0.43171216242E-01  0.13233025678E+00  0.21132133506E-01 0.  0.
         14    1    1    2    0    0  0.26545059730E-02  0.89004631986E-02 -0.19306983317E-01  0.21424851269E-01  0.00000000000E+00 0.  1.
     999901    1    3    3    0    0  0.42531176322E-02 -0.13199904409E+00 -0.23864232925E-01  0.89017489195E+00  0.88000000000E+00 0. -1.
        -11    1    4    4    0    0 -0.11489902064E-01  0.11410805820E+00  0.42101982289E-01  0.12216998334E+00  0.51100000000E-03 0. -1.
         11    1    4    4    0    0  0.45822784590E-02  0.89905226891E-02  0.10692339523E-02  0.10160273438E-01  0.51100000000E-03 0.  1.
</event>
<event>
 8    1  0.1123450E+005  0.1043930E+01  0.7957747E-01            NaN
         13   -1    0    0    0    0  0.00000000000E+00  0.00000000000E+00  0.74505805969E-08  0.10566000000E+00  0.10566000000E+00 0. -1.
     999900   -1    0    0    0    0 -0.00000000000E+00 -0.00000000000E+00 -0.74505805969E-08  0.93827000000E+00  0.93827000000E+00 0. -1.
     999902    2    1    2    0    0 -0.59829749036E-02  0.62279333977E-02  0.24164078306E-01  0.10182690214E+01  0.10179456342E+01 0.  0.
     999903    2    3    3    0    0  0.56860208529E-01  0.10354394795E+00 -0.44264650758E-01  0.12804311559E+00  0.21937357886E-01 0.  0.
         14    1    1    2    0    0  0.59829749036E-02 -0.62279333977E-02 -0.24164078306E-01  0.25660978615E-01  0.00000000000E+00 0. -1.
     999901    1    3    3    0    0 -0.62843183432E-01 -0.97316014554E-01  0.68428729064E-01  0.89022590580E+00  0.88000000000E+00 0.  1.
        -11    1    4    4    0    0  0.62577249149E-02  0.14559934549E-01  0.14701542913E-02  0.15923984735E-01  0.51100000000E-03 0. -1.
         11    1    4    4    0    0  0.50602483614E-01  0.88984013403E-01 -0.45734805049E-01  0.11211913085E+00  0.51100000000E-03 0.  1.
</event>
<event>
 8    1  0.1123450E+005  0.1043930E+01  0.7957747E-01            NaN
         13   -1    0    0    0    0  0.00000000000E+00  0.00000000000E+00  0.74505805969E-08  0.10566000000E+00  0.10566000000E+00 0.  1.
     999900   -1    0    0    0    0 -0.00000000000E+00 -0.00000000000E+00 -0.74505805969E-08  0.93827000000E+00  0.93827000000E+00 0.  1.
     999902    2    1    2    0    0  0.11130127508E-01  0.19025973818E-01  0.60207949428E-02  0.10210801118E+01  0.10208244106E+01 0.  0.
     999903    2    3    3    0    0  0.12441591513E+00  0.12286629548E-01 -0.39608084987E-01  0.13262016161E+00  0.19723733595E-01 0.  0.
         14    1    1    2    0    0 -0.11130127508E-01 -0.19025973818E-01 -0.60207949428E-02  0.22849888179E-01  0.00000000000E+00 0.  1.
     999901    1    3    3    0    0 -0.11328578762E+00  0.67393442695E-02  0.45628879930E-01  0.88845995021E+00  0.88000000000E+00 0. -1.
        -11    1    4    4    0    0  0.48807672155E-01  0.12715537141E-01 -0.21748086305E-01  0.54928263443E-01  0.51100000000E-03 0. -1.
         11    1    4    4    0    0  0.75608242974E-01 -0.42890759247E-03 -0.17859998682E-01  0.77691898170E-01  0.51100000000E-03 0.  1.
</event>
<event>
 8    1  0.1123450E+005  0.1043930E+01  0.7957747E-01            NaN
         13   -1    0    0    0    0  0.00000000000E+00  0.00000000000E+00  0.74505805969E-08  0.10566000000E+00  0.10566000000E+00 0. -1.
     999900   -1    0    0    0    0 -0.00000000000E+00 -0.00000000000E+00 -0.74505805969E-08  0.93827000000E+00  0.93827000000E+00 0. -1.
     999902    2    1    2    0    0  0.15226367687E-01 -0.14599056852E-01  0.99041733409E-02  0.10206261938E+01  0.10203601129E+01 0.  0.
     999903    2    3    3    0    0  0.11073785885E+00  0.46009398219E-01 -0.49633557896E-01  0.13139024580E+00  0.20498012451E-01 0.  0.
         14    1    1    2    0    0 -0.15226367687E-01  0.14599056852E-01 -0.99041733409E-02  0.23303806201E-01  0.00000000000E+00 0. -1.
     999901    1    3    3    0    0 -0.95511491166E-01 -0.60608455072E-01  0.59537731237E-01  0.88923594800E+00  0.88000000000E+00 0.  1.
        -11    1    4    4    0    0  0.34306179305E-01  0.50575338252E-02 -0.18115219247E-01  0.39126907318E-01  0.51100000000E-03 0.  1.
         11    1    4    4    0    0  0.76431679547E-01  0.40951864394E-01 -0.31518338649E-01  0.92263338483E-01  0.51100000000E-03 0. -1.
</event>
<event>
 8    1  0.1123450E+005  0.1043930E+01  0.7957747E-01            NaN
         13   -1    0    0    0    0  0.00000000000E+00  0.00000000000E+00  0.74505805969E-08  0.10566000000E+00  0.10566000000E+00 0. -1.
     999900   -1    0    0    0    0 -0.00000000000E+00 -0.00000000000E+00 -0.74505805969E-08  0.93827000000E+00  0.93827000000E+00 0. -1.
     999902    2    1    2    0    0  0.17818725048E-01  0.16126269301E-01 -0.19610135152E-02  0.10198175738E+01  0.10195324785E+01 0.  0.
     999903    2    3    3    0    0 -0.90606031317E-01  0.90490611029E-01 -0.81040177768E-02  0.13002899237E+00  0.21067988934E-01 0.  0.
         14    1    1    2    0    0 -0.17818725048E-01 -0.16126269301E-01  0.19610135152E-02  0.24112426214E-01  0.00000000000E+00 0.  1.
     999901    1    3    3    0    0  0.10842475636E+00 -0.74364341728E-01  0.61430042616E-02  0.88978858141E+00  0.88000000000E+00 0.  1.
        -11    1    4    4    0    0 -0.60869328661E-01  0.50156215209E-01  0.20364913915E-02  0.78899489947E-01  0.51100000000E-03 0.  1.
         11    1    4    4    0    0 -0.29736702656E-01  0.40334395820E-01 -0.10140509168E-01  0.51129502425E-01  0.51100000000E-03 0. -1.
</event>
<event>
 8    1  0.1123450E+005  0.1043930E+01  0.7957747E-01            NaN
         13   -1    0    0    0    0  0.00000000000E+00  0.00000000000E+00  0.74505805969E-08  0.10566000000E+00  0.10566000000E+00 0. -1.
     999900   -1    0    0    0    0 -0.00000000000E+00 -0.00000000000E+00 -0.74505805969E-08  0.93827000000E+00  0.93827000000E+00 0.  1.
     999902    2    1    2    0    0  0.64525214119E-02 -0.20712474838E-01  0.95894822012E-02  0.10202108133E+01  0.10199350488E+01 0.  0.
     999903    2    3    3    0    0  0.16106243472E-01 -0.12308316745E+00 -0.42221261705E-01  0.13271021829E+00  0.20505850616E-01 0.  0.
         14    1    1    2    0    0 -0.64525214119E-02  0.20712474838E-01 -0.95894822012E-02  0.23719186651E-01  0.00000000000E+00 0.  1.
     999901    1    3    3    0    0 -0.96537220601E-02  0.10237069261E+00  0.51810743906E-01  0.88750059506E+00  0.88000000000E+00 0.  1.
        -11    1    4    4    0    0  0.80436338581E-02 -0.21082057562E-01 -0.14036209565E-01  0.26578741442E-01  0.51100000000E-03 0.  1.
         11    1    4    4    0    0  0.80626096139E-02 -0.10200110989E+00 -0.28185052140E-01  0.10613147684E+00  0.51100000000E-03 0. -1.
</event>
<event>
 8    1  0.1123450E+005  0.1043930E+01  0.7957747E-01            NaN
         13   -1    0    0    0    0  0.00000000000E+00  0.00000000000E+00  0.74505805969E-08  0.10566000000E+00  0.10566000000E+00 0.  1.
     999900   -1    0    0    0    0 -0.00000000000E+00 -0.00000000000E+00 -0.74505805969E-08  0.93827000000E+00  0.93827000000E+00 0. -1.
     999902    2    1    2    0    0 -0.22480406464E-01 -0.28294084360E-02  0.18849292898E-03  0.10212714529E+01  0.10210200638E+01 0.  0.
     999903    2    3    3    0    0  0.97165409023E-01  0.90480684900E-03  0.83045954090E-01  0.12931045353E+00  0.19560866969E-01 0.  0.
         14    1    1    2    0    0  0.22480406464E-01  0.28294084360E-02 -0.18849292898E-03  0.22658547095E-01  0.00000000000E+00 0.  1.
     999901    1    3    3    0    0 -0.11964581549E+00 -0.37342152850E-02 -0.82857461161E-01  0.89196099937E+00  0.88000000000E+00 0. -1.
        -11    1    4    4    0    0  0.68772963218E-01 -0.46839842584E-02  0.48727087726E-01  0.84417121353E-01  0.51100000000E-03 0.  1.
         11    1    4    4    0    0  0.28392445805E-01  0.55887911074E-02  0.34318866364E-01  0.44893332181E-01  0.51100000000E-03 0. -1.
</event>
<event>
 8    1  0.1123450E+005  0.1043930E+01  0.7957747E-01            NaN
         13   -1    0    0    0    0  0.00000000000E+00  0.00000000000E+00  0.74505805969E-08  0.10566000000E+00  0.10566000000E+00 0. -1.
     999900   -1    0    0    0    0 -0.00000000000E+00 -0.00000000000E+00 -0.74505805969E-08  0.93827000000E+00  0.93827000000E+00 0. -1.
     999902    2    1    2    0    0 -0.22565447157E-01  0.23606705129E-02  0.72967055397E-02  0.10200969540E+01  0.10198185042E+01 0.  0.
     999903    2    3    3    0    0  0.36343537335E-01  0.11230131872E+00 -0.49165510320E-01  0.12950995857E+00  0.20570441692E-01 0.  0.
         14    1    1    2    0    0  0.22565447157E-01 -0.23606705129E-02 -0.72967055397E-02  0.23833046016E-01  0.00000000000E+00 0.  1.
     999901    1    3    3    0    0 -0.58908984492E-01 -0.10994064821E+00  0.56462215860E-01  0.89058699541E+00  0.88000000000E+00 0. -1.
        -11    1    4    4    0    0  0.17881435874E-01  0.60723961571E-01 -0.37230451545E-01  0.73440539901E-01  0.51100000000E-03 0. -1.
         11    1    4    4    0    0  0.18462101461E-01  0.51577357149E-01 -0.11935058776E-01  0.56069418668E-01  0.51100000000E-03 0.  1.
</event>
<event>
 8    1  0.1123450E+005  0.1043930E+01  0.7957747E-01            NaN
         13   -1    0    0    0    0  0.00000000000E+00  0.00000000000E+00  0.74505805969E-08  0.10566000000E+00  0.10566000000E+00 0. -1.
     999900   -1    0    0    0    0 -0.00000000000E+00 -0.00000000000E+00 -0.74505805969E-08  0.93827000000E+00  0.93827000000E+00 0. -1.
     999902    2    1    2    0    0  0.34652270049E-02  0.11271441129E-01  0.18656694259E-01  0.10218590819E+01  0.10216207016E+01 0.  0.
     999903    2    3    3    0    0 -0.39795029893E-02  0.35168253524E-02 -0.12811012416E+00  0.12963934608E+00  0.19129862375E-01 0.  0.
         14    1    1    2    0    0 -0.34652270049E-02 -0.11271441129E-01 -0.18656694259E-01  0.22070918060E-01  0.00000000000E+00 0.  1.
     999901    1    3    3    0    0  0.74447299943E-02  0.77546157767E-02  0.14676681842E+00  0.89221973586E+00  0.88000000000E+00 0.  1.
        -11    1    4    4    0    0 -0.22086753527E-02  0.95822092407E-02 -0.36336306705E-01  0.37646849625E-01  0.51100000000E-03 0.  1.
         11    1    4    4    0    0 -0.17708276366E-02 -0.60653838883E-02 -0.91773817457E-01  0.91992496454E-01  0.51100000000E-03 0. -1.
</event>
<event>
 8    1  0.1123450E+005  0.1043930E+01  0.7957747E-01            NaN
         13   -1    0    0    0    0  0.00000000000E+00  0.00000000000E+00  0.74505805969E-08  0.10566000000E+00  0.10566000000E+00 0. -1.
     999900   -1    0    0    0    0 -0.00000000000E+00 -0.00000000000E+00 -0.74505805969E-08  0.93827000000E+00  0.93827000000E+00 0. -1.
     999902    2    1    2    0    0  0.91810565353E-02 -0.22002400566E-01  0.66324438125E-02  0.10191835509E+01  0.10188830766E+01 0.  0.
     999903    2    3    3    0    0 -0.64210652864E-01  0.33107106678E-01 -0.10306900708E+00  0.12763556619E+00  0.21178505203E-01 0.  0.
         14    1    1    2    0    0 -0.91810565353E-02  0.22002400566E-01 -0.66324438125E-02  0.24746449052E-01  0.00000000000E+00 0. -1.
     999901    1    3    3    0    0  0.73391709399E-01 -0.55109507245E-01  0.10970145089E+00  0.89154798476E+00  0.88000000000E+00 0.  1.
        -11    1    4    4    0    0 -0.11028608326E-01  0.34564899976E-02 -0.32117860338E-01  0.34137890948E-01  0.51100000000E-03 0. -1.
         11    1    4    4    0    0 -0.53182044538E-01  0.29650616681E-01 -0.70951146741E-01  0.93497675242E-01  0.51100000000E-03 0.  1.
</event>
<event>
 8    1  0.1123450E+005  0.1043930E+01  0.7957747E-01            NaN
         13   -1    0    0    0    0  0.00000000000E+00  0.00000000000E+00  0.74505805969E-08  0.10566000000E+00  0.10566000000E+00 0.  1.
     999900   -1    0    0    0    0 -0.00000000000E+00 -0.00000000000E+00 -0.74505805969E-08  0.93827000000E+00  0.93827000000E+00 0.  1.
     999902    2    1    2    0    0  0.17461727526E-01 -0.12379221817E-01 -0.84278692673E-02  0.10209259560E+01  0.10206667534E+01 0.  0.
     999903    2    3    3    0    0  0.10272280699E+00  0.79598299408E-01  0.87523804794E-02  0.13186775931E+00  0.20606732822E-01 0.  0.
         14    1    1    2    0    0 -0.17461727526E-01  0.12379221817E-01  0.84278692673E-02  0.23004044022E-01  0.00000000000E+00 0. -1.
     999901    1    3    3    0    0 -0.85261079461E-01 -0.91977521225E-01 -0.17180249747E-01  0.88905819667E+00  0.88000000000E+00 0.  1.
        -11    1    4    4    0    0  0.81158692322E-01  0.67636997344E-01 -0.13930288006E-03  0.10564931271E+00  0.51100000000E-03 0. -1.
         11    1    4    4    0    0  0.21564114664E-01  0.11961302064E-01  0.88916833595E-02  0.26218446603E-01  0.51100000000E-03 0.  1.
</event>
<event>
 8    1  0.1123450E+005  0.1043930E+01  0.7957747E-01            NaN
         13   -1    0    0    0    0  0.00000000000E+00  0.00000000000E+00  0.74505805969E-08  0.10566000000E+00  0.10566000000E+00 0. -1.
     999900   -1    0    0    0    0 -0.00000000000E+00 -0.00000000000E+00 -0.74505805969E-08  0.93827000000E+00  0.93827000000E+00 0.  1.
     999902    2    1    2    0    0 -0.41921596302E-02  0.84052917366E-02 -0.23636494122E-01  0.10184956338E+01  0.10181780046E+01 0.  0.
     999903    2    3    3    0    0  0.39527137561E-01  0.38356920785E-01  0.11216929982E+00  0.12650253362E+00  0.19679715818E-01 0.  0.
         14    1    1    2    0    0  0.41921596302E-02 -0.84052917366E-02  0.23636494122E-01  0.25434366238E-01  0.00000000000E+00 0. -1.
     999901    1    3    3    0    0 -0.43719297192E-01 -0.29951629048E-01 -0.13580579394E+00  0.89199310014E+00  0.88000000000E+00 0.  1.
        -11    1    4    4    0    0  0.36060594597E-01  0.24521674152E-01  0.91779549114E-01  0.10161410208E+00  0.51100000000E-03 0. -1.
         11    1    4    4    0    0  0.34665429643E-02  0.13835246633E-01  0.20389750706E-01  0.24888431537E-01  0.51100000000E-03 0.  1.
</event>
<event>
 8    1  0.1123450E+005  0.1043930E+01  0.7957747E-01            NaN
         13   -1    0    0    0    0  0.00000000000E+00  0.00000000000E+00  0.74505805969E-08  0.10566000000E+00  0.10566000000E+00 0. -1.
     999900   -1    0    0    0    0 -0.00000000000E+00 -0.00000000000E+00 -0.74505805969E-08  0.93827000000E+00  0.93827000000E+00 0. -1.
     999902    2    1    2    0    0 -0.72498229406E-03 -0.24194526151E-01  0.49859439542E-03  0.10197194797E+01  0.10194320321E+01 0.  0.
     999903    2    3    3    0    0 -0.40629233395E-01  0.26825460496E-01  0.11810491165E+00  0.12953599632E+00  0.21458430754E-01 0.  0.
         14    1    1    2    0    0  0.72498229406E-03  0.24194526151E-01 -0.49859439542E-03  0.24210520262E-01  0.00000000000E+00 0.  1.
     999901    1    3    3    0    0  0.39904251101E-01 -0.51019986647E-01 -0.11760631725E+00  0.89018348342E+00  0.88000000000E+00 0. -1.
        -11    1    4    4    0    0 -0.58852770891E-02  0.13949703595E-01  0.23806026817E-01  0.28217348398E-01  0.51100000000E-03 0.  1.
         11    1    4    4    0    0 -0.34743956306E-01  0.12875756901E-01  0.94298884830E-01  0.10131864792E+00  0.51100000000E-03 0. -1.
</event>
<event>
 8    1  0.1123450E+005  0.1043930E+01  0.7957747E-01            NaN
         13   -1    0    0    0    0  0.00000000000E+00  0.00000000000E+00  0.74505805969E-08  0.10566000000E+00  0.10566000000E+00 0.  1.
     999900   -1    0    0    0    0 -0.00000000000E+00 -0.00000000000E+00 -0.74505805969E-08  0.93827000000E+00  0.93827000000E+00 0. -1.
     999902    2    1    2    0    0 -0.50074599651E-02  0.21716066741E-01 -0.25991179254E-02  0.10214930300E+01  0.10212465876E+01 0.  0.
     999903    2    3    3    0    0 -0.76163187187E-01 -0.78536073289E-01 -0.68736290490E-01  0.13048923947E+00  0.18276161980E-01 0.  0.
         14    1    1    2    0    0  0.50074599651E-02 -0.21716066741E-01  0.25991179254E-02  0.22436970027E-01  0.00000000000E+00 0.  1.
     999901    1    3    3    0    0  0.71155727222E-01  0.10025214003E+00  0.66137172565E-01  0.89100379050E+00  0.88000000000E+00 0.  1.
        -11    1    4    4    0    0 -0.53699518204E-01 -0.42697305973E-01 -0.41647220586E-01  0.80258646240E-01  0.51100000000E-03 0.  1.
         11    1    4    4    0    0 -0.22463668983E-01 -0.35838767316E-01 -0.27089069904E-01  0.50230593229E-01  0.51100000000E-03 0. -1.
</event>
<event>
 8    1  0.1123450E+005  0.1043930E+01  0.7957747E-01            NaN
         13   -1    0    0    0    0  0.00000000000E+00  0.00000000000E+00  0.74505805969E-08  0.10566000000E+00  0.10566000000E+00 0.  1.
     999900   -1    0    0    0    0 -0.00000000000E+00 -0.00000000000E+00 -0.74505805969E-08  0.93827000000E+00  0.93827000000E+00 0. -1.
     999902    2    1    2    0    0 -0.11118859200E-01 -0.20452181425E-01 -0.95124464234E-03  0.10206313816E+01  0.10203654205E+01 0.  0.
     999903    2    3    3    0    0 -0.78539384886E-01  0.78305554054E-01  0.65987921673E-01  0.13002514444E+00  0.15872542537E-01 0.  0.
         14    1    1    2    0    0  0.11118859200E-01  0.20452181425E-01  0.95124464234E-03  0.23298618443E-01  0.00000000000E+00 0. -1.
     999901    1    3    3    0    0  0.67420525685E-01 -0.98757735479E-01 -0.66939166315E-01  0.89060623711E+00  0.88000000000E+00 0. -1.
        -11    1    4    4    0    0 -0.27569854570E-01  0.38181372156E-01  0.30013998434E-01  0.55848144854E-01  0.51100000000E-03 0. -1.
         11    1    4    4    0    0 -0.50969530316E-01  0.40124181898E-01  0.35973923240E-01  0.74176999588E-01  0.51100000000E-03 0.  1.
</event>
<event>
 8    1  0.1123450E+005  0.1043930E+01  0.7957747E-01            NaN
         13   -1    0    0    0    0  0.00000000000E+00  0.00000000000E+00  0.74505805969E-08  0.10566000000E+00  0.10566000000E+00 0. -1.
     999900   -1    0    0    0    0 -0.00000000000E+00 -0.00000000000E+00 -0.74505805969E-08  0.93827000000E+00  0.93827000000E+00 0.  1.
     999902    2    1    2    0    0 -0.44245095311E-02 -0.10566814857E-01  0.20376963543E-01  0.10205536336E+01  0.10202858740E+01 0.  0.
     999903    2    3    3    0    0 -0.75924837928E-01  0.33249240735E-01 -0.96604547259E-01  0.12886040301E+00  0.20061702040E-01 0.  0.
         14    1    1    2    0    0  0.44245095311E-02  0.10566814857E-01 -0.20376963543E-01  0.23376366357E-01  0.00000000000E+00 0.  1.
     999901    1    3    3    0    0  0.71500328397E-01 -0.43816055592E-01  0.11698151080E+00  0.89169323063E+00  0.88000000000E+00 0. -1.
        -11    1    4    4    0    0 -0.33555024007E-01  0.20364071763E-01 -0.32595901583E-01  0.51023415957E-01  0.51100000000E-03 0.  1.
         11    1    4    4    0    0 -0.42369813921E-01  0.12885168971E-01 -0.64008645676E-01  0.77836987052E-01  0.51100000000E-03 0. -1.
</event>
<event>
 8    1  0.1123450E+005  0.1043930E+01  0.7957747E-01            NaN
         13   -1    0    0    0    0  0.00000000000E+00  0.00000000000E+00  0.74505805969E-08  0.10566000000E+00  0.10566000000E+00 0.  1.
     999900   -1    0    0    0    0 -0.00000000000E+00 -0.00000000000E+00 -0.74505805969E-08  0.93827000000E+00  0.93827000000E+00 0. -1.
     999902    2    1    2    0    0  0.19226841160E-01  0.12332865547E-01  0.64908815944E-02  0.10201833679E+01  0.10199069573E+01 0.  0.
     999903    2    3    3    0    0  0.59705030730E-01  0.11709851191E+00  0.61721504114E-02  0.13304503250E+00  0.19650268379E-01 0.  0.
         14    1    1    2    0    0 -0.19226841160E-01 -0.12332865547E-01 -0.64908815944E-02  0.23746632129E-01  0.00000000000E+00 0. -1.
     999901    1    3    3    0    0 -0.40478189570E-01 -0.10476564636E+00  0.31873118306E-03  0.88713833537E+00  0.88000000000E+00 0.  1.
        -11    1    4    4    0    0  0.33310019137E-01  0.85286724994E-01  0.41667173013E-02  0.91656999129E-01  0.51100000000E-03 0. -1.
         11    1    4    4    0    0  0.26395011593E-01  0.31811786915E-01  0.20054331100E-02  0.41388033375E-01  0.51100000000E-03 0.  1.
</event>
<event>
 8    1  0.1291140E+005  0.1043930E+01  0.7957747E-01            NaN
         13   -1    0    0    0    0  0.00000000000E+00  0.00000000000E+00  0.74505805969E-08  0.10566000000E+00  0.10566000000E+00 0.  1.
     999900   -1    0    0    0    0 -0.00000000000E+00 -0.00000000000E+00 -0.74505805969E-08  0.93827000000E+00  0.93827000000E+00 0.  1.
     999902    2    1    2    0    0 -0.20471778350E-02 -0.18338053805E-01 -0.13849959248E-01  0.10208584477E+01  0.10205977041E+01 0.  0.
     999903    2    3    3    0    0  0.28822012072E-01  0.11846187546E+00 -0.38579326644E-01  0.12941093430E+00  0.19872120039E-01 0.  0.
         14    1    1    2    0    0  0.20471778350E-02  0.18338053805E-01  0.13849959248E-01  0.23071552302E-01  0.00000000000E+00 0.  1.
     999901    1    3    3    0    0 -0.30869189907E-01 -0.13679992926E+00  0.24729367397E-01  0.89144751340E+00  0.88000000000E+00 0.  1.
        -11    1    4    4    0    0  0.21691179612E-01  0.48502885485E-01 -0.18741780380E-01  0.56343168407E-01  0.51100000000E-03 0.  1.
         11    1    4    4    0    0  0.71308324601E-02  0.69958989974E-01 -0.19837546264E-01  0.73067765893E-01  0.51100000000E-03 0. -1.
</event>
<event>
 8    1  0.1123450E+005  0.1043930E+01  0.7957747E-01            NaN
         13   -1    0    0    0    0  0.00000000000E+00  0.00000000000E+00  0.74505805969E-08  0.10566000000E+00  0.10566000000E+00 0.  1.
     999900   -1    0    0    0    0 -0.00000000000E+00 -0.00000000000E+00 -0.74505805969E-08  0.93827000000E+00  0.93827000000E+00 0. -1.
     999902    2    1    2    0    0  0.30781743586E-02  0.11350831815E-01  0.19850978757E-01  0.10208566843E+01  0.10205959004E+01 0.  0.
     999903    2    3    3    0    0 -0.37285778471E-01 -0.11868554866E+00 -0.28334778432E-01  0.12908284742E+00  0.19571231180E-01 0.  0.
         14    1    1    2    0    0 -0.30781743586E-02 -0.11350831815E-01 -0.19850978757E-01  0.23073315711E-01  0.00000000000E+00 0. -1.
     999901    1    3    3    0    0  0.40363952829E-01  0.13003638048E+00  0.48185757189E-01  0.89177383687E+00  0.88000000000E+00 0. -1.
        -11    1    4    4    0    0 -0.31858770648E-01 -0.10354945091E+00 -0.31195870443E-01  0.11274268714E+00  0.51100000000E-03 0. -1.
         11    1    4    4    0    0 -0.54270078229E-02 -0.15136097756E-01  0.28610920111E-02  0.16340160271E-01  0.51100000000E-03 0.  1.
</event>
<event>
 8    1  0.1123450E+005  0.1043930E+01  0.7957747E-01            NaN
         13   -1    0    0    0    0  0.00000000000E+00  0.00000000000E+00  0.74505805969E-08  0.10566000000E+00  0.10566000000E+00 0. -1.
     999900   -1    0    0    0    0 -0.00000000000E+00 -0.00000000000E+00 -0.74505805969E-08  0.93827000000E+00  0.93827000000E+00 0. -1.
     999902    2    1    2    0    0 -0.16165329002E-01 -0.15538950272E-01  0.81312838201E-02  0.10200784882E+01  0.10197996017E+01 0.  0.
     999903    2    3    3    0    0  0.76386330300E-01 -0.92960172296E-01  0.47396151419E-01  0.13097692761E+00  0.20786902305E-01 0.  0.
         14    1    1    2    0    0  0.16165329002E-01  0.15538950272E-01 -0.81312838201E-02  0.23851511773E-01  0.00000000000E+00 0. -1.
     999901    1    3    3    0    0 -0.92551659302E-01  0.77421222024E-01 -0.39264867599E-01  0.88910156061E+00  0.88000000000E+00 0. -1.
        -11    1    4    4    0    0  0.65251888282E-01 -0.70772425259E-01  0.44252865754E-01  0.10594867791E+00  0.51100000000E-03 0.  1.
         11    1    4    4    0    0  0.11134442018E-01 -0.22187747038E-01  0.31432856649E-02  0.25028249707E-01  0.51100000000E-03 0. -1.
</event>
<event>
 8    1  0.1123450E+005  0.1043930E+01  0.7957747E-01            NaN
         13   -1    0    0    0    0  0.00000000000E+00  0.00000000000E+00  0.74505805969E-08  0.10566000000E+00  0.10566000000E+00 0.  1.
     999900   -1    0    0    0    0 -0.00000000000E+00 -0.00000000000E+00 -0.74505805969E-08  0.93827000000E+00  0.93827000000E+00 0. -1.
     999902    2    1    2    0    0  0.11742944000E-01  0.20261406827E-01 -0.52358138995E-03  0.10205057502E+01  0.10202368797E+01 0.  0.
     999903    2    3    3    0    0 -0.15977509084E-01  0.62044750002E-01 -0.11352697713E+00  0.13186406836E+00  0.19872749912E-01 0.  0.
         14    1    1    2    0    0 -0.11742944000E-01 -0.20261406827E-01  0.52358138995E-03  0.23424249782E-01  0.00000000000E+00 0. -1.
     999901    1    3    3    0    0  0.27720453084E-01 -0.41783343175E-01  0.11300339574E+00  0.88864168186E+00  0.88000000000E+00 0.  1.
        -11    1    4    4    0    0 -0.29501035598E-02  0.42482565135E-01 -0.61886435526E-01  0.75124320127E-01  0.51100000000E-03 0.  1.
         11    1    4    4    0    0 -0.13027405524E-01  0.19562184867E-01 -0.51640541604E-01  0.56739748233E-01  0.51100000000E-03 0. -1.
</event>
<event>
 8    1  0.1123450E+005  0.1043930E+01  0.7957747E-01            NaN
         13   -1    0    0    0    0  0.00000000000E+00  0.00000000000E+00  0.74505805969E-08  0.10566000000E+00  0.10566000000E+00 0.  1.
     999900   -1    0    0    0    0 -0.00000000000E+00 -0.00000000000E+00 -0.74505805969E-08  0.93827000000E+00  0.93827000000E+00 0. -1.
     999902    2    1    2    0    0  0.22145267796E-01 -0.68208178957E-02 -0.21196001928E-02  0.10206613699E+01  0.10203961009E+01 0.  0.
     999903    2    3    3    0    0 -0.46734277313E-01  0.11024815886E+00  0.45946864944E-01  0.12894396951E+00  0.13292240926E-01 0.  0.
         14    1    1    2    0    0 -0.22145267796E-01  0.68208178957E-02  0.21196001928E-02  0.23268630116E-01  0.00000000000E+00 0.  1.
     999901    1    3    3    0    0  0.68879545109E-01 -0.11706897675E+00 -0.48066465136E-01  0.89171740037E+00  0.88000000000E+00 0.  1.
        -11    1    4    4    0    0 -0.10557138277E-01  0.30328593297E-01  0.65631258214E-02  0.32781282487E-01  0.51100000000E-03 0.  1.
         11    1    4    4    0    0 -0.36177139036E-01  0.79919565559E-01  0.39383739122E-01  0.96162687027E-01  0.51100000000E-03 0. -1.
</event>
<event>
 8    1  0.1123450E+005  0.1043930E+01  0.7957747E-01            NaN
         13   -1    0    0    0    0  0.00000000000E+00  0.00000000000E+00  0.74505805969E-08  0.10566000000E+00  0.10566000000E+00 0. -1.
     999900   -1    0    0    0    0 -0.00000000000E+00 -0.00000000000E+00 -0.74505805969E-08  0.93827000000E+00  0.93827000000E+00 0. -1.
     999902    2    1    2    0    0 -0.92078872138E-02  0.16827994510E-01 -0.13635446969E-01  0.10203950898E+01  0.10201236431E+01 0.  0.
     999903    2    3    3    0    0  0.34072895202E-01 -0.43143280962E-01 -0.11748752949E+00  0.13120723837E+00  0.19741198915E-01 0.  0.
         14    1    1    2    0    0  0.92078872138E-02 -0.16827994510E-01  0.13635446969E-01  0.23534910245E-01  0.00000000000E+00 0. -1.
     999901    1    3    3    0    0 -0.43280782416E-01  0.59971275473E-01  0.10385208252E+00  0.88918785139E+00  0.88000000000E+00 0.  1.
        -11    1    4    4    0    0  0.16023587590E-01 -0.35169709920E-01 -0.79477682887E-01  0.88377752026E-01  0.51100000000E-03 0. -1.
         11    1    4    4    0    0  0.18049307613E-01 -0.79735710424E-02 -0.38009846605E-01  0.42829486343E-01  0.51100000000E-03 0.  1.
</event>
<event>
 8    1  0.1123450E+005  0.1043930E+01  0.7957747E-01            NaN
         13   -1    0    0    0    0  0.00000000000E+00  0.00000000000E+00  0.74505805969E-08  0.10566000000E+00  0.10566000000E+00 0.  1.
     999900   -1    0    0    0    0 -0.00000000000E+00 -0.00000000000E+00 -0.74505805969E-08  0.93827000000E+00  0.93827000000E+00 0.  1.
     999902    2    1    2    0    0  0.10064263369E-02 -0.21544938770E-02  0.20515325899E-01  0.10232773165E+01  0.10230688800E+01 0.  0.
     999903    2    3    3    0    0 -0.29014650378E-01  0.10899116699E+00  0.70345269083E-01  0.13438044612E+00  0.19716059426E-01 0.  0.
         14    1    1    2    0    0 -0.10064263369E-02  0.21544938770E-02 -0.20515325899E-01  0.20652683471E-01  0.00000000000E+00 0. -1.
     999901    1    3    3    0    0  0.30021076715E-01 -0.11114566087E+00 -0.49829943184E-01  0.88889687040E+00  0.88000000000E+00 0.  1.
        -11    1    4    4    0    0 -0.19000908253E-01  0.59223918600E-01  0.27742386986E-01  0.68105860287E-01  0.51100000000E-03 0. -1.
         11    1    4    4    0    0 -0.10013742126E-01  0.49767248391E-01  0.42602882097E-01  0.66274585837E-01  0.51100000000E-03 0.  1.
</event>
<event>
 8    1  0.1123450E+005  0.1043930E+01  0.7957747E-01            NaN
         13   -1    0    0    0    0  0.00000000000E+00  0.00000000000E+00  0.74505805969E-08  0.10566000000E+00  0.10566000000E+00 0. -1.
     999900   -1    0    0    0    0 -0.00000000000E+00 -0.00000000000E+00 -0.74505805969E-08  0.93827000000E+00  0.93827000000E+00 0.  1.
     999902    2    1    2    0    0  0.57864314220E-02 -0.19250657684E-01 -0.11568605369E-01  0.10207372589E+01  0.10204737373E+01 0.  0.
     999903    2    3    3    0    0 -0.88762921041E-01  0.86778856310E-01  0.26546107790E-01  0.12852956488E+00  0.20142670042E-01 0.  0.
         14    1    1    2    0    0 -0.57864314220E-02  0.19250657684E-01  0.11568605369E-01  0.23192741107E-01  0.00000000000E+00 0.  1.
     999901    1    3    3    0    0  0.94549352463E-01 -0.10602951399E+00 -0.38114713159E-01  0.89220769401E+00  0.88000000000E+00 0.  1.
        -11    1    4    4    0    0 -0.20183678352E-01  0.29842395432E-01  0.13340955897E-01  0.38421239727E-01  0.51100000000E-03 0.  1.
         11    1    4    4    0    0 -0.68579242689E-01  0.56936460879E-01  0.13205151893E-01  0.90108325158E-01  0.51100000000E-03 0. -1.
</event>
<event>
 8    1  0.1123450E+005  0.1043930E+01  0.7957747E-01            NaN
         13   -1    0    0    0    0  0.00000000000E+00  0.00000000000E+00  0.74505805969E-08  0.10566000000E+00  0.10566000000E+00 0.  1.
     999900   -1    0    0    0    0 -0.00000000000E+00 -0.00000000000E+00 -0.74505805969E-08  0.93827000000E+00  0.93827000000E+00 0. -1.
     999902    2    1    2    0    0 -0.11984456279E-01  0.13209961981E-02 -0.25405138877E-01  0.10158089526E+01  0.10154196349E+01 0.  0.
     999903    2    3    3    0    0 -0.14970733386E-02 -0.38075782713E-01 -0.12211370096E+00  0.12957273279E+00  0.20623546321E-01 0.  0.
         14    1    1    2    0    0  0.11984456279E-01 -0.13209961981E-02  0.25405138877E-01  0.28121047359E-01  0.00000000000E+00 0.  1.
     999901    1    3    3    0    0 -0.10487382940E-01  0.39396778911E-01  0.96708562086E-01  0.88623621985E+00  0.88000000000E+00 0.  1.
        -11    1    4    4    0    0  0.60320534504E-02 -0.54877934146E-02 -0.41460867194E-01  0.42258326692E-01  0.51100000000E-03 0. -1.
         11    1    4    4    0    0 -0.75291267890E-02 -0.32587989298E-01 -0.80652833769E-01  0.87314406100E-01  0.51100000000E-03 0.  1.
</event>
<event>
 8    1  0.1123450E+005  0.1043930E+01  0.7957747E-01            NaN
         13   -1    0    0    0    0  0.00000000000E+00  0.00000000000E+00  0.74505805969E-08  0.10566000000E+00  0.10566000000E+00 0. -1.
     999900   -1    0    0    0    0 -0.00000000000E+00 -0.00000000000E+00 -0.74505805969E-08  0.93827000000E+00  0.93827000000E+00 0. -1.
     999902    2    1    2    0    0  0.20345734963E-01 -0.83962529467E-02  0.57074384007E-02  0.10211919076E+01  0.10209387304E+01 0.  0.
     999903    2    3    3    0    0 -0.52478306650E-01 -0.88169286406E-01  0.79868460619E-01  0.13149143261E+00  0.19576264060E-01 0.  0.
         14    1    1    2    0    0 -0.20345734963E-01  0.83962529467E-02 -0.57074384007E-02  0.22738092441E-01  0.00000000000E+00 0. -1.
     999901    1    3    3    0    0  0.72824041613E-01  0.79773033460E-01 -0.74161022218E-01  0.88970047495E+00  0.88000000000E+00 0.  1.
        -11    1    4    4    0    0 -0.21434656158E-01 -0.26631803414E-01  0.16926556257E-01  0.38150581456E-01  0.51100000000E-03 0. -1.
         11    1    4    4    0    0 -0.31043650492E-01 -0.61537482992E-01  0.62941904362E-01  0.93340851157E-01  0.51100000000E-03 0.  1.
</event>
<event>
 8    1  0.1123450E+005  0.1043930E+01  0.7957747E-01            NaN
         13   -1    0    0    0    0  0.00000000000E+00  0.00000000000E+00  0.74505805969E-08  0.10566000000E+00  0.10566000000E+00 0.  1.
     999900   -1    0    0    0    0 -0.00000000000E+00 -0.00000000000E+00 -0.74505805969E-08  0.93827000000E+00  0.93827000000E+00 0. -1.
     999902    2    1    2    0    0  0.14107878044E-01  0.17237422311E-01  0.73370715251E-02  0.10204780583E+01  0.10202085443E+01 0.  0.
     999903    2    3    3    0    0 -0.10508706637E+00  0.22117204618E-01 -0.66353417267E-01  0.12937675363E+00  0.28339127331E-01 0.  0.
         14    1    1    2    0    0 -0.14107878044E-01 -0.17237422311E-01 -0.73370715251E-02  0.23451941698E-01  0.00000000000E+00 0. -1.
     999901    1    3    3    0    0  0.11919494442E+00 -0.48797823070E-02  0.73690488792E-01  0.89110130467E+00  0.88000000000E+00 0.  1.
        -11    1    4    4    0    0 -0.16342683451E-01  0.14350095746E-01 -0.98267143119E-02  0.23871195728E-01  0.51100000000E-03 0. -1.
         11    1    4    4    0    0 -0.88744382921E-01  0.77671088729E-02 -0.56526702955E-01  0.10550555790E+00  0.51100000000E-03 0.  1.
</event>
<event>
 8    1  0.1123450E+005  0.1043930E+01  0.7957747E-01            NaN
         13   -1    0    0    0    0  0.00000000000E+00  0.00000000000E+00  0.74505805969E-08  0.10566000000E+00  0.10566000000E+00 0. -1.
     999900   -1    0    0    0    0 -0.00000000000E+00 -0.00000000000E+00 -0.74505805969E-08  0.93827000000E+00  0.93827000000E+00 0. -1.
     999902    2    1    2    0    0 -0.17039042883E-01 -0.17427285445E-01 -0.38985469693E-02  0.10192472544E+01  0.10189483440E+01 0.  0.
     999903    2    3    3    0    0 -0.41349341885E-02  0.68096306805E-01 -0.10719261136E+00  0.12899422041E+00  0.22249680607E-01 0.  0.
         14    1    1    2    0    0  0.17039042883E-01  0.17427285445E-01  0.38985469693E-02  0.24682745569E-01  0.00000000000E+00 0. -1.
     999901    1    3    3    0    0 -0.12904108695E-01 -0.85523592251E-01  0.10329406439E+00  0.89025303402E+00  0.88000000000E+00 0.  1.
        -11    1    4    4    0    0 -0.12404338557E-01  0.38480450579E-01 -0.52717591508E-01  0.66438078443E-01  0.51100000000E-03 0.  1.
         11    1    4    4    0    0  0.82694043684E-02  0.29615856227E-01 -0.54475019850E-01  0.62556141963E-01  0.51100000000E-03 0. -1.
</event>
<event>
 8    1  0.1123450E+005  0.1043930E+01  0.7957747E-01            NaN
         13   -1    0    0    0    0  0.00000000000E+00  0.00000000000E+00  0.74505805969E-08  0.10566000000E+00  0.10566000000E+00 0. -1.
     999900   -1    0    0    0    0 -0.00000000000E+00 -0.00000000000E+00 -0.74505805969E-08  0.93827000000E+00  0.93827000000E+00 0. -1.
     999902    2    1    2    0    0  0.95261729889E-03 -0.23509605750E-01  0.45885539740E-02  0.10199578522E+01  0.10196761037E+01 0.  0.
     999903    2    3    3    0    0 -0.83415796756E-01  0.86139601189E-01  0.40842312499E-01  0.12841126740E+00  0.21050725966E-01 0.  0.
         14    1    1    2    0    0 -0.95261729889E-03  0.23509605750E-01 -0.45885539740E-02  0.23972147793E-01  0.00000000000E+00 0.  1.
     999901    1    3    3    0    0  0.84368414055E-01 -0.10964920694E+00 -0.36253758525E-01  0.89154658481E+00  0.88000000000E+00 0. -1.
        -11    1    4    4    0    0 -0.42123394591E-01  0.33308762952E-01  0.10103361561E-01  0.54646071195E-01  0.51100000000E-03 0. -1.
         11    1    4    4    0    0 -0.41292402165E-01  0.52830838237E-01  0.30738950939E-01  0.73765196205E-01  0.51100000000E-03 0.  1.
</event>
<event>
 8    1  0.1123450E+005  0.1043930E+01  0.7957747E-01            NaN
         13   -1    0    0    0    0  0.00000000000E+00  0.00000000000E+00  0.74505805969E-08  0.10566000000E+00  0.10566000000E+00 0.  1.
     999900   -1    0    0    0    0 -0.00000000000E+00 -0.00000000000E+00 -0.74505805969E-08  0.93827000000E+00  0.93827000000E+00 0. -1.
     999902    2    1    2    0    0 -0.15390926925E-01 -0.17210480883E-01  0.34737775092E-02  0.10205815865E+01  0.10203144742E+01 0.  0.
     999903    2    3    3    0    0  0.34895246404E-01 -0.36031676408E-01  0.11986817767E+00  0.13129502242E+00  0.18816029524E-01 0.  0.
         14    1    1    2    0    0  0.15390926925E-01  0.17210480883E-01 -0.34737775092E-02  0.23348413523E-01  0.00000000000E+00 0.  1.
     999901    1    3    3    0    0 -0.50286173329E-01  0.18821195525E-01 -0.11639440016E+00  0.88928656406E+00  0.88000000000E+00 0. -1.
        -11    1    4    4    0    0  0.14694272440E-01 -0.22840635279E-01  0.44278008736E-01  0.51946313066E-01  0.51100000000E-03 0.  1.
         11    1    4    4    0    0  0.20200973964E-01 -0.13191041129E-01  0.75590168934E-01  0.79348709351E-01  0.51100000000E-03 0. -1.
</event>
<event>
 8    1  0.1123450E+005  0.1043930E+01  0.7957747E-01            NaN
         13   -1    0    0    0    0  0.00000000000E+00  0.00000000000E+00  0.74505805969E-08  0.10566000000E+00  0.10566000000E+00 0.  1.
     999900   -1    0    0    0    0 -0.00000000000E+00 -0.00000000000E+00 -0.74505805969E-08  0.93827000000E+00  0.93827000000E+00 0.  1.
     999902    2    1    2    0    0  0.21931401809E-01 -0.19105818395E-02  0.77761322159E-02  0.10205825175E+01  0.10203154267E+01 0.  0.
     999903    2    3    3    0    0 -0.97500712336E-01 -0.49527179807E-02 -0.80381280162E-01  0.12814483682E+00  0.20713055848E-01 0.  0.
         14    1    1    2    0    0 -0.21931401809E-01  0.19105818395E-02 -0.77761322159E-02  0.23347482530E-01  0.00000000000E+00 0.  1.
     999901    1    3    3    0    0  0.11943211414E+00  0.30421361412E-02  0.88157412378E-01  0.89243768065E+00  0.88000000000E+00 0. -1.
        -11    1    4    4    0    0 -0.86681024834E-01 -0.10419798437E-01 -0.66779759277E-01  0.10991801325E+00  0.51100000000E-03 0.  1.
         11    1    4    4    0    0 -0.10819687502E-01  0.54670804562E-02 -0.13601520884E-01  0.18226823577E-01  0.51100000000E-03 0. -1.
</event>
<event>
 8    1  0.1123450E+005  0.1043930E+01  0.7957747E-01            NaN
         13   -1    0    0    0    0  0.00000000000E+00  0.00000000000E+00  0.74505805969E-08  0.10566000000E+00  0.10566000000E+00 0.  1.
     999900   -1    0    0    0    0 -0.00000000000E+00 -0.00000000000E+00 -0.74505805969E-08  0.93827000000E+00  0.93827000000E+00 0.  1.
     999902    2    1    2    0    0  0.19666720881E-01 -0.39504104584E-02  0.11633282276E-01  0.10207412331E+01  0.10204778028E+01 0.  0.
     999903    2    3    3    0    0 -0.58229670773E-01  0.77061910051E-01  0.85767544710E-01  0.13050152788E+00  0.18583447354E-01 0.  0.
         14    1    1    2    0    0 -0.19666720881E-01  0.39504104584E-02 -0.11633282276E-01  0.23188766882E-01  0.00000000000E+00 0. -1.
     999901    1    3    3    0    0  0.77896391654E-01 -0.81012320510E-01 -0.74134262434E-01  0.89023970523E+00  0.88000000000E+00 0.  1.
        -11    1    4    4    0    0 -0.18714551975E-01  0.12672220144E-01  0.16319745655E-01  0.27882159856E-01  0.51100000000E-03 0.  1.
         11    1    4    4    0    0 -0.39515118798E-01  0.64389689908E-01  0.69447799055E-01  0.10261936803E+00  0.51100000000E-03 0. -1.
</event>
<event>
 8    1  0.1123450E+005  0.1043930E+01  0.7957747E-01            NaN
         13   -1    0    0    0    0  0.00000000000E+00  0.00000000000E+00  0.74505805969E-08  0.10566000000E+00  0.10566000000E+00 0. -1.
     999900   -1    0    0    0    0 -0.00000000000E+00 -0.00000000000E+00 -0.74505805969E-08  0.93827000000E+00  0.93827000000E+00 0. -1.
     999902    2    1    2    0    0 -0.21374521274E-03  0.89929511152E-02 -0.23417013627E-01  0.10188446381E+01  0.10185357731E+01 0.  0.
     999903    2    3    3    0    0  0.10950677425E+00 -0.36008723751E-01 -0.57152698968E-01  0.13024920728E+00  0.20250017391E-01 0.  0.
         14    1    1    2    0    0  0.21374521274E-03 -0.89929511152E-02  0.23417013627E-01  0.25085361946E-01  0.00000000000E+00 0. -1.
     999901    1    3    3    0    0 -0.10972051946E+00  0.45001674866E-01  0.33735685341E-01  0.88859543078E+00  0.88000000000E+00 0. -1.
        -11    1    4    4    0    0  0.99769535469E-01 -0.26091847142E-01 -0.49911755243E-01  0.11456958203E+00  0.51100000000E-03 0. -1.
         11    1    4    4    0    0  0.97372387807E-02 -0.99168766092E-02 -0.72409437245E-02  0.15679625243E-01  0.51100000000E-03 0.  1.
</event>
<event>
 8    1  0.1123450E+005  0.1043930E+01  0.7957747E-01            NaN
         13   -1    0    0    0    0  0.00000000000E+00  0.00000000000E+00  0.74505805969E-08  0.10566000000E+00  0.10566000000E+00 0.  1.
     999900   -1    0    0    0    0 -0.00000000000E+00 -0.00000000000E+00 -0.74505805969E-08  0.93827000000E+00  0.93827000000E+00 0.  1.
     999902    2    1    2    0    0 -0.13344121329E-01 -0.87897601425E-02  0.15618107757E-01  0.10215860803E+01  0.10213417003E+01 0.  0.
     999903    2    3    3    0    0  0.42498245999E-01  0.37158851913E-01 -0.11425907223E+00  0.12911886700E+00  0.20728363202E-01 0.  0.
         14    1    1    2    0    0  0.13344121329E-01  0.87897601425E-02 -0.15618107757E-01  0.22343919694E-01  0.00000000000E+00 0. -1.
     999901    1    3    3    0    0 -0.55842367328E-01 -0.45948612056E-01  0.12987717999E+00  0.89246721330E+00  0.88000000000E+00 0. -1.
        -11    1    4    4    0    0  0.33579178760E-01  0.33748238660E-01 -0.75988787408E-01  0.89671967702E-01  0.51100000000E-03 0.  1.
         11    1    4    4    0    0  0.89190672387E-02  0.34106132535E-02 -0.38270284821E-01  0.39446899301E-01  0.51100000000E-03 0. -1.
</event>
<event>
 8    1  0.1123450E+005  0.1043930E+01  0.7957747E-01            NaN
         13   -1    0    0    0    0  0.00000000000E+00  0.00000000000E+00  0.74505805969E-08  0.10566000000E+00  0.10566000000E+00 0.  1.
     999900   -1    0    0    0    0 -0.00000000000E+00 -0.00000000000E+00 -0.74505805969E-08  0.93827000000E+00  0.93827000000E+00 0. -1.
     999902    2    1    2    0    0 -0.12037393788E-01  0.14468305576E-01 -0.14672893908E-01  0.10200652869E+01  0.10197860879E+01 0.  0.
     999903    2    3    3    0    0  0.99209396085E-02  0.10793475926E+00 -0.74105796924E-01  0.13285030939E+00  0.20228649662E-01 0.  0.
         14    1    1    2    0    0  0.12037393788E-01 -0.14468305576E-01  0.14672893908E-01  0.23864713095E-01  0.00000000000E+00 0.  1.
     999901    1    3    3    0    0 -0.21958333397E-01 -0.93466453685E-01  0.59432903016E-01  0.88721497752E+00  0.88000000000E+00 0.  1.
        -11    1    4    4    0    0 -0.75652677055E-04  0.85410713741E-01 -0.60779798003E-01  0.10483053330E+00  0.51100000000E-03 0.  1.
         11    1    4    4    0    0  0.99965922855E-02  0.22524045521E-01 -0.13325998921E-01  0.28019776091E-01  0.51100000000E-03 0. -1.
</event>
<event>
 8    1  0.1123450E+005  0.1043930E+01  0.7957747E-01            NaN
         13   -1    0    0    0    0  0.00000000000E+00  0.00000000000E+00  0.74505805969E-08  0.10566000000E+00  0.10566000000E+00 0.  1.
     999900   -1    0    0    0    0 -0.00000000000E+00 -0.00000000000E+00 -0.74505805969E-08  0.93827000000E+00  0.93827000000E+00 0.  1.
     999902    2    1    2    0    0 -0.21467051731E-01  0.87789959996E-02 -0.82070086965E-02  0.10193279661E+01  0.10190310311E+01 0.  0.
     999903    2    3    3    0    0 -0.84366215492E-01  0.97962389050E-01 -0.21009841339E-01  0.13249433179E+00  0.19976149260E-01 0.  0.
         14    1    1    2    0    0  0.21467051731E-01 -0.87789959996E-02  0.82070086965E-02  0.24602033910E-01  0.00000000000E+00 0.  1.
     999901    1    3    3    0    0  0.62899163761E-01 -0.89183393050E-01  0.12802832642E-01  0.88683363430E+00  0.88000000000E+00 0.  1.
        -11    1    4    4    0    0 -0.18283522462E-01  0.27224249489E-01 -0.13271136081E-01  0.35381225639E-01  0.51100000000E-03 0.  1.
         11    1    4    4    0    0 -0.66082693030E-01  0.70738139561E-01 -0.77387052576E-02  0.97113106153E-01  0.51100000000E-03 0. -1.
</event>
<event>
 8    1  0.1123450E+005  0.1043930E+01  0.7957747E-01            NaN
         13   -1    0    0    0    0  0.00000000000E+00  0.00000000000E+00  0.74505805969E-08  0.10566000000E+00  0.10566000000E+00 0.  1.
     999900   -1    0    0    0    0 -0.00000000000E+00 -0.00000000000E+00 -0.74505805969E-08  0.93827000000E+00  0.93827000000E+00 0. -1.
     999902    2    1    2    0    0 -0.15352079848E-01 -0.17963286067E-01  0.28291598569E-02  0.10201314675E+01  0.10198538331E+01 0.  0.
     999903    2    3    3    0    0 -0.10985869991E+00  0.19909217952E-01  0.67298163494E-01  0.13191861004E+00  0.20203117566E-01 0.  0.
         14    1    1    2    0    0  0.15352079848E-01  0.17963286067E-01 -0.28291598569E-02  0.23798532465E-01  0.00000000000E+00 0. -1.
     999901    1    3    3    0    0  0.94506620060E-01 -0.37872504019E-01 -0.64469003637E-01  0.88821285750E+00  0.88000000000E+00 0. -1.
        -11    1    4    4    0    0 -0.85624293177E-01  0.23802927444E-01  0.54126558342E-01  0.10405788954E+00  0.51100000000E-03 0.  1.
         11    1    4    4    0    0 -0.24234406731E-01 -0.38937094916E-02  0.13171605152E-01  0.27860720495E-01  0.51100000000E-03 0. -1.
</event>
<event>
 8    1  0.1123450E+005  0.1043930E+01  0.7957747E-01            NaN
         13   -1    0    0    0    0  0.00000000000E+00  0.00000000000E+00  0.74505805969E-08  0.10566000000E+00  0.10566000000E+00 0.  1.
     999900   -1    0    0    0    0 -0.00000000000E+00 -0.00000000000E+00 -0.74505805969E-08  0.93827000000E+00  0.93827000000E+00 0.  1.
     999902    2    1    2    0    0 -0.78271869575E-02  0.30007647999E-02 -0.24623046834E-01  0.10179191584E+01  0.10175867772E+01 0.  0.
     999903    2    3    3    0    0  0.66084234296E-01  0.17163391542E-01 -0.10938912307E+00  0.13064875663E+00  0.21009743718E-01 0.  0.
         14    1    1    2    0    0  0.78271869575E-02 -0.30007647999E-02  0.24623046834E-01  0.26010841594E-01  0.00000000000E+00 0.  1.
     999901    1    3    3    0    0 -0.73911421253E-01 -0.14162626743E-01  0.84766076236E-01  0.88727040178E+00  0.88000000000E+00 0. -1.
        -11    1    4    4    0    0  0.38821613056E-01  0.11939728128E-01 -0.45531033846E-01  0.61016480660E-01  0.51100000000E-03 0. -1.
         11    1    4    4    0    0  0.27262621239E-01  0.52236634139E-02 -0.63858089224E-01  0.69632275970E-01  0.51100000000E-03 0.  1.
</event>
<event>
 8    1  0.1123450E+005  0.1043930E+01  0.7957747E-01            NaN
         13   -1    0    0    0    0  0.00000000000E+00  0.00000000000E+00  0.74505805969E-08  0.10566000000E+00  0.10566000000E+00 0. -1.
     999900   -1    0    0    0    0 -0.00000000000E+00 -0.00000000000E+00 -0.74505805969E-08  0.93827000000E+00  0.93827000000E+00 0. -1.
     999902    2    1    2    0    0 -0.17017137524E-01  0.14248914200E-01 -0.81653477887E-02  0.10202807415E+01  0.10200066196E+01 0.  0.
     999903    2    3    3    0    0 -0.70496907823E-01 -0.15728688392E-01 -0.10894784467E+00  0.13240921124E+00  0.21103571023E-01 0.  0.
         14    1    1    2    0    0  0.17017137524E-01 -0.14248914200E-01  0.81653477887E-02  0.23649258548E-01  0.00000000000E+00 0. -1.
     999901    1    3    3    0    0  0.53479770299E-01  0.29977602591E-01  0.10078249689E+00  0.88787153022E+00  0.88000000000E+00 0.  1.
        -11    1    4    4    0    0 -0.35917334187E-01  0.15437242134E-02 -0.61139023637E-01  0.70927281858E-01  0.51100000000E-03 0.  1.
         11    1    4    4    0    0 -0.34579573636E-01 -0.17272412605E-01 -0.47808821038E-01  0.61481929378E-01  0.51100000000E-03 0. -1.
</event>
<event>
 8    1  0.1123450E+005  0.1043930E+01  0.7957747E-01            NaN
         13   -1    0    0    0    0  0.00000000000E+00  0.00000000000E+00  0.74505805969E-08  0.10566000000E+00  0.10566000000E+00 0.  1.
     999900   -1    0    0    0    0 -0.00000000000E+00 -0.00000000000E+00 -0.74505805969E-08  0.93827000000E+00  0.93827000000E+00 0.  1.
     999902    2    1    2    0    0 -0.19072458261E-01  0.11238291889E-01  0.72783141680E-02  0.10206269589E+01  0.10203608957E+01 0.  0.
     999903    2    3    3    0    0  0.85274194860E-01  0.92401577772E-01  0.28780752945E-01  0.13049322855E+00  0.19758822647E-01 0.  0.
         14    1    1    2    0    0  0.19072458261E-01 -0.11238291889E-01 -0.72783141680E-02  0.23303041128E-01  0.00000000000E+00 0.  1.
     999901    1    3    3    0    0 -0.10434665312E+00 -0.81163285883E-01 -0.21502438777E-01  0.89013373033E+00  0.88000000000E+00 0.  1.
        -11    1    4    4    0    0  0.24818966238E-01  0.34900528285E-01  0.20390815859E-02  0.42877114343E-01  0.51100000000E-03 0.  1.
         11    1    4    4    0    0  0.60455228622E-01  0.57501049487E-01  0.26741671359E-01  0.87616114202E-01  0.51100000000E-03 0. -1.
</event>
<event>
 8    1  0.1123450E+005  0.1043930E+01  0.7957747E-01            NaN
         13   -1    0    0    0    0  0.00000000000E+00  0.00000000000E+00  0.74505805969E-08  0.10566000000E+00  0.10566000000E+00 0. -1.
     999900   -1    0    0    0    0 -0.00000000000E+00 -0.00000000000E+00 -0.74505805969E-08  0.93827000000E+00  0.93827000000E+00 0. -1.
     999902    2    1    2    0    0 -0.12115852622E-01 -0.71166953951E-03 -0.20729351005E-01  0.10199090435E+01  0.10196261328E+01 0.  0.
     999903    2    3    3    0    0  0.86679532985E-01 -0.64785199594E-01 -0.70725950564E-01  0.13065901935E+00  0.18951404436E-01 0.  0.
         14    1    1    2    0    0  0.12115852622E-01  0.71166953951E-03  0.20729351005E-01  0.24020956504E-01  0.00000000000E+00 0. -1.
     999901    1    3    3    0    0 -0.98795385607E-01  0.64073530055E-01  0.49996599558E-01  0.88925002414E+00  0.88000000000E+00 0. -1.
        -11    1    4    4    0    0  0.67860562169E-01 -0.59418185710E-01 -0.56086980904E-01  0.10621481648E+00  0.51100000000E-03 0.  1.
         11    1    4    4    0    0  0.18818970816E-01 -0.53670138841E-02 -0.14638969660E-01  0.24444202877E-01  0.51100000000E-03 0. -1.
</event>
<event>
 8    1  0.1123450E+005  0.1043930E+01  0.7957747E-01            NaN
         13   -1    0    0    0    0  0.00000000000E+00  0.00000000000E+00  0.74505805969E-08  0.10566000000E+00  0.10566000000E+00 0.  1.
     999900   -1    0    0    0    0 -0.00000000000E+00 -0.00000000000E+00 -0.74505805969E-08  0.93827000000E+00  0.93827000000E+00 0. -1.
     999902    2    1    2    0    0  0.17201844705E-01  0.13956509787E-01  0.87024075364E-02  0.10201304302E+01  0.10198527713E+01 0.  0.
     999903    2    3    3    0    0  0.39597193653E-01  0.12520997732E+00  0.56097978509E-02  0.13283766568E+00  0.19206754746E-01 0.  0.
         14    1    1    2    0    0 -0.17201844705E-01 -0.13956509787E-01 -0.87024075364E-02  0.23799569821E-01  0.00000000000E+00 0. -1.
     999901    1    3    3    0    0 -0.22395348947E-01 -0.11125346753E+00  0.30926096855E-02  0.88729276450E+00  0.88000000000E+00 0.  1.
        -11    1    4    4    0    0  0.22186775168E-01  0.46683153172E-01 -0.39280786893E-02  0.51838795372E-01  0.51100000000E-03 0.  1.
         11    1    4    4    0    0  0.17410418485E-01  0.78526824144E-01  0.95378765403E-02  0.80998870312E-01  0.51100000000E-03 0. -1.
</event>
<event>
 8    1  0.1123450E+005  0.1043930E+01  0.7957747E-01            NaN
         13   -1    0    0    0    0  0.00000000000E+00  0.00000000000E+00  0.74505805969E-08  0.10566000000E+00  0.10566000000E+00 0.  1.
     999900   -1    0    0    0    0 -0.00000000000E+00 -0.00000000000E+00 -0.74505805969E-08  0.93827000000E+00  0.93827000000E+00 0.  1.
     999902    2    1    2    0    0  0.19423427207E-01 -0.43065202999E-02 -0.13651898026E-01  0.10198013871E+01  0.10195159043E+01 0.  0.
     999903    2    3    3    0    0 -0.12220984181E+00  0.29376613696E-01 -0.89622122229E-02  0.12782799647E+00  0.21481260839E-01 0.  0.
         14    1    1    2    0    0 -0.19423427207E-01  0.43065202999E-02  0.13651898026E-01  0.24128612916E-01  0.00000000000E+00 0.  1.
     999901    1    3    3    0    0  0.14163326901E+00 -0.33683133996E-01 -0.46896858031E-02  0.89197339061E+00  0.88000000000E+00 0.  1.
        -11    1    4    4    0    0 -0.10357108788E+00  0.23596908682E-01  0.28676156451E-03  0.10622677486E+00  0.51100000000E-03 0. -1.
         11    1    4    4    0    0 -0.18638753932E-01  0.57797050141E-02 -0.92489737874E-02  0.21601221616E-01  0.51100000000E-03 0.  1.
</event>
<event>
 8    1  0.1123450E+005  0.1043930E+01  0.7957747E-01            NaN
         13   -1    0    0    0    0  0.00000000000E+00  0.00000000000E+00  0.74505805969E-08  0.10566000000E+00  0.10566000000E+00 0.  1.
     999900   -1    0    0    0    0 -0.00000000000E+00 -0.00000000000E+00 -0.74505805969E-08  0.93827000000E+00  0.93827000000E+00 0. -1.
     999902    2    1    2    0    0 -0.20761971274E-01 -0.90949920197E-03  0.12551322877E-01  0.10196519781E+01  0.10193629060E+01 0.  0.
     999903    2    3    3    0    0  0.10367036626E+00 -0.57032555175E-01  0.43329889866E-01  0.12859613015E+00  0.25675438497E-01 0.  0.
         14    1    1    2    0    0  0.20761971274E-01  0.90949920197E-03 -0.12551322877E-01  0.24278021871E-01  0.00000000000E+00 0. -1.
     999901    1    3    3    0    0 -0.12443233754E+00  0.56123055973E-01 -0.30778566990E-01  0.89105584798E+00  0.88000000000E+00 0. -1.
        -11    1    4    4    0    0  0.26192168389E-02 -0.74450082349E-02 -0.19400939043E-03  0.79112075633E-02  0.51100000000E-03 0.  1.
         11    1    4    4    0    0  0.10105114942E+00 -0.49587546940E-01  0.43523899257E-01  0.12068492258E+00  0.51100000000E-03 0. -1.
</event>
<event>
 8    1  0.1123450E+005  0.1043930E+01  0.7957747E-01            NaN
         13   -1    0    0    0    0  0.00000000000E+00  0.00000000000E+00  0.74505805969E-08  0.10566000000E+00  0.10566000000E+00 0. -1.
     999900   -1    0    0    0    0 -0.00000000000E+00 -0.00000000000E+00 -0.74505805969E-08  0.93827000000E+00  0.93827000000E+00 0.  1.
     999902    2    1    2    0    0 -0.27072011550E-02  0.20477724939E-01 -0.97322611058E-02  0.10210961860E+01  0.10208408485E+01 0.  0.
     999903    2    3    3    0    0  0.11418062452E+00 -0.57108381730E-01  0.12801997851E-01  0.12969831714E+00  0.18952045794E-01 0.  0.
         14    1    1    2    0    0  0.27072011550E-02 -0.20477724939E-01  0.97322611058E-02  0.22833814027E-01  0.00000000000E+00 0. -1.
     999901    1    3    3    0    0 -0.11688782567E+00  0.77586106669E-01 -0.22534258956E-01  0.89139786884E+00  0.88000000000E+00 0.  1.
        -11    1    4    4    0    0  0.10800384085E+00 -0.52490664692E-01  0.74865272448E-02  0.12031794849E+00  0.51100000000E-03 0. -1.
         11    1    4    4    0    0  0.61767836664E-02 -0.46177170381E-02  0.53154706059E-02  0.93803686424E-02  0.51100000000E-03 0.  1.
</event>
<event>
 8    1  0.1123450E+005  0.1043930E+01  0.7957747E-01            NaN
         13   -1    0    0    0    0  0.00000000000E+00  0.00000000000E+00  0.74505805969E-08  0.10566000000E+00  0.10566000000E+00 0.  1.
     999900   -1    0    0    0    0 -0.00000000000E+00 -0.00000000000E+00 -0.74505805969E-08  0.93827000000E+00  0.93827000000E+00 0. -1.
     999902    2    1    2    0    0  0.83382981365E-02 -0.22193950536E-01 -0.79552183715E-03  0.10202080374E+01  0.10199322075E+01 0.  0.
     999903    2    3    3    0    0 -0.10191050516E+00 -0.62028246319E-01 -0.50540627786E-01  0.13104205437E+00  0.19606390650E-01 0.  0.
         14    1    1    2    0    0 -0.83382981365E-02  0.22193950536E-01  0.79552183715E-03  0.23721962634E-01  0.00000000000E+00 0. -1.
     999901    1    3    3    0    0  0.11024880329E+00  0.39834295783E-01  0.49745105949E-01  0.88916598299E+00  0.88000000000E+00 0. -1.
        -11    1    4    4    0    0 -0.70391004357E-01 -0.32013710858E-01 -0.30603087698E-01  0.83165986286E-01  0.51100000000E-03 0.  1.
         11    1    4    4    0    0 -0.31519500800E-01 -0.30014535461E-01 -0.19937540089E-01  0.47876068086E-01  0.51100000000E-03 0. -1.
</event>
<event>
 8    1  0.1123450E+005  0.1043930E+01  0.7957747E-01            NaN
         13   -1    0    0    0    0  0.00000000000E+00  0.00000000000E+00  0.74505805969E-08  0.10566000000E+00  0.10566000000E+00 0.  1.
     999900   -1    0    0    0    0 -0.00000000000E+00 -0.00000000000E+00 -0.74505805969E-08  0.93827000000E+00  0.93827000000E+00 0.  1.
     999902    2    1    2    0    0 -0.20087889607E-01  0.70582672811E-02  0.93102673947E-02  0.10206915938E+01  0.10204270214E+01 0.  0.
     999903    2    3    3    0    0 -0.12052573355E+00 -0.29816010391E-01 -0.42139022331E-01  0.13271946454E+00  0.20574550800E-01 0.  0.
         14    1    1    2    0    0  0.20087889607E-01 -0.70582672811E-02 -0.93102673947E-02  0.23238406246E-01  0.00000000000E+00 0. -1.
     999901    1    3    3    0    0  0.10043784395E+00  0.36874277672E-01  0.51449289725E-01  0.88797212922E+00  0.88000000000E+00 0. -1.
        -11    1    4    4    0    0 -0.33846744222E-01 -0.50908927237E-02 -0.27202738177E-02  0.34339194717E-01  0.51100000000E-03 0. -1.
         11    1    4    4    0    0 -0.86678989330E-01 -0.24725117667E-01 -0.39418748513E-01  0.98380269822E-01  0.51100000000E-03 0.  1.
</event>
<event>
 8    1  0.1123450E+005  0.1043930E+01  0.7957747E-01            NaN
         13   -1    0    0    0    0  0.00000000000E+00  0.00000000000E+00  0.74505805969E-08  0.10566000000E+00  0.10566000000E+00 0.  1.
     999900   -1    0    0    0    0 -0.00000000000E+00 -0.00000000000E+00 -0.74505805969E-08  0.93827000000E+00  0.93827000000E+00 0. -1.
     999902    2    1    2    0    0  0.16175840353E-01  0.37275863819E-02  0.16792713581E-01  0.10203175469E+01  0.10200442876E+01 0.  0.
     999903    2    3    3    0    0  0.39979177281E-01 -0.96148946017E-01 -0.74519883229E-01  0.12965492229E+00  0.20352676483E-01 0.  0.
         14    1    1    2    0    0 -0.16175840353E-01 -0.37275863819E-02 -0.16792713581E-01  0.23612453087E-01  0.00000000000E+00 0. -1.
     999901    1    3    3    0    0 -0.23803336928E-01  0.99876532399E-01  0.91312596811E-01  0.89066262463E+00  0.88000000000E+00 0.  1.
        -11    1    4    4    0    0  0.12199801624E-01 -0.18872909434E-01 -0.25602701140E-01  0.34070240634E-01  0.51100000000E-03 0. -1.
         11    1    4    4    0    0  0.27779375657E-01 -0.77276036583E-01 -0.48917182089E-01  0.95584681651E-01  0.51100000000E-03 0.  1.
</event>
<event>
 8    1  0.1123450E+005  0.1043930E+01  0.7957747E-01            NaN
         13   -1    0    0    0    0  0.00000000000E+00  0.00000000000E+00  0.74505805969E-08  0.10566000000E+00  0.10566000000E+00 0. -1.
     999900   -1    0    0    0    0 -0.00000000000E+00 -0.00000000000E+00 -0.74505805969E-08  0.93827000000E+00  0.93827000000E+00 0. -1.
     999902    2    1    2    0    0  0.16287634119E-01  0.13764755194E-01  0.10511838399E-01  0.10201549236E+01  0.10198778426E+01 0.  0.
     999903    2    3    3    0    0  0.26691215751E-02  0.20491090232E-01 -0.12626748296E+00  0.12945896526E+00  0.19726567019E-01 0.  0.
         14    1    1    2    0    0 -0.16287634119E-01 -0.13764755194E-01 -0.10511838399E-01  0.23775076389E-01  0.00000000000E+00 0.  1.
     999901    1    3    3    0    0  0.13618512544E-01 -0.67263350381E-02  0.13677932135E+00  0.89069595835E+00  0.88000000000E+00 0.  1.
        -11    1    4    4    0    0 -0.72382289389E-02  0.15834692462E-01 -0.70029501360E-01  0.72163159751E-01  0.51100000000E-03 0.  1.
         11    1    4    4    0    0  0.99073505139E-02  0.46563977702E-02 -0.56237981596E-01  0.57295805513E-01  0.51100000000E-03 0. -1.
</event>
<event>
 8    1  0.1123450E+005  0.1043930E+01  0.7957747E-01            NaN
         13   -1    0    0    0    0  0.00000000000E+00  0.00000000000E+00  0.74505805969E-08  0.10566000000E+00  0.10566000000E+00 0.  1.
     999900   -1    0    0    0    0 -0.00000000000E+00 -0.00000000000E+00 -0.74505805969E-08  0.93827000000E+00  0.93827000000E+00 0. -1.
     999902    2    1    2    0    0  0.17082223101E-01  0.84946624586E-02 -0.16573873523E-01  0.10186583772E+01  0.10183448505E+01 0.  0.
     999903    2    3    3    0    0  0.11007395900E+00 -0.57157308116E-01 -0.37085868960E-01  0.13108957075E+00  0.20636849631E-01 0.  0.
         14    1    1    2    0    0 -0.17082223101E-01 -0.84946624586E-02  0.16573873523E-01  0.25271622819E-01  0.00000000000E+00 0.  1.
     999901    1    3    3    0    0 -0.92991735899E-01  0.65651970574E-01  0.20511995438E-01  0.88756880643E+00  0.88000000000E+00 0.  1.
        -11    1    4    4    0    0  0.22928905770E-01 -0.15047006146E-01  0.28709525366E-04  0.27430075811E-01  0.51100000000E-03 0.  1.
         11    1    4    4    0    0  0.87145053231E-01 -0.42110301970E-01 -0.37114578486E-01  0.10365949494E+00  0.51100000000E-03 0. -1.
</event>
<event>
 8    1  0.1123450E+005  0.1043930E+01  0.7957747E-01            NaN
         13   -1    0    0    0    0  0.00000000000E+00  0.00000000000E+00  0.74505805969E-08  0.10566000000E+00  0.10566000000E+00 0.  1.
     999900   -1    0    0    0    0 -0.00000000000E+00 -0.00000000000E+00 -0.74505805969E-08  0.93827000000E+00  0.93827000000E+00 0.  1.
     999902    2    1    2    0    0  0.13162742250E-01 -0.50083505197E-02 -0.19801849645E-01  0.10196307282E+01  0.10193411438E+01 0.  0.
     999903    2    3    3    0    0 -0.41060319646E-01 -0.18961857908E-01  0.11731190998E+00  0.12725467305E+00  0.19651098808E-01 0.  0.
         14    1    1    2    0    0 -0.13162742250E-01  0.50083505197E-02  0.19801849645E-01  0.24299271755E-01  0.00000000000E+00 0. -1.
     999901    1    3    3    0    0  0.54223061896E-01  0.13953507388E-01 -0.13711375963E+00  0.89237605520E+00  0.88000000000E+00 0.  1.
        -11    1    4    4    0    0 -0.23295759393E-01 -0.80440471919E-02  0.38388375416E-01  0.45621569339E-01  0.51100000000E-03 0.  1.
         11    1    4    4    0    0 -0.17764560253E-01 -0.10917810716E-01  0.78923534566E-01  0.81633103709E-01  0.51100000000E-03 0. -1.
</event>
<event>
 8    1  0.1123450E+005  0.1043930E+01  0.7957747E-01            NaN
         13   -1    0    0    0    0  0.00000000000E+00  0.00000000000E+00  0.74505805969E-08  0.10566000000E+00  0.10566000000E+00 0.  1.
     999900   -1    0    0    0    0 -0.00000000000E+00 -0.00000000000E+00 -0.74505805969E-08  0.93827000000E+00  0.93827000000E+00 0.  1.
     999902    2    1    2    0    0  0.17872667881E-01  0.15885242666E-01  0.37066462962E-02  0.10197326361E+01  0.10194455046E+01 0.  0.
     999903    2    3    3    0    0 -0.16394026721E-01  0.62983247275E-01 -0.11108937590E+00  0.13036738208E+00  0.20473185437E-01 0.  0.
         14    1    1    2    0    0 -0.17872667881E-01 -0.15885242666E-01 -0.37066462962E-02  0.24197363875E-01  0.00000000000E+00 0. -1.
     999901    1    3    3    0    0  0.34266694602E-01 -0.47098004609E-01  0.11479602220E+00  0.88936525405E+00  0.88000000000E+00 0. -1.
        -11    1    4    4    0    0 -0.78341283529E-02  0.61217842445E-02 -0.10282311374E-01  0.14312122749E-01  0.51100000000E-03 0.  1.
         11    1    4    4    0    0 -0.85598983682E-02  0.56861463030E-01 -0.10080706453E+00  0.11605525933E+00  0.51100000000E-03 0. -1.
</event>
<event>
 8    1  0.1123450E+005  0.1043930E+01  0.7957747E-01            NaN
         13   -1    0    0    0    0  0.00000000000E+00  0.00000000000E+00  0.74505805969E-08  0.10566000000E+00  0.10566000000E+00 0.  1.
     999900   -1    0    0    0    0 -0.00000000000E+00 -0.00000000000E+00 -0.74505805969E-08  0.93827000000E+00  0.93827000000E+00 0.  1.
     999902    2    1    2    0    0  0.13036082721E-01 -0.22874427764E-02 -0.19857087783E-01  0.10200663083E+01  0.10197871334E+01 0.  0.
     999903    2    3    3    0    0  0.11281971662E+00 -0.34416065176E-01  0.53037188295E-01  0.13085171244E+00  0.19911637480E-01 0.  0.
         14    1    1    2    0    0 -0.13036082721E-01  0.22874427764E-02  0.19857087783E-01  0.23863691717E-01  0.00000000000E+00 0. -1.
     999901    1    3    3    0    0 -0.99783633897E-01  0.32128622399E-01 -0.72894276077E-01  0.88921459584E+00  0.88000000000E+00 0.  1.
        -11    1    4    4    0    0  0.56500837656E-01 -0.69002614567E-02  0.26274990753E-01  0.62694453694E-01  0.51100000000E-03 0. -1.
         11    1    4    4    0    0  0.56318878962E-01 -0.27515803719E-01  0.26762197541E-01  0.68157258748E-01  0.51100000000E-03 0.  1.
</event>
<event>
 8    1  0.1123450E+005  0.1043930E+01  0.7957747E-01            NaN
         13   -1    0    0    0    0  0.00000000000E+00  0.00000000000E+00  0.74505805969E-08  0.10566000000E+00  0.10566000000E+00 0.  1.
     999900   -1    0    0    0    0 -0.00000000000E+00 -0.00000000000E+00 -0.74505805969E-08  0.93827000000E+00  0.93827000000E+00 0. -1.
     999902    2    1    2    0    0  0.94494166800E-02 -0.20596647661E-01  0.77984201619E-02  0.10199648435E+01  0.10196832612E+01 0.  0.
     999903    2    3    3    0    0  0.15689923171E-02  0.12567475820E+00  0.11828624010E-01  0.12784732442E+00  0.20209290658E-01 0.  0.
         14    1    1    2    0    0 -0.94494166800E-02  0.20596647661E-01 -0.77984201619E-02  0.23965156529E-01  0.00000000000E+00 0.  1.
     999901    1    3    3    0    0  0.78804243628E-02 -0.14627140586E+00 -0.40302038481E-02  0.89211751905E+00  0.88000000000E+00 0. -1.
        -11    1    4    4    0    0  0.99262351508E-02  0.44072869589E-01  0.19172677039E-02  0.45220404847E-01  0.51100000000E-03 0.  1.
         11    1    4    4    0    0 -0.83572428337E-02  0.81601888611E-01  0.99113563062E-02  0.82626919569E-01  0.51100000000E-03 0. -1.
</event>
<event>
 8    1  0.1123450E+005  0.1043930E+01  0.7957747E-01            NaN
         13   -1    0    0    0    0  0.00000000000E+00  0.00000000000E+00  0.74505805969E-08  0.10566000000E+00  0.10566000000E+00 0. -1.
     999900   -1    0    0    0    0 -0.00000000000E+00 -0.00000000000E+00 -0.74505805969E-08  0.93827000000E+00  0.93827000000E+00 0. -1.
     999902    2    1    2    0    0 -0.23175920300E-01  0.26204235217E-02  0.15712150705E-02  0.10205535456E+01  0.10202857839E+01 0.  0.
     999903    2    3    3    0    0  0.14275521336E-01 -0.91804602010E-01  0.89454580715E-01  0.13036132939E+00  0.18975740578E-01 0.  0.
         14    1    1    2    0    0  0.23175920300E-01 -0.26204235217E-02 -0.15712150705E-02  0.23376454350E-01  0.00000000000E+00 0. -1.
     999901    1    3    3    0    0 -0.37451441636E-01  0.94425025532E-01 -0.87883365645E-01  0.89019221626E+00  0.88000000000E+00 0.  1.
        -11    1    4    4    0    0  0.21403342440E-02 -0.10156884061E-01  0.19767080082E-01  0.22332530096E-01  0.51100000000E-03 0. -1.
         11    1    4    4    0    0  0.12135187092E-01 -0.81647717950E-01  0.69687500633E-01  0.10802879930E+00  0.51100000000E-03 0.  1.
</event>
<event>
 8    1  0.1123450E+005  0.1043930E+01  0.7957747E-01            NaN
         13   -1    0    0    0    0  0.00000000000E+00  0.00000000000E+00  0.74505805969E-08  0.10566000000E+00  0.10566000000E+00 0.  1.
     999900   -1    0    0    0    0 -0.00000000000E+00 -0.00000000000E+00 -0.74505805969E-08  0.93827000000E+00  0.93827000000E+00 0.  1.
     999902    2    1    2    0    0 -0.21383487252E-01 -0.31428065767E-02  0.99012453498E-02  0.10201567920E+01  0.10198797551E+01 0.  0.
     999903    2    3    3    0    0 -0.79618324390E-01 -0.40086519329E-01  0.96998791697E-01  0.13317194614E+00  0.19493461390E-01 0.  0.
         14    1    1    2    0    0  0.21383487252E-01  0.31428065767E-02 -0.99012453498E-02  0.23773208023E-01  0.00000000000E+00 0. -1.
     999901    1    3    3    0    0  0.58234837138E-01  0.36943712752E-01 -0.87097546347E-01  0.88698484584E+00  0.88000000000E+00 0.  1.
        -11    1    4    4    0    0 -0.44799581044E-01 -0.30001585102E-01  0.47787633369E-01  0.72048709873E-01  0.51100000000E-03 0. -1.
         11    1    4    4    0    0 -0.34818743346E-01 -0.10084934227E-01  0.49211158328E-01  0.61123236265E-01  0.51100000000E-03 0.  1.
</event>
<event>
 8    1  0.1123450E+005  0.1043930E+01  0.7957747E-01            NaN
         13   -1    0    0    0    0  0.00000000000E+00  0.00000000000E+00  0.74505805969E-08  0.10566000000E+00  0.10566000000E+00 0.  1.
     999900   -1    0    0    0    0 -0.00000000000E+00 -0.00000000000E+00 -0.74505805969E-08  0.93827000000E+00  0.93827000000E+00 0. -1.
     999902    2    1    2    0    0  0.17945214866E-01 -0.97329940272E-02 -0.11616044338E-01  0.10204418243E+01  0.10201714672E+01 0.  0.
     999903    2    3    3    0    0  0.39551600464E-01  0.11368811854E+00  0.44396965857E-01  0.12980325330E+00  0.19709809576E-01 0.  0.
         14    1    1    2    0    0 -0.17945214866E-01  0.97329940272E-02  0.11616044338E-01  0.23488175650E-01  0.00000000000E+00 0.  1.
     999901    1    3    3    0    0 -0.21606385598E-01 -0.12342111257E+00 -0.56013010195E-01  0.89063857105E+00  0.88000000000E+00 0.  1.
        -11    1    4    4    0    0  0.73280514989E-02  0.23553996834E-01  0.17897042504E-01  0.30480425801E-01  0.51100000000E-03 0. -1.
         11    1    4    4    0    0  0.32223548965E-01  0.90134121709E-01  0.26499923352E-01  0.99322827501E-01  0.51100000000E-03 0.  1.
</event>
<event>
 8    1  0.1123450E+005  0.1043930E+01  0.7957747E-01            NaN
         13   -1    0    0    0    0  0.00000000000E+00  0.00000000000E+00  0.74505805969E-08  0.10566000000E+00  0.10566000000E+00 0. -1.
     999900   -1    0    0    0    0 -0.00000000000E+00 -0.00000000000E+00 -0.74505805969E-08  0.93827000000E+00  0.93827000000E+00 0. -1.
     999902    2    1    2    0    0  0.18423540226E-01 -0.10255067226E-01 -0.10616050576E-01  0.10203229297E+01  0.10200497964E+01 0.  0.
     999903    2    3    3    0    0  0.87079696534E-01  0.48038669393E-01 -0.85304930325E-01  0.13257845279E+00  0.20236790774E-01 0.  0.
         14    1    1    2    0    0 -0.18423540226E-01  0.10255067226E-01  0.10616050576E-01  0.23607070299E-01  0.00000000000E+00 0.  1.
     999901    1    3    3    0    0 -0.68656156308E-01 -0.58293736619E-01  0.74688879749E-01  0.88774447691E+00  0.88000000000E+00 0.  1.
        -11    1    4    4    0    0  0.55706346128E-01  0.28207749241E-01 -0.65544488444E-01  0.90527427902E-01  0.51100000000E-03 0.  1.
         11    1    4    4    0    0  0.31373350406E-01  0.19830920152E-01 -0.19760441881E-01  0.42051024888E-01  0.51100000000E-03 0. -1.
</event>
<event>
 8    1  0.1123450E+005  0.1043930E+01  0.7957747E-01            NaN
         13   -1    0    0    0    0  0.00000000000E+00  0.00000000000E+00  0.74505805969E-08  0.10566000000E+00  0.10566000000E+00 0. -1.
     999900   -1    0    0    0    0 -0.00000000000E+00 -0.00000000000E+00 -0.74505805969E-08  0.93827000000E+00  0.93827000000E+00 0. -1.
     999902    2    1    2    0    0 -0.12741432934E-01 -0.96064445644E-02 -0.19834565166E-01  0.10184734121E+01  0.10181552207E+01 0.  0.
     999903    2    3    3    0    0  0.26070788016E-01  0.12152762994E+00  0.18680249576E-01  0.12707791913E+00  0.18740196925E-01 0.  0.
         14    1    1    2    0    0  0.12741432934E-01  0.96064445644E-02  0.19834565166E-01  0.25456587865E-01  0.00000000000E+00 0. -1.
     999901    1    3    3    0    0 -0.38812220951E-01 -0.13113407450E+00 -0.38514814742E-01  0.89139549300E+00  0.88000000000E+00 0. -1.
        -11    1    4    4    0    0  0.13547026184E-01  0.51179529495E-01 -0.10255928968E-02  0.52954500466E-01  0.51100000000E-03 0.  1.
         11    1    4    4    0    0  0.12523761832E-01  0.70348100443E-01  0.19705842473E-01  0.74123418667E-01  0.51100000000E-03 0. -1.
</event>
<event>
 8    1  0.1123450E+005  0.1043930E+01  0.7957747E-01            NaN
         13   -1    0    0    0    0  0.00000000000E+00  0.00000000000E+00  0.74505805969E-08  0.10566000000E+00  0.10566000000E+00 0.  1.
     999900   -1    0    0    0    0 -0.00000000000E+00 -0.00000000000E+00 -0.74505805969E-08  0.93827000000E+00  0.93827000000E+00 0.  1.
     999902    2    1    2    0    0 -0.85663083901E-02  0.16914387439E-01 -0.14125443294E-01  0.10202866861E+01  0.10200127037E+01 0.  0.
     999903    2    3    3    0    0 -0.60970064322E-01 -0.25128275745E-01  0.10923657852E+00  0.12914588493E+00  0.19931144504E-01 0.  0.
         14    1    1    2    0    0  0.85663083901E-02 -0.16914387439E-01  0.14125443294E-01  0.23643313856E-01  0.00000000000E+00 0.  1.
     999901    1    3    3    0    0  0.52403755932E-01  0.42042663183E-01 -0.12336202182E+00  0.89114080122E+00  0.88000000000E+00 0.  1.
        -11    1    4    4    0    0 -0.48635068376E-01 -0.27940005118E-01  0.92152993762E-01  0.10788164414E+00  0.51100000000E-03 0.  1.
         11    1    4    4    0    0 -0.12334995946E-01  0.28117293730E-02  0.17083584761E-01  0.21264240789E-01  0.51100000000E-03 0. -1.
</event>
<event>
 8    1  0.1123450E+005  0.1043930E+01  0.7957747E-01            NaN
         13   -1    0    0    0    0  0.00000000000E+00  0.00000000000E+00  0.74505805969E-08  0.10566000000E+00  0.10566000000E+00 0.  1.
     999900   -1    0    0    0    0 -0.00000000000E+00 -0.00000000000E+00 -0.74505805969E-08  0.93827000000E+00  0.93827000000E+00 0. -1.
     999902    2    1    2    0    0 -0.26952409708E-02 -0.18230631668E-01  0.14531110761E-01  0.10204614373E+01  0.10201915367E+01 0.  0.
     999903    2    3    3    0    0  0.77330149228E-01  0.91714315177E-01  0.45372821014E-01  0.12948266904E+00  0.17765165539E-01 0.  0.
         14    1    1    2    0    0  0.26952409708E-02  0.18230631668E-01 -0.14531110761E-01  0.23468562693E-01  0.00000000000E+00 0. -1.
     999901    1    3    3    0    0 -0.80025390199E-01 -0.10994494685E+00 -0.30841710253E-01  0.89097876827E+00  0.88000000000E+00 0.  1.
        -11    1    4    4    0    0  0.53830346100E-01  0.69052983706E-01  0.40501660355E-01  0.96471064742E-01  0.51100000000E-03 0. -1.
         11    1    4    4    0    0  0.23499803128E-01  0.22661331471E-01  0.48711606595E-02  0.33011604297E-01  0.51100000000E-03 0.  1.
</event>
<event>
 8    1  0.1123450E+005  0.1043930E+01  0.7957747E-01            NaN
         13   -1    0    0    0    0  0.00000000000E+00  0.00000000000E+00  0.74505805969E-08  0.10566000000E+00  0.10566000000E+00 0. -1.
     999900   -1    0    0    0    0 -0.00000000000E+00 -0.00000000000E+00 -0.74505805969E-08  0.93827000000E+00  0.93827000000E+00 0.  1.
     999902    2    1    2    0    0 -0.71322143855E-02  0.13503008796E-01 -0.18424353861E-01  0.10199997567E+01  0.10197190040E+01 0.  0.
     999903    2    3    3    0    0  0.84299524285E-01  0.98261176615E-01 -0.82790801110E-02  0.13115408033E+00  0.19266058103E-01 0.  0.
         14    1    1    2    0    0  0.71322143855E-02 -0.13503008796E-01  0.18424353861E-01  0.23930243287E-01  0.00000000000E+00 0. -1.
     999901    1    3    3    0    0 -0.91431738671E-01 -0.84758167819E-01 -0.10145273750E-01  0.88884567638E+00  0.88000000000E+00 0.  1.
        -11    1    4    4    0    0  0.17653316729E-01  0.24906224464E-01  0.57081046033E-02  0.31061281167E-01  0.51100000000E-03 0. -1.
         11    1    4    4    0    0  0.66646207556E-01  0.73354952151E-01 -0.13987184714E-01  0.10009279916E+00  0.51100000000E-03 0.  1.
</event>
<event>
 8    1  0.1123450E+005  0.1043930E+01  0.7957747E-01            NaN
         13   -1    0    0    0    0  0.00000000000E+00  0.00000000000E+00  0.74505805969E-08  0.10566000000E+00  0.10566000000E+00 0. -1.
     999900   -1    0    0    0    0 -0.00000000000E+00 -0.00000000000E+00 -0.74505805969E-08  0.93827000000E+00  0.93827000000E+00 0. -1.
     999902    2    1    2    0    0  0.47132591635E-02  0.14020876628E-01 -0.21122302614E-01  0.10181433472E+01  0.10178167438E+01 0.  0.
     999903    2    3    3    0    0  0.94304727918E-01  0.16249026387E-01  0.82396065977E-01  0.12755497511E+00  0.17992982516E-01 0.  0.
         14    1    1    2    0    0 -0.47132591635E-02 -0.14020876628E-01  0.21122302614E-01  0.25786652770E-01  0.00000000000E+00 0. -1.
     999901    1    3    3    0    0 -0.89591468755E-01 -0.22281497592E-02 -0.10351836859E+00  0.89058837212E+00  0.88000000000E+00 0. -1.
        -11    1    4    4    0    0  0.63057482325E-01  0.71890878798E-02  0.64191616786E-01  0.90270448367E-01  0.51100000000E-03 0.  1.
         11    1    4    4    0    0  0.31247245593E-01  0.90599385069E-02  0.18204449191E-01  0.37284526740E-01  0.51100000000E-03 0. -1.
</event>
<event>
 8    1  0.1123450E+005  0.1043930E+01  0.7957747E-01            NaN
         13   -1    0    0    0    0  0.00000000000E+00  0.00000000000E+00  0.74505805969E-08  0.10566000000E+00  0.10566000000E+00 0. -1.
     999900   -1    0    0    0    0 -0.00000000000E+00 -0.00000000000E+00 -0.74505805969E-08  0.93827000000E+00  0.93827000000E+00 0. -1.
     999902    2    1    2    0    0  0.17050420491E-01  0.14378697262E-01 -0.80299170931E-02  0.10202246558E+01  0.10199492169E+01 0.  0.
     999903    2    3    3    0    0 -0.34495859413E-01  0.73278237613E-01  0.10001818392E+00  0.13016815933E+00  0.19505080484E-01 0.  0.
         14    1    1    2    0    0 -0.17050420491E-01 -0.14378697262E-01  0.80299170931E-02  0.23705344173E-01  0.00000000000E+00 0. -1.
     999901    1    3    3    0    0  0.51546279903E-01 -0.58899540351E-01 -0.10804810101E+00  0.89005649650E+00  0.88000000000E+00 0.  1.
        -11    1    4    4    0    0 -0.12712916114E-01  0.49242652107E-01  0.60315647205E-01  0.78896739105E-01  0.51100000000E-03 0.  1.
         11    1    4    4    0    0 -0.21782943299E-01  0.24035585505E-01  0.39702536713E-01  0.51271420224E-01  0.51100000000E-03 0. -1.
</event>
<event>
 8    1  0.1123450E+005  0.1043930E+01  0.7957747E-01            NaN
         13   -1    0    0    0    0  0.00000000000E+00  0.00000000000E+00  0.74505805969E-08  0.10566000000E+00  0.10566000000E+00 0.  1.
     999900   -1    0    0    0    0 -0.00000000000E+00 -0.00000000000E+00 -0.74505805969E-08  0.93827000000E+00  0.93827000000E+00 0.  1.
     999902    2    1    2    0    0  0.75953991558E-02 -0.26553081739E-02 -0.29526037405E-01  0.10133272610E+01  0.10128650504E+01 0.  0.
     999903    2    3    3    0    0  0.10194692895E+00  0.65645899932E-01  0.17456947334E-01  0.12440956680E+00  0.21689508986E-01 0.  0.
         14    1    1    2    0    0 -0.75953991558E-02  0.26553081739E-02  0.29526037405E-01  0.30602739006E-01  0.00000000000E+00 0.  1.
     999901    1    3    3    0    0 -0.94351529793E-01 -0.68301208106E-01 -0.46982984739E-01  0.88891769420E+00  0.88000000000E+00 0.  1.
        -11    1    4    4    0    0  0.66857790485E-01  0.40387352451E-01  0.91808700688E-03  0.78116620455E-01  0.51100000000E-03 0. -1.
         11    1    4    4    0    0  0.35089138464E-01  0.25258547481E-01  0.16538860327E-01  0.46292946341E-01  0.51100000000E-03 0.  1.
</event>
<event>
 8    1  0.1123450E+005  0.1043930E+01  0.7957747E-01            NaN
         13   -1    0    0    0    0  0.00000000000E+00  0.00000000000E+00  0.74505805969E-08  0.10566000000E+00  0.10566000000E+00 0.  1.
     999900   -1    0    0    0    0 -0.00000000000E+00 -0.00000000000E+00 -0.74505805969E-08  0.93827000000E+00  0.93827000000E+00 0. -1.
     999902    2    1    2    0    0  0.62799141496E-02 -0.11605917580E-01  0.19030947737E-01  0.10207715973E+01  0.10205088643E+01 0.  0.
     999903    2    3    3    0    0  0.69764466622E-01  0.34092300350E-01 -0.10076300614E+00  0.12921722042E+00  0.22683493997E-01 0.  0.
         14    1    1    2    0    0 -0.62799141496E-02  0.11605917580E-01 -0.19030947737E-01  0.23158402716E-01  0.00000000000E+00 0. -1.
     999901    1    3    3    0    0 -0.63484552472E-01 -0.45698217930E-01  0.11979395388E+00  0.89155437687E+00  0.88000000000E+00 0.  1.
        -11    1    4    4    0    0  0.47076776245E-01  0.32190345197E-01 -0.61860237454E-01  0.84139118633E-01  0.51100000000E-03 0. -1.
         11    1    4    4    0    0  0.22687690376E-01  0.19019551528E-02 -0.38902768686E-01  0.45078101784E-01  0.51100000000E-03 0.  1.
</event>
<event>
 8    1  0.1123450E+005  0.1043930E+01  0.7957747E-01            NaN
         13   -1    0    0    0    0  0.00000000000E+00  0.00000000000E+00  0.74505805969E-08  0.10566000000E+00  0.10566000000E+00 0. -1.
     999900   -1    0    0    0    0 -0.00000000000E+00 -0.00000000000E+00 -0.74505805969E-08  0.93827000000E+00  0.93827000000E+00 0. -1.
     999902    2    1    2    0    0  0.13276587117E-01 -0.17474696476E-01 -0.12588514655E-01  0.10186297335E+01  0.10183154867E+01 0.  0.
     999903    2    3    3    0    0 -0.79432424950E-01 -0.88809690800E-01 -0.48619494827E-01  0.13015808296E+00  0.19508971481E-01 0.  0.
         14    1    1    2    0    0 -0.13276587117E-01  0.17474696476E-01  0.12588514655E-01  0.25300266473E-01  0.00000000000E+00 0. -1.
     999901    1    3    3    0    0  0.92709012067E-01  0.71334994324E-01  0.36030980172E-01  0.88847165057E+00  0.88000000000E+00 0.  1.
        -11    1    4    4    0    0 -0.51374139244E-01 -0.68064911078E-01 -0.40096068511E-01  0.94234230162E-01  0.51100000000E-03 0. -1.
         11    1    4    4    0    0 -0.28058285706E-01 -0.20744779723E-01 -0.85234263164E-02  0.35923852795E-01  0.51100000000E-03 0.  1.
</event>
<event>
 8    1  0.1123450E+005  0.1043930E+01  0.7957747E-01            NaN
         13   -1    0    0    0    0  0.00000000000E+00  0.00000000000E+00  0.74505805969E-08  0.10566000000E+00  0.10566000000E+00 0. -1.
     999900   -1    0    0    0    0 -0.00000000000E+00 -0.00000000000E+00 -0.74505805969E-08  0.93827000000E+00  0.93827000000E+00 0.  1.
     999902    2    1    2    0    0  0.68849968716E-02  0.46239839891E-02 -0.22351712688E-01  0.10200892058E+01  0.10198105727E+01 0.  0.
     999903    2    3    3    0    0  0.52457465317E-01  0.10021460980E+00  0.60926984316E-01  0.12983656802E+00  0.18726539850E-01 0.  0.
         14    1    1    2    0    0 -0.68849968716E-02 -0.46239839891E-02  0.22351712688E-01  0.23840794239E-01  0.00000000000E+00 0. -1.
     999901    1    3    3    0    0 -0.45572468445E-01 -0.95590625806E-01 -0.83278697004E-01  0.89025263774E+00  0.88000000000E+00 0.  1.
        -11    1    4    4    0    0  0.19832756327E-01  0.52187045503E-01  0.37335091918E-01  0.67163949790E-01  0.51100000000E-03 0.  1.
         11    1    4    4    0    0  0.32624708989E-01  0.48027564292E-01  0.23591892399E-01  0.62672618235E-01  0.51100000000E-03 0. -1.
</event>
<event>
 8    1  0.1123450E+005  0.1043930E+01  0.7957747E-01            NaN
         13   -1    0    0    0    0  0.00000000000E+00  0.00000000000E+00  0.74505805969E-08  0.10566000000E+00  0.10566000000E+00 0. -1.
     999900   -1    0    0    0    0 -0.00000000000E+00 -0.00000000000E+00 -0.74505805969E-08  0.93827000000E+00  0.93827000000E+00 0.  1.
     999902    2    1    2    0    0 -0.16834505673E-01  0.40288624744E-02  0.16428245532E-01  0.10200653909E+01  0.10197861944E+01 0.  0.
     999903    2    3    3    0    0 -0.37593682915E-01 -0.13686348900E-01 -0.12120299877E+00  0.12894972418E+00  0.18364730148E-01 0.  0.
         14    1    1    2    0    0  0.16834505673E-01 -0.40288624744E-02 -0.16428245532E-01  0.23864609055E-01  0.00000000000E+00 0.  1.
     999901    1    3    3    0    0  0.20759177241E-01  0.17715211374E-01  0.13763124430E+00  0.89111566677E+00  0.88000000000E+00 0. -1.
        -11    1    4    4    0    0 -0.33396285761E-01 -0.93561267113E-02 -0.11563734187E+00  0.12072739939E+00  0.51100000000E-03 0.  1.
         11    1    4    4    0    0 -0.41973971534E-02 -0.43302221885E-02 -0.55656569021E-02  0.82223247818E-02  0.51100000000E-03 0. -1.
</event>
<event>
 8    1  0.1123450E+005  0.1043930E+01  0.7957747E-01            NaN
         13   -1    0    0    0    0  0.00000000000E+00  0.00000000000E+00  0.74505805969E-08  0.10566000000E+00  0.10566000000E+00 0. -1.
     999900   -1    0    0    0    0 -0.00000000000E+00 -0.00000000000E+00 -0.74505805969E-08  0.93827000000E+00  0.93827000000E+00 0.  1.
     999902    2    1    2    0    0  0.22288245939E-01  0.57700286602E-02 -0.38258754735E-02  0.10205912669E+01  0.10203243787E+01 0.  0.
     999903    2    3    3    0    0  0.26181186294E-01  0.51599520725E-01  0.11609143299E+00  0.13126812083E+00  0.20152758577E-01 0.  0.
         14    1    1    2    0    0 -0.22288245939E-01 -0.57700286602E-02  0.38258754735E-02  0.23338733062E-01  0.00000000000E+00 0. -1.
     999901    1    3    3    0    0 -0.38929403541E-02 -0.45829492065E-01 -0.11991730847E+00  0.88932314610E+00  0.88000000000E+00 0.  1.
        -11    1    4    4    0    0  0.25535777307E-01  0.41489360156E-01  0.10730715326E+00  0.11784960411E+00  0.51100000000E-03 0. -1.
         11    1    4    4    0    0  0.64540898641E-03  0.10110160569E-01  0.87842797368E-02  0.13418516721E-01  0.51100000000E-03 0.  1.
</event>
<event>
 8    1  0.1123450E+005  0.1043930E+01  0.7957747E-01            NaN
         13   -1    0    0    0    0  0.00000000000E+00  0.00000000000E+00  0.74505805969E-08  0.10566000000E+00  0.10566000000E+00 0.  1.
     999900   -1    0    0    0    0 -0.00000000000E+00 -0.00000000000E+00 -0.74505805969E-08  0.93827000000E+00  0.93827000000E+00 0. -1.
     999902    2    1    2    0    0  0.17979376097E-01 -0.18165190943E-01  0.57232489401E-02  0.10177386330E+01  0.10174015615E+01 0.  0.
     999903    2    3    3    0    0 -0.61167174916E-01  0.19567557207E-02 -0.10890369243E+00  0.12655492300E+00  0.20270227707E-01 0.  0.
         14    1    1    2    0    0 -0.17979376097E-01  0.18165190943E-01 -0.57232489401E-02  0.26191366999E-01  0.00000000000E+00 0.  1.
     999901    1    3    3    0    0  0.79146551012E-01 -0.20121946664E-01  0.11462694137E+00  0.89118371000E+00  0.88000000000E+00 0.  1.
        -11    1    4    4    0    0 -0.36952257119E-01  0.47259247801E-02 -0.83030335940E-01  0.91006051878E-01  0.51100000000E-03 0. -1.
         11    1    4    4    0    0 -0.24214917797E-01 -0.27691690595E-02 -0.25873356492E-01  0.35548871127E-01  0.51100000000E-03 0.  1.
</event>
<event>
 8    1  0.1123450E+005  0.1043930E+01  0.7957747E-01            NaN
         13   -1    0    0    0    0  0.00000000000E+00  0.00000000000E+00  0.74505805969E-08  0.10566000000E+00  0.10566000000E+00 0.  1.
     999900   -1    0    0    0    0 -0.00000000000E+00 -0.00000000000E+00 -0.74505805969E-08  0.93827000000E+00  0.93827000000E+00 0. -1.
     999902    2    1    2    0    0 -0.93022329177E-02  0.32922419359E-02  0.21052948553E-01  0.10206792573E+01  0.10204144007E+01 0.  0.
     999903    2    3    3    0    0 -0.72727793223E-01  0.31981987320E-01 -0.10041734154E+00  0.12961195647E+00  0.20085750148E-01 0.  0.
         14    1    1    2    0    0  0.93022329177E-02 -0.32922419359E-02 -0.21052948553E-01  0.23250742720E-01  0.00000000000E+00 0. -1.
     999901    1    3    3    0    0  0.63425560306E-01 -0.28689745384E-01  0.12147029009E+00  0.89106730081E+00  0.88000000000E+00 0.  1.
        -11    1    4    4    0    0 -0.27346833080E-01  0.20826176654E-01 -0.33586710949E-01  0.48061493806E-01  0.51100000000E-03 0. -1.
         11    1    4    4    0    0 -0.45380960143E-01  0.11155810666E-01 -0.66830630592E-01  0.81550462668E-01  0.51100000000E-03 0.  1.
</event>
<event>
 8    1  0.1123450E+005  0.1043930E+01  0.7957747E-01            NaN
         13   -1    0    0    0    0  0.00000000000E+00  0.00000000000E+00  0.74505805969E-08  0.10566000000E+00  0.10566000000E+00 0. -1.
     999900   -1    0    0    0    0 -0.00000000000E+00 -0.00000000000E+00 -0.74505805969E-08  0.93827000000E+00  0.93827000000E+00 0. -1.
     999902    2    1    2    0    0 -0.22681330502E-01  0.47659387955E-02 -0.65746943325E-02  0.10198388495E+01  0.10195542631E+01 0.  0.
     999903    2    3    3    0    0  0.95415526707E-01 -0.15837251019E-01  0.80406595638E-01  0.12746162888E+00  0.20647153741E-01 0.  0.
         14    1    1    2    0    0  0.22681330502E-01 -0.47659387955E-02  0.65746943325E-02  0.24091150481E-01  0.00000000000E+00 0.  1.
     999901    1    3    3    0    0 -0.11809685721E+00  0.20603189814E-01 -0.86981289970E-01  0.89237722064E+00  0.88000000000E+00 0.  1.
        -11    1    4    4    0    0  0.20273357439E-01 -0.90821415434E-02  0.27290379886E-01  0.35192616729E-01  0.51100000000E-03 0. -1.
         11    1    4    4    0    0  0.75142169268E-01 -0.67551094754E-02  0.53116215751E-01  0.92269012149E-01  0.51100000000E-03 0.  1.
</event>
<event>
 8    1  0.1123450E+005  0.1043930E+01  0.7957747E-01            NaN
         13   -1    0    0    0    0  0.00000000000E+00  0.00000000000E+00  0.74505805969E-08  0.10566000000E+00  0.10566000000E+00 0.  1.
     999900   -1    0    0    0    0 -0.00000000000E+00 -0.00000000000E+00 -0.74505805969E-08  0.93827000000E+00  0.93827000000E+00 0.  1.
     999902    2    1    2    0    0 -0.16066085348E-01 -0.13580221044E-01 -0.80480356410E-03  0.10228779405E+01  0.10226612792E+01 0.  0.
     999903    2    3    3    0    0 -0.89172092419E-02  0.11883227198E-01  0.12966413402E+00  0.13286578476E+00  0.24895810901E-01 0.  0.
         14    1    1    2    0    0  0.16066085348E-01  0.13580221044E-01  0.80480356410E-03  0.21052059538E-01  0.00000000000E+00 0.  1.
     999901    1    3    3    0    0 -0.71488761061E-02 -0.25463448241E-01 -0.13046893758E+00  0.89001215570E+00  0.88000000000E+00 0.  1.
        -11    1    4    4    0    0 -0.54974133860E-02  0.18615537689E-01  0.67330531996E-01  0.70074399443E-01  0.51100000000E-03 0.  1.
         11    1    4    4    0    0 -0.34197958559E-02 -0.67323104913E-02  0.62333602019E-01  0.62791385316E-01  0.51100000000E-03 0. -1.
</event>
<event>
 8    1  0.1123450E+005  0.1043930E+01  0.7957747E-01            NaN
         13   -1    0    0    0    0  0.00000000000E+00  0.00000000000E+00  0.74505805969E-08  0.10566000000E+00  0.10566000000E+00 0.  1.
     999900   -1    0    0    0    0 -0.00000000000E+00 -0.00000000000E+00 -0.74505805969E-08  0.93827000000E+00  0.93827000000E+00 0.  1.
     999902    2    1    2    0    0  0.10604986976E-01 -0.73843227355E-02 -0.24424775447E-01  0.10162973449E+01  0.10159216159E+01 0.  0.
     999903    2    3    3    0    0 -0.11956767714E+00 -0.35299692737E-01 -0.23584674307E-02  0.12601024948E+00  0.18180288285E-01 0.  0.
         14    1    1    2    0    0 -0.10604986976E-01  0.73843227355E-02  0.24424775447E-01  0.27632655078E-01  0.00000000000E+00 0.  1.
     999901    1    3    3    0    0  0.13017266411E+00  0.27915370001E-01 -0.22066308017E-01  0.89028709544E+00  0.88000000000E+00 0.  1.
        -11    1    4    4    0    0 -0.58528006603E-01 -0.10874281560E-01  0.55456447346E-02  0.59789571439E-01  0.51100000000E-03 0.  1.
         11    1    4    4    0    0 -0.61039670532E-01 -0.24425411176E-01 -0.79041121653E-02  0.66220678039E-01  0.51100000000E-03 0. -1.
</event>
<event>
 8    1  0.1123450E+005  0.1043930E+01  0.7957747E-01            NaN
         13   -1    0    0    0    0  0.00000000000E+00  0.00000000000E+00  0.74505805969E-08  0.10566000000E+00  0.10566000000E+00 0. -1.
     999900   -1    0    0    0    0 -0.00000000000E+00 -0.00000000000E+00 -0.74505805969E-08  0.93827000000E+00  0.93827000000E+00 0.  1.
     999902    2    1    2    0    0 -0.44925702156E-02 -0.16114094372E-01  0.18542086332E-01  0.10189568907E+01  0.10186508179E+01 0.  0.
     999903    2    3    3    0    0 -0.22005728487E-01 -0.12685032117E+00  0.18765051067E-01  0.13184400475E+00  0.21341470911E-01 0.  0.
         14    1    1    2    0    0  0.44925702156E-02  0.16114094372E-01 -0.18542086332E-01  0.24973109340E-01  0.00000000000E+00 0. -1.
     999901    1    3    3    0    0  0.17513158272E-01  0.11073622679E+00 -0.22296473531E-03  0.88711288591E+00  0.88000000000E+00 0.  1.
        -11    1    4    4    0    0 -0.62798980816E-02 -0.45105807764E-01 -0.34846581514E-02  0.45676853848E-01  0.51100000000E-03 0.  1.
         11    1    4    4    0    0 -0.15725830406E-01 -0.81744513401E-01  0.22249709218E-01  0.86167150901E-01  0.51100000000E-03 0. -1.
</event>
<event>
 8    1  0.1123450E+005  0.1043930E+01  0.7957747E-01            NaN
         13   -1    0    0    0    0  0.00000000000E+00  0.00000000000E+00  0.74505805969E-08  0.10566000000E+00  0.10566000000E+00 0. -1.
     999900   -1    0    0    0    0 -0.00000000000E+00 -0.00000000000E+00 -0.74505805969E-08  0.93827000000E+00  0.93827000000E+00 0. -1.
     999902    2    1    2    0    0 -0.22732263653E-01 -0.10579599797E-01 -0.60573464046E-02  0.10181351325E+01  0.10178083183E+01 0.  0.
     999903    2    3    3    0    0  0.33714676333E-01 -0.52348247986E-01 -0.11126997553E+00  0.12909037868E+00  0.20156883372E-01 0.  0.
         14    1    1    2    0    0  0.22732263653E-01  0.10579599797E-01  0.60573464046E-02  0.25794867476E-01  0.00000000000E+00 0.  1.
     999901    1    3    3    0    0 -0.56446939986E-01  0.41768648189E-01  0.10521262912E+00  0.88904475384E+00  0.88000000000E+00 0.  1.
        -11    1    4    4    0    0  0.14772887653E-01 -0.36942796574E-01 -0.80588390262E-01  0.89876349471E-01  0.51100000000E-03 0. -1.
         11    1    4    4    0    0  0.18941788680E-01 -0.15405451413E-01 -0.30681585265E-01  0.39214029212E-01  0.51100000000E-03 0.  1.
</event>
<event>
 8    1  0.1123450E+005  0.1043930E+01  0.7957747E-01            NaN
         13   -1    0    0    0    0  0.00000000000E+00  0.00000000000E+00  0.74505805969E-08  0.10566000000E+00  0.10566000000E+00 0. -1.
     999900   -1    0    0    0    0 -0.00000000000E+00 -0.00000000000E+00 -0.74505805969E-08  0.93827000000E+00  0.93827000000E+00 0.  1.
     999902    2    1    2    0    0 -0.41875770911E-02 -0.86547169633E-02  0.22120801328E-01  0.10198100958E+01  0.10195248215E+01 0.  0.
     999903    2    3    3    0    0 -0.44372705014E-01  0.44339075225E-01 -0.10931668948E+00  0.12756629475E+00  0.19701025732E-01 0.  0.
         14    1    1    2    0    0  0.41875770911E-02  0.86547169633E-02 -0.22120801328E-01  0.24119904208E-01  0.00000000000E+00 0.  1.
     999901    1    3    3    0    0  0.40185127923E-01 -0.52993792189E-01  0.13143749080E+00  0.89224380105E+00  0.88000000000E+00 0. -1.
        -11    1    4    4    0    0 -0.34320585439E-01  0.20771981152E-01 -0.66117959554E-01  0.77338370053E-01  0.51100000000E-03 0.  1.
         11    1    4    4    0    0 -0.10052119575E-01  0.23567094073E-01 -0.43198729923E-01  0.50227924693E-01  0.51100000000E-03 0. -1.
</event>
<event>
 8    1  0.1123450E+005  0.1043930E+01  0.7957747E-01            NaN
         13   -1    0    0    0    0  0.00000000000E+00  0.00000000000E+00  0.74505805969E-08  0.10566000000E+00  0.10566000000E+00 0.  1.
     999900   -1    0    0    0    0 -0.00000000000E+00 -0.00000000000E+00 -0.74505805969E-08  0.93827000000E+00  0.93827000000E+00 0. -1.
     999902    2    1    2    0    0  0.11949233360E-01  0.88866596807E-02 -0.18768162465E-01  0.10199716858E+01  0.10196902662E+01 0.  0.
     999903    2    3    3    0    0 -0.34078488658E-01 -0.84358359688E-01  0.88290560383E-01  0.12740529891E+00  0.12617880094E-01 0.  0.
         14    1    1    2    0    0 -0.11949233360E-01 -0.88866596807E-02  0.18768162465E-01  0.23958314225E-01  0.00000000000E+00 0.  1.
     999901    1    3    3    0    0  0.46027722018E-01  0.93245019369E-01 -0.10705872285E+00  0.89256638687E+00  0.88000000000E+00 0. -1.
        -11    1    4    4    0    0 -0.18327000190E-01 -0.43858044451E-01  0.37408463973E-01  0.60490175209E-01  0.51100000000E-03 0. -1.
         11    1    4    4    0    0 -0.15751488468E-01 -0.40500315238E-01  0.50882096410E-01  0.66915123697E-01  0.51100000000E-03 0.  1.
</event>
<event>
 8    1  0.1123450E+005  0.1043930E+01  0.7957747E-01            NaN
         13   -1    0    0    0    0  0.00000000000E+00  0.00000000000E+00  0.74505805969E-08  0.10566000000E+00  0.10566000000E+00 0.  1.
     999900   -1    0    0    0    0 -0.00000000000E+00 -0.00000000000E+00 -0.74505805969E-08  0.93827000000E+00  0.93827000000E+00 0. -1.
     999902    2    1    2    0    0  0.19967727445E-01  0.13098769118E-02  0.12332277516E-01  0.10204244478E+01  0.10201536858E+01 0.  0.
     999903    2    3    3    0    0 -0.10030613464E+00 -0.59915703194E-01 -0.48575398343E-01  0.12805450288E+00  0.19676743887E-01 0.  0.
         14    1    1    2    0    0 -0.19967727445E-01 -0.13098769118E-02 -0.12332277516E-01  0.23505552228E-01  0.00000000000E+00 0.  1.
     999901    1    3    3    0    0  0.12027386208E+00  0.61225580106E-01  0.60907675859E-01  0.89236994489E+00  0.88000000000E+00 0. -1.
        -11    1    4    4    0    0 -0.38966145416E-01 -0.25617833131E-01 -0.29679989066E-01  0.55279261345E-01  0.51100000000E-03 0.  1.
         11    1    4    4    0    0 -0.61339989220E-01 -0.34297870064E-01 -0.18895409277E-01  0.72775241539E-01  0.51100000000E-03 0. -1.
</event>
<event>
 8    1  0.1123450E+005  0.1043930E+01  0.7957747E-01            NaN
         13   -1    0    0    0    0  0.00000000000E+00  0.00000000000E+00  0.74505805969E-08  0.10566000000E+00  0.10566000000E+00 0. -1.
     999900   -1    0    0    0    0 -0.00000000000E+00 -0.00000000000E+00 -0.74505805969E-08  0.93827000000E+00  0.93827000000E+00 0.  1.
     999902    2    1    2    0    0  0.14248475005E-02 -0.19413435845E-01  0.14085290862E-01  0.10199027842E+01  0.10196197242E+01 0.  0.
     999903    2    3    3    0    0 -0.94043455874E-01 -0.15503087720E-01 -0.84916311871E-01  0.12921158903E+00  0.20008433098E-01 0.  0.
         14    1    1    2    0    0 -0.14248475005E-02  0.19413435845E-01 -0.14085290862E-01  0.24027215826E-01  0.00000000000E+00 0.  1.
     999901    1    3    3    0    0  0.95468303375E-01 -0.39103481248E-02  0.99001602733E-01  0.89069119515E+00  0.88000000000E+00 0. -1.
        -11    1    4    4    0    0 -0.22039916145E-01  0.39017659825E-02 -0.24912582284E-01  0.33494470566E-01  0.51100000000E-03 0.  1.
         11    1    4    4    0    0 -0.72003539729E-01 -0.19404853702E-01 -0.60003729587E-01  0.95717118459E-01  0.51100000000E-03 0. -1.
</event>
<event>
 8    1  0.1123450E+005  0.1043930E+01  0.7957747E-01            NaN
         13   -1    0    0    0    0  0.00000000000E+00  0.00000000000E+00  0.74505805969E-08  0.10566000000E+00  0.10566000000E+00 0. -1.
     999900   -1    0    0    0    0 -0.00000000000E+00 -0.00000000000E+00 -0.74505805969E-08  0.93827000000E+00  0.93827000000E+00 0.  1.
     999902    2    1    2    0    0 -0.59424636501E-02 -0.32147699862E-02  0.22525777028E-01  0.10204128095E+01  0.10201417762E+01 0.  0.
     999903    2    3    3    0    0  0.85338117652E-01  0.64793183612E-01  0.73852430716E-01  0.13159806405E+00  0.19573399598E-01 0.  0.
         14    1    1    2    0    0  0.59424636501E-02  0.32147699862E-02 -0.22525777028E-01  0.23517190543E-01  0.00000000000E+00 0.  1.
     999901    1    3    3    0    0 -0.91280581302E-01 -0.68007953599E-01 -0.51326653688E-01  0.88881474541E+00  0.88000000000E+00 0.  1.
        -11    1    4    4    0    0  0.79333868347E-01  0.58765088657E-01  0.60608456058E-01  0.11584836804E+00  0.51100000000E-03 0. -1.
         11    1    4    4    0    0  0.60042493057E-02  0.60280949554E-02  0.13243974659E-01  0.15749696006E-01  0.51100000000E-03 0.  1.
</event>
<event>
 8    1  0.1123450E+005  0.1043930E+01  0.7957747E-01            NaN
         13   -1    0    0    0    0  0.00000000000E+00  0.00000000000E+00  0.74505805969E-08  0.10566000000E+00  0.10566000000E+00 0.  1.
     999900   -1    0    0    0    0 -0.00000000000E+00 -0.00000000000E+00 -0.74505805969E-08  0.93827000000E+00  0.93827000000E+00 0.  1.
     999902    2    1    2    0    0 -0.19758745899E-01 -0.17341803896E-02 -0.11702071119E-01  0.10209005864E+01  0.10206408053E+01 0.  0.
     999903    2    3    3    0    0  0.92728830920E-01  0.35455082032E-01 -0.81535387136E-01  0.13021928079E+00  0.21291848415E-01 0.  0.
         14    1    1    2    0    0  0.19758745899E-01  0.17341803896E-02  0.11702071119E-01  0.23029413575E-01  0.00000000000E+00 0. -1.
     999901    1    3    3    0    0 -0.11248757682E+00 -0.37189262422E-01  0.69833316017E-01  0.89068130563E+00  0.88000000000E+00 0. -1.
        -11    1    4    4    0    0  0.53698939587E-01  0.18305768654E-01 -0.59548290967E-01  0.82249239248E-01  0.51100000000E-03 0. -1.
         11    1    4    4    0    0  0.39029891333E-01  0.17149313378E-01 -0.21987096169E-01  0.47970041544E-01  0.51100000000E-03 0.  1.
</event>
<event>
 8    1  0.1123450E+005  0.1043930E+01  0.7957747E-01            NaN
         13   -1    0    0    0    0  0.00000000000E+00  0.00000000000E+00  0.74505805969E-08  0.10566000000E+00  0.10566000000E+00 0.  1.
     999900   -1    0    0    0    0 -0.00000000000E+00 -0.00000000000E+00 -0.74505805969E-08  0.93827000000E+00  0.93827000000E+00 0.  1.
     999902    2    1    2    0    0  0.15027756700E-01  0.16449043677E-01  0.93630404142E-02  0.10197624384E+01  0.10194760221E+01 0.  0.
     999903    2    3    3    0    0 -0.43201785178E-01  0.19187219552E-01  0.11988550805E+00  0.13093546252E+00  0.23173620067E-01 0.  0.
         14    1    1    2    0    0 -0.15027756700E-01 -0.16449043677E-01 -0.93630404142E-02  0.24167561630E-01  0.00000000000E+00 0. -1.
     999901    1    3    3    0    0  0.58229541878E-01 -0.27381758753E-02 -0.11052246764E+00  0.88882697585E+00  0.88000000000E+00 0.  1.
        -11    1    4    4    0    0 -0.20963707579E-01 -0.30370244664E-02  0.46835031976E-01  0.51405076542E-01  0.51100000000E-03 0. -1.
         11    1    4    4    0    0 -0.22238077599E-01  0.22224244019E-01  0.73050476074E-01  0.79530385974E-01  0.51100000000E-03 0.  1.
</event>
<event>
 8    1  0.1123450E+005  0.1043930E+01  0.7957747E-01            NaN
         13   -1    0    0    0    0  0.00000000000E+00  0.00000000000E+00  0.74505805969E-08  0.10566000000E+00  0.10566000000E+00 0. -1.
     999900   -1    0    0    0    0 -0.00000000000E+00 -0.00000000000E+00 -0.74505805969E-08  0.93827000000E+00  0.93827000000E+00 0. -1.
     999902    2    1    2    0    0 -0.20848807304E-01  0.38926066616E-02 -0.10343087768E-01  0.10203332922E+01  0.10200604015E+01 0.  0.
     999903    2    3    3    0    0 -0.12908230606E+00  0.83757787432E-02 -0.29951229934E-01  0.13347418938E+00  0.13634062027E-01 0.  0.
         14    1    1    2    0    0  0.20848807304E-01 -0.38926066616E-02  0.10343087768E-01  0.23596707762E-01  0.00000000000E+00 0. -1.
     999901    1    3    3    0    0  0.10823349876E+00 -0.44831720816E-02  0.19608142166E-01  0.88685910286E+00  0.88000000000E+00 0.  1.
        -11    1    4    4    0    0 -0.92032367590E-01  0.84424201912E-02 -0.27098259894E-01  0.96310996014E-01  0.51100000000E-03 0.  1.
         11    1    4    4    0    0 -0.37049938474E-01 -0.66641448004E-04 -0.28529700399E-02  0.37163193364E-01  0.51100000000E-03 0. -1.
</event>
<event>
 8    1  0.1123450E+005  0.1043930E+01  0.7957747E-01            NaN
         13   -1    0    0    0    0  0.00000000000E+00  0.00000000000E+00  0.74505805969E-08  0.10566000000E+00  0.10566000000E+00 0.  1.
     999900   -1    0    0    0    0 -0.00000000000E+00 -0.00000000000E+00 -0.74505805969E-08  0.93827000000E+00  0.93827000000E+00 0.  1.
     999902    2    1    2    0    0  0.11082618012E-01  0.12363873878E-01  0.15206128088E-01  0.10214152020E+01  0.10211670278E+01 0.  0.
     999903    2    3    3    0    0 -0.83248298440E-01  0.70169570719E-01 -0.69308269484E-01  0.13047047653E+00  0.19101339685E-01 0.  0.
         14    1    1    2    0    0 -0.11082618012E-01 -0.12363873878E-01 -0.15206128088E-01  0.22514798038E-01  0.00000000000E+00 0. -1.
     999901    1    3    3    0    0  0.94330916453E-01 -0.57805696841E-01  0.84514397572E-01  0.89094472544E+00  0.88000000000E+00 0. -1.
        -11    1    4    4    0    0 -0.49449913343E-01  0.53396843410E-01 -0.44311933699E-01  0.85207543122E-01  0.51100000000E-03 0. -1.
         11    1    4    4    0    0 -0.33798385097E-01  0.16772727309E-01 -0.24996335785E-01  0.45262933403E-01  0.51100000000E-03 0.  1.
</event>
<event>
 8    1  0.1123450E+005  0.1043930E+01  0.7957747E-01            NaN
         13   -1    0    0    0    0  0.00000000000E+00  0.00000000000E+00  0.74505805969E-08  0.10566000000E+00  0.10566000000E+00 0.  1.
     999900   -1    0    0    0    0 -0.00000000000E+00 -0.00000000000E+00 -0.74505805969E-08  0.93827000000E+00  0.93827000000E+00 0.  1.
     999902    2    1    2    0    0 -0.22620126935E-01 -0.50433027744E-02 -0.39114350384E-02  0.10204267158E+01  0.10201560066E+01 0.  0.
     999903    2    3    3    0    0  0.67149222494E-01  0.10637544703E+00  0.17205245560E-01  0.12862035332E+00  0.20552883037E-01 0.  0.
         14    1    1    2    0    0  0.22620126935E-01  0.50433027744E-02  0.39114350384E-02  0.23503284227E-01  0.00000000000E+00 0.  1.
     999901    1    3    3    0    0 -0.89769349429E-01 -0.11141874981E+00 -0.21116680599E-01  0.89180636245E+00  0.88000000000E+00 0.  1.
        -11    1    4    4    0    0  0.25060499650E-01  0.23233182104E-01  0.68515039537E-02  0.34857045498E-01  0.51100000000E-03 0. -1.
         11    1    4    4    0    0  0.42088722845E-01  0.83142264929E-01  0.10353741606E-01  0.93763307826E-01  0.51100000000E-03 0.  1.
</event>
<event>
 8    1  0.1123450E+005  0.1043930E+01  0.7957747E-01            NaN
         13   -1    0    0    0    0  0.00000000000E+00  0.00000000000E+00  0.74505805969E-08  0.10566000000E+00  0.10566000000E+00 0. -1.
     999900   -1    0    0    0    0 -0.00000000000E+00 -0.00000000000E+00 -0.74505805969E-08  0.93827000000E+00  0.93827000000E+00 0.  1.
     999902    2    1    2    0    0 -0.74828484185E-02 -0.25547641042E-01  0.22658418924E-01  0.10089717545E+01  0.10083659665E+01 0.  0.
     999903    2    3    3    0    0 -0.85114318792E-01 -0.76233399034E-01 -0.37209413869E-01  0.12207838507E+00  0.21508445547E-01 0.  0.
         14    1    1    2    0    0  0.74828484185E-02  0.25547641042E-01 -0.22658418924E-01  0.34958245543E-01  0.00000000000E+00 0.  1.
     999901    1    3    3    0    0  0.77631470373E-01  0.50685757991E-01  0.59867832793E-01  0.88689336938E+00  0.88000000000E+00 0. -1.
        -11    1    4    4    0    0 -0.31950626262E-01 -0.20074961097E-01 -0.20554975120E-01  0.42972255057E-01  0.51100000000E-03 0.  1.
         11    1    4    4    0    0 -0.53163692530E-01 -0.56158437937E-01 -0.16654438749E-01  0.79106130015E-01  0.51100000000E-03 0. -1.
</event>
<event>
 8    1  0.1123450E+005  0.1043930E+01  0.7957747E-01            NaN
         13   -1    0    0    0    0  0.00000000000E+00  0.00000000000E+00  0.74505805969E-08  0.10566000000E+00  0.10566000000E+00 0. -1.
     999900   -1    0    0    0    0 -0.00000000000E+00 -0.00000000000E+00 -0.74505805969E-08  0.93827000000E+00  0.93827000000E+00 0. -1.
     999902    2    1    2    0    0  0.72228910658E-02  0.70514399781E-02  0.21649274926E-01  0.10200430984E+01  0.10197633738E+01 0.  0.
     999903    2    3    3    0    0 -0.88175489130E-01 -0.64122055534E-01 -0.63788774213E-01  0.12792977736E+00  0.20259944017E-01 0.  0.
         14    1    1    2    0    0 -0.72228910658E-02 -0.70514399781E-02 -0.21649274926E-01  0.23886901556E-01  0.00000000000E+00 0.  1.
     999901    1    3    3    0    0  0.95398380196E-01  0.71173495512E-01  0.85438049139E-01  0.89211332108E+00  0.88000000000E+00 0. -1.
        -11    1    4    4    0    0 -0.45493977045E-01 -0.24122119052E-01 -0.38006085291E-01  0.64002361012E-01  0.51100000000E-03 0.  1.
         11    1    4    4    0    0 -0.42681512085E-01 -0.39999936482E-01 -0.25782688922E-01  0.63927416353E-01  0.51100000000E-03 0. -1.
</event>
<event>
 8    1  0.1123450E+005  0.1043930E+01  0.7957747E-01            NaN
         13   -1    0    0    0    0  0.00000000000E+00  0.00000000000E+00  0.74505805969E-08  0.10566000000E+00  0.10566000000E+00 0. -1.
     999900   -1    0    0    0    0 -0.00000000000E+00 -0.00000000000E+00 -0.74505805969E-08  0.93827000000E+00  0.93827000000E+00 0.  1.
     999902    2    1    2    0    0  0.22200088018E-01 -0.16759587816E-02  0.87679427311E-02  0.10200024100E+01  0.10197217202E+01 0.  0.
     999903    2    3    3    0    0 -0.11932425389E+00  0.20498825117E-01 -0.34264447541E-01  0.12738118737E+00  0.19835199356E-01 0.  0.
         14    1    1    2    0    0 -0.22200088018E-01  0.16759587816E-02 -0.87679427311E-02  0.23927590050E-01  0.00000000000E+00 0.  1.
     999901    1    3    3    0    0  0.14152434190E+00 -0.22174783898E-01  0.43032390272E-01  0.89262122258E+00  0.88000000000E+00 0. -1.
        -11    1    4    4    0    0 -0.57352064338E-01  0.22450833919E-03 -0.13166595369E-01  0.58846665516E-01  0.51100000000E-03 0.  1.
         11    1    4    4    0    0 -0.61972189548E-01  0.20274316778E-01 -0.21097852171E-01  0.68534521851E-01  0.51100000000E-03 0. -1.
</event>
<event>
 8    1  0.1123450E+005  0.1043930E+01  0.7957747E-01            NaN
         13   -1    0    0    0    0  0.00000000000E+00  0.00000000000E+00  0.74505805969E-08  0.10566000000E+00  0.10566000000E+00 0.  1.
     999900   -1    0    0    0    0 -0.00000000000E+00 -0.00000000000E+00 -0.74505805969E-08  0.93827000000E+00  0.93827000000E+00 0.  1.
     999902    2    1    2    0    0 -0.35374037605E-02  0.20183891957E-01  0.10040198219E-01  0.10211109663E+01  0.10208559630E+01 0.  0.
     999903    2    3    3    0    0  0.73714610758E-01  0.89695653529E-01  0.62282290830E-01  0.13345732043E+00  0.21274833103E-01 0.  0.
         14    1    1    2    0    0  0.35374037605E-02 -0.20183891957E-01 -0.10040198219E-01  0.22819033726E-01  0.00000000000E+00 0.  1.
     999901    1    3    3    0    0 -0.77252014519E-01 -0.69511761572E-01 -0.52242092610E-01  0.88765364585E+00  0.88000000000E+00 0. -1.
        -11    1    4    4    0    0  0.51372194409E-01  0.58652817916E-01  0.52425636115E-01  0.93957244803E-01  0.51100000000E-03 0. -1.
         11    1    4    4    0    0  0.22342416350E-01  0.31042835613E-01  0.98566547149E-02  0.39500075625E-01  0.51100000000E-03 0.  1.
</event>
<event>
 8    1  0.1123450E+005  0.1043930E+01  0.7957747E-01            NaN
         13   -1    0    0    0    0  0.00000000000E+00  0.00000000000E+00  0.74505805969E-08  0.10566000000E+00  0.10566000000E+00 0. -1.
     999900   -1    0    0    0    0 -0.00000000000E+00 -0.00000000000E+00 -0.74505805969E-08  0.93827000000E+00  0.93827000000E+00 0.  1.
     999902    2    1    2    0    0  0.13838610013E-01  0.16841805026E-01  0.79049896627E-02  0.10207428832E+01  0.10204794908E+01 0.  0.
     999903    2    3    3    0    0 -0.11838640973E+00 -0.36567762018E-01 -0.26748286268E-01  0.12858993263E+00  0.21618434901E-01 0.  0.
         14    1    1    2    0    0 -0.13838610013E-01 -0.16841805026E-01 -0.79049896627E-02  0.23187116794E-01  0.00000000000E+00 0.  1.
     999901    1    3    3    0    0  0.13222501974E+00  0.53409567044E-01  0.34653275931E-01  0.89215295058E+00  0.88000000000E+00 0.  1.
        -11    1    4    4    0    0 -0.48507637220E-01 -0.14052607463E-01 -0.15836486745E-03  0.50504978423E-01  0.51100000000E-03 0.  1.
         11    1    4    4    0    0 -0.69878772507E-01 -0.22515154555E-01 -0.26589921400E-01  0.78084954202E-01  0.51100000000E-03 0. -1.
</event>
<event>
 8    1  0.1123450E+005  0.1043930E+01  0.7957747E-01            NaN
         13   -1    0    0    0    0  0.00000000000E+00  0.00000000000E+00  0.74505805969E-08  0.10566000000E+00  0.10566000000E+00 0. -1.
     999900   -1    0    0    0    0 -0.00000000000E+00 -0.00000000000E+00 -0.74505805969E-08  0.93827000000E+00  0.93827000000E+00 0. -1.
     999902    2    1    2    0    0 -0.11802663126E-01  0.16039761112E-02  0.19970811137E-01  0.10206768520E+01  0.10204119400E+01 0.  0.
     999903    2    3    3    0    0 -0.99967023794E-01  0.37822881787E-01 -0.72587149302E-01  0.13070396492E+00  0.19765018853E-01 0.  0.
         14    1    1    2    0    0  0.11802663126E-01 -0.16039761112E-02 -0.19970811137E-01  0.23253148038E-01  0.00000000000E+00 0.  1.
     999901    1    3    3    0    0  0.88164360668E-01 -0.36218905675E-01  0.92557960439E-01  0.88997288704E+00  0.88000000000E+00 0.  1.
        -11    1    4    4    0    0 -0.74541882213E-01  0.36778632586E-01 -0.58136442938E-01  0.10143602485E+00  0.51100000000E-03 0. -1.
         11    1    4    4    0    0 -0.25425141582E-01  0.10442492008E-02 -0.14450706364E-01  0.29267940076E-01  0.51100000000E-03 0.  1.
</event>
<event>
 8    1  0.1123450E+005  0.1043930E+01  0.7957747E-01            NaN
         13   -1    0    0    0    0  0.00000000000E+00  0.00000000000E+00  0.74505805969E-08  0.10566000000E+00  0.10566000000E+00 0. -1.
     999900   -1    0    0    0    0 -0.00000000000E+00 -0.00000000000E+00 -0.74505805969E-08  0.93827000000E+00  0.93827000000E+00 0.  1.
     999902    2    1    2    0    0 -0.11165967574E-01  0.75967777794E-02 -0.19568785641E-01  0.10201533889E+01  0.10198762717E+01 0.  0.
     999903    2    3    3    0    0 -0.46327164313E-01  0.78141736014E-02  0.11811147050E+00  0.12875437052E+00  0.20496365571E-01 0.  0.
         14    1    1    2    0    0  0.11165967574E-01 -0.75967777794E-02  0.19568785641E-01  0.23776611111E-01  0.00000000000E+00 0.  1.
     999901    1    3    3    0    0  0.35161196739E-01 -0.21739582193E-03 -0.13768025614E+00  0.89139901837E+00  0.88000000000E+00 0.  1.
        -11    1    4    4    0    0 -0.19400537316E-01  0.13261238725E-01  0.61152595008E-01  0.65514443430E-01  0.51100000000E-03 0.  1.
         11    1    4    4    0    0 -0.26926626997E-01 -0.54470651240E-02  0.56958875493E-01  0.63239927090E-01  0.51100000000E-03 0. -1.
</event>
<event>
 8    1  0.1123450E+005  0.1043930E+01  0.7957747E-01            NaN
         13   -1    0    0    0    0  0.00000000000E+00  0.00000000000E+00  0.74505805969E-08  0.10566000000E+00  0.10566000000E+00 0.  1.
     999900   -1    0    0    0    0 -0.00000000000E+00 -0.00000000000E+00 -0.74505805969E-08  0.93827000000E+00  0.93827000000E+00 0. -1.
     999902    2    1    2    0    0  0.33286218901E-02 -0.95273198935E-02  0.21401495197E-01  0.10202683529E+01  0.10199939403E+01 0.  0.
     999903    2    3    3    0    0 -0.12512769748E+00 -0.28284863720E-01 -0.94829368222E-02  0.13020840007E+00  0.20182347880E-01 0.  0.
         14    1    1    2    0    0 -0.33286218901E-02  0.95273198935E-02 -0.21401495197E-01  0.23661647126E-01  0.00000000000E+00 0.  1.
     999901    1    3    3    0    0  0.12845631937E+00  0.18757543827E-01  0.30884432019E-01  0.89005995280E+00  0.88000000000E+00 0.  1.
        -11    1    4    4    0    0 -0.23335927147E-01 -0.13272250315E-01 -0.42113620777E-02  0.27179308596E-01  0.51100000000E-03 0. -1.
         11    1    4    4    0    0 -0.10179177034E+00 -0.15012613406E-01 -0.52715747445E-02  0.10302909148E+00  0.51100000000E-03 0.  1.
</event>
<event>
 8    1  0.1123450E+005  0.1043930E+01  0.7957747E-01            NaN
         13   -1    0    0    0    0  0.00000000000E+00  0.00000000000E+00  0.74505805969E-08  0.10566000000E+00  0.10566000000E+00 0. -1.
     999900   -1    0    0    0    0 -0.00000000000E+00 -0.00000000000E+00 -0.74505805969E-08  0.93827000000E+00  0.93827000000E+00 0. -1.
     999902    2    1    2    0    0 -0.62542372644E-02  0.94058587771E-02 -0.20875984183E-01  0.10201941120E+01  0.10199179544E+01 0.  0.
     999903    2    3    3    0    0  0.14033820222E-01  0.91000656971E-01 -0.94134133369E-01  0.13315630403E+00  0.19781267847E-01 0.  0.
         14    1    1    2    0    0  0.62542372644E-02 -0.94058587771E-02  0.20875984183E-01  0.23735887991E-01  0.00000000000E+00 0. -1.
     999901    1    3    3    0    0 -0.20288057486E-01 -0.81594798194E-01  0.73258149185E-01  0.88703780798E+00  0.88000000000E+00 0.  1.
        -11    1    4    4    0    0 -0.26700302923E-02  0.65206540617E-02 -0.13224415775E-01  0.14993141257E-01  0.51100000000E-03 0. -1.
         11    1    4    4    0    0  0.16703850514E-01  0.84480002909E-01 -0.80909717593E-01  0.11816316277E+00  0.51100000000E-03 0.  1.
</event>
<event>
 8    1  0.1123450E+005  0.1043930E+01  0.7957747E-01            NaN
         13   -1    0    0    0    0  0.00000000000E+00  0.00000000000E+00  0.74505805969E-08  0.10566000000E+00  0.10566000000E+00 0. -1.
     999900   -1    0    0    0    0 -0.00000000000E+00 -0.00000000000E+00 -0.74505805969E-08  0.93827000000E+00  0.93827000000E+00 0. -1.
     999902    2    1    2    0    0 -0.82375975706E-02  0.11763512297E-01 -0.18459848881E-01  0.10205418779E+01  0.10202738457E+01 0.  0.
     999903    2    3    3    0    0 -0.41204127743E-01 -0.22128687387E-01  0.11827343277E+00  0.12872829668E+00  0.19872355640E-01 0.  0.
         14    1    1    2    0    0  0.82375975706E-02 -0.11763512297E-01  0.18459848881E-01  0.23388122114E-01  0.00000000000E+00 0. -1.
     999901    1    3    3    0    0  0.32966530172E-01  0.33892199684E-01 -0.13673328165E+00  0.89181358121E+00  0.88000000000E+00 0. -1.
        -11    1    4    4    0    0 -0.87230521457E-02 -0.15292211330E-01  0.42072408634E-01  0.45610218761E-01  0.51100000000E-03 0.  1.
         11    1    4    4    0    0 -0.32481075597E-01 -0.68364760564E-02  0.76201024136E-01  0.83118077921E-01  0.51100000000E-03 0. -1.
</event>
<event>
 8    1  0.1123450E+005  0.1043930E+01  0.7957747E-01            NaN
         13   -1    0    0    0    0  0.00000000000E+00  0.00000000000E+00  0.74505805969E-08  0.10566000000E+00  0.10566000000E+00 0.  1.
     999900   -1    0    0    0    0 -0.00000000000E+00 -0.00000000000E+00 -0.74505805969E-08  0.93827000000E+00  0.93827000000E+00 0. -1.
     999902    2    1    2    0    0 -0.46000210614E-02 -0.70046171245E-02 -0.20535165232E-01  0.10217507785E+01  0.10215100271E+01 0.  0.
     999903    2    3    3    0    0 -0.38176468986E-01  0.89915432918E-01  0.83000048059E-01  0.12976399926E+00  0.20185630195E-01 0.  0.
         14    1    1    2    0    0  0.46000210614E-02  0.70046171245E-02  0.20535165232E-01  0.22179221491E-01  0.00000000000E+00 0.  1.
     999901    1    3    3    0    0  0.33576447925E-01 -0.96920050042E-01 -0.10353521329E+00  0.89198677924E+00  0.88000000000E+00 0. -1.
        -11    1    4    4    0    0 -0.30468199205E-02  0.29678105070E-01  0.21407220535E-01  0.36723333783E-01  0.51100000000E-03 0. -1.
         11    1    4    4    0    0 -0.35129649066E-01  0.60237327848E-01  0.61592827525E-01  0.93040665481E-01  0.51100000000E-03 0.  1.
</event>
<event>
 8    1  0.1123450E+005  0.1043930E+01  0.7957747E-01            NaN
         13   -1    0    0    0    0  0.00000000000E+00  0.00000000000E+00  0.74505805969E-08  0.10566000000E+00  0.10566000000E+00 0.  1.
     999900   -1    0    0    0    0 -0.00000000000E+00 -0.00000000000E+00 -0.74505805969E-08  0.93827000000E+00  0.93827000000E+00 0.  1.
     999902    2    1    2    0    0  0.18910026700E-01 -0.24974816387E-02 -0.14385945575E-01  0.10200389566E+01  0.10197591338E+01 0.  0.
     999903    2    3    3    0    0  0.58991951309E-01 -0.20545233660E-01  0.11211644986E+00  0.12990686636E+00  0.20088271516E-01 0.  0.
         14    1    1    2    0    0 -0.18910026700E-01  0.24974816387E-02  0.14385945575E-01  0.23891043393E-01  0.00000000000E+00 0.  1.
     999901    1    3    3    0    0 -0.40081924610E-01  0.18047752021E-01 -0.12650239544E+00  0.89013209025E+00  0.88000000000E+00 0.  1.
        -11    1    4    4    0    0  0.52005650274E-01 -0.11303131637E-01  0.98997085251E-01  0.11239676354E+00  0.51100000000E-03 0. -1.
         11    1    4    4    0    0  0.69863010352E-02 -0.92421020234E-02  0.13119364612E-01  0.17510102820E-01  0.51100000000E-03 0.  1.
</event>
<event>
 8    1  0.1123450E+005  0.1043930E+01  0.7957747E-01            NaN
         13   -1    0    0    0    0  0.00000000000E+00  0.00000000000E+00  0.74505805969E-08  0.10566000000E+00  0.10566000000E+00 0.  1.
     999900   -1    0    0    0    0 -0.00000000000E+00 -0.00000000000E+00 -0.74505805969E-08  0.93827000000E+00  0.93827000000E+00 0.  1.
     999902    2    1    2    0    0  0.11690071506E-01 -0.17057514501E-01 -0.10181774320E-01  0.10208803774E+01  0.10206201350E+01 0.  0.
     999903    2    3    3    0    0 -0.33986093870E-01 -0.12156141210E+00  0.34561227125E-01  0.13239328529E+00  0.20031776778E-01 0.  0.
         14    1    1    2    0    0 -0.11690071506E-01  0.17057514501E-01  0.10181774320E-01  0.23049622580E-01  0.00000000000E+00 0.  1.
     999901    1    3    3    0    0  0.45676165376E-01  0.10450389760E+00 -0.44743001445E-01  0.88848709213E+00  0.88000000000E+00 0. -1.
        -11    1    4    4    0    0 -0.21075367358E-01 -0.79066997110E-01  0.32131151435E-01  0.87911507522E-01  0.51100000000E-03 0.  1.
         11    1    4    4    0    0 -0.12910726512E-01 -0.42494414995E-01  0.24300756901E-02  0.44481777772E-01  0.51100000000E-03 0. -1.
</event>
<event>
 8    1  0.1123450E+005  0.1043930E+01  0.7957747E-01            NaN
         13   -1    0    0    0    0  0.00000000000E+00  0.00000000000E+00  0.74505805969E-08  0.10566000000E+00  0.10566000000E+00 0.  1.
     999900   -1    0    0    0    0 -0.00000000000E+00 -0.00000000000E+00 -0.74505805969E-08  0.93827000000E+00  0.93827000000E+00 0.  1.
     999902    2    1    2    0    0  0.19143412875E-01 -0.26934001951E-02 -0.14827663333E-01  0.10195664153E+01  0.10192752773E+01 0.  0.
     999903    2    3    3    0    0  0.52438024232E-01 -0.77864269728E-01 -0.90963286520E-01  0.13246110929E+00  0.21425104312E-01 0.  0.
         14    1    1    2    0    0 -0.19143412875E-01  0.26934001951E-02  0.14827663333E-01  0.24363584732E-01  0.00000000000E+00 0.  1.
     999901    1    3    3    0    0 -0.33294611357E-01  0.75170869533E-01  0.76135623187E-01  0.88710530598E+00  0.88000000000E+00 0. -1.
        -11    1    4    4    0    0  0.32284259201E-01 -0.63094868099E-01 -0.61619912013E-01  0.93917572637E-01  0.51100000000E-03 0.  1.
         11    1    4    4    0    0  0.20153765031E-01 -0.14769401629E-01 -0.29343374508E-01  0.38543536655E-01  0.51100000000E-03 0. -1.
</event>
<event>
 8    1  0.1123450E+005  0.1043930E+01  0.7957747E-01            NaN
         13   -1    0    0    0    0  0.00000000000E+00  0.00000000000E+00  0.74505805969E-08  0.10566000000E+00  0.10566000000E+00 0. -1.
     999900   -1    0    0    0    0 -0.00000000000E+00 -0.00000000000E+00 -0.74505805969E-08  0.93827000000E+00  0.93827000000E+00 0. -1.
     999902    2    1    2    0    0  0.11683930865E-01 -0.19892573173E-01  0.85150310468E-02  0.10193386507E+01  0.10190419767E+01 0.  0.
     999903    2    3    3    0    0  0.11150203216E+00  0.62515360801E-01 -0.95877533275E-02  0.12968566679E+00  0.19636029270E-01 0.  0.
         14    1    1    2    0    0 -0.11683930865E-01  0.19892573173E-01 -0.85150310468E-02  0.24591349325E-01  0.00000000000E+00 0. -1.
     999901    1    3    3    0    0 -0.99818101296E-01 -0.82407933975E-01  0.18102784374E-01  0.88965298388E+00  0.88000000000E+00 0.  1.
        -11    1    4    4    0    0  0.37298323908E-01  0.19637109726E-01 -0.12386318845E-01  0.43937035178E-01  0.51100000000E-03 0.  1.
         11    1    4    4    0    0  0.74203708253E-01  0.42878251075E-01  0.27985655178E-02  0.85748631614E-01  0.51100000000E-03 0. -1.
</event>
<event>
 8    1  0.1123450E+005  0.1043930E+01  0.7957747E-01            NaN
         13   -1    0    0    0    0  0.00000000000E+00  0.00000000000E+00  0.74505805969E-08  0.10566000000E+00  0.10566000000E+00 0. -1.
     999900   -1    0    0    0    0 -0.00000000000E+00 -0.00000000000E+00 -0.74505805969E-08  0.93827000000E+00  0.93827000000E+00 0. -1.
     999902    2    1    2    0    0  0.88080710735E-02  0.11349304378E-01 -0.19021134545E-01  0.10200932136E+01  0.10198146754E+01 0.  0.
     999903    2    3    3    0    0  0.81223410006E-02 -0.12676673912E+00 -0.11551217616E-01  0.12928890774E+00  0.21128475242E-01 0.  0.
         14    1    1    2    0    0 -0.88080710735E-02 -0.11349304378E-01  0.19021134545E-01  0.23836786388E-01  0.00000000000E+00 0. -1.
     999901    1    3    3    0    0  0.68573007295E-03  0.13811604350E+00 -0.74699169297E-02  0.89080430587E+00  0.88000000000E+00 0. -1.
        -11    1    4    4    0    0  0.53963995768E-02 -0.53408238548E-01  0.53778368676E-02  0.53951305115E-01  0.51100000000E-03 0. -1.
         11    1    4    4    0    0  0.27259414238E-02 -0.73358500573E-01 -0.16929054483E-01  0.75337602628E-01  0.51100000000E-03 0.  1.
</event>
<event>
 8    1  0.1123450E+005  0.1043930E+01  0.7957747E-01            NaN
         13   -1    0    0    0    0  0.00000000000E+00  0.00000000000E+00  0.74505805969E-08  0.10566000000E+00  0.10566000000E+00 0.  1.
     999900   -1    0    0    0    0 -0.00000000000E+00 -0.00000000000E+00 -0.74505805969E-08  0.93827000000E+00  0.93827000000E+00 0. -1.
     999902    2    1    2    0    0 -0.13886551416E-01  0.18974383561E-01 -0.25342254267E-02  0.10202807751E+01  0.10200066540E+01 0.  0.
     999903    2    3    3    0    0 -0.11648362375E+00  0.28843682695E-01  0.52732442763E-01  0.13254321985E+00  0.19662196606E-01 0.  0.
         14    1    1    2    0    0  0.13886551416E-01 -0.18974383561E-01  0.25342254267E-02  0.23649224940E-01  0.00000000000E+00 0.  1.
     999901    1    3    3    0    0  0.10259707233E+00 -0.98692991342E-02 -0.55266668190E-01  0.88773755521E+00  0.88000000000E+00 0. -1.
        -11    1    4    4    0    0 -0.78226099691E-01  0.12674262637E-01  0.41777316944E-01  0.89585517458E-01  0.51100000000E-03 0. -1.
         11    1    4    4    0    0 -0.38257524058E-01  0.16169420059E-01  0.10955125820E-01  0.42957702392E-01  0.51100000000E-03 0.  1.
</event>
<event>
 8    1  0.1123450E+005  0.1043930E+01  0.7957747E-01            NaN
         13   -1    0    0    0    0  0.00000000000E+00  0.00000000000E+00  0.74505805969E-08  0.10566000000E+00  0.10566000000E+00 0.  1.
     999900   -1    0    0    0    0 -0.00000000000E+00 -0.00000000000E+00 -0.74505805969E-08  0.93827000000E+00  0.93827000000E+00 0.  1.
     999902    2    1    2    0    0  0.12060723917E-02  0.20148578342E-01  0.11860325026E-01  0.10205187393E+01  0.10202501703E+01 0.  0.
     999903    2    3    3    0    0  0.31340507985E-01 -0.27624772621E-01 -0.12022998119E+00  0.12886957828E+00  0.20168399241E-01 0.  0.
         14    1    1    2    0    0 -0.12060723917E-02 -0.20148578342E-01 -0.11860325026E-01  0.23411260742E-01  0.00000000000E+00 0. -1.
     999901    1    3    3    0    0 -0.30134435593E-01  0.47773350964E-01  0.13209030621E+00  0.89164916097E+00  0.88000000000E+00 0. -1.
        -11    1    4    4    0    0  0.11124005306E-01  0.21755122488E-03 -0.41070818336E-01  0.42554248465E-01  0.51100000000E-03 0. -1.
         11    1    4    4    0    0  0.20216502679E-01 -0.27842323846E-01 -0.79159162849E-01  0.86315329819E-01  0.51100000000E-03 0.  1.
</event>
<event>
 8    1  0.1123450E+005  0.1043930E+01  0.7957747E-01            NaN
         13   -1    0    0    0    0  0.00000000000E+00  0.00000000000E+00  0.74505805969E-08  0.10566000000E+00  0.10566000000E+00 0.  1.
     999900   -1    0    0    0    0 -0.00000000000E+00 -0.00000000000E+00 -0.74505805969E-08  0.93827000000E+00  0.93827000000E+00 0. -1.
     999902    2    1    2    0    0 -0.12663425504E-01  0.10988674074E-01  0.16826445085E-01  0.10201762096E+01  0.10198996304E+01 0.  0.
     999903    2    3    3    0    0 -0.64229855157E-01 -0.14737937332E-01  0.11377728351E+00  0.13297813688E+00  0.19880481713E-01 0.  0.
         14    1    1    2    0    0  0.12663425504E-01 -0.10988674074E-01 -0.16826445085E-01  0.23753790384E-01  0.00000000000E+00 0. -1.
     999901    1    3    3    0    0  0.51566429653E-01  0.25726611406E-01 -0.96950838428E-01  0.88719807274E+00  0.88000000000E+00 0. -1.
        -11    1    4    4    0    0 -0.44853284349E-02 -0.45368112474E-02  0.39076446481E-02  0.74987755773E-02  0.51100000000E-03 0. -1.
         11    1    4    4    0    0 -0.59744526722E-01 -0.10201126085E-01  0.10986963886E+00  0.12547936130E+00  0.51100000000E-03 0.  1.
</event>
<event>
 8    1  0.1123450E+005  0.1043930E+01  0.7957747E-01            NaN
         13   -1    0    0    0    0  0.00000000000E+00  0.00000000000E+00  0.74505805969E-08  0.10566000000E+00  0.10566000000E+00 0. -1.
     999900   -1    0    0    0    0 -0.00000000000E+00 -0.00000000000E+00 -0.74505805969E-08  0.93827000000E+00  0.93827000000E+00 0.  1.
     999902    2    1    2    0    0 -0.11816257333E-01 -0.13238855892E-01  0.19941449418E-01  0.10172363182E+01  0.10168860184E+01 0.  0.
     999903    2    3    3    0    0  0.55071331583E-01  0.12781919648E-02 -0.11023337162E+00  0.12503108495E+00  0.21139788254E-01 0.  0.
         14    1    1    2    0    0  0.11816257333E-01  0.13238855892E-01 -0.19941449418E-01  0.26693681791E-01  0.00000000000E+00 0.  1.
     999901    1    3    3    0    0 -0.66887588915E-01 -0.14517047857E-01  0.13017482104E+00  0.89220523326E+00  0.88000000000E+00 0. -1.
        -11    1    4    4    0    0  0.35177480144E-01 -0.90190390779E-02 -0.73938130599E-01  0.82376613506E-01  0.51100000000E-03 0. -1.
         11    1    4    4    0    0  0.19893851438E-01  0.10297231043E-01 -0.36295241020E-01  0.42654471441E-01  0.51100000000E-03 0.  1.
</event>
<event>
 8    1  0.1123450E+005  0.1043930E+01  0.7957747E-01            NaN
         13   -1    0    0    0    0  0.00000000000E+00  0.00000000000E+00  0.74505805969E-08  0.10566000000E+00  0.10566000000E+00 0. -1.
     999900   -1    0    0    0    0 -0.00000000000E+00 -0.00000000000E+00 -0.74505805969E-08  0.93827000000E+00  0.93827000000E+00 0. -1.
     999902    2    1    2    0    0 -0.16014984660E-02 -0.48280956860E-02  0.21901018073E-01  0.10214460080E+01  0.10211985200E+01 0.  0.
     999903    2    3    3    0    0  0.12678310015E+00 -0.21895749532E-01  0.20864814785E-01  0.13196583186E+00  0.20646112200E-01 0.  0.
         14    1    1    2    0    0  0.16014984660E-02  0.48280956860E-02 -0.21901018073E-01  0.22483992037E-01  0.00000000000E+00 0.  1.
     999901    1    3    3    0    0 -0.12838459862E+00  0.17067653846E-01  0.10362032881E-02  0.88948017611E+00  0.88000000000E+00 0. -1.
        -11    1    4    4    0    0  0.48683470205E-01 -0.18615211870E-01  0.92319959488E-02  0.52934839703E-01  0.51100000000E-03 0. -1.
         11    1    4    4    0    0  0.78099629950E-01 -0.32805376626E-02  0.11632818836E-01  0.79030992153E-01  0.51100000000E-03 0.  1.
</event>
<event>
 8    1  0.1123450E+005  0.1043930E+01  0.7957747E-01            NaN
         13   -1    0    0    0    0  0.00000000000E+00  0.00000000000E+00  0.74505805969E-08  0.10566000000E+00  0.10566000000E+00 0.  1.
     999900   -1    0    0    0    0 -0.00000000000E+00 -0.00000000000E+00 -0.74505805969E-08  0.93827000000E+00  0.93827000000E+00 0.  1.
     999902    2    1    2    0    0 -0.29426544889E-02  0.21273748568E-01 -0.11336230159E-01  0.10196454018E+01  0.10193561712E+01 0.  0.
     999903    2    3    3    0    0  0.64535951016E-01  0.10304735571E+00 -0.48723723509E-01  0.13249371826E+00  0.19923294222E-01 0.  0.
         14    1    1    2    0    0  0.29426544889E-02 -0.21273748568E-01  0.11336230159E-01  0.24284598160E-01  0.00000000000E+00 0.  1.
     999901    1    3    3    0    0 -0.67478605505E-01 -0.81773607141E-01  0.37387493351E-01  0.88715168358E+00  0.88000000000E+00 0.  1.
        -11    1    4    4    0    0  0.38078627077E-01  0.57974096735E-01 -0.38169563831E-01  0.79171677110E-01  0.51100000000E-03 0.  1.
         11    1    4    4    0    0  0.26457323939E-01  0.45073258974E-01 -0.10554159678E-01  0.53322041147E-01  0.51100000000E-03 0. -1.
</event>
<event>
 8    1  0.1123450E+005  0.1043930E+01  0.7957747E-01            NaN
         13   -1    0    0    0    0  0.00000000000E+00  0.00000000000E+00  0.74505805969E-08  0.10566000000E+00  0.10566000000E+00 0. -1.
     999900   -1    0    0    0    0 -0.00000000000E+00 -0.00000000000E+00 -0.74505805969E-08  0.93827000000E+00  0.93827000000E+00 0. -1.
     999902    2    1    2    0    0 -0.22958938113E-01  0.47353525695E-02 -0.46017238090E-02  0.10200404151E+01  0.10197606269E+01 0.  0.
     999903    2    3    3    0    0 -0.11745716113E+00 -0.33264786843E-01 -0.49286455470E-01  0.13303948503E+00  0.19173396709E-01 0.  0.
         14    1    1    2    0    0  0.22958938113E-01 -0.47353525695E-02  0.46017238090E-02  0.23889584870E-01  0.00000000000E+00 0. -1.
     999901    1    3    3    0    0  0.94498223015E-01  0.38000139413E-01  0.44684731661E-01  0.88700093010E+00  0.88000000000E+00 0.  1.
        -11    1    4    4    0    0 -0.19988631277E-01 -0.12321662538E-01 -0.13661394200E-01  0.27171005880E-01  0.51100000000E-03 0.  1.
         11    1    4    4    0    0 -0.97468529851E-01 -0.20943124305E-01 -0.35625061270E-01  0.10586847915E+00  0.51100000000E-03 0. -1.
</event>
<event>
 8    1  0.1123450E+005  0.1043930E+01  0.7957747E-01            NaN
         13   -1    0    0    0    0  0.00000000000E+00  0.00000000000E+00  0.74505805969E-08  0.10566000000E+00  0.10566000000E+00 0. -1.
     999900   -1    0    0    0    0 -0.00000000000E+00 -0.00000000000E+00 -0.74505805969E-08  0.93827000000E+00  0.93827000000E+00 0. -1.
     999902    2    1    2    0    0  0.85230376470E-02  0.21492394763E-01  0.86967112946E-04  0.10208091703E+01  0.10205472989E+01 0.  0.
     999903    2    3    3    0    0  0.36787802296E-03  0.39653360391E-01 -0.12412123340E+00  0.13186372518E+00  0.20234552480E-01 0.  0.
         14    1    1    2    0    0 -0.85230376470E-02 -0.21492394763E-01 -0.86967112946E-04  0.23120829714E-01  0.00000000000E+00 0. -1.
     999901    1    3    3    0    0  0.81551596240E-02 -0.18160965628E-01  0.12420820051E+00  0.88894544511E+00  0.88000000000E+00 0.  1.
        -11    1    4    4    0    0 -0.52544264835E-02  0.10364260697E-02 -0.18331317325E-01  0.19104488806E-01  0.51100000000E-03 0.  1.
         11    1    4    4    0    0  0.56223045064E-02  0.38616934322E-01 -0.10578991607E+00  0.11275923637E+00  0.51100000000E-03 0. -1.
</event>
<event>
 8    1  0.1231676E+005  0.1043930E+01  0.7957747E-01            NaN
         13   -1    0    0    0    0  0.00000000000E+00  0.00000000000E+00  0.74505805969E-08  0.10566000000E+00  0.10566000000E+00 0.  1.
     999900   -1    0    0    0    0 -0.00000000000E+00 -0.00000000000E+00 -0.74505805969E-08  0.93827000000E+00  0.93827000000E+00 0. -1.
     999902    2    1    2    0    0  0.19060503008E-01  0.16036690988E-01  0.43060416290E-02  0.10186511506E+01  0.10183374423E+01 0.  0.
     999903    2    3    3    0    0  0.37347646140E-01 -0.90342486355E-02  0.12285349757E+00  0.13016003025E+00  0.19292156138E-01 0.  0.
         14    1    1    2    0    0 -0.19060503008E-01 -0.16036690988E-01 -0.43060416290E-02  0.25278849406E-01  0.00000000000E+00 0. -1.
     999901    1    3    3    0    0 -0.18287143131E-01  0.25070939623E-01 -0.11854745594E+00  0.88849112034E+00  0.88000000000E+00 0. -1.
        -11    1    4    4    0    0  0.27646356004E-01 -0.14999299061E-01  0.85368692304E-01  0.90980078695E-01  0.51100000000E-03 0.  1.
         11    1    4    4    0    0  0.97012901351E-02  0.59650504259E-02  0.37484805270E-01  0.39179951557E-01  0.51100000000E-03 0. -1.
</event>
<event>
 8    1  0.1123450E+005  0.1043930E+01  0.7957747E-01            NaN
         13   -1    0    0    0    0  0.00000000000E+00  0.00000000000E+00  0.74505805969E-08  0.10566000000E+00  0.10566000000E+00 0. -1.
     999900   -1    0    0    0    0 -0.00000000000E+00 -0.00000000000E+00 -0.74505805969E-08  0.93827000000E+00  0.93827000000E+00 0. -1.
     999902    2    1    2    0    0  0.71946094484E-02 -0.11131207865E-01 -0.19611100718E-01  0.10202601571E+01  0.10199855522E+01 0.  0.
     999903    2    3    3    0    0  0.11782541902E+00  0.16096162053E-01 -0.54447070180E-01  0.13223197593E+00  0.19465256421E-01 0.  0.
         14    1    1    2    0    0 -0.71946094484E-02  0.11131207865E-01  0.19611100718E-01  0.23669842944E-01  0.00000000000E+00 0. -1.
     999901    1    3    3    0    0 -0.11063080957E+00 -0.27227369917E-01  0.34835969462E-01  0.88802818112E+00  0.88000000000E+00 0.  1.
        -11    1    4    4    0    0  0.52315033645E-01  0.37266229065E-02 -0.33963873283E-01  0.62486448714E-01  0.51100000000E-03 0. -1.
         11    1    4    4    0    0  0.65510385377E-01  0.12369539146E-01 -0.20483196897E-01  0.69745527219E-01  0.51100000000E-03 0.  1.
</event>
<event>
 8    1  0.1123450E+005  0.1043930E+01  0.7957747E-01            NaN
         13   -1    0    0    0    0  0.00000000000E+00  0.00000000000E+00  0.74505805969E-08  0.10566000000E+00  0.10566000000E+00 0.  1.
     999900   -1    0    0    0    0 -0.00000000000E+00 -0.00000000000E+00 -0.74505805969E-08  0.93827000000E+00  0.93827000000E+00 0. -1.
     999902    2    1    2    0    0  0.28281196898E-02 -0.17250942074E-01 -0.28720935532E-02  0.10262144084E+01  0.10260614845E+01 0.  0.
     999903    2    3    3    0    0  0.65471916375E-01 -0.53357905421E-01 -0.10623104497E+00  0.13722001536E+00  0.20264742640E-01 0.  0.
         14    1    1    2    0    0 -0.28281196898E-02  0.17250942074E-01  0.28720935532E-02  0.17715591573E-01  0.00000000000E+00 0.  1.
     999901    1    3    3    0    0 -0.62643796686E-01  0.36106963347E-01  0.10335895142E+00  0.88899439307E+00  0.88000000000E+00 0. -1.
        -11    1    4    4    0    0  0.43763390848E-01 -0.41552678769E-01 -0.87100720578E-01  0.10596535348E+00  0.51100000000E-03 0. -1.
         11    1    4    4    0    0  0.21708525528E-01 -0.11805226651E-01 -0.19130324397E-01  0.31254661883E-01  0.51100000000E-03 0.  1.
</event>
<event>
 8    1  0.1123450E+005  0.1043930E+01  0.7957747E-01            NaN
         13   -1    0    0    0    0  0.00000000000E+00  0.00000000000E+00  0.74505805969E-08  0.10566000000E+00  0.10566000000E+00 0. -1.
     999900   -1    0    0    0    0 -0.00000000000E+00 -0.00000000000E+00 -0.74505805969E-08  0.93827000000E+00  0.93827000000E+00 0. -1.
     999902    2    1    2    0    0  0.21226590123E-01 -0.71688185473E-02  0.65148865961E-02  0.10205975369E+01  0.10203307936E+01 0.  0.
     999903    2    3    3    0    0  0.18708498476E-01  0.11747516313E+00 -0.48803321862E-01  0.13009062106E+00  0.19783417180E-01 0.  0.
         14    1    1    2    0    0 -0.21226590123E-01  0.71688185473E-02 -0.65148865961E-02  0.23332463114E-01  0.00000000000E+00 0. -1.
     999901    1    3    3    0    0  0.25180916462E-02 -0.12464398167E+00  0.55318208458E-01  0.89050691583E+00  0.88000000000E+00 0. -1.
        -11    1    4    4    0    0  0.17654348090E-01  0.62064289879E-01 -0.19572603576E-01  0.67431446791E-01  0.51100000000E-03 0.  1.
         11    1    4    4    0    0  0.10541503864E-02  0.55410873248E-01 -0.29230718286E-01  0.62659174265E-01  0.51100000000E-03 0. -1.
</event>
<event>
 8    1  0.1123450E+005  0.1043930E+01  0.7957747E-01            NaN
         13   -1    0    0    0    0  0.00000000000E+00  0.00000000000E+00  0.74505805969E-08  0.10566000000E+00  0.10566000000E+00 0.  1.
     999900   -1    0    0    0    0 -0.00000000000E+00 -0.00000000000E+00 -0.74505805969E-08  0.93827000000E+00  0.93827000000E+00 0.  1.
     999902    2    1    2    0    0  0.18289812409E-01 -0.50981166594E-03 -0.14898665826E-01  0.10203345049E+01  0.10200616425E+01 0.  0.
     999903    2    3    3    0    0  0.23527786925E-01  0.82996184834E-01  0.94447979240E-01  0.12962839365E+00  0.21004194867E-01 0.  0.
         14    1    1    2    0    0 -0.18289812409E-01  0.50981166594E-03  0.14898665826E-01  0.23595495106E-01  0.00000000000E+00 0.  1.
     999901    1    3    3    0    0 -0.52379745154E-02 -0.83505996500E-01 -0.10934664507E+00  0.89070611125E+00  0.88000000000E+00 0.  1.
        -11    1    4    4    0    0  0.29040593840E-03  0.39003790644E-01  0.42990412542E-01  0.58050122410E-01  0.51100000000E-03 0.  1.
         11    1    4    4    0    0  0.23237380986E-01  0.43992394189E-01  0.51457566698E-01  0.71578271236E-01  0.51100000000E-03 0. -1.
</event>
<event>
 8    1  0.1123450E+005  0.1043930E+01  0.7957747E-01            NaN
         13   -1    0    0    0    0  0.00000000000E+00  0.00000000000E+00  0.74505805969E-08  0.10566000000E+00  0.10566000000E+00 0.  1.
     999900   -1    0    0    0    0 -0.00000000000E+00 -0.00000000000E+00 -0.74505805969E-08  0.93827000000E+00  0.93827000000E+00 0. -1.
     999902    2    1    2    0    0 -0.39309296914E-03  0.18162389668E-01  0.13095928905E-01  0.10215351284E+01  0.10212896202E+01 0.  0.
     999903    2    3    3    0    0 -0.29628320389E-02  0.13200015787E+00 -0.15496992686E-01  0.13373830693E+00  0.14593077413E-01 0.  0.
         14    1    1    2    0    0  0.39309296914E-03 -0.18162389668E-01 -0.13095928905E-01  0.22394871609E-01  0.00000000000E+00 0. -1.
     999901    1    3    3    0    0  0.25697390698E-02 -0.11383776820E+00  0.28592921590E-01  0.88779682146E+00  0.88000000000E+00 0.  1.
        -11    1    4    4    0    0 -0.56111476660E-02  0.21879542272E-01 -0.78966953551E-03  0.22607168048E-01  0.51100000000E-03 0.  1.
         11    1    4    4    0    0  0.26483156270E-02  0.11012061559E+00 -0.14707323150E-01  0.11113113888E+00  0.51100000000E-03 0. -1.
</event>
<event>
 8    1  0.1123450E+005  0.1043930E+01  0.7957747E-01            NaN
         13   -1    0    0    0    0  0.00000000000E+00  0.00000000000E+00  0.74505805969E-08  0.10566000000E+00  0.10566000000E+00 0. -1.
     999900   -1    0    0    0    0 -0.00000000000E+00 -0.00000000000E+00 -0.74505805969E-08  0.93827000000E+00  0.93827000000E+00 0.  1.
     999902    2    1    2    0    0 -0.83950957933E-02  0.14835899655E-01 -0.16309331808E-01  0.10203381400E+01  0.10200653627E+01 0.  0.
     999903    2    3    3    0    0 -0.51801502288E-01 -0.31772438790E-01  0.11170168940E+00  0.12879830645E+00  0.20465894145E-01 0.  0.
         14    1    1    2    0    0  0.83950957933E-02 -0.14835899655E-01  0.16309331808E-01  0.23591859951E-01  0.00000000000E+00 0. -1.
     999901    1    3    3    0    0  0.43406406494E-01  0.46608338444E-01 -0.12801102121E+00  0.89153983360E+00  0.88000000000E+00 0.  1.
        -11    1    4    4    0    0 -0.96136604847E-02 -0.85027650478E-02  0.43053111835E-01  0.44928287760E-01  0.51100000000E-03 0.  1.
         11    1    4    4    0    0 -0.42187841803E-01 -0.23269673742E-01  0.68648577570E-01  0.83870018692E-01  0.51100000000E-03 0. -1.
</event>
<event>
 8    1  0.1123450E+005  0.1043930E+01  0.7957747E-01            NaN
         13   -1    0    0    0    0  0.00000000000E+00  0.00000000000E+00  0.74505805969E-08  0.10566000000E+00  0.10566000000E+00 0.  1.
     999900   -1    0    0    0    0 -0.00000000000E+00 -0.00000000000E+00 -0.74505805969E-08  0.93827000000E+00  0.93827000000E+00 0.  1.
     999902    2    1    2    0    0  0.13345120936E-01  0.17276764688E-01 -0.87613518066E-02  0.10204068170E+01  0.10201356440E+01 0.  0.
     999903    2    3    3    0    0  0.88658971655E-01  0.72376337101E-01  0.64268359228E-01  0.13246454545E+00  0.17823758757E-01 0.  0.
         14    1    1    2    0    0 -0.13345120936E-01 -0.17276764688E-01  0.87613518066E-02  0.23523182956E-01  0.00000000000E+00 0.  1.
     999901    1    3    3    0    0 -0.75313850719E-01 -0.55099572413E-01 -0.73029711034E-01  0.88794227159E+00  0.88000000000E+00 0. -1.
        -11    1    4    4    0    0  0.56443703783E-01  0.34766645605E-01  0.35841679378E-01  0.75362447180E-01  0.51100000000E-03 0.  1.
         11    1    4    4    0    0  0.32215267873E-01  0.37609691496E-01  0.28426679850E-01  0.57102098270E-01  0.51100000000E-03 0. -1.
</event>
<event>
 8    1  0.1123450E+005  0.1043930E+01  0.7957747E-01            NaN
         13   -1    0    0    0    0  0.00000000000E+00  0.00000000000E+00  0.74505805969E-08  0.10566000000E+00  0.10566000000E+00 0.  1.
     999900   -1    0    0    0    0 -0.00000000000E+00 -0.00000000000E+00 -0.74505805969E-08  0.93827000000E+00  0.93827000000E+00 0.  1.
     999902    2    1    2    0    0 -0.36340882903E-02 -0.80453643315E-02  0.22783444626E-01  0.10194960107E+01  0.10192031672E+01 0.  0.
     999903    2    3    3    0    0 -0.87959999497E-01  0.91003718856E-01 -0.18999312830E-01  0.12895270517E+00  0.15785687333E-01 0.  0.
         14    1    1    2    0    0  0.36340882903E-02  0.80453643315E-02 -0.22783444626E-01  0.24433989317E-01  0.00000000000E+00 0. -1.
     999901    1    3    3    0    0  0.84325911206E-01 -0.99049083187E-01  0.41782757455E-01  0.89054330552E+00  0.88000000000E+00 0. -1.
        -11    1    4    4    0    0 -0.56924659479E-01  0.48718876206E-01 -0.79636627626E-02  0.75350028541E-01  0.51100000000E-03 0. -1.
         11    1    4    4    0    0 -0.31035340018E-01  0.42284842650E-01 -0.11035650067E-01  0.53602676625E-01  0.51100000000E-03 0.  1.
</event>
<event>
 8    1  0.1123450E+005  0.1043930E+01  0.7957747E-01            NaN
         13   -1    0    0    0    0  0.00000000000E+00  0.00000000000E+00  0.74505805969E-08  0.10566000000E+00  0.10566000000E+00 0. -1.
     999900   -1    0    0    0    0 -0.00000000000E+00 -0.00000000000E+00 -0.74505805969E-08  0.93827000000E+00  0.93827000000E+00 0.  1.
     999902    2    1    2    0    0 -0.92406756900E-02  0.24248058107E-01  0.92509640994E-02  0.10163811571E+01  0.10160077351E+01 0.  0.
     999903    2    3    3    0    0  0.18343078277E-02  0.12845936168E+00  0.11418435899E-01  0.13016033303E+00  0.17497409161E-01 0.  0.
         14    1    1    2    0    0  0.92406756900E-02 -0.24248058107E-01 -0.92509640994E-02  0.27548842914E-01  0.00000000000E+00 0.  1.
     999901    1    3    3    0    0 -0.11074983518E-01 -0.10421130358E+00 -0.21674717996E-02  0.88622082405E+00  0.88000000000E+00 0. -1.
        -11    1    4    4    0    0  0.72267431189E-02  0.29795711663E-01 -0.22346475818E-03  0.30664658927E-01  0.51100000000E-03 0.  1.
         11    1    4    4    0    0 -0.53924352912E-02  0.98663650020E-01  0.11641900657E-01  0.99495674104E-01  0.51100000000E-03 0. -1.
</event>
<event>
 8    1  0.1123450E+005  0.1043930E+01  0.7957747E-01            NaN
         13   -1    0    0    0    0  0.00000000000E+00  0.00000000000E+00  0.74505805969E-08  0.10566000000E+00  0.10566000000E+00 0.  1.
     999900   -1    0    0    0    0 -0.00000000000E+00 -0.00000000000E+00 -0.74505805969E-08  0.93827000000E+00  0.93827000000E+00 0. -1.
     999902    2    1    2    0    0 -0.20913634065E-01  0.10277606494E-01  0.41874639617E-02  0.10202541866E+01  0.10199794415E+01 0.  0.
     999903    2    3    3    0    0 -0.12558328874E+00 -0.13487726430E-01 -0.36310803694E-01  0.13280805453E+00  0.19142197087E-01 0.  0.
         14    1    1    2    0    0  0.20913634065E-01 -0.10277606494E-01 -0.41874639617E-02  0.23675813386E-01  0.00000000000E+00 0.  1.
     999901    1    3    3    0    0  0.10466965467E+00  0.23765332925E-01  0.40498267655E-01  0.88744613208E+00  0.88000000000E+00 0. -1.
        -11    1    4    4    0    0 -0.36909907132E-01  0.46617872755E-02 -0.11844521997E-01  0.39046476504E-01  0.51100000000E-03 0.  1.
         11    1    4    4    0    0 -0.88673381608E-01 -0.18149513706E-01 -0.24466281697E-01  0.93761578030E-01  0.51100000000E-03 0. -1.
</event>
<event>
 8    1  0.1123450E+005  0.1043930E+01  0.7957747E-01            NaN
         13   -1    0    0    0    0  0.00000000000E+00  0.00000000000E+00  0.74505805969E-08  0.10566000000E+00  0.10566000000E+00 0. -1.
     999900   -1    0    0    0    0 -0.00000000000E+00 -0.00000000000E+00 -0.74505805969E-08  0.93827000000E+00  0.93827000000E+00 0. -1.
     999902    2    1    2    0    0  0.10485322550E-01 -0.20960519446E-01  0.62671326313E-03  0.10204847844E+01  0.10202154268E+01 0.  0.
     999903    2    3    3    0    0 -0.11199377147E+00  0.47122027042E-01  0.36837167565E-01  0.12866217951E+00  0.20830008234E-01 0.  0.
         14    1    1    2    0    0 -0.10485322550E-01  0.20960519446E-01 -0.62671326313E-03  0.23445215588E-01  0.00000000000E+00 0. -1.
     999901    1    3    3    0    0  0.12247909402E+00 -0.68082546489E-01 -0.36210454302E-01  0.89182260490E+00  0.88000000000E+00 0. -1.
        -11    1    4    4    0    0 -0.30218899730E-01  0.33837031404E-02  0.66123460154E-02  0.31122589685E-01  0.51100000000E-03 0.  1.
         11    1    4    4    0    0 -0.81774871737E-01  0.43738323902E-01  0.30224821550E-01  0.97539589829E-01  0.51100000000E-03 0. -1.
</event>
<event>
 8    1  0.1123450E+005  0.1043930E+01  0.7957747E-01            NaN
         13   -1    0    0    0    0  0.00000000000E+00  0.00000000000E+00  0.74505805969E-08  0.10566000000E+00  0.10566000000E+00 0. -1.
     999900   -1    0    0    0    0 -0.00000000000E+00 -0.00000000000E+00 -0.74505805969E-08  0.93827000000E+00  0.93827000000E+00 0.  1.
     999902    2    1    2    0    0 -0.11061445014E-01  0.20713722240E-01  0.26195721973E-02  0.10203021348E+01  0.10200285144E+01 0.  0.
     999903    2    3    3    0    0  0.68091685236E-02  0.11640395425E-01  0.12887772330E+00  0.13106493091E+00  0.19664307016E-01 0.  0.
         14    1    1    2    0    0  0.11061445014E-01 -0.20713722240E-01 -0.26195721973E-02  0.23627865188E-01  0.00000000000E+00 0. -1.
     999901    1    3    3    0    0 -0.17870613538E-01  0.90733268155E-02 -0.12625815110E+00  0.88923720390E+00  0.88000000000E+00 0.  1.
        -11    1    4    4    0    0 -0.78347108045E-03 -0.51446648419E-02  0.22244352064E-01  0.22850683207E-01  0.51100000000E-03 0. -1.
         11    1    4    4    0    0  0.75926396040E-02  0.16785060267E-01  0.10663337123E+00  0.10821424770E+00  0.51100000000E-03 0.  1.
</event>
<event>
 8    1  0.1123450E+005  0.1043930E+01  0.7957747E-01            NaN
         13   -1    0    0    0    0  0.00000000000E+00  0.00000000000E+00  0.74505805969E-08  0.10566000000E+00  0.10566000000E+00 0.  1.
     999900   -1    0    0    0    0 -0.00000000000E+00 -0.00000000000E+00 -0.74505805969E-08  0.93827000000E+00  0.93827000000E+00 0.  1.
     999902    2    1    2    0    0  0.23134578705E-01  0.36140055373E-02 -0.52193741942E-02  0.10199401764E+01  0.10196580073E+01 0.  0.
     999903    2    3    3    0    0 -0.45171326494E-01  0.88497568907E-01  0.79359396125E-01  0.12919639486E+00  0.22836949280E-01 0.  0.
         14    1    1    2    0    0 -0.23134578705E-01 -0.36140055373E-02  0.52193741942E-02  0.23989823569E-01  0.00000000000E+00 0.  1.
     999901    1    3    3    0    0  0.68305905198E-01 -0.84883563370E-01 -0.84578770319E-01  0.89074378157E+00  0.88000000000E+00 0.  1.
        -11    1    4    4    0    0 -0.19823317901E-01  0.54054886908E-01  0.34057438441E-01  0.66895926374E-01  0.51100000000E-03 0.  1.
         11    1    4    4    0    0 -0.25348008593E-01  0.34442682000E-01  0.45301957683E-01  0.62300468489E-01  0.51100000000E-03 0. -1.
</event>
<event>
 8    1  0.1123450E+005  0.1043930E+01  0.7957747E-01            NaN
         13   -1    0    0    0    0  0.00000000000E+00  0.00000000000E+00  0.74505805969E-08  0.10566000000E+00  0.10566000000E+00 0.  1.
     999900   -1    0    0    0    0 -0.00000000000E+00 -0.00000000000E+00 -0.74505805969E-08  0.93827000000E+00  0.93827000000E+00 0.  1.
     999902    2    1    2    0    0  0.22343348629E-01  0.45650519828E-02  0.13395732748E-02  0.10210857582E+01  0.10208301848E+01 0.  0.
     999903    2    3    3    0    0  0.33171319811E-02  0.60936821999E-02  0.12985167949E+00  0.13154672302E+00  0.19873231852E-01 0.  0.
         14    1    1    2    0    0 -0.22343348629E-01 -0.45650519828E-02 -0.13395732748E-02  0.22844241815E-01  0.00000000000E+00 0. -1.
     999901    1    3    3    0    0  0.19026216648E-01 -0.15286302171E-02 -0.12851210622E+00  0.88953903516E+00  0.88000000000E+00 0.  1.
        -11    1    4    4    0    0 -0.43483025013E-03  0.36599652146E-02  0.12449209117E+00  0.12454768688E+00  0.51100000000E-03 0.  1.
         11    1    4    4    0    0  0.37519622313E-02  0.24337169853E-02  0.53595883233E-02  0.69990361440E-02  0.51100000000E-03 0. -1.
</event>
<event>
 8    1  0.1123450E+005  0.1043930E+01  0.7957747E-01            NaN
         13   -1    0    0    0    0  0.00000000000E+00  0.00000000000E+00  0.74505805969E-08  0.10566000000E+00  0.10566000000E+00 0.  1.
     999900   -1    0    0    0    0 -0.00000000000E+00 -0.00000000000E+00 -0.74505805969E-08  0.93827000000E+00  0.93827000000E+00 0.  1.
     999902    2    1    2    0    0  0.14220354032E-02  0.18371115430E-02  0.23615010056E-01  0.10202009911E+01  0.10199249955E+01 0.  0.
     999903    2    3    3    0    0 -0.83789305258E-01  0.35644640106E-01 -0.88131615414E-01  0.12840996744E+00  0.20754519016E-01 0.  0.
         14    1    1    2    0    0 -0.14220354032E-02 -0.18371115430E-02 -0.23615010056E-01  0.23729008902E-01  0.00000000000E+00 0. -1.
     999901    1    3    3    0    0  0.85211340661E-01 -0.33807528563E-01  0.11174662547E+00  0.89179102365E+00  0.88000000000E+00 0. -1.
        -11    1    4    4    0    0 -0.60736244624E-01  0.33934831216E-01 -0.59043963513E-01  0.91251931097E-01  0.51100000000E-03 0.  1.
         11    1    4    4    0    0 -0.23053060634E-01  0.17098088903E-02 -0.29087651901E-01  0.37158036347E-01  0.51100000000E-03 0. -1.
</event>
<event>
 8    1  0.1123450E+005  0.1043930E+01  0.7957747E-01            NaN
         13   -1    0    0    0    0  0.00000000000E+00  0.00000000000E+00  0.74505805969E-08  0.10566000000E+00  0.10566000000E+00 0. -1.
     999900   -1    0    0    0    0 -0.00000000000E+00 -0.00000000000E+00 -0.74505805969E-08  0.93827000000E+00  0.93827000000E+00 0.  1.
     999902    2    1    2    0    0 -0.23412836982E-01  0.34279829679E-02  0.73206788514E-03  0.10202562186E+01  0.10199815212E+01 0.  0.
     999903    2    3    3    0    0  0.11108639106E+00  0.59884414778E-01 -0.84798993167E-02  0.12820115786E+00  0.20911689872E-01 0.  0.
         14    1    1    2    0    0  0.23412836982E-01 -0.34279829679E-02 -0.73206788514E-03  0.23673781408E-01  0.00000000000E+00 0. -1.
     999901    1    3    3    0    0 -0.13449922804E+00 -0.56456431810E-01  0.92119672018E-02  0.89205506073E+00  0.88000000000E+00 0.  1.
        -11    1    4    4    0    0  0.48132233692E-01  0.24470509477E-01 -0.13920367168E-01  0.55763388503E-01  0.51100000000E-03 0.  1.
         11    1    4    4    0    0  0.62954157364E-01  0.35413905301E-01  0.54404678518E-02  0.72437769358E-01  0.51100000000E-03 0. -1.
</event>
<event>
 8    1  0.1123450E+005  0.1043930E+01  0.7957747E-01            NaN
         13   -1    0    0    0    0  0.00000000000E+00  0.00000000000E+00  0.74505805969E-08  0.10566000000E+00  0.10566000000E+00 0. -1.
     999900   -1    0    0    0    0 -0.00000000000E+00 -0.00000000000E+00 -0.74505805969E-08  0.93827000000E+00  0.93827000000E+00 0.  1.
     999902    2    1    2    0    0  0.20003032705E-01 -0.49169411048E-02 -0.12123777790E-01  0.10200284600E+01  0.10197483884E+01 0.  0.
     999903    2    3    3    0    0  0.13456029332E-01  0.95193355009E-01 -0.86910187180E-01  0.13117642411E+00  0.20273974563E-01 0.  0.
         14    1    1    2    0    0 -0.20003032705E-01  0.49169411048E-02  0.12123777790E-01  0.23901540016E-01  0.00000000000E+00 0. -1.
     999901    1    3    3    0    0  0.65470033732E-02 -0.10011029611E+00  0.74786409390E-01  0.88885203587E+00  0.88000000000E+00 0. -1.
        -11    1    4    4    0    0  0.13304302210E-01  0.28405974411E-01 -0.25141206588E-01  0.40202552522E-01  0.51100000000E-03 0. -1.
         11    1    4    4    0    0  0.15172712139E-03  0.66787380597E-01 -0.61768980592E-01  0.90973871592E-01  0.51100000000E-03 0.  1.
</event>
<event>
 8    1  0.1123450E+005  0.1043930E+01  0.7957747E-01            NaN
         13   -1    0    0    0    0  0.00000000000E+00  0.00000000000E+00  0.74505805969E-08  0.10566000000E+00  0.10566000000E+00 0. -1.
     999900   -1    0    0    0    0 -0.00000000000E+00 -0.00000000000E+00 -0.74505805969E-08  0.93827000000E+00  0.93827000000E+00 0.  1.
     999902    2    1    2    0    0 -0.21957954100E-01 -0.50137027927E-02 -0.23842115810E-02  0.10212810833E+01  0.10210299103E+01 0.  0.
     999903    2    3    3    0    0  0.11077526207E+00  0.54639021182E-01 -0.31397391523E-01  0.12885835902E+00  0.19028903613E-01 0.  0.
         14    1    1    2    0    0  0.21957954100E-01  0.50137027927E-02  0.23842115810E-02  0.22648916725E-01  0.00000000000E+00 0.  1.
     999901    1    3    3    0    0 -0.13273321617E+00 -0.59652723975E-01  0.29013179942E-01  0.89242272425E+00  0.88000000000E+00 0. -1.
        -11    1    4    4    0    0  0.19762453853E-01  0.13968723340E-01  0.43924318367E-03  0.24210201767E-01  0.51100000000E-03 0.  1.
         11    1    4    4    0    0  0.91012808218E-01  0.40670297842E-01 -0.31836634707E-01  0.10464815725E+00  0.51100000000E-03 0. -1.
</event>
<event>
 8    1  0.1123450E+005  0.1043930E+01  0.7957747E-01            NaN
         13   -1    0    0    0    0  0.00000000000E+00  0.00000000000E+00  0.74505805969E-08  0.10566000000E+00  0.10566000000E+00 0. -1.
     999900   -1    0    0    0    0 -0.00000000000E+00 -0.00000000000E+00 -0.74505805969E-08  0.93827000000E+00  0.93827000000E+00 0. -1.
     999902    2    1    2    0    0  0.19011273537E-01 -0.12707892570E-01 -0.40695965411E-02  0.10207032768E+01  0.10204389735E+01 0.  0.
     999903    2    3    3    0    0 -0.65513460923E-01 -0.10624237316E+00 -0.35282710920E-01  0.13117115915E+00  0.19533250794E-01 0.  0.
         14    1    1    2    0    0 -0.19011273537E-01  0.12707892570E-01  0.40695965411E-02  0.23226723210E-01  0.00000000000E+00 0. -1.
     999901    1    3    3    0    0  0.84524734460E-01  0.93534480594E-01  0.31213114379E-01  0.88953211764E+00  0.88000000000E+00 0.  1.
        -11    1    4    4    0    0 -0.54150974748E-01 -0.90337510557E-01 -0.22185277701E-01  0.10763661806E+00  0.51100000000E-03 0.  1.
         11    1    4    4    0    0 -0.11362486174E-01 -0.15904862607E-01 -0.13097433218E-01  0.23534541094E-01  0.51100000000E-03 0. -1.
</event>
<event>
 8    1  0.1123450E+005  0.1043930E+01  0.7957747E-01            NaN
         13   -1    0    0    0    0  0.00000000000E+00  0.00000000000E+00  0.74505805969E-08  0.10566000000E+00  0.10566000000E+00 0.  1.
     999900   -1    0    0    0    0 -0.00000000000E+00 -0.00000000000E+00 -0.74505805969E-08  0.93827000000E+00  0.93827000000E+00 0. -1.
     999902    2    1    2    0    0  0.22393013846E-01 -0.68606501349E-02  0.23414273511E-02  0.10203928406E+01  0.10201213415E+01 0.  0.
     999903    2    3    3    0    0 -0.32112538089E-01 -0.10774118005E+00  0.63642563719E-01  0.13083926392E+00  0.20716179295E-01 0.  0.
         14    1    1    2    0    0 -0.22393013846E-01  0.68606501349E-02 -0.23414273511E-02  0.23537159375E-01  0.00000000000E+00 0. -1.
     999901    1    3    3    0    0  0.54505551935E-01  0.10088052992E+00 -0.61301136368E-01  0.88955357670E+00  0.88000000000E+00 0. -1.
        -11    1    4    4    0    0 -0.24746132934E-01 -0.63107955916E-01  0.28421069311E-01  0.73505125650E-01  0.51100000000E-03 0. -1.
         11    1    4    4    0    0 -0.73664051549E-02 -0.44633224139E-01  0.35221494408E-01  0.57334138271E-01  0.51100000000E-03 0.  1.
</event>
<event>
 8    1  0.1123450E+005  0.1043930E+01  0.7957747E-01            NaN
         13   -1    0    0    0    0  0.00000000000E+00  0.00000000000E+00  0.74505805969E-08  0.10566000000E+00  0.10566000000E+00 0. -1.
     999900   -1    0    0    0    0 -0.00000000000E+00 -0.00000000000E+00 -0.74505805969E-08  0.93827000000E+00  0.93827000000E+00 0.  1.
     999902    2    1    2    0    0  0.45825121814E-02  0.11801359598E-01  0.26182601657E-01  0.10148473568E+01  0.10144305582E+01 0.  0.
     999903    2    3    3    0    0  0.98077948228E-01 -0.74151042931E-01 -0.10284845798E-01  0.12498271159E+00  0.19930856655E-01 0.  0.
         14    1    1    2    0    0 -0.45825121814E-02 -0.11801359598E-01 -0.26182601657E-01  0.29082643205E-01  0.00000000000E+00 0.  1.
     999901    1    3    3    0    0 -0.93495436047E-01  0.85952402529E-01  0.36467447455E-01  0.88986464521E+00  0.88000000000E+00 0.  1.
        -11    1    4    4    0    0  0.26883188989E-01 -0.32051280942E-01 -0.26924901048E-02  0.41922560564E-01  0.51100000000E-03 0.  1.
         11    1    4    4    0    0  0.71194759239E-01 -0.42099761989E-01 -0.75923556930E-02  0.83060151026E-01  0.51100000000E-03 0. -1.
</event>
<event>
 8    1  0.1123450E+005  0.1043930E+01  0.7957747E-01            NaN
         13   -1    0    0    0    0  0.00000000000E+00  0.00000000000E+00  0.74505805969E-08  0.10566000000E+00  0.10566000000E+00 0.  1.
     999900   -1    0    0    0    0 -0.00000000000E+00 -0.00000000000E+00 -0.74505805969E-08  0.93827000000E+00  0.93827000000E+00 0.  1.
     999902    2    1    2    0    0  0.99044093830E-02  0.17597063410E-01 -0.11690104589E-01  0.10205973510E+01  0.10203306034E+01 0.  0.
     999903    2    3    3    0    0 -0.11846282407E+00  0.35093574080E-01  0.34751544935E-01  0.12990037594E+00  0.20035921862E-01 0.  0.
         14    1    1    2    0    0 -0.99044093830E-02 -0.17597063410E-01  0.11690104589E-01  0.23332649039E-01  0.00000000000E+00 0.  1.
     999901    1    3    3    0    0  0.12836723345E+00 -0.17496510671E-01 -0.46441649524E-01  0.89069697503E+00  0.88000000000E+00 0. -1.
        -11    1    4    4    0    0 -0.74133367247E-01  0.16236434707E-01  0.12822048492E-01  0.76967811454E-01  0.51100000000E-03 0. -1.
         11    1    4    4    0    0 -0.44329456820E-01  0.18857139373E-01  0.21929496443E-01  0.52932564481E-01  0.51100000000E-03 0.  1.
</event>
<event>
 8    1  0.1123450E+005  0.1043930E+01  0.7957747E-01            NaN
         13   -1    0    0    0    0  0.00000000000E+00  0.00000000000E+00  0.74505805969E-08  0.10566000000E+00  0.10566000000E+00 0. -1.
     999900   -1    0    0    0    0 -0.00000000000E+00 -0.00000000000E+00 -0.74505805969E-08  0.93827000000E+00  0.93827000000E+00 0. -1.
     999902    2    1    2    0    0  0.12356463871E-01 -0.82894311478E-02  0.18289934861E-01  0.10203520742E+01  0.10200796227E+01 0.  0.
     999903    2    3    3    0    0 -0.25880133079E-01  0.97551634728E-01 -0.76127509961E-01  0.12817550957E+00  0.21153268185E-01 0.  0.
         14    1    1    2    0    0 -0.12356463871E-01  0.82894311478E-02 -0.18289934861E-01  0.23577925807E-01  0.00000000000E+00 0.  1.
     999901    1    3    3    0    0  0.38236596950E-01 -0.10584106588E+00  0.94417444822E-01  0.89217656462E+00  0.88000000000E+00 0. -1.
        -11    1    4    4    0    0 -0.15181564369E-01  0.58393922245E-01 -0.58078606858E-01  0.83747929810E-01  0.51100000000E-03 0. -1.
         11    1    4    4    0    0 -0.10698568710E-01  0.39157712482E-01 -0.18048903103E-01  0.44427579762E-01  0.51100000000E-03 0.  1.
</event>
<event>
 8    1  0.1123450E+005  0.1043930E+01  0.7957747E-01            NaN
         13   -1    0    0    0    0  0.00000000000E+00  0.00000000000E+00  0.74505805969E-08  0.10566000000E+00  0.10566000000E+00 0. -1.
     999900   -1    0    0    0    0 -0.00000000000E+00 -0.00000000000E+00 -0.74505805969E-08  0.93827000000E+00  0.93827000000E+00 0. -1.
     999902    2    1    2    0    0 -0.15460868536E-01  0.11404367755E-01 -0.15014250459E-01  0.10195471007E+01  0.10192554954E+01 0.  0.
     999903    2    3    3    0    0 -0.68800959886E-01  0.34541514299E-01  0.10261723913E+00  0.12981811939E+00  0.19893668971E-01 0.  0.
         14    1    1    2    0    0  0.15460868536E-01 -0.11404367755E-01  0.15014250459E-01  0.24382899266E-01  0.00000000000E+00 0.  1.
     999901    1    3    3    0    0  0.53340091351E-01 -0.23137146544E-01 -0.11763148959E+00  0.88972898134E+00  0.88000000000E+00 0. -1.
        -11    1    4    4    0    0 -0.14354131383E-01  0.63182114419E-02  0.35988612599E-01  0.39260695886E-01  0.51100000000E-03 0. -1.
         11    1    4    4    0    0 -0.54446828503E-01  0.28223302857E-01  0.66628626529E-01  0.90557423508E-01  0.51100000000E-03 0.  1.
</event>
<event>
 8    1  0.1123450E+005  0.1043930E+01  0.7957747E-01            NaN
         13   -1    0    0    0    0  0.00000000000E+00  0.00000000000E+00  0.74505805969E-08  0.10566000000E+00  0.10566000000E+00 0.  1.
     999900   -1    0    0    0    0 -0.00000000000E+00 -0.00000000000E+00 -0.74505805969E-08  0.93827000000E+00  0.93827000000E+00 0.  1.
     999902    2    1    2    0    0  0.20135573889E-01 -0.11977455430E-01 -0.34155542970E-02  0.10202537084E+01  0.10199789521E+01 0.  0.
     999903    2    3    3    0    0 -0.44156493328E-01  0.44157711493E-01 -0.11171146039E+00  0.12951658095E+00  0.19884541013E-01 0.  0.
         14    1    1    2    0    0 -0.20135573889E-01  0.11977455430E-01  0.34155542970E-02  0.23676291634E-01  0.00000000000E+00 0. -1.
     999901    1    3    3    0    0  0.64292067217E-01 -0.56135166922E-01  0.10829590610E+00  0.89073712741E+00  0.88000000000E+00 0. -1.
        -11    1    4    4    0    0 -0.19474301481E-01  0.15551359023E-01 -0.63807054555E-01  0.68503244577E-01  0.51100000000E-03 0. -1.
         11    1    4    4    0    0 -0.24682191847E-01  0.28606352470E-01 -0.47904405840E-01  0.61013336377E-01  0.51100000000E-03 0.  1.
</event>
<event>
 8    1  0.1123450E+005  0.1043930E+01  0.7957747E-01            NaN
         13   -1    0    0    0    0  0.00000000000E+00  0.00000000000E+00  0.74505805969E-08  0.10566000000E+00  0.10566000000E+00 0.  1.
     999900   -1    0    0    0    0 -0.00000000000E+00 -0.00000000000E+00 -0.74505805969E-08  0.93827000000E+00  0.93827000000E+00 0. -1.
     999902    2    1    2    0    0 -0.76906232144E-03  0.18311944681E-01  0.14398561277E-01  0.10206225475E+01  0.10203563824E+01 0.  0.
     999903    2    3    3    0    0 -0.30424531864E-01 -0.10307113242E+00 -0.66964419574E-01  0.12807942086E+00  0.19256014128E-01 0.  0.
         14    1    1    2    0    0  0.76906232144E-03 -0.18311944681E-01 -0.14398561277E-01  0.23307452493E-01  0.00000000000E+00 0. -1.
     999901    1    3    3    0    0  0.29655469543E-01  0.12138307710E+00  0.81362980851E-01  0.89254312665E+00  0.88000000000E+00 0.  1.
        -11    1    4    4    0    0 -0.23436199449E-01 -0.95665480713E-01 -0.56881975166E-01  0.11374075727E+00  0.51100000000E-03 0.  1.
         11    1    4    4    0    0 -0.69883324149E-02 -0.74056517078E-02 -0.10082444408E-01  0.14338663585E-01  0.51100000000E-03 0. -1.
</event>
<event>
 8    1  0.1123450E+005  0.1043930E+01  0.7957747E-01            NaN
         13   -1    0    0    0    0  0.00000000000E+00  0.00000000000E+00  0.74505805969E-08  0.10566000000E+00  0.10566000000E+00 0.  1.
     999900   -1    0    0    0    0 -0.00000000000E+00 -0.00000000000E+00 -0.74505805969E-08  0.93827000000E+00  0.93827000000E+00 0. -1.
     999902    2    1    2    0    0  0.18994759489E-01  0.14354977855E-01 -0.20411292243E-02  0.10200337140E+01  0.10197537669E+01 0.  0.
     999903    2    3    3    0    0 -0.15204535384E-01 -0.58602804610E-01 -0.11289081319E+00  0.12942713292E+00  0.18481894580E-01 0.  0.
         14    1    1    2    0    0 -0.18994759489E-01 -0.14354977855E-01  0.20411292243E-02  0.23896286025E-01  0.00000000000E+00 0.  1.
     999901    1    3    3    0    0  0.34199294873E-01  0.72957782465E-01  0.11084968397E+00  0.89060658106E+00  0.88000000000E+00 0. -1.
        -11    1    4    4    0    0 -0.10355400032E-01 -0.56429353126E-01 -0.97398799670E-01  0.11304111421E+00  0.51100000000E-03 0.  1.
         11    1    4    4    0    0 -0.48491353521E-02 -0.21734514843E-02 -0.15492013521E-01  0.16386018704E-01  0.51100000000E-03 0. -1.
</event>
<event>
 8    1  0.1123450E+005  0.1043930E+01  0.7957747E-01            NaN
         13   -1    0    0    0    0  0.00000000000E+00  0.00000000000E+00  0.74505805969E-08  0.10566000000E+00  0.10566000000E+00 0.  1.
     999900   -1    0    0    0    0 -0.00000000000E+00 -0.00000000000E+00 -0.74505805969E-08  0.93827000000E+00  0.93827000000E+00 0.  1.
     999902    2    1    2    0    0  0.88688366594E-02 -0.15171835441E-01  0.49257381127E-02  0.10256788699E+01  0.10255164749E+01 0.  0.
     999903    2    3    3    0    0  0.12975434971E+00 -0.37588085486E-01  0.12539537537E-01  0.13709923616E+00  0.19746015190E-01 0.  0.
         14    1    1    2    0    0 -0.88688366594E-02  0.15171835441E-01 -0.49257381127E-02  0.18251130110E-01  0.00000000000E+00 0. -1.
     999901    1    3    3    0    0 -0.12088551305E+00  0.22416250046E-01 -0.76137994240E-02  0.88857963373E+00  0.88000000000E+00 0. -1.
        -11    1    4    4    0    0  0.11289908880E+00 -0.28919396735E-01  0.48724507572E-02  0.11664706450E+00  0.51100000000E-03 0.  1.
         11    1    4    4    0    0  0.16855260906E-01 -0.86686887513E-02  0.76670867796E-02  0.20452171659E-01  0.51100000000E-03 0. -1.
</event>
<event>
 8    1  0.1123450E+005  0.1043930E+01  0.7957747E-01            NaN
         13   -1    0    0    0    0  0.00000000000E+00  0.00000000000E+00  0.74505805969E-08  0.10566000000E+00  0.10566000000E+00 0. -1.
     999900   -1    0    0    0    0 -0.00000000000E+00 -0.00000000000E+00 -0.74505805969E-08  0.93827000000E+00  0.93827000000E+00 0.  1.
     999902    2    1    2    0    0  0.28037897663E-01 -0.14343090964E-02 -0.96449873547E-02  0.10142448736E+01  0.10138103654E+01 0.  0.
     999903    2    3    3    0    0  0.99362548515E-01  0.33458893072E-01 -0.71660240517E-01  0.12849624504E+00  0.19587785640E-01 0.  0.
         14    1    1    2    0    0 -0.28037897663E-01  0.14343090964E-02  0.96449873547E-02  0.29685126394E-01  0.00000000000E+00 0. -1.
     999901    1    3    3    0    0 -0.71324650852E-01 -0.34893202168E-01  0.62015253162E-01  0.88574862856E+00  0.88000000000E+00 0. -1.
        -11    1    4    4    0    0  0.38658724071E-01  0.23206780280E-01 -0.30032004910E-01  0.54177800229E-01  0.51100000000E-03 0.  1.
         11    1    4    4    0    0  0.60703824444E-01  0.10252112792E-01 -0.41628235607E-01  0.74318444814E-01  0.51100000000E-03 0. -1.
</event>
<event>
 7    1  0.1123450E+005  0.1043930E+01  0.7957747E-01            NaN
         13   -1    0    0    0    0  0.00000000000E+00  0.00000000000E+00  0.74505805969E-08  0.10566000000E+00  0.10566000000E+00 0.  1.
     999900   -1    0    0    0    0 -0.00000000000E+00 -0.00000000000E+00 -0.74505805969E-08  0.93827000000E+00  0.93827000000E+00 0. -1.
     999903    2    1    2    0    0  0.12675781380E-01 -0.90553903020E-02  0.14316738504E+00  0.14531909534E+00  0.19443862887E-01 0.  0.
         14    1    1    2    0    0  0.37819888411E-02  0.23385989437E-02 -0.65131345438E-02  0.78862796171E-02  0.00000000000E+00 0. -1.
     999901    1    1    2    0    0 -0.16457770221E-01  0.67167913583E-02 -0.13665425049E+00  0.89072462505E+00  0.88000000000E+00 0. -1.
        -11    1    3    3    0    0 -0.38971082108E-02  0.22656259671E-02  0.18673087792E-01  0.19216291060E-01  0.51100000000E-03 0.  1.
         11    1    3    3    0    0  0.16572889591E-01 -0.11321016269E-01  0.12449429725E+00  0.12610280428E+00  0.51100000000E-03 0. -1.
</event>
<event>
 8    1  0.1123450E+005  0.1043930E+01  0.7957747E-01            NaN
         13   -1    0    0    0    0  0.00000000000E+00  0.00000000000E+00  0.74505805969E-08  0.10566000000E+00  0.10566000000E+00 0.  1.
     999900   -1    0    0    0    0 -0.00000000000E+00 -0.00000000000E+00 -0.74505805969E-08  0.93827000000E+00  0.93827000000E+00 0.  1.
     999902    2    1    2    0    0 -0.49380215715E-02 -0.14264546671E-01 -0.18729466893E-01  0.10198747661E+01  0.10195910377E+01 0.  0.
     999903    2    3    3    0    0  0.83880993736E-02 -0.12979456223E+00 -0.22304709086E-02  0.13207017786E+00  0.22815965580E-01 0.  0.
         14    1    1    2    0    0  0.49380215715E-02  0.14264546671E-01  0.18729466893E-01  0.24055233918E-01  0.00000000000E+00 0.  1.
     999901    1    3    3    0    0 -0.13326120945E-01  0.11553001556E+00 -0.16498995985E-01  0.88780458822E+00  0.88000000000E+00 0.  1.
        -11    1    4    4    0    0 -0.36115089382E-02 -0.46018212264E-01 -0.94850580719E-02  0.47126916984E-01  0.51100000000E-03 0.  1.
         11    1    4    4    0    0  0.11999608312E-01 -0.83776349963E-01  0.72545871633E-02  0.84943260879E-01  0.51100000000E-03 0. -1.
</event>
<event>
 8    1  0.1123450E+005  0.1043930E+01  0.7957747E-01            NaN
         13   -1    0    0    0    0  0.00000000000E+00  0.00000000000E+00  0.74505805969E-08  0.10566000000E+00  0.10566000000E+00 0.  1.
     999900   -1    0    0    0    0 -0.00000000000E+00 -0.00000000000E+00 -0.74505805969E-08  0.93827000000E+00  0.93827000000E+00 0.  1.
     999902    2    1    2    0    0 -0.16119906167E-03  0.10785839148E-01  0.20976178523E-01  0.10203427073E+01  0.10200700368E+01 0.  0.
     999903    2    3    3    0    0  0.11807000844E+00  0.46242780210E-01  0.28758768288E-01  0.13169408057E+00  0.20912735103E-01 0.  0.
         14    1    1    2    0    0  0.16119906167E-03 -0.10785839148E-01 -0.20976178523E-01  0.23587292695E-01  0.00000000000E+00 0.  1.
     999901    1    3    3    0    0 -0.11823120750E+00 -0.35456941062E-01 -0.77825897659E-02  0.88864862674E+00  0.88000000000E+00 0. -1.
        -11    1    4    4    0    0  0.78440741830E-01  0.19906736601E-01  0.18442680652E-01  0.83003745287E-01  0.51100000000E-03 0. -1.
         11    1    4    4    0    0  0.39629266607E-01  0.26336043608E-01  0.10316087637E-01  0.48690335282E-01  0.51100000000E-03 0.  1.
</event>
<event>
 8    1  0.1123450E+005  0.1043930E+01  0.7957747E-01            NaN
         13   -1    0    0    0    0  0.00000000000E+00  0.00000000000E+00  0.74505805969E-08  0.10566000000E+00  0.10566000000E+00 0. -1.
     999900   -1    0    0    0    0 -0.00000000000E+00 -0.00000000000E+00 -0.74505805969E-08  0.93827000000E+00  0.93827000000E+00 0. -1.
     999902    2    1    2    0    0 -0.21099111540E-01 -0.28370406540E-02 -0.95929244709E-02  0.10205795073E+01  0.10203123469E+01 0.  0.
     999903    2    3    3    0    0  0.40938919970E-01  0.20484447509E-01 -0.12171432993E+00  0.13099318847E+00  0.15787005943E-01 0.  0.
         14    1    1    2    0    0  0.21099111540E-01  0.28370406540E-02  0.95929244709E-02  0.23350492657E-01  0.00000000000E+00 0. -1.
     999901    1    3    3    0    0 -0.62038031510E-01 -0.23321488163E-01  0.11212140546E+00  0.88958631887E+00  0.88000000000E+00 0.  1.
        -11    1    4    4    0    0  0.33403507380E-01  0.88628574768E-02 -0.86681577768E-01  0.93318281131E-01  0.51100000000E-03 0. -1.
         11    1    4    4    0    0  0.75354125897E-02  0.11621590033E-01 -0.35032752164E-01  0.37674907338E-01  0.51100000000E-03 0.  1.
</event>
<event>
 8    1  0.1123450E+005  0.1043930E+01  0.7957747E-01            NaN
         13   -1    0    0    0    0  0.00000000000E+00  0.00000000000E+00  0.74505805969E-08  0.10566000000E+00  0.10566000000E+00 0.  1.
     999900   -1    0    0    0    0 -0.00000000000E+00 -0.00000000000E+00 -0.74505805969E-08  0.93827000000E+00  0.93827000000E+00 0.  1.
     999902    2    1    2    0    0  0.19658939137E-01  0.12504800626E-01 -0.34787142934E-02  0.10203727213E+01  0.10201007524E+01 0.  0.
     999903    2    3    3    0    0  0.21643202558E-02 -0.99121962132E-01 -0.81303327762E-01  0.12974189637E+00  0.19821223700E-01 0.  0.
         14    1    1    2    0    0 -0.19658939137E-01 -0.12504800626E-01  0.34787142934E-02  0.23557278702E-01  0.00000000000E+00 0. -1.
     999901    1    3    3    0    0  0.17494618881E-01  0.11162676276E+00  0.77824613469E-01  0.89063082493E+00  0.88000000000E+00 0. -1.
        -11    1    4    4    0    0  0.56021141746E-02 -0.20473649918E-01 -0.97733085058E-02  0.23373761022E-01  0.51100000000E-03 0. -1.
         11    1    4    4    0    0 -0.34377939187E-02 -0.78648312214E-01 -0.71530019256E-01  0.10636813535E+00  0.51100000000E-03 0.  1.
</event>
<event>
 8    1  0.1123450E+005  0.1043930E+01  0.7957747E-01            NaN
         13   -1    0    0    0    0  0.00000000000E+00  0.00000000000E+00  0.74505805969E-08  0.10566000000E+00  0.10566000000E+00 0. -1.
     999900   -1    0    0    0    0 -0.00000000000E+00 -0.00000000000E+00 -0.74505805969E-08  0.93827000000E+00  0.93827000000E+00 0.  1.
     999902    2    1    2    0    0  0.24121821333E-01 -0.11601753208E-02  0.54666152250E-03  0.10197741082E+01  0.10194879718E+01 0.  0.
     999903    2    3    3    0    0  0.21761246426E-01  0.75165143572E-01  0.10257518245E+00  0.13059417942E+00  0.20244035901E-01 0.  0.
         14    1    1    2    0    0 -0.24121821333E-01  0.11601753208E-02 -0.54666152250E-03  0.24155891829E-01  0.00000000000E+00 0. -1.
     999901    1    3    3    0    0  0.23605749078E-02 -0.76325318893E-01 -0.10202852092E+00  0.88917992875E+00  0.88000000000E+00 0.  1.
        -11    1    4    4    0    0  0.61020622274E-02  0.52635876069E-01  0.61298246048E-01  0.81027814376E-01  0.51100000000E-03 0.  1.
         11    1    4    4    0    0  0.15659184198E-01  0.22529267502E-01  0.41276936398E-01  0.49566365041E-01  0.51100000000E-03 0. -1.
</event>
<event>
 8    1  0.1123450E+005  0.1043930E+01  0.7957747E-01            NaN
         13   -1    0    0    0    0  0.00000000000E+00  0.00000000000E+00  0.74505805969E-08  0.10566000000E+00  0.10566000000E+00 0.  1.
     999900   -1    0    0    0    0 -0.00000000000E+00 -0.00000000000E+00 -0.74505805969E-08  0.93827000000E+00  0.93827000000E+00 0. -1.
     999902    2    1    2    0    0 -0.44462150634E-02  0.15510371423E-01 -0.17688937157E-01  0.10199875910E+01  0.10197065494E+01 0.  0.
     999903    2    3    3    0    0  0.44501486976E-01 -0.88266597013E-01  0.77865771305E-01  0.12740916924E+00  0.19966060569E-01 0.  0.
         14    1    1    2    0    0  0.44462150634E-02 -0.15510371423E-01  0.17688937157E-01  0.23942408981E-01  0.00000000000E+00 0.  1.
     999901    1    3    3    0    0 -0.48947702039E-01  0.10377696844E+00 -0.95554708462E-01  0.89257842178E+00  0.88000000000E+00 0. -1.
        -11    1    4    4    0    0  0.55274561489E-02 -0.20039140035E-01  0.80503869246E-02  0.22297752251E-01  0.51100000000E-03 0. -1.
         11    1    4    4    0    0  0.38974030827E-01 -0.68227456978E-01  0.69815384380E-01  0.10511141699E+00  0.51100000000E-03 0.  1.
</event>
<event>
 8    1  0.1123450E+005  0.1043930E+01  0.7957747E-01            NaN
         13   -1    0    0    0    0  0.00000000000E+00  0.00000000000E+00  0.74505805969E-08  0.10566000000E+00  0.10566000000E+00 0.  1.
     999900   -1    0    0    0    0 -0.00000000000E+00 -0.00000000000E+00 -0.74505805969E-08  0.93827000000E+00  0.93827000000E+00 0. -1.
     999902    2    1    2    0    0 -0.13723386665E-01  0.13836402056E-01 -0.18268003828E-02  0.10243566875E+01  0.10241696679E+01 0.  0.
     999903    2    3    3    0    0  0.10846140475E+00 -0.47309948992E-01 -0.55680079946E-01  0.13218620197E+00  0.19256507836E-01 0.  0.
         14    1    1    2    0    0  0.13723386665E-01 -0.13836402056E-01  0.18268003828E-02  0.19573312522E-01  0.00000000000E+00 0.  1.
     999901    1    3    3    0    0 -0.12218479141E+00  0.61146351049E-01  0.53853279564E-01  0.89217048551E+00  0.88000000000E+00 0.  1.
        -11    1    4    4    0    0  0.73931584607E-01 -0.22299582035E-01 -0.37160288047E-01  0.85698883832E-01  0.51100000000E-03 0.  1.
         11    1    4    4    0    0  0.34529820140E-01 -0.25010366958E-01 -0.18519791900E-01  0.46487318134E-01  0.51100000000E-03 0. -1.
</event>
<event>
 8    1  0.1123450E+005  0.1043930E+01  0.7957747E-01            NaN
         13   -1    0    0    0    0  0.00000000000E+00  0.00000000000E+00  0.74505805969E-08  0.10566000000E+00  0.10566000000E+00 0.  1.
     999900   -1    0    0    0    0 -0.00000000000E+00 -0.00000000000E+00 -0.74505805969E-08  0.93827000000E+00  0.93827000000E+00 0. -1.
     999902    2    1    2    0    0  0.11493275854E-01 -0.18972193326E-01  0.71501773565E-02  0.10206241092E+01  0.10203579802E+01 0.  0.
     999903    2    3    3    0    0 -0.57894959141E-01  0.10864208305E+00 -0.28724360750E-01  0.12799478346E+00  0.20066070643E-01 0.  0.
         14    1    1    2    0    0 -0.11493275854E-01  0.18972193326E-01 -0.71501773565E-02  0.23305890794E-01  0.00000000000E+00 0.  1.
     999901    1    3    3    0    0  0.69388234996E-01 -0.12761427637E+00  0.35874538107E-01  0.89262932574E+00  0.88000000000E+00 0.  1.
        -11    1    4    4    0    0 -0.76293308144E-02  0.32517758891E-01 -0.99959296883E-02  0.34868195584E-01  0.51100000000E-03 0. -1.
         11    1    4    4    0    0 -0.50265628327E-01  0.76124324155E-01 -0.18728431062E-01  0.93126587880E-01  0.51100000000E-03 0.  1.
</event>
<event>
 8    1  0.1123450E+005  0.1043930E+01  0.7957747E-01            NaN
         13   -1    0    0    0    0  0.00000000000E+00  0.00000000000E+00  0.74505805969E-08  0.10566000000E+00  0.10566000000E+00 0.  1.
     999900   -1    0    0    0    0 -0.00000000000E+00 -0.00000000000E+00 -0.74505805969E-08  0.93827000000E+00  0.93827000000E+00 0.  1.
     999902    2    1    2    0    0 -0.17482116073E-01  0.50314912941E-02 -0.32503156524E-01  0.10066822421E+01  0.10059929130E+01 0.  0.
     999903    2    3    3    0    0 -0.45591386108E-01  0.10866569859E+00 -0.24904379467E-02  0.11964732547E+00  0.20554115762E-01 0.  0.
         14    1    1    2    0    0  0.17482116073E-01 -0.50314912941E-02  0.32503156524E-01  0.37247757933E-01  0.00000000000E+00 0.  1.
     999901    1    3    3    0    0  0.28109270035E-01 -0.10363420729E+00 -0.30012718577E-01  0.88703491660E+00  0.88000000000E+00 0. -1.
        -11    1    4    4    0    0 -0.11864954093E-01  0.24585904198E-01 -0.91838877031E-02  0.28807095223E-01  0.51100000000E-03 0.  1.
         11    1    4    4    0    0 -0.33726432015E-01  0.84079794389E-01  0.66934497564E-02  0.90840230248E-01  0.51100000000E-03 0. -1.
</event>
<event>
 8    1  0.1218214E+005  0.1043930E+01  0.7957747E-01            NaN
         13   -1    0    0    0    0  0.00000000000E+00  0.00000000000E+00  0.74505805969E-08  0.10566000000E+00  0.10566000000E+00 0.  1.
     999900   -1    0    0    0    0 -0.00000000000E+00 -0.00000000000E+00 -0.74505805969E-08  0.93827000000E+00  0.93827000000E+00 0.  1.
     999902    2    1    2    0    0 -0.60876557325E-02  0.18135407783E-01  0.13257532038E-01  0.10206552342E+01  0.10203898237E+01 0.  0.
     999903    2    3    3    0    0 -0.34501208046E-01 -0.12043356548E+00  0.23684151114E-01  0.12929817628E+00  0.21505867173E-01 0.  0.
         14    1    1    2    0    0  0.60876557325E-02 -0.18135407783E-01 -0.13257532038E-01  0.23274765810E-01  0.00000000000E+00 0. -1.
     999901    1    3    3    0    0  0.28413552314E-01  0.13856897327E+00 -0.10426619076E-01  0.89135705791E+00  0.88000000000E+00 0.  1.
        -11    1    4    4    0    0 -0.94243940251E-02 -0.70045519591E-01  0.10099252133E-01  0.71396428707E-01  0.51100000000E-03 0.  1.
         11    1    4    4    0    0 -0.25076814021E-01 -0.50388045892E-01  0.13584898980E-01  0.57901747570E-01  0.51100000000E-03 0. -1.
</event>
<event>
 8    1  0.1123450E+005  0.1043930E+01  0.7957747E-01            NaN
         13   -1    0    0    0    0  0.00000000000E+00  0.00000000000E+00  0.74505805969E-08  0.10566000000E+00  0.10566000000E+00 0.  1.
     999900   -1    0    0    0    0 -0.00000000000E+00 -0.00000000000E+00 -0.74505805969E-08  0.93827000000E+00  0.93827000000E+00 0. -1.
     999902    2    1    2    0    0 -0.17002859564E-01  0.10232082863E-01  0.24088934928E-02  0.10239401145E+01  0.10237449695E+01 0.  0.
     999903    2    3    3    0    0  0.25172276097E-01  0.43814605923E-01 -0.12211713039E+00  0.13353949765E+00  0.19153086489E-01 0.  0.
         14    1    1    2    0    0  0.17002859564E-01 -0.10232082863E-01 -0.24088934928E-02  0.19989885466E-01  0.00000000000E+00 0. -1.
     999901    1    3    3    0    0 -0.42175135661E-01 -0.33582523060E-01  0.12452602388E+00  0.89040061688E+00  0.88000000000E+00 0.  1.
        -11    1    4    4    0    0  0.35340248678E-02  0.19397232083E-01 -0.63001515293E-01  0.66016619077E-01  0.51100000000E-03 0.  1.
         11    1    4    4    0    0  0.21638251229E-01  0.24417373840E-01 -0.59115615097E-01  0.67522878573E-01  0.51100000000E-03 0. -1.
</event>
<event>
 8    1  0.1123450E+005  0.1043930E+01  0.7957747E-01            NaN
         13   -1    0    0    0    0  0.00000000000E+00  0.00000000000E+00  0.74505805969E-08  0.10566000000E+00  0.10566000000E+00 0. -1.
     999900   -1    0    0    0    0 -0.00000000000E+00 -0.00000000000E+00 -0.74505805969E-08  0.93827000000E+00  0.93827000000E+00 0. -1.
     999902    2    1    2    0    0 -0.14040620926E-01  0.68818874979E-02 -0.16978920003E-01  0.10208479044E+01  0.10205869198E+01 0.  0.
     999903    2    3    3    0    0 -0.90325332764E-01  0.21075698128E-01  0.90202262299E-01  0.13095542364E+00  0.20249051011E-01 0.  0.
         14    1    1    2    0    0  0.14040620926E-01 -0.68818874979E-02  0.16978920003E-01  0.23082095572E-01  0.00000000000E+00 0.  1.
     999901    1    3    3    0    0  0.76284711839E-01 -0.14193810630E-01 -0.10718118230E+00  0.88989248079E+00  0.88000000000E+00 0. -1.
        -11    1    4    4    0    0 -0.22322703299E-01 -0.32477907103E-02  0.24671859068E-01  0.33433710203E-01  0.51100000000E-03 0.  1.
         11    1    4    4    0    0 -0.68002629465E-01  0.24323488838E-01  0.65530403231E-01  0.97521713439E-01  0.51100000000E-03 0. -1.
</event>
<event>
 8    1  0.1123450E+005  0.1043930E+01  0.7957747E-01            NaN
         13   -1    0    0    0    0  0.00000000000E+00  0.00000000000E+00  0.74505805969E-08  0.10566000000E+00  0.10566000000E+00 0. -1.
     999900   -1    0    0    0    0 -0.00000000000E+00 -0.00000000000E+00 -0.74505805969E-08  0.93827000000E+00  0.93827000000E+00 0.  1.
     999902    2    1    2    0    0  0.20148666727E-01  0.23272299610E-02  0.13280506885E-01  0.10196863074E+01  0.10193980620E+01 0.  0.
     999903    2    3    3    0    0  0.72071373223E-01 -0.31411490094E-02 -0.10638284998E+00  0.13005425442E+00  0.19815364476E-01 0.  0.
         14    1    1    2    0    0 -0.20148666727E-01 -0.23272299610E-02 -0.13280506885E-01  0.24243692649E-01  0.00000000000E+00 0.  1.
     999901    1    3    3    0    0 -0.51922706496E-01  0.54683789704E-02  0.11966335686E+00  0.88963205293E+00  0.88000000000E+00 0. -1.
        -11    1    4    4    0    0  0.52374967819E-01 -0.60482746602E-02 -0.61869316695E-01  0.81288328496E-01  0.51100000000E-03 0.  1.
         11    1    4    4    0    0  0.19696405404E-01  0.29071256508E-02 -0.44513533282E-01  0.48765925928E-01  0.51100000000E-03 0. -1.
</event>
<event>
 8    1  0.1123450E+005  0.1043930E+01  0.7957747E-01            NaN
         13   -1    0    0    0    0  0.00000000000E+00  0.00000000000E+00  0.74505805969E-08  0.10566000000E+00  0.10566000000E+00 0. -1.
     999900   -1    0    0    0    0 -0.00000000000E+00 -0.00000000000E+00 -0.74505805969E-08  0.93827000000E+00  0.93827000000E+00 0. -1.
     999902    2    1    2    0    0  0.69409916601E-02 -0.74889505759E-02  0.12904243919E-01  0.10274745676E+01  0.10273427888E+01 0.  0.
     999903    2    3    3    0    0 -0.56411586498E-01 -0.40182323655E-01 -0.11475560057E+00  0.13540986043E+00  0.19237884852E-01 0.  0.
         14    1    1    2    0    0 -0.69409916601E-02  0.74889505759E-02 -0.12904243919E-01  0.16455432449E-01  0.00000000000E+00 0.  1.
     999901    1    3    3    0    0  0.63352578158E-01  0.32693373079E-01  0.12765984449E+00  0.89206470712E+00  0.88000000000E+00 0.  1.
        -11    1    4    4    0    0 -0.30624208762E-01 -0.16914913913E-01 -0.41113954961E-01  0.53986802910E-01  0.51100000000E-03 0. -1.
         11    1    4    4    0    0 -0.25787377737E-01 -0.23267409741E-01 -0.73641645607E-01  0.81423057516E-01  0.51100000000E-03 0.  1.
</event>
<event>
 8    1  0.1123450E+005  0.1043930E+01  0.7957747E-01            NaN
         13   -1    0    0    0    0  0.00000000000E+00  0.00000000000E+00  0.74505805969E-08  0.10566000000E+00  0.10566000000E+00 0. -1.
     999900   -1    0    0    0    0 -0.00000000000E+00 -0.00000000000E+00 -0.74505805969E-08  0.93827000000E+00  0.93827000000E+00 0.  1.
     999902    2    1    2    0    0 -0.21129436804E-01 -0.20782632314E-01  0.80400209192E-02  0.10132214858E+01  0.10127560252E+01 0.  0.
     999903    2    3    3    0    0 -0.37570768373E-01 -0.99190177255E-01 -0.66183913788E-01  0.12647053266E+00  0.19084844409E-01 0.  0.
         14    1    1    2    0    0  0.21129436804E-01  0.20782632314E-01 -0.80400209192E-02  0.30708514160E-01  0.00000000000E+00 0. -1.
     999901    1    3    3    0    0  0.16441331569E-01  0.78407544941E-01  0.74223934707E-01  0.88675095318E+00  0.88000000000E+00 0. -1.
        -11    1    4    4    0    0 -0.34988584467E-01 -0.68312010281E-01 -0.45845601400E-01  0.89402528378E-01  0.51100000000E-03 0.  1.
         11    1    4    4    0    0 -0.25821839058E-02 -0.30878166975E-01 -0.20338312388E-01  0.37068004279E-01  0.51100000000E-03 0. -1.
</event>
<event>
 8    1  0.1123450E+005  0.1043930E+01  0.7957747E-01            NaN
         13   -1    0    0    0    0  0.00000000000E+00  0.00000000000E+00  0.74505805969E-08  0.10566000000E+00  0.10566000000E+00 0.  1.
     999900   -1    0    0    0    0 -0.00000000000E+00 -0.00000000000E+00 -0.74505805969E-08  0.93827000000E+00  0.93827000000E+00 0.  1.
     999902    2    1    2    0    0  0.85406413113E-02 -0.21231488294E-01  0.61006078374E-02  0.10202459111E+01  0.10199709717E+01 0.  0.
     999903    2    3    3    0    0  0.10009958898E+00  0.40326864802E-01  0.71632898534E-01  0.13093890405E+00  0.19171351088E-01 0.  0.
         14    1    1    2    0    0 -0.85406413113E-02  0.21231488294E-01 -0.61006078374E-02  0.23684088861E-01  0.00000000000E+00 0.  1.
     999901    1    3    3    0    0 -0.91558947669E-01 -0.61558353096E-01 -0.65532290697E-01  0.88930700709E+00  0.88000000000E+00 0.  1.
        -11    1    4    4    0    0  0.25318269158E-01  0.90558216537E-02  0.85301425675E-02  0.28214306871E-01  0.51100000000E-03 0. -1.
         11    1    4    4    0    0  0.74781319822E-01  0.31271043148E-01  0.63102755967E-01  0.10272459718E+00  0.51100000000E-03 0.  1.
</event>
<event>
 8    1  0.1123450E+005  0.1043930E+01  0.7957747E-01            NaN
         13   -1    0    0    0    0  0.00000000000E+00  0.00000000000E+00  0.74505805969E-08  0.10566000000E+00  0.10566000000E+00 0.  1.
     999900   -1    0    0    0    0 -0.00000000000E+00 -0.00000000000E+00 -0.74505805969E-08  0.93827000000E+00  0.93827000000E+00 0.  1.
     999902    2    1    2    0    0  0.17892082549E-01 -0.68009362377E-02 -0.13781936269E-01  0.10203435395E+01  0.10200708885E+01 0.  0.
     999903    2    3    3    0    0 -0.76328491043E-01 -0.60849923263E-01 -0.84398162360E-01  0.13085747391E+00  0.21722729178E-01 0.  0.
         14    1    1    2    0    0 -0.17892082549E-01  0.68009362377E-02  0.13781936269E-01  0.23586460501E-01  0.00000000000E+00 0.  1.
     999901    1    3    3    0    0  0.94220573592E-01  0.54048987025E-01  0.70616226091E-01  0.88948606559E+00  0.88000000000E+00 0. -1.
        -11    1    4    4    0    0 -0.49483100859E-01 -0.42656632509E-01 -0.68765454691E-01  0.94853120389E-01  0.51100000000E-03 0.  1.
         11    1    4    4    0    0 -0.26845390183E-01 -0.18193290754E-01 -0.15632707669E-01  0.36004353523E-01  0.51100000000E-03 0. -1.
</event>
<event>
 8    1  0.1123450E+005  0.1043930E+01  0.7957747E-01            NaN
         13   -1    0    0    0    0  0.00000000000E+00  0.00000000000E+00  0.74505805969E-08  0.10566000000E+00  0.10566000000E+00 0. -1.
     999900   -1    0    0    0    0 -0.00000000000E+00 -0.00000000000E+00 -0.74505805969E-08  0.93827000000E+00  0.93827000000E+00 0. -1.
     999902    2    1    2    0    0  0.17474700389E-01  0.16396003010E-01 -0.26458588915E-02  0.10198220213E+01  0.10195370324E+01 0.  0.
     999903    2    3    3    0    0 -0.10077400791E+00 -0.52728326655E-01 -0.55901875783E-01  0.12763530691E+00  0.15168215206E-01 0.  0.
         14    1    1    2    0    0 -0.17474700389E-01 -0.16396003010E-01  0.26458588915E-02  0.24107978714E-01  0.00000000000E+00 0.  1.
     999901    1    3    3    0    0  0.11824870830E+00  0.69124329665E-01  0.53256016892E-01  0.89218671437E+00  0.88000000000E+00 0. -1.
        -11    1    4    4    0    0 -0.59895375772E-01 -0.24762570271E-01 -0.26411526154E-01  0.69989076005E-01  0.51100000000E-03 0.  1.
         11    1    4    4    0    0 -0.40878632140E-01 -0.27965756384E-01 -0.29490349629E-01  0.57646230909E-01  0.51100000000E-03 0. -1.
</event>
<event>
 8    1  0.1123450E+005  0.1043930E+01  0.7957747E-01            NaN
         13   -1    0    0    0    0  0.00000000000E+00  0.00000000000E+00  0.74505805969E-08  0.10566000000E+00  0.10566000000E+00 0. -1.
     999900   -1    0    0    0    0 -0.00000000000E+00 -0.00000000000E+00 -0.74505805969E-08  0.93827000000E+00  0.93827000000E+00 0. -1.
     999902    2    1    2    0    0  0.44325724581E-03 -0.36811925855E-01  0.56670937348E-03  0.10071110440E+01  0.10064377872E+01 0.  0.
     999903    2    3    3    0    0  0.93399569787E-01  0.55456011202E-01 -0.37351550442E-01  0.11661003743E+00  0.20097604212E-01 0.  0.
         14    1    1    2    0    0 -0.44325724581E-03  0.36811925855E-01 -0.56670937348E-03  0.36818956010E-01  0.00000000000E+00 0.  1.
     999901    1    3    3    0    0 -0.92956312541E-01 -0.92267937057E-01  0.37918259816E-01  0.89050100656E+00  0.88000000000E+00 0.  1.
        -11    1    4    4    0    0  0.31309121269E-01  0.20486114137E-01 -0.31118919189E-02  0.37548461212E-01  0.51100000000E-03 0.  1.
         11    1    4    4    0    0  0.62090448518E-01  0.34969897066E-01 -0.34239658523E-01  0.79061576222E-01  0.51100000000E-03 0. -1.
</event>
<event>
 8    1  0.1123450E+005  0.1043930E+01  0.7957747E-01            NaN
         13   -1    0    0    0    0  0.00000000000E+00  0.00000000000E+00  0.74505805969E-08  0.10566000000E+00  0.10566000000E+00 0.  1.
     999900   -1    0    0    0    0 -0.00000000000E+00 -0.00000000000E+00 -0.74505805969E-08  0.93827000000E+00  0.93827000000E+00 0. -1.
     999902    2    1    2    0    0 -0.67367944016E-02  0.15040704205E-01  0.17199283910E-01  0.10201093672E+01  0.10198312108E+01 0.  0.
     999903    2    3    3    0    0 -0.77803627772E-01  0.35808266273E-01  0.99927968926E-01  0.13313370697E+00  0.20083538815E-01 0.  0.
         14    1    1    2    0    0  0.67367944016E-02 -0.15040704205E-01 -0.17199283910E-01  0.23820632838E-01  0.00000000000E+00 0. -1.
     999901    1    3    3    0    0  0.71066833370E-01 -0.20767562069E-01 -0.82728685016E-01  0.88697566019E+00  0.88000000000E+00 0. -1.
        -11    1    4    4    0    0 -0.48186682701E-01  0.26277434203E-01  0.49688358755E-01  0.74038193217E-01  0.51100000000E-03 0. -1.
         11    1    4    4    0    0 -0.29616945071E-01  0.95308320704E-02  0.50239610170E-01  0.59095513758E-01  0.51100000000E-03 0.  1.
</event>
<event>
 8    1  0.1123450E+005  0.1043930E+01  0.7957747E-01            NaN
         13   -1    0    0    0    0  0.00000000000E+00  0.00000000000E+00  0.74505805969E-08  0.10566000000E+00  0.10566000000E+00 0.  1.
     999900   -1    0    0    0    0 -0.00000000000E+00 -0.00000000000E+00 -0.74505805969E-08  0.93827000000E+00  0.93827000000E+00 0. -1.
     999902    2    1    2    0    0  0.86696430845E-02  0.20474558383E-01  0.23857631753E-02  0.10215679313E+01  0.10213231497E+01 0.  0.
     999903    2    3    3    0    0  0.24100070358E-01  0.11204725485E+00  0.67455645533E-01  0.13429246873E+00  0.18676250517E-01 0.  0.
         14    1    1    2    0    0 -0.86696430845E-02 -0.20474558383E-01 -0.23857631753E-02  0.22362068736E-01  0.00000000000E+00 0.  1.
     999901    1    3    3    0    0 -0.15430427273E-01 -0.91572696465E-01 -0.65069882357E-01  0.88727546253E+00  0.88000000000E+00 0.  1.
        -11    1    4    4    0    0  0.44719434944E-02  0.55493594360E-01  0.25815983000E-01  0.61369889953E-01  0.51100000000E-03 0.  1.
         11    1    4    4    0    0  0.19628126863E-01  0.56553660488E-01  0.41639662533E-01  0.72922578778E-01  0.51100000000E-03 0. -1.
</event>
<event>
 8    1  0.1123450E+005  0.1043930E+01  0.7957747E-01            NaN
         13   -1    0    0    0    0  0.00000000000E+00  0.00000000000E+00  0.74505805969E-08  0.10566000000E+00  0.10566000000E+00 0.  1.
     999900   -1    0    0    0    0 -0.00000000000E+00 -0.00000000000E+00 -0.74505805969E-08  0.93827000000E+00  0.93827000000E+00 0.  1.
     999902    2    1    2    0    0  0.17103152192E-03  0.15633218627E-02 -0.24077362060E-01  0.10198013326E+01  0.10195158485E+01 0.  0.
     999903    2    3    3    0    0  0.41203576785E-01  0.11309391671E+00  0.41810359498E-01  0.12937225894E+00  0.22385407876E-01 0.  0.
         14    1    1    2    0    0 -0.17103152192E-03 -0.15633218627E-02  0.24077362060E-01  0.24128667406E-01  0.00000000000E+00 0.  1.
     999901    1    3    3    0    0 -0.41032545263E-01 -0.11153059484E+00 -0.65887721558E-01  0.89042907365E+00  0.88000000000E+00 0. -1.
        -11    1    4    4    0    0  0.20746066005E-01  0.57471498795E-01  0.94012459421E-02  0.61822463351E-01  0.51100000000E-03 0. -1.
         11    1    4    4    0    0  0.20457510779E-01  0.55622417912E-01  0.32409113556E-01  0.67549795589E-01  0.51100000000E-03 0.  1.
</event>
<event>
 8    1  0.1123450E+005  0.1043930E+01  0.7957747E-01            NaN
         13   -1    0    0    0    0  0.00000000000E+00  0.00000000000E+00  0.74505805969E-08  0.10566000000E+00  0.10566000000E+00 0. -1.
     999900   -1    0    0    0    0 -0.00000000000E+00 -0.00000000000E+00 -0.74505805969E-08  0.93827000000E+00  0.93827000000E+00 0.  1.
     999902    2    1    2    0    0  0.16370626956E-01 -0.15330114859E-01  0.55316725923E-02  0.10208300162E+01  0.10205686223E+01 0.  0.
     999903    2    3    3    0    0  0.12257114912E+00  0.15112059604E-01  0.44990060306E-01  0.13304499650E+00  0.20610789073E-01 0.  0.
         14    1    1    2    0    0 -0.16370626956E-01  0.15330114859E-01 -0.55316725923E-02  0.23099983771E-01  0.00000000000E+00 0.  1.
     999901    1    3    3    0    0 -0.10620052216E+00 -0.30442174463E-01 -0.39458387714E-01  0.88778501973E+00  0.88000000000E+00 0.  1.
        -11    1    4    4    0    0  0.25677158911E-01 -0.16105170982E-02  0.16890866510E-01  0.30781045264E-01  0.51100000000E-03 0.  1.
         11    1    4    4    0    0  0.96893990206E-01  0.16722576703E-01  0.28099193796E-01  0.10226395124E+00  0.51100000000E-03 0. -1.
</event>
<event>
 8    1  0.1123450E+005  0.1043930E+01  0.7957747E-01            NaN
         13   -1    0    0    0    0  0.00000000000E+00  0.00000000000E+00  0.74505805969E-08  0.10566000000E+00  0.10566000000E+00 0. -1.
     999900   -1    0    0    0    0 -0.00000000000E+00 -0.00000000000E+00 -0.74505805969E-08  0.93827000000E+00  0.93827000000E+00 0.  1.
     999902    2    1    2    0    0  0.12565380145E-01 -0.10924585439E-01 -0.12755576586E-01  0.10229552514E+01  0.10227401949E+01 0.  0.
     999903    2    3    3    0    0 -0.71067119541E-01 -0.90400593799E-01 -0.65195845133E-01  0.13387662007E+00  0.21204913088E-01 0.  0.
         14    1    1    2    0    0 -0.12565380145E-01  0.10924585439E-01  0.12755576586E-01  0.20974748610E-01  0.00000000000E+00 0.  1.
     999901    1    3    3    0    0  0.83632499686E-01  0.79476008360E-01  0.52440268547E-01  0.88907863132E+00  0.88000000000E+00 0. -1.
        -11    1    4    4    0    0 -0.48975710677E-01 -0.74097839266E-01 -0.43625097614E-01  0.98957163879E-01  0.51100000000E-03 0. -1.
         11    1    4    4    0    0 -0.22091408864E-01 -0.16302754533E-01 -0.21570747519E-01  0.34919456189E-01  0.51100000000E-03 0.  1.
</event>
<event>
 8    1  0.1123450E+005  0.1043930E+01  0.7957747E-01            NaN
         13   -1    0    0    0    0  0.00000000000E+00  0.00000000000E+00  0.74505805969E-08  0.10566000000E+00  0.10566000000E+00 0. -1.
     999900   -1    0    0    0    0 -0.00000000000E+00 -0.00000000000E+00 -0.74505805969E-08  0.93827000000E+00  0.93827000000E+00 0. -1.
     999902    2    1    2    0    0  0.20047661434E-01 -0.25694192322E-02 -0.11129569937E-01  0.10208566827E+01  0.10205958988E+01 0.  0.
     999903    2    3    3    0    0  0.42063063408E-01  0.12065072475E+00  0.22607621366E-01  0.13135902678E+00  0.20449711198E-01 0.  0.
         14    1    1    2    0    0 -0.20047661434E-01  0.25694192322E-02  0.11129569937E-01  0.23073317298E-01  0.00000000000E+00 0.  1.
     999901    1    3    3    0    0 -0.22015401974E-01 -0.12322014398E+00 -0.33737191303E-01  0.88949765592E+00  0.88000000000E+00 0.  1.
        -11    1    4    4    0    0  0.91667827767E-02  0.56545409471E-01  0.80592755922E-02  0.57850032695E-01  0.51100000000E-03 0.  1.
         11    1    4    4    0    0  0.32896280631E-01  0.64105315278E-01  0.14548345773E-01  0.73508994089E-01  0.51100000000E-03 0. -1.
</event>
<event>
 8    1  0.1123450E+005  0.1043930E+01  0.7957747E-01            NaN
         13   -1    0    0    0    0  0.00000000000E+00  0.00000000000E+00  0.74505805969E-08  0.10566000000E+00  0.10566000000E+00 0.  1.
     999900   -1    0    0    0    0 -0.00000000000E+00 -0.00000000000E+00 -0.74505805969E-08  0.93827000000E+00  0.93827000000E+00 0. -1.
     999902    2    1    2    0    0 -0.12628531218E-01 -0.10706519000E-03 -0.19807632774E-01  0.10204388617E+01  0.10201684355E+01 0.  0.
     999903    2    3    3    0    0 -0.78160487744E-01  0.87026176084E-01 -0.59715708133E-01  0.13281321224E+00  0.19767811686E-01 0.  0.
         14    1    1    2    0    0  0.12628531218E-01  0.10706519000E-03  0.19807632774E-01  0.23491138325E-01  0.00000000000E+00 0.  1.
     999901    1    3    3    0    0  0.65531956525E-01 -0.87133241274E-01  0.39908075359E-01  0.88762564944E+00  0.88000000000E+00 0.  1.
        -11    1    4    4    0    0 -0.55592369693E-02  0.16288888366E-01 -0.10002097847E-01  0.19913213759E-01  0.51100000000E-03 0.  1.
         11    1    4    4    0    0 -0.72601250774E-01  0.70737287718E-01 -0.49713610286E-01  0.11289999848E+00  0.51100000000E-03 0. -1.
</event>
<event>
 8    1  0.1123450E+005  0.1043930E+01  0.7957747E-01            NaN
         13   -1    0    0    0    0  0.00000000000E+00  0.00000000000E+00  0.74505805969E-08  0.10566000000E+00  0.10566000000E+00 0.  1.
     999900   -1    0    0    0    0 -0.00000000000E+00 -0.00000000000E+00 -0.74505805969E-08  0.93827000000E+00  0.93827000000E+00 0.  1.
     999902    2    1    2    0    0  0.46534781176E-02 -0.72585895447E-02 -0.21141997419E-01  0.10210974348E+01  0.10208421255E+01 0.  0.
     999903    2    3    3    0    0 -0.12436132314E+00 -0.34015728324E-01 -0.15062885422E-01  0.13126727173E+00  0.19529404641E-01 0.  0.
         14    1    1    2    0    0 -0.46534781176E-02  0.72585895447E-02  0.21141997419E-01  0.22832565244E-01  0.00000000000E+00 0.  1.
     999901    1    3    3    0    0  0.12901480125E+00  0.26757138779E-01 -0.60791119971E-02  0.88983016302E+00  0.88000000000E+00 0.  1.
        -11    1    4    4    0    0 -0.37522130716E-01 -0.13989779007E-02 -0.64849071472E-02  0.38107513358E-01  0.51100000000E-03 0.  1.
         11    1    4    4    0    0 -0.86839192421E-01 -0.32616750423E-01 -0.85779782749E-02  0.93159758377E-01  0.51100000000E-03 0. -1.
</event>
<event>
 8    1  0.1123450E+005  0.1043930E+01  0.7957747E-01            NaN
         13   -1    0    0    0    0  0.00000000000E+00  0.00000000000E+00  0.74505805969E-08  0.10566000000E+00  0.10566000000E+00 0. -1.
     999900   -1    0    0    0    0 -0.00000000000E+00 -0.00000000000E+00 -0.74505805969E-08  0.93827000000E+00  0.93827000000E+00 0. -1.
     999902    2    1    2    0    0 -0.18449264904E-01 -0.15104535267E-01  0.44577424718E-02  0.10196731694E+01  0.10193846078E+01 0.  0.
     999903    2    3    3    0    0 -0.45690187433E-01 -0.25019813322E-01 -0.11819785488E+00  0.13069354303E+00  0.19911931227E-01 0.  0.
         14    1    1    2    0    0  0.18449264904E-01  0.15104535267E-01 -0.44577424718E-02  0.24256830565E-01  0.00000000000E+00 0.  1.
     999901    1    3    3    0    0  0.27240922529E-01  0.99152780547E-02  0.12265559735E+00  0.88897962640E+00  0.88000000000E+00 0.  1.
        -11    1    4    4    0    0 -0.44939093036E-01 -0.18688881965E-01 -0.96612131791E-01  0.10818022704E+00  0.51100000000E-03 0.  1.
         11    1    4    4    0    0 -0.75109439704E-03 -0.63309313564E-02 -0.21585723090E-01  0.22513315992E-01  0.51100000000E-03 0. -1.
</event>
<event>
 8    1  0.1123450E+005  0.1043930E+01  0.7957747E-01            NaN
         13   -1    0    0    0    0  0.00000000000E+00  0.00000000000E+00  0.74505805969E-08  0.10566000000E+00  0.10566000000E+00 0.  1.
     999900   -1    0    0    0    0 -0.00000000000E+00 -0.00000000000E+00 -0.74505805969E-08  0.93827000000E+00  0.93827000000E+00 0. -1.
     999902    2    1    2    0    0  0.20281133906E-01 -0.13468066098E-02 -0.13903043284E-01  0.10193041418E+01  0.10190066244E+01 0.  0.
     999903    2    3    3    0    0 -0.49255011000E-01  0.11308169423E+00 -0.34195592105E-01  0.12894413325E+00  0.15611704005E-01 0.  0.
         14    1    1    2    0    0 -0.20281133906E-01  0.13468066098E-02  0.13903043284E-01  0.24625858221E-01  0.00000000000E+00 0. -1.
     999901    1    3    3    0    0  0.69536144906E-01 -0.11442850084E+00  0.20292548822E-01  0.89036000853E+00  0.88000000000E+00 0.  1.
        -11    1    4    4    0    0 -0.28531836635E-01  0.70492690338E-01 -0.13430695179E-01  0.77226483715E-01  0.51100000000E-03 0.  1.
         11    1    4    4    0    0 -0.20723174365E-01  0.42589003889E-01 -0.20764896926E-01  0.51717649534E-01  0.51100000000E-03 0. -1.
</event>
<event>
 8    1  0.1123450E+005  0.1043930E+01  0.7957747E-01            NaN
         13   -1    0    0    0    0  0.00000000000E+00  0.00000000000E+00  0.74505805969E-08  0.10566000000E+00  0.10566000000E+00 0. -1.
     999900   -1    0    0    0    0 -0.00000000000E+00 -0.00000000000E+00 -0.74505805969E-08  0.93827000000E+00  0.93827000000E+00 0. -1.
     999902    2    1    2    0    0  0.21659892588E-01 -0.45239648881E-02 -0.85821824304E-02  0.10201966677E+01  0.10199205703E+01 0.  0.
     999903    2    3    3    0    0 -0.12254013939E-01  0.10984703510E+00 -0.64128946801E-01  0.13041224343E+00  0.26044182490E-01 0.  0.
         14    1    1    2    0    0 -0.21659892588E-01  0.45239648881E-02  0.85821824304E-02  0.23733332267E-01  0.00000000000E+00 0. -1.
     999901    1    3    3    0    0  0.33913906527E-01 -0.11437099999E+00  0.55546764371E-01  0.88978442430E+00  0.88000000000E+00 0.  1.
        -11    1    4    4    0    0 -0.22533544131E-02  0.97525096143E-01 -0.52975115516E-01  0.11100831486E+00  0.51100000000E-03 0. -1.
         11    1    4    4    0    0 -0.10000659526E-01  0.12321938957E-01 -0.11153831286E-01  0.19403928570E-01  0.51100000000E-03 0.  1.
</event>
<event>
 8    1  0.1123450E+005  0.1043930E+01  0.7957747E-01            NaN
         13   -1    0    0    0    0  0.00000000000E+00  0.00000000000E+00  0.74505805969E-08  0.10566000000E+00  0.10566000000E+00 0. -1.
     999900   -1    0    0    0    0 -0.00000000000E+00 -0.00000000000E+00 -0.74505805969E-08  0.93827000000E+00  0.93827000000E+00 0. -1.
     999902    2    1    2    0    0  0.17681588238E-01  0.97699612850E-02  0.12583869248E-01  0.10201299061E+01  0.10198522348E+01 0.  0.
     999903    2    3    3    0    0 -0.12039001218E+00  0.96142009435E-02  0.40377860650E-01  0.12893054730E+00  0.20162502451E-01 0.  0.
         14    1    1    2    0    0 -0.17681588238E-01 -0.97699612850E-02 -0.12583869248E-01  0.23800093937E-01  0.00000000000E+00 0.  1.
     999901    1    3    3    0    0  0.13807160041E+00  0.15576034151E-03 -0.27793991403E-01  0.89119935876E+00  0.88000000000E+00 0. -1.
        -11    1    4    4    0    0 -0.89714545799E-01  0.48210098200E-02  0.38722002695E-01  0.97834536220E-01  0.51100000000E-03 0. -1.
         11    1    4    4    0    0 -0.30675466376E-01  0.47931911234E-02  0.16558579552E-02  0.31096011080E-01  0.51100000000E-03 0.  1.
</event>
<event>
 8    1  0.1123450E+005  0.1043930E+01  0.7957747E-01            NaN
         13   -1    0    0    0    0  0.00000000000E+00  0.00000000000E+00  0.74505805969E-08  0.10566000000E+00  0.10566000000E+00 0. -1.
     999900   -1    0    0    0    0 -0.00000000000E+00 -0.00000000000E+00 -0.74505805969E-08  0.93827000000E+00  0.93827000000E+00 0. -1.
     999902    2    1    2    0    0 -0.12622512300E-01  0.16876961666E-01 -0.10298089488E-01  0.10204734380E+01  0.10202038166E+01 0.  0.
     999903    2    3    3    0    0 -0.62588669058E-01  0.52889233490E-01 -0.10330060312E+00  0.13343174337E+00  0.20454902118E-01 0.  0.
         14    1    1    2    0    0  0.12622512300E-01 -0.16876961666E-01  0.10298089488E-01  0.23456561959E-01  0.00000000000E+00 0. -1.
     999901    1    3    3    0    0  0.49966156758E-01 -0.36012271825E-01  0.93002513630E-01  0.88704169467E+00  0.88000000000E+00 0.  1.
        -11    1    4    4    0    0 -0.21934478280E-01  0.31598916741E-01 -0.43986618314E-01  0.58435405263E-01  0.51100000000E-03 0.  1.
         11    1    4    4    0    0 -0.40654190778E-01  0.21290316750E-01 -0.59313984804E-01  0.74996338107E-01  0.51100000000E-03 0. -1.
</event>
<event>
 8    1  0.1123450E+005  0.1043930E+01  0.7957747E-01            NaN
         13   -1    0    0    0    0  0.00000000000E+00  0.00000000000E+00  0.74505805969E-08  0.10566000000E+00  0.10566000000E+00 0. -1.
     999900   -1    0    0    0    0 -0.00000000000E+00 -0.00000000000E+00 -0.74505805969E-08  0.93827000000E+00  0.93827000000E+00 0.  1.
     999902    2    1    2    0    0  0.12084957783E-01  0.17990799918E-01  0.10351815638E-01  0.10199117741E+01  0.10196289285E+01 0.  0.
     999903    2    3    3    0    0 -0.64335112357E-01 -0.95299707938E-01  0.53428708010E-01  0.12832308817E+00  0.19777439267E-01 0.  0.
         14    1    1    2    0    0 -0.12084957783E-01 -0.17990799918E-01 -0.10351815638E-01  0.24018225857E-01  0.00000000000E+00 0.  1.
     999901    1    3    3    0    0  0.76420070140E-01  0.11329050786E+00 -0.43076892372E-01  0.89158868597E+00  0.88000000000E+00 0.  1.
        -11    1    4    4    0    0 -0.38349769805E-01 -0.48202131134E-01  0.19026942978E-01  0.64470427097E-01  0.51100000000E-03 0. -1.
         11    1    4    4    0    0 -0.25985342552E-01 -0.47097576804E-01  0.34401765033E-01  0.63852661078E-01  0.51100000000E-03 0.  1.
</event>
<event>
 7    1  0.1123450E+005  0.1043930E+01  0.7957747E-01            NaN
         13   -1    0    0    0    0  0.00000000000E+00  0.00000000000E+00  0.74505805969E-08  0.10566000000E+00  0.10566000000E+00 0.  1.
     999900   -1    0    0    0    0 -0.00000000000E+00 -0.00000000000E+00 -0.74505805969E-08  0.93827000000E+00  0.93827000000E+00 0. -1.
     999902    2    1    2    0    0  0.84772625723E-02 -0.16884905311E-01 -0.12720920341E-01  0.10211531297E+01  0.10208990785E+01 0.  0.
         14    1    1    2    0    0 -0.84772625723E-02  0.16884905311E-01  0.12720920341E-01  0.22776870339E-01  0.00000000000E+00 0.  1.
     999901    1    3    3    0    0  0.20879331952E-01  0.10436846189E+00 -0.48148063281E-01  0.88772009008E+00  0.88000000000E+00 0. -1.
        -11    1    3    3    0    0 -0.21345886856E-01 -0.29316711062E-01  0.10452511137E-01  0.37744304779E-01  0.51100000000E-03 0. -1.
         11    1    3    3    0    0  0.89438174764E-02 -0.91936656137E-01  0.24974631802E-01  0.95688734799E-01  0.51100000000E-03 0.  1.
</event>
<event>
 8    1  0.1123450E+005  0.1043930E+01  0.7957747E-01            NaN
         13   -1    0    0    0    0  0.00000000000E+00  0.00000000000E+00  0.74505805969E-08  0.10566000000E+00  0.10566000000E+00 0.  1.
     999900   -1    0    0    0    0 -0.00000000000E+00 -0.00000000000E+00 -0.74505805969E-08  0.93827000000E+00  0.93827000000E+00 0. -1.
     999902    2    1    2    0    0 -0.11496071155E-01  0.81544075213E-02  0.18809611287E-01  0.10204256283E+01  0.10201548938E+01 0.  0.
     999903    2    3    3    0    0 -0.85651422553E-01 -0.84839100377E-01  0.49377595587E-01  0.13189807646E+00  0.20618353207E-01 0.  0.
         14    1    1    2    0    0  0.11496071155E-01 -0.81544075213E-02 -0.18809611287E-01  0.23504371738E-01  0.00000000000E+00 0. -1.
     999901    1    3    3    0    0  0.74155351398E-01  0.92993507899E-01 -0.30567984300E-01  0.88852755180E+00  0.88000000000E+00 0. -1.
        -11    1    4    4    0    0 -0.28104689980E-01 -0.41953896958E-01  0.18820688844E-01  0.53893251140E-01  0.51100000000E-03 0. -1.
         11    1    4    4    0    0 -0.57546732572E-01 -0.42885203420E-01  0.30556906743E-01  0.78004825317E-01  0.51100000000E-03 0.  1.
</event>
<event>
 8    1  0.1123450E+005  0.1043930E+01  0.7957747E-01            NaN
         13   -1    0    0    0    0  0.00000000000E+00  0.00000000000E+00  0.74505805969E-08  0.10566000000E+00  0.10566000000E+00 0. -1.
     999900   -1    0    0    0    0 -0.00000000000E+00 -0.00000000000E+00 -0.74505805969E-08  0.93827000000E+00  0.93827000000E+00 0. -1.
     999902    2    1    2    0    0  0.19825394271E-01  0.12399814970E-01  0.10428507261E-02  0.10205229667E+01  0.10202544959E+01 0.  0.
     999903    2    3    3    0    0  0.10290168403E+00  0.82980099491E-01  0.48433729818E-02  0.13378868270E+00  0.20037461647E-01 0.  0.
         14    1    1    2    0    0 -0.19825394271E-01 -0.12399814970E-01 -0.10428507261E-02  0.23407033279E-01  0.00000000000E+00 0.  1.
     999901    1    3    3    0    0 -0.83076289762E-01 -0.70580284520E-01 -0.38005222557E-02  0.88673428402E+00  0.88000000000E+00 0. -1.
        -11    1    4    4    0    0  0.49731775998E-01  0.36500039671E-01  0.11848843226E-01  0.62818457851E-01  0.51100000000E-03 0. -1.
         11    1    4    4    0    0  0.53169908035E-01  0.46480059820E-01 -0.70054702445E-02  0.70970224852E-01  0.51100000000E-03 0.  1.
</event>
<event>
 8    1  0.1123450E+005  0.1043930E+01  0.7957747E-01            NaN
         13   -1    0    0    0    0  0.00000000000E+00  0.00000000000E+00  0.74505805969E-08  0.10566000000E+00  0.10566000000E+00 0. -1.
     999900   -1    0    0    0    0 -0.00000000000E+00 -0.00000000000E+00 -0.74505805969E-08  0.93827000000E+00  0.93827000000E+00 0.  1.
     999902    2    1    2    0    0 -0.68681837585E-02  0.15016875577E-02 -0.21679363641E-01  0.10211391724E+01  0.10208848063E+01 0.  0.
     999903    2    3    3    0    0 -0.46534805531E-01  0.11461943891E+00 -0.43784662664E-01  0.13273739913E+00  0.19975398385E-01 0.  0.
         14    1    1    2    0    0  0.68681837585E-02 -0.15016875577E-02  0.21679363641E-01  0.22790827574E-01  0.00000000000E+00 0. -1.
     999901    1    3    3    0    0  0.39666621772E-01 -0.11311775135E+00  0.22105299023E-01  0.88840177330E+00  0.88000000000E+00 0. -1.
        -11    1    4    4    0    0  0.16004325975E-02  0.63219741663E-02 -0.42598454271E-02  0.78061607671E-02  0.51100000000E-03 0.  1.
         11    1    4    4    0    0 -0.48135238128E-01  0.10829746474E+00 -0.39524817237E-01  0.12493123836E+00  0.51100000000E-03 0. -1.
</event>
<event>
 8    1  0.1123450E+005  0.1043930E+01  0.7957747E-01            NaN
         13   -1    0    0    0    0  0.00000000000E+00  0.00000000000E+00  0.74505805969E-08  0.10566000000E+00  0.10566000000E+00 0. -1.
     999900   -1    0    0    0    0 -0.00000000000E+00 -0.00000000000E+00 -0.74505805969E-08  0.93827000000E+00  0.93827000000E+00 0.  1.
     999902    2    1    2    0    0  0.70039077653E-03  0.16553790345E-01 -0.18046786450E-01  0.10194309179E+01  0.10191364930E+01 0.  0.
     999903    2    3    3    0    0 -0.29163052324E-01 -0.59661277283E-01 -0.11087540085E+00  0.13077028898E+00  0.19938965285E-01 0.  0.
         14    1    1    2    0    0 -0.70039077653E-03 -0.16553790345E-01  0.18046786450E-01  0.24499082089E-01  0.00000000000E+00 0. -1.
     999901    1    3    3    0    0  0.29863443100E-01  0.76215067627E-01  0.92828614403E-01  0.88866062894E+00  0.88000000000E+00 0. -1.
        -11    1    4    4    0    0  0.20279286106E-02 -0.11206010255E-01 -0.14050084306E-01  0.18092903313E-01  0.51100000000E-03 0.  1.
         11    1    4    4    0    0 -0.31190980934E-01 -0.48455267027E-01 -0.96825316547E-01  0.11267738566E+00  0.51100000000E-03 0. -1.
</event>
<event>
 8    1  0.1123450E+005  0.1043930E+01  0.7957747E-01            NaN
         13   -1    0    0    0    0  0.00000000000E+00  0.00000000000E+00  0.74505805969E-08  0.10566000000E+00  0.10566000000E+00 0. -1.
     999900   -1    0    0    0    0 -0.00000000000E+00 -0.00000000000E+00 -0.74505805969E-08  0.93827000000E+00  0.93827000000E+00 0. -1.
     999902    2    1    2    0    0  0.53499126099E-02 -0.50200504193E-02 -0.22601074039E-01  0.10201680342E+01  0.10198912623E+01 0.  0.
     999903    2    3    3    0    0  0.57687875611E-01  0.18067829732E-01  0.11110499601E+00  0.12823214763E+00  0.21090900466E-01 0.  0.
         14    1    1    2    0    0 -0.53499126099E-02  0.50200504193E-02  0.22601074039E-01  0.23761965804E-01  0.00000000000E+00 0.  1.
     999901    1    3    3    0    0 -0.52337963001E-01 -0.23087880151E-01 -0.13370607005E+00  0.89193588657E+00  0.88000000000E+00 0. -1.
        -11    1    4    4    0    0  0.49473464566E-01  0.74881793612E-02  0.79982901320E-01  0.94346288485E-01  0.51100000000E-03 0.  1.
         11    1    4    4    0    0  0.82144110451E-02  0.10579650371E-01  0.31122094693E-01  0.33885859143E-01  0.51100000000E-03 0. -1.
</event>
<event>
 8    1  0.1123450E+005  0.1043930E+01  0.7957747E-01            NaN
         13   -1    0    0    0    0  0.00000000000E+00  0.00000000000E+00  0.74505805969E-08  0.10566000000E+00  0.10566000000E+00 0. -1.
     999900   -1    0    0    0    0 -0.00000000000E+00 -0.00000000000E+00 -0.74505805969E-08  0.93827000000E+00  0.93827000000E+00 0.  1.
     999902    2    1    2    0    0 -0.18739608792E-01  0.11604448127E-01 -0.40829888899E-02  0.10215133332E+01  0.10212673415E+01 0.  0.
     999903    2    3    3    0    0  0.74750368255E-02  0.80600076128E-02  0.12895585346E+00  0.13112066457E+00  0.21027996546E-01 0.  0.
         14    1    1    2    0    0  0.18739608792E-01 -0.11604448127E-01  0.40829888899E-02  0.22416666841E-01  0.00000000000E+00 0. -1.
     999901    1    3    3    0    0 -0.26214645617E-01  0.35444405139E-02 -0.13303884235E+00  0.89039266859E+00  0.88000000000E+00 0.  1.
        -11    1    4    4    0    0  0.44155652107E-02 -0.69344927057E-02  0.37721846313E-01  0.38610661941E-01  0.51100000000E-03 0. -1.
         11    1    4    4    0    0  0.30594716148E-02  0.14994500318E-01  0.91234007142E-01  0.92510002630E-01  0.51100000000E-03 0.  1.
</event>
<event>
 8    1  0.1123450E+005  0.1043930E+01  0.7957747E-01            NaN
         13   -1    0    0    0    0  0.00000000000E+00  0.00000000000E+00  0.74505805969E-08  0.10566000000E+00  0.10566000000E+00 0.  1.
     999900   -1    0    0    0    0 -0.00000000000E+00 -0.00000000000E+00 -0.74505805969E-08  0.93827000000E+00  0.93827000000E+00 0.  1.
     999902    2    1    2    0    0  0.96059868682E-02 -0.11382522686E-01  0.20830153041E-01  0.10183227338E+01  0.10180007162E+01 0.  0.
     999903    2    3    3    0    0 -0.12075300803E+00 -0.96795302321E-02  0.40191031632E-01  0.12850746570E+00  0.14962201107E-01 0.  0.
         14    1    1    2    0    0 -0.96059868682E-02  0.11382522686E-01 -0.20830153041E-01  0.25607266198E-01  0.00000000000E+00 0. -1.
     999901    1    3    3    0    0  0.13035899490E+00 -0.17029924541E-02 -0.19360878591E-01  0.88981526811E+00  0.88000000000E+00 0. -1.
        -11    1    4    4    0    0 -0.94921497825E-02 -0.43544433786E-02  0.56546406611E-02  0.11886890537E-01  0.51100000000E-03 0. -1.
         11    1    4    4    0    0 -0.11126085825E+00 -0.53250868535E-02  0.34536390971E-01  0.11662057516E+00  0.51100000000E-03 0.  1.
</event>
<event>
 8    1  0.1123450E+005  0.1043930E+01  0.7957747E-01            NaN
         13   -1    0    0    0    0  0.00000000000E+00  0.00000000000E+00  0.74505805969E-08  0.10566000000E+00  0.10566000000E+00 0. -1.
     999900   -1    0    0    0    0 -0.00000000000E+00 -0.00000000000E+00 -0.74505805969E-08  0.93827000000E+00  0.93827000000E+00 0. -1.
     999902    2    1    2    0    0 -0.21848487729E-01 -0.12721045220E-01 -0.44385370228E-02  0.10182613028E+01  0.10179377185E+01 0.  0.
     999903    2    3    3    0    0  0.10155314562E+00 -0.34292018208E-02  0.72344088038E-01  0.12629164353E+00  0.19776535103E-01 0.  0.
         14    1    1    2    0    0  0.21848487729E-01  0.12721045220E-01  0.44385370228E-02  0.25668697249E-01  0.00000000000E+00 0.  1.
     999901    1    3    3    0    0 -0.12340163335E+00 -0.92918433997E-02 -0.76782625061E-01  0.89196965922E+00  0.88000000000E+00 0. -1.
        -11    1    4    4    0    0  0.23431411257E-01  0.14020039454E-02  0.27206378205E-01  0.35936677428E-01  0.51100000000E-03 0.  1.
         11    1    4    4    0    0  0.78121734361E-01 -0.48312057661E-02  0.45137709833E-01  0.90354966098E-01  0.51100000000E-03 0. -1.
</event>
<event>
 8    1  0.1123450E+005  0.1043930E+01  0.7957747E-01            NaN
         13   -1    0    0    0    0  0.00000000000E+00  0.00000000000E+00  0.74505805969E-08  0.10566000000E+00  0.10566000000E+00 0.  1.
     999900   -1    0    0    0    0 -0.00000000000E+00 -0.00000000000E+00 -0.74505805969E-08  0.93827000000E+00  0.93827000000E+00 0.  1.
     999902    2    1    2    0    0  0.36194402903E-02  0.88585462921E-02 -0.21283476418E-01  0.10205941786E+01  0.10203273577E+01 0.  0.
     999903    2    3    3    0    0 -0.14342083508E-01  0.10237008095E+00 -0.82026817194E-01  0.13337561655E+00  0.19373371370E-01 0.  0.
         14    1    1    2    0    0 -0.36194402903E-02 -0.88585462921E-02  0.21283476418E-01  0.23335821367E-01  0.00000000000E+00 0.  1.
     999901    1    3    3    0    0  0.17961523798E-01 -0.93511534660E-01  0.60743340776E-01  0.88721856208E+00  0.88000000000E+00 0.  1.
        -11    1    4    4    0    0  0.30723916322E-03  0.37586901446E-01 -0.39382224713E-01  0.54443459668E-01  0.51100000000E-03 0. -1.
         11    1    4    4    0    0 -0.14649322671E-01  0.64783179506E-01 -0.42644592481E-01  0.78932156885E-01  0.51100000000E-03 0.  1.
</event>
<event>
 8    1  0.1123450E+005  0.1043930E+01  0.7957747E-01            NaN
         13   -1    0    0    0    0  0.00000000000E+00  0.00000000000E+00  0.74505805969E-08  0.10566000000E+00  0.10566000000E+00 0. -1.
     999900   -1    0    0    0    0 -0.00000000000E+00 -0.00000000000E+00 -0.74505805969E-08  0.93827000000E+00  0.93827000000E+00 0.  1.
     999902    2    1    2    0    0  0.14874107826E-01  0.77430699379E-03  0.14181398043E-01  0.10233642351E+01  0.10231575671E+01 0.  0.
     999903    2    3    3    0    0 -0.68273100149E-01 -0.10056262155E+00  0.48917504799E-01  0.13297711234E+00  0.22714160232E-01 0.  0.
         14    1    1    2    0    0 -0.14874107826E-01 -0.77430699379E-03 -0.14181398043E-01  0.20565764887E-01  0.00000000000E+00 0.  1.
     999901    1    3    3    0    0  0.83147207974E-01  0.10133692854E+00 -0.34736106755E-01  0.89038712277E+00  0.88000000000E+00 0. -1.
        -11    1    4    4    0    0 -0.44451102912E-01 -0.51159800112E-01  0.18482878757E-01  0.70250292709E-01  0.51100000000E-03 0. -1.
         11    1    4    4    0    0 -0.23821997237E-01 -0.49402821437E-01  0.30434626041E-01  0.62726819635E-01  0.51100000000E-03 0.  1.
</event>
<event>
 8    1  0.1123450E+005  0.1043930E+01  0.7957747E-01            NaN
         13   -1    0    0    0    0  0.00000000000E+00  0.00000000000E+00  0.74505805969E-08  0.10566000000E+00  0.10566000000E+00 0. -1.
     999900   -1    0    0    0    0 -0.00000000000E+00 -0.00000000000E+00 -0.74505805969E-08  0.93827000000E+00  0.93827000000E+00 0.  1.
     999902    2    1    2    0    0  0.72610229039E-02 -0.16288102049E-01  0.12671583415E-01  0.10220532144E+01  0.10218190541E+01 0.  0.
     999903    2    3    3    0    0 -0.10973297456E-01  0.11243381737E+00  0.63259869978E-01  0.13106443910E+00  0.20354348424E-01 0.  0.
         14    1    1    2    0    0 -0.72610229039E-02  0.16288102049E-01 -0.12671583415E-01  0.21876785600E-01  0.00000000000E+00 0.  1.
     999901    1    3    3    0    0  0.18234320360E-01 -0.12872191942E+00 -0.50588286564E-01  0.89098877530E+00  0.88000000000E+00 0.  1.
        -11    1    4    4    0    0 -0.10502776705E-01  0.38011927576E-01  0.29963713022E-01  0.49530800273E-01  0.51100000000E-03 0. -1.
         11    1    4    4    0    0 -0.47052075032E-03  0.74421889797E-01  0.33296156956E-01  0.81533638824E-01  0.51100000000E-03 0.  1.
</event>
<event>
 8    1  0.1123450E+005  0.1043930E+01  0.7957747E-01            NaN
         13   -1    0    0    0    0  0.00000000000E+00  0.00000000000E+00  0.74505805969E-08  0.10566000000E+00  0.10566000000E+00 0.  1.
     999900   -1    0    0    0    0 -0.00000000000E+00 -0.00000000000E+00 -0.74505805969E-08  0.93827000000E+00  0.93827000000E+00 0. -1.
     999902    2    1    2    0    0 -0.65645023034E-02 -0.28680964531E-02  0.22352977642E-01  0.10204571587E+01  0.10201871586E+01 0.  0.
     999903    2    3    3    0    0  0.16018534650E-01 -0.12577923346E+00 -0.28688604180E-01  0.13016373281E+00  0.65232130174E-02 0.  0.
         14    1    1    2    0    0  0.65645023034E-02  0.28680964531E-02 -0.22352977642E-01  0.23472841268E-01  0.00000000000E+00 0. -1.
     999901    1    3    3    0    0 -0.22583036953E-01  0.12291113701E+00  0.51041581822E-01  0.89029342592E+00  0.88000000000E+00 0. -1.
        -11    1    4    4    0    0  0.12349356882E-01 -0.10746670250E+00 -0.26316865698E-01  0.11133030720E+00  0.51100000000E-03 0.  1.
         11    1    4    4    0    0  0.36691777682E-02 -0.18312530963E-01 -0.23717384816E-02  0.18833425609E-01  0.51100000000E-03 0. -1.
</event>
<event>
 8    1  0.1123450E+005  0.1043930E+01  0.7957747E-01            NaN
         13   -1    0    0    0    0  0.00000000000E+00  0.00000000000E+00  0.74505805969E-08  0.10566000000E+00  0.10566000000E+00 0.  1.
     999900   -1    0    0    0    0 -0.00000000000E+00 -0.00000000000E+00 -0.74505805969E-08  0.93827000000E+00  0.93827000000E+00 0. -1.
     999902    2    1    2    0    0 -0.70537382954E-02 -0.25455435200E-01  0.16970723265E-02  0.10174608772E+01  0.10171165234E+01 0.  0.
     999903    2    3    3    0    0  0.64085613618E-01  0.27114413471E-02  0.10855276307E+00  0.12770117992E+00  0.20237865409E-01 0.  0.
         14    1    1    2    0    0  0.70537382954E-02  0.25455435200E-01 -0.16970723265E-02  0.26469122760E-01  0.00000000000E+00 0. -1.
     999901    1    3    3    0    0 -0.71139351914E-01 -0.28166876547E-01 -0.10685569075E+00  0.88975969732E+00  0.88000000000E+00 0. -1.
        -11    1    4    4    0    0  0.54436259422E-01  0.74529895737E-02  0.99384151801E-01  0.11356198371E+00  0.51100000000E-03 0. -1.
         11    1    4    4    0    0  0.96493541960E-02 -0.47415482267E-02  0.91686112710E-02  0.14139196216E-01  0.51100000000E-03 0.  1.
</event>
<event>
 8    1  0.1123450E+005  0.1043930E+01  0.7957747E-01            NaN
         13   -1    0    0    0    0  0.00000000000E+00  0.00000000000E+00  0.74505805969E-08  0.10566000000E+00  0.10566000000E+00 0. -1.
     999900   -1    0    0    0    0 -0.00000000000E+00 -0.00000000000E+00 -0.74505805969E-08  0.93827000000E+00  0.93827000000E+00 0.  1.
     999902    2    1    2    0    0 -0.11998538202E-01 -0.56072976726E-02 -0.19810912349E-01  0.10200997890E+01  0.10198214063E+01 0.  0.
     999903    2    3    3    0    0 -0.26887928295E-01 -0.72162749978E-01  0.10170017896E+00  0.12913611555E+00  0.20069548235E-01 0.  0.
         14    1    1    2    0    0  0.11998538202E-01  0.56072976726E-02  0.19810912349E-01  0.23830210957E-01  0.00000000000E+00 0. -1.
     999901    1    3    3    0    0  0.14889390094E-01  0.66555452305E-01 -0.12151109131E+00  0.89096367349E+00  0.88000000000E+00 0.  1.
        -11    1    4    4    0    0 -0.22378215175E-01 -0.44443515566E-01  0.51510420695E-01  0.71621192056E-01  0.51100000000E-03 0.  1.
         11    1    4    4    0    0 -0.45097131202E-02 -0.27719234412E-01  0.50189758267E-01  0.57514923496E-01  0.51100000000E-03 0. -1.
</event>
<event>
 8    1  0.1123450E+005  0.1043930E+01  0.7957747E-01            NaN
         13   -1    0    0    0    0  0.00000000000E+00  0.00000000000E+00  0.74505805969E-08  0.10566000000E+00  0.10566000000E+00 0. -1.
     999900   -1    0    0    0    0 -0.00000000000E+00 -0.00000000000E+00 -0.74505805969E-08  0.93827000000E+00  0.93827000000E+00 0.  1.
     999902    2    1    2    0    0  0.18769582262E-01 -0.12444712055E-01 -0.14720484922E-01  0.10170253396E+01  0.10166694057E+01 0.  0.
     999903    2    3    3    0    0 -0.21055211926E-01  0.41407580057E-01 -0.11796051680E+00  0.12846212416E+00  0.20734613204E-01 0.  0.
         14    1    1    2    0    0 -0.18769582262E-01  0.12444712055E-01  0.14720484922E-01  0.26904660429E-01  0.00000000000E+00 0. -1.
     999901    1    3    3    0    0  0.39824794189E-01 -0.53852292112E-01  0.10324003188E+00  0.88856321541E+00  0.88000000000E+00 0. -1.
        -11    1    4    4    0    0 -0.12093281157E-01  0.18503231930E-01 -0.30921583313E-01  0.38013451258E-01  0.51100000000E-03 0.  1.
         11    1    4    4    0    0 -0.89619307696E-02  0.22904348127E-01 -0.87038933488E-01  0.90448672903E-01  0.51100000000E-03 0. -1.
</event>
<event>
 8    1  0.1123450E+005  0.1043930E+01  0.7957747E-01            NaN
         13   -1    0    0    0    0  0.00000000000E+00  0.00000000000E+00  0.74505805969E-08  0.10566000000E+00  0.10566000000E+00 0.  1.
     999900   -1    0    0    0    0 -0.00000000000E+00 -0.00000000000E+00 -0.74505805969E-08  0.93827000000E+00  0.93827000000E+00 0. -1.
     999902    2    1    2    0    0  0.26720967974E-02 -0.18189101338E-01  0.13694729851E-01  0.10210055778E+01  0.10207481867E+01 0.  0.
     999903    2    3    3    0    0 -0.18595829046E-01 -0.46491449239E-01  0.12250124396E+00  0.13359800226E+00  0.18292395271E-01 0.  0.
         14    1    1    2    0    0 -0.26720967974E-02  0.18189101338E-01 -0.13694729851E-01  0.22924422227E-01  0.00000000000E+00 0. -1.
     999901    1    3    3    0    0  0.21267925843E-01  0.28302347901E-01 -0.10880651411E+00  0.88740757551E+00  0.88000000000E+00 0. -1.
        -11    1    4    4    0    0  0.22977945578E-03 -0.21677848231E-01  0.59210700959E-01  0.63056721542E-01  0.51100000000E-03 0. -1.
         11    1    4    4    0    0 -0.18825608501E-01 -0.24813601008E-01  0.63290543004E-01  0.70541280717E-01  0.51100000000E-03 0.  1.
</event>
<event>
 8    1  0.1123450E+005  0.1043930E+01  0.7957747E-01            NaN
         13   -1    0    0    0    0  0.00000000000E+00  0.00000000000E+00  0.74505805969E-08  0.10566000000E+00  0.10566000000E+00 0.  1.
     999900   -1    0    0    0    0 -0.00000000000E+00 -0.00000000000E+00 -0.74505805969E-08  0.93827000000E+00  0.93827000000E+00 0.  1.
     999902    2    1    2    0    0 -0.45265975482E-02 -0.11534607806E-01 -0.20340327144E-01  0.10201126498E+01  0.10198345709E+01 0.  0.
     999903    2    3    3    0    0  0.86782355860E-01  0.93391503836E-01 -0.59367962977E-02  0.12907153089E+00  0.19263028270E-01 0.  0.
         14    1    1    2    0    0  0.45265975482E-02  0.11534607806E-01  0.20340327144E-01  0.23817350208E-01  0.00000000000E+00 0.  1.
     999901    1    3    3    0    0 -0.91308953408E-01 -0.10492611164E+00 -0.14403530846E-01  0.89104111890E+00  0.88000000000E+00 0.  1.
        -11    1    4    4    0    0  0.66601480881E-02  0.28625334094E-02 -0.37047355379E-02  0.81570740147E-02  0.51100000000E-03 0. -1.
         11    1    4    4    0    0  0.80122207772E-01  0.90528970427E-01 -0.22320607598E-02  0.12091445687E+00  0.51100000000E-03 0.  1.
</event>
<event>
 8    1  0.1123450E+005  0.1043930E+01  0.7957747E-01            NaN
         13   -1    0    0    0    0  0.00000000000E+00  0.00000000000E+00  0.74505805969E-08  0.10566000000E+00  0.10566000000E+00 0. -1.
     999900   -1    0    0    0    0 -0.00000000000E+00 -0.00000000000E+00 -0.74505805969E-08  0.93827000000E+00  0.93827000000E+00 0.  1.
     999902    2    1    2    0    0 -0.65707830909E-02 -0.19093077180E-01  0.10512157902E-01  0.10211654168E+01  0.10209116427E+01 0.  0.
     999903    2    3    3    0    0 -0.12016424135E+00 -0.82541599057E-02 -0.49537959253E-01  0.13176844551E+00  0.20033416329E-01 0.  0.
         14    1    1    2    0    0  0.65707830909E-02  0.19093077180E-01 -0.10512157902E-01  0.22764583247E-01  0.00000000000E+00 0.  1.
     999901    1    3    3    0    0  0.11359345826E+00 -0.10838917275E-01  0.60050117155E-01  0.88939697124E+00  0.88000000000E+00 0. -1.
        -11    1    4    4    0    0 -0.44314431368E-01  0.13733097436E-02 -0.90600490844E-02  0.45254838609E-01  0.51100000000E-03 0.  1.
         11    1    4    4    0    0 -0.75849809983E-01 -0.96274696493E-02 -0.40477910169E-01  0.86513606901E-01  0.51100000000E-03 0. -1.
</event>
<event>
 8    1  0.1123450E+005  0.1043930E+01  0.7957747E-01            NaN
         13   -1    0    0    0    0  0.00000000000E+00  0.00000000000E+00  0.74505805969E-08  0.10566000000E+00  0.10566000000E+00 0.  1.
     999900   -1    0    0    0    0 -0.00000000000E+00 -0.00000000000E+00 -0.74505805969E-08  0.93827000000E+00  0.93827000000E+00 0.  1.
     999902    2    1    2    0    0 -0.71379424111E-02  0.17683696202E-01 -0.12964946036E-01  0.10208702264E+01  0.10206097520E+01 0.  0.
     999903    2    3    3    0    0 -0.10054958571E+00  0.16649547159E-01 -0.83664782723E-01  0.13310602826E+00  0.18165689774E-01 0.  0.
         14    1    1    2    0    0  0.71379424111E-02 -0.17683696202E-01  0.12964946036E-01  0.23059773609E-01  0.00000000000E+00 0.  1.
     999901    1    3    3    0    0  0.93411643299E-01  0.10341490427E-02  0.70699836688E-01  0.88776419813E+00  0.88000000000E+00 0. -1.
        -11    1    4    4    0    0 -0.46811416615E-01  0.11710733916E-02 -0.30108883909E-01  0.55673028925E-01  0.51100000000E-03 0. -1.
         11    1    4    4    0    0 -0.53738169095E-01  0.15478473767E-01 -0.53555898814E-01  0.77432999339E-01  0.51100000000E-03 0.  1.
</event>
<event>
 8    1  0.1123450E+005  0.1043930E+01  0.7957747E-01            NaN
         13   -1    0    0    0    0  0.00000000000E+00  0.00000000000E+00  0.74505805969E-08  0.10566000000E+00  0.10566000000E+00 0.  1.
     999900   -1    0    0    0    0 -0.00000000000E+00 -0.00000000000E+00 -0.74505805969E-08  0.93827000000E+00  0.93827000000E+00 0. -1.
     999902    2    1    2    0    0 -0.15540034575E-01  0.78577272914E-02 -0.16758529595E-01  0.10197621522E+01  0.10194757291E+01 0.  0.
     999903    2    3    3    0    0  0.90625334950E-01 -0.65165427058E-01  0.57787055613E-01  0.12725976508E+00  0.19905270471E-01 0.  0.
         14    1    1    2    0    0  0.15540034575E-01 -0.78577272914E-02  0.16758529595E-01  0.24167847794E-01  0.00000000000E+00 0.  1.
     999901    1    3    3    0    0 -0.10616536953E+00  0.73023154349E-01 -0.74545585208E-01  0.89250238713E+00  0.88000000000E+00 0.  1.
        -11    1    4    4    0    0  0.56571676382E-01 -0.29035312250E-01  0.35593789498E-01  0.72873746288E-01  0.51100000000E-03 0.  1.
         11    1    4    4    0    0  0.34053658568E-01 -0.36130114808E-01  0.22193266114E-01  0.54386018789E-01  0.51100000000E-03 0. -1.
</event>
<event>
 7    1  0.1123450E+005  0.1043930E+01  0.7957747E-01            NaN
         13   -1    0    0    0    0  0.00000000000E+00  0.00000000000E+00  0.74505805969E-08  0.10566000000E+00  0.10566000000E+00 0. -1.
     999900   -1    0    0    0    0 -0.00000000000E+00 -0.00000000000E+00 -0.74505805969E-08  0.93827000000E+00  0.93827000000E+00 0. -1.
     999903    2    1    2    0    0 -0.10210577348E+00 -0.21907111244E-01  0.37829559102E-01  0.11290706689E+00  0.20283483704E-01 0.  0.
         14    1    1    2    0    0 -0.11866254428E-01  0.37833729826E-01  0.13918391494E-01  0.42022859594E-01  0.00000000000E+00 0. -1.
     999901    1    1    2    0    0  0.11397202790E+00 -0.15926618581E-01 -0.51747950596E-01  0.88900007352E+00  0.88000000000E+00 0. -1.
        -11    1    3    3    0    0 -0.91478398028E-01 -0.20289597389E-01  0.26716517001E-01  0.97437151383E-01  0.51100000000E-03 0.  1.
         11    1    3    3    0    0 -0.10627375448E-01 -0.16175138554E-02  0.11113042101E-01  0.15469915505E-01  0.51100000000E-03 0. -1.
</event>
<event>
 8    1  0.1123450E+005  0.1043930E+01  0.7957747E-01            NaN
         13   -1    0    0    0    0  0.00000000000E+00  0.00000000000E+00  0.74505805969E-08  0.10566000000E+00  0.10566000000E+00 0. -1.
     999900   -1    0    0    0    0 -0.00000000000E+00 -0.00000000000E+00 -0.74505805969E-08  0.93827000000E+00  0.93827000000E+00 0.  1.
     999902    2    1    2    0    0 -0.95392843562E-02 -0.93553247037E-02 -0.18941272022E-01  0.10207504437E+01  0.10204872250E+01 0.  0.
     999903    2    3    3    0    0  0.79336061146E-01  0.76480086741E-01  0.63344043382E-01  0.12831701868E+00  0.17589064325E-01 0.  0.
         14    1    1    2    0    0  0.95392843562E-02  0.93553247037E-02  0.18941272022E-01  0.23179556341E-01  0.00000000000E+00 0. -1.
     999901    1    3    3    0    0 -0.88875345502E-01 -0.85835411445E-01 -0.82285315404E-01  0.89243342498E+00  0.88000000000E+00 0.  1.
        -11    1    4    4    0    0  0.42298753575E-01  0.28626559297E-01  0.29079698380E-01  0.58775457719E-01  0.51100000000E-03 0. -1.
         11    1    4    4    0    0  0.37037307571E-01  0.47853527444E-01  0.34264345002E-01  0.69541560957E-01  0.51100000000E-03 0.  1.
</event>
<event>
 8    1  0.1123450E+005  0.1043930E+01  0.7957747E-01            NaN
         13   -1    0    0    0    0  0.00000000000E+00  0.00000000000E+00  0.74505805969E-08  0.10566000000E+00  0.10566000000E+00 0. -1.
     999900   -1    0    0    0    0 -0.00000000000E+00 -0.00000000000E+00 -0.74505805969E-08  0.93827000000E+00  0.93827000000E+00 0. -1.
     999902    2    1    2    0    0  0.59483211786E-02 -0.18996423579E-01 -0.12423637959E-01  0.10204652730E+01  0.10201954616E+01 0.  0.
     999903    2    3    3    0    0 -0.85750607289E-01  0.92653907170E-01 -0.15449306842E-01  0.12867850222E+00  0.19533629675E-01 0.  0.
         14    1    1    2    0    0 -0.59483211786E-02  0.18996423579E-01  0.12423637959E-01  0.23464727012E-01  0.00000000000E+00 0. -1.
     999901    1    3    3    0    0  0.91698928467E-01 -0.11165033075E+00  0.30256688837E-02  0.89178677076E+00  0.88000000000E+00 0.  1.
        -11    1    4    4    0    0 -0.26990576893E-01  0.21022999974E-01  0.24963213405E-02  0.34306712319E-01  0.51100000000E-03 0.  1.
         11    1    4    4    0    0 -0.58760030396E-01  0.71630907196E-01 -0.17945628183E-01  0.94371789904E-01  0.51100000000E-03 0. -1.
</event>
<event>
 8    1  0.1123450E+005  0.1043930E+01  0.7957747E-01            NaN
         13   -1    0    0    0    0  0.00000000000E+00  0.00000000000E+00  0.74505805969E-08  0.10566000000E+00  0.10566000000E+00 0.  1.
     999900   -1    0    0    0    0 -0.00000000000E+00 -0.00000000000E+00 -0.74505805969E-08  0.93827000000E+00  0.93827000000E+00 0. -1.
     999902    2    1    2    0    0 -0.68063351743E-04  0.24025159646E-02  0.19525607971E-01  0.10242570215E+01  0.10240680739E+01 0.  0.
     999903    2    3    3    0    0  0.25377734233E-01 -0.48037005122E-01 -0.11834870826E+00  0.13173197371E+00  0.19882477055E-01 0.  0.
         14    1    1    2    0    0  0.68063351743E-04 -0.24025159646E-02 -0.19525607971E-01  0.19672978478E-01  0.00000000000E+00 0. -1.
     999901    1    3    3    0    0 -0.25445797585E-01  0.50439521086E-01  0.13787431623E+00  0.89252504782E+00  0.88000000000E+00 0.  1.
        -11    1    4    4    0    0  0.40824016291E-02 -0.11426387825E-01 -0.11221889197E-01  0.16535424395E-01  0.51100000000E-03 0. -1.
         11    1    4    4    0    0  0.21295332604E-01 -0.36610617297E-01 -0.10712681906E+00  0.11519654931E+00  0.51100000000E-03 0.  1.
</event>
<event>
 8    1  0.1123450E+005  0.1043930E+01  0.7957747E-01            NaN
         13   -1    0    0    0    0  0.00000000000E+00  0.00000000000E+00  0.74505805969E-08  0.10566000000E+00  0.10566000000E+00 0.  1.
     999900   -1    0    0    0    0 -0.00000000000E+00 -0.00000000000E+00 -0.74505805969E-08  0.93827000000E+00  0.93827000000E+00 0. -1.
     999902    2    1    2    0    0 -0.86353188501E-02 -0.24176408898E-01 -0.77101376723E-02  0.10171248941E+01  0.10167716246E+01 0.  0.
     999903    2    3    3    0    0 -0.22611474323E-01  0.10685527825E+00  0.57623677778E-01  0.12491799916E+00  0.18833189114E-01 0.  0.
         14    1    1    2    0    0  0.86353188501E-02  0.24176408898E-01  0.77101376723E-02  0.26805105890E-01  0.00000000000E+00 0.  1.
     999901    1    3    3    0    0  0.13976155473E-01 -0.13103168715E+00 -0.65333815451E-01  0.89220689495E+00  0.88000000000E+00 0.  1.
        -11    1    4    4    0    0 -0.70646436949E-02  0.45896308148E-01  0.14522414760E-01  0.48657393514E-01  0.51100000000E-03 0.  1.
         11    1    4    4    0    0 -0.15546830628E-01  0.60958970101E-01  0.43101263018E-01  0.76260605644E-01  0.51100000000E-03 0. -1.
</event>
<event>
 8    1  0.1123450E+005  0.1043930E+01  0.7957747E-01            NaN
         13   -1    0    0    0    0  0.00000000000E+00  0.00000000000E+00  0.74505805969E-08  0.10566000000E+00  0.10566000000E+00 0.  1.
     999900   -1    0    0    0    0 -0.00000000000E+00 -0.00000000000E+00 -0.74505805969E-08  0.93827000000E+00  0.93827000000E+00 0. -1.
     999902    2    1    2    0    0  0.11974740582E-01  0.64706561106E-03 -0.20374072608E-01  0.10202885969E+01  0.10200146592E+01 0.  0.
     999903    2    3    3    0    0 -0.38950566214E-01  0.79012836752E-01 -0.96218665903E-01  0.13209549667E+00  0.20760866865E-01 0.  0.
         14    1    1    2    0    0 -0.11974740582E-01 -0.64706561106E-03  0.20374072608E-01  0.23641403100E-01  0.00000000000E+00 0.  1.
     999901    1    3    3    0    0  0.50925306796E-01 -0.78365771141E-01  0.75844593296E-01  0.88819310023E+00  0.88000000000E+00 0.  1.
        -11    1    4    4    0    0 -0.28476835419E-01  0.34331684803E-01 -0.46961723331E-01  0.64770821487E-01  0.51100000000E-03 0. -1.
         11    1    4    4    0    0 -0.10473730795E-01  0.44681151949E-01 -0.49256942572E-01  0.67324675186E-01  0.51100000000E-03 0.  1.
</event>
<event>
 8    1  0.1123450E+005  0.1043930E+01  0.7957747E-01            NaN
         13   -1    0    0    0    0  0.00000000000E+00  0.00000000000E+00  0.74505805969E-08  0.10566000000E+00  0.10566000000E+00 0.  1.
     999900   -1    0    0    0    0 -0.00000000000E+00 -0.00000000000E+00 -0.74505805969E-08  0.93827000000E+00  0.93827000000E+00 0. -1.
     999902    2    1    2    0    0  0.65042917777E-02  0.95564611260E-02 -0.19082706938E-01  0.10216189833E+01  0.10213753304E+01 0.  0.
     999903    2    3    3    0    0  0.12149614176E+00 -0.45150221966E-01  0.12337622960E-01  0.13189813729E+00  0.21096129381E-01 0.  0.
         14    1    1    2    0    0 -0.65042917777E-02 -0.95564611260E-02  0.19082706938E-01  0.22311016671E-01  0.00000000000E+00 0.  1.
     999901    1    3    3    0    0 -0.11499184998E+00  0.54706683092E-01 -0.31420329898E-01  0.88972084603E+00  0.88000000000E+00 0.  1.
        -11    1    4    4    0    0  0.11223058390E+00 -0.35501256544E-01  0.13378596282E-01  0.11847063408E+00  0.51100000000E-03 0. -1.
         11    1    4    4    0    0  0.92655578571E-02 -0.96489654221E-02 -0.10409733226E-02  0.13427503215E-01  0.51100000000E-03 0.  1.
</event>
<event>
 8    1  0.1123450E+005  0.1043930E+01  0.7957747E-01            NaN
         13   -1    0    0    0    0  0.00000000000E+00  0.00000000000E+00  0.74505805969E-08  0.10566000000E+00  0.10566000000E+00 0. -1.
     999900   -1    0    0    0    0 -0.00000000000E+00 -0.00000000000E+00 -0.74505805969E-08  0.93827000000E+00  0.93827000000E+00 0. -1.
     999902    2    1    2    0    0 -0.15404905398E-01  0.28019905793E-02  0.17171624534E-01  0.10206915200E+01  0.10204269460E+01 0.  0.
     999903    2    3    3    0    0  0.61645064224E-01 -0.67410913965E-01 -0.87723484140E-01  0.12835215993E+00  0.20845191874E-01 0.  0.
         14    1    1    2    0    0  0.15404905398E-01 -0.28019905793E-02 -0.17171624534E-01  0.23238479957E-01  0.00000000000E+00 0.  1.
     999901    1    3    3    0    0 -0.77049969623E-01  0.70212904544E-01  0.10489510867E+00  0.89233936011E+00  0.88000000000E+00 0.  1.
        -11    1    4    4    0    0  0.38314355136E-01 -0.27468520823E-01 -0.39235079043E-01  0.61336465452E-01  0.51100000000E-03 0. -1.
         11    1    4    4    0    0  0.23330709089E-01 -0.39942393142E-01 -0.48488405098E-01  0.67015694478E-01  0.51100000000E-03 0.  1.
</event>
<event>
 8    1  0.1123450E+005  0.1043930E+01  0.7957747E-01            NaN
         13   -1    0    0    0    0  0.00000000000E+00  0.00000000000E+00  0.74505805969E-08  0.10566000000E+00  0.10566000000E+00 0.  1.
     999900   -1    0    0    0    0 -0.00000000000E+00 -0.00000000000E+00 -0.74505805969E-08  0.93827000000E+00  0.93827000000E+00 0.  1.
     999902    2    1    2    0    0  0.12177410919E-01 -0.11286550236E-01  0.17643250359E-01  0.10197027460E+01  0.10194148961E+01 0.  0.
     999903    2    3    3    0    0 -0.22717504430E-01  0.11945034998E+00 -0.33881088346E-01  0.12787061512E+00  0.20457149050E-01 0.  0.
         14    1    1    2    0    0 -0.12177410919E-01  0.11286550236E-01 -0.17643250359E-01  0.24227253996E-01  0.00000000000E+00 0. -1.
     999901    1    3    3    0    0  0.34894915349E-01 -0.13073690021E+00  0.51524338706E-01  0.89183213088E+00  0.88000000000E+00 0.  1.
        -11    1    4    4    0    0 -0.20983975914E-01  0.67844379870E-01 -0.26041433162E-01  0.75641288244E-01  0.51100000000E-03 0. -1.
         11    1    4    4    0    0 -0.17335285160E-02  0.51605970106E-01 -0.78396551838E-02  0.52229326878E-01  0.51100000000E-03 0.  1.
</event>
<event>
 8    1  0.1123450E+005  0.1043930E+01  0.7957747E-01            NaN
         13   -1    0    0    0    0  0.00000000000E+00  0.00000000000E+00  0.74505805969E-08  0.10566000000E+00  0.10566000000E+00 0. -1.
     999900   -1    0    0    0    0 -0.00000000000E+00 -0.00000000000E+00 -0.74505805969E-08  0.93827000000E+00  0.93827000000E+00 0. -1.
     999902    2    1    2    0    0 -0.16786712130E-01 -0.12664376488E-01 -0.10000026092E-01  0.10206452269E+01  0.10203795855E+01 0.  0.
     999903    2    3    3    0    0  0.31682363550E-01  0.96921859331E-01 -0.77590882601E-01  0.12995621370E+00  0.21694548605E-01 0.  0.
         14    1    1    2    0    0  0.16786712130E-01  0.12664376488E-01  0.10000026092E-01  0.23284773089E-01  0.00000000000E+00 0. -1.
     999901    1    3    3    0    0 -0.48469075680E-01 -0.10958623582E+00  0.67590856509E-01  0.89068901321E+00  0.88000000000E+00 0.  1.
        -11    1    4    4    0    0  0.46642653145E-02  0.48856182618E-01 -0.35014682748E-01  0.60290721341E-01  0.51100000000E-03 0. -1.
         11    1    4    4    0    0  0.27018098235E-01  0.48065676713E-01 -0.42576199853E-01  0.69665492355E-01  0.51100000000E-03 0.  1.
</event>
<event>
 8    1  0.1123450E+005  0.1043930E+01  0.7957747E-01            NaN
         13   -1    0    0    0    0  0.00000000000E+00  0.00000000000E+00  0.74505805969E-08  0.10566000000E+00  0.10566000000E+00 0. -1.
     999900   -1    0    0    0    0 -0.00000000000E+00 -0.00000000000E+00 -0.74505805969E-08  0.93827000000E+00  0.93827000000E+00 0.  1.
     999902    2    1    2    0    0  0.11669475887E-01 -0.13853978198E-02 -0.20543321778E-01  0.10202630597E+01  0.10199885229E+01 0.  0.
     999903    2    3    3    0    0  0.79173006320E-01  0.32909227335E-01 -0.10021925286E+00  0.13342536205E+00  0.20175391487E-01 0.  0.
         14    1    1    2    0    0 -0.11669475887E-01  0.13853978198E-02  0.20543321778E-01  0.23666940323E-01  0.00000000000E+00 0. -1.
     999901    1    3    3    0    0 -0.67503530433E-01 -0.34294625155E-01  0.79675931080E-01  0.88683769763E+00  0.88000000000E+00 0. -1.
        -11    1    4    4    0    0  0.20207403904E-01  0.90572548573E-02 -0.40573291471E-01  0.46225816811E-01  0.51100000000E-03 0.  1.
         11    1    4    4    0    0  0.58965602415E-01  0.23851972478E-01 -0.59645961387E-01  0.87199545240E-01  0.51100000000E-03 0. -1.
</event>
<event>
 8    1  0.1123450E+005  0.1043930E+01  0.7957747E-01            NaN
         13   -1    0    0    0    0  0.00000000000E+00  0.00000000000E+00  0.74505805969E-08  0.10566000000E+00  0.10566000000E+00 0.  1.
     999900   -1    0    0    0    0 -0.00000000000E+00 -0.00000000000E+00 -0.74505805969E-08  0.93827000000E+00  0.93827000000E+00 0. -1.
     999902    2    1    2    0    0 -0.15834907950E-01 -0.49504253464E-02  0.16929082724E-01  0.10202267331E+01  0.10199513430E+01 0.  0.
     999903    2    3    3    0    0 -0.11890870577E-01  0.10410977910E+00  0.76817143176E-01  0.13146564965E+00  0.20052547108E-01 0.  0.
         14    1    1    2    0    0  0.15834907950E-01  0.49504253464E-02 -0.16929082724E-01  0.23703266922E-01  0.00000000000E+00 0.  1.
     999901    1    3    3    0    0 -0.39440373732E-02 -0.10906020445E+00 -0.59888060452E-01  0.88876108342E+00  0.88000000000E+00 0.  1.
        -11    1    4    4    0    0  0.25699549475E-02  0.62215189788E-01  0.47593061223E-01  0.78375347568E-01  0.51100000000E-03 0. -1.
         11    1    4    4    0    0 -0.14460825525E-01  0.41894589312E-01  0.29224081953E-01  0.53090302085E-01  0.51100000000E-03 0.  1.
</event>
<event>
 8    1  0.1123450E+005  0.1043930E+01  0.7957747E-01            NaN
         13   -1    0    0    0    0  0.00000000000E+00  0.00000000000E+00  0.74505805969E-08  0.10566000000E+00  0.10566000000E+00 0. -1.
     999900   -1    0    0    0    0 -0.00000000000E+00 -0.00000000000E+00 -0.74505805969E-08  0.93827000000E+00  0.93827000000E+00 0.  1.
     999902    2    1    2    0    0  0.25772369852E-02  0.23159216818E-01  0.37581497888E-02  0.10203267129E+01  0.10200536681E+01 0.  0.
     999903    2    3    3    0    0 -0.75266364575E-01  0.48276538408E-01  0.94933284358E-01  0.13184294187E+00  0.19354147993E-01 0.  0.
         14    1    1    2    0    0 -0.25772369852E-02 -0.23159216818E-01 -0.37581497888E-02  0.23603287142E-01  0.00000000000E+00 0. -1.
     999901    1    3    3    0    0  0.77843601561E-01 -0.25117321591E-01 -0.91175134569E-01  0.88848377099E+00  0.88000000000E+00 0.  1.
        -11    1    4    4    0    0 -0.25313628525E-01  0.12130000879E-01  0.42321770376E-01  0.50786908541E-01  0.51100000000E-03 0. -1.
         11    1    4    4    0    0 -0.49952736051E-01  0.36146537529E-01  0.52611513981E-01  0.81056033327E-01  0.51100000000E-03 0.  1.
</event>
<event>
 8    1  0.1123450E+005  0.1043930E+01  0.7957747E-01            NaN
         13   -1    0    0    0    0  0.00000000000E+00  0.00000000000E+00  0.74505805969E-08  0.10566000000E+00  0.10566000000E+00 0. -1.
     999900   -1    0    0    0    0 -0.00000000000E+00 -0.00000000000E+00 -0.74505805969E-08  0.93827000000E+00  0.93827000000E+00 0.  1.
     999902    2    1    2    0    0  0.82531513391E-02  0.33464979486E-02 -0.22271666523E-01  0.10199437397E+01  0.10196616553E+01 0.  0.
     999903    2    3    3    0    0  0.18159556355E-01  0.24193964565E-01  0.12252100307E+00  0.12781276783E+00  0.20238330453E-01 0.  0.
         14    1    1    2    0    0 -0.82531513391E-02 -0.33464979486E-02  0.22271666523E-01  0.23986260343E-01  0.00000000000E+00 0. -1.
     999901    1    3    3    0    0 -0.99064050162E-02 -0.20847466617E-01 -0.14479266959E+00  0.89213097183E+00  0.88000000000E+00 0.  1.
        -11    1    4    4    0    0  0.20127328978E-01  0.11132675527E-01  0.83622359358E-01  0.86729498683E-01  0.51100000000E-03 0.  1.
         11    1    4    4    0    0 -0.19677726231E-02  0.13061289039E-01  0.38898643709E-01  0.41083269148E-01  0.51100000000E-03 0. -1.
</event>
<event>
 8    1  0.1123450E+005  0.1043930E+01  0.7957747E-01            NaN
         13   -1    0    0    0    0  0.00000000000E+00  0.00000000000E+00  0.74505805969E-08  0.10566000000E+00  0.10566000000E+00 0.  1.
     999900   -1    0    0    0    0 -0.00000000000E+00 -0.00000000000E+00 -0.74505805969E-08  0.93827000000E+00  0.93827000000E+00 0.  1.
     999902    2    1    2    0    0 -0.40130754349E-02  0.17495182222E-01 -0.15411172145E-01  0.10202722232E+01  0.10199979015E+01 0.  0.
     999903    2    3    3    0    0 -0.11986202622E+00 -0.88168024095E-02  0.46016983656E-01  0.13016733150E+00  0.19527674475E-01 0.  0.
         14    1    1    2    0    0  0.40130754349E-02 -0.17495182222E-01  0.15411172145E-01  0.23657776783E-01  0.00000000000E+00 0. -1.
     999901    1    3    3    0    0  0.11584895079E+00  0.26311984632E-01 -0.61428155800E-01  0.89010489172E+00  0.88000000000E+00 0. -1.
        -11    1    4    4    0    0 -0.81150151962E-01 -0.50752543074E-02  0.40642878130E-01  0.90902200377E-01  0.51100000000E-03 0. -1.
         11    1    4    4    0    0 -0.38711874260E-01 -0.37415481021E-02  0.53741055256E-02  0.39265131123E-01  0.51100000000E-03 0.  1.
</event>
<event>
 8    1  0.1123450E+005  0.1043930E+01  0.7957747E-01            NaN
         13   -1    0    0    0    0  0.00000000000E+00  0.00000000000E+00  0.74505805969E-08  0.10566000000E+00  0.10566000000E+00 0. -1.
     999900   -1    0    0    0    0 -0.00000000000E+00 -0.00000000000E+00 -0.74505805969E-08  0.93827000000E+00  0.93827000000E+00 0.  1.
     999902    2    1    2    0    0 -0.72801002511E-02  0.11132714933E-02 -0.24722390632E-01  0.10181339571E+01  0.10178071127E+01 0.  0.
     999903    2    3    3    0    0 -0.93477342176E-01  0.15250600071E-01 -0.89025683066E-01  0.13147464142E+00  0.19733595455E-01 0.  0.
         14    1    1    2    0    0  0.72801002511E-02 -0.11132714933E-02  0.24722390632E-01  0.25796042946E-01  0.00000000000E+00 0. -1.
     999901    1    3    3    0    0  0.86197241925E-01 -0.14137328578E-01  0.64303292433E-01  0.88665931563E+00  0.88000000000E+00 0. -1.
        -11    1    4    4    0    0 -0.28802308173E-01  0.81320916180E-02 -0.40225893069E-01  0.50140676745E-01  0.51100000000E-03 0.  1.
         11    1    4    4    0    0 -0.64675034003E-01  0.71185084531E-02 -0.48799789997E-01  0.81333964680E-01  0.51100000000E-03 0. -1.
</event>
<event>
 8    1  0.1123450E+005  0.1043930E+01  0.7957747E-01            NaN
         13   -1    0    0    0    0  0.00000000000E+00  0.00000000000E+00  0.74505805969E-08  0.10566000000E+00  0.10566000000E+00 0. -1.
     999900   -1    0    0    0    0 -0.00000000000E+00 -0.00000000000E+00 -0.74505805969E-08  0.93827000000E+00  0.93827000000E+00 0. -1.
     999902    2    1    2    0    0  0.14778836159E-01 -0.18409597276E-01  0.28103128336E-02  0.10201555362E+01  0.10198784697E+01 0.  0.
     999903    2    3    3    0    0 -0.26521815477E-01  0.71397299191E-01  0.10217620336E+00  0.12906373248E+00  0.20408073920E-01 0.  0.
         14    1    1    2    0    0 -0.14778836159E-01  0.18409597276E-01 -0.28103128336E-02  0.23774463786E-01  0.00000000000E+00 0.  1.
     999901    1    3    3    0    0  0.41300651636E-01 -0.89806896467E-01 -0.99365890527E-01  0.89109180373E+00  0.88000000000E+00 0. -1.
        -11    1    4    4    0    0 -0.19013451980E-01  0.28182837033E-01  0.34686465001E-01  0.48571551701E-01  0.51100000000E-03 0.  1.
         11    1    4    4    0    0 -0.75083634970E-02  0.43214462158E-01  0.67489738359E-01  0.80492180781E-01  0.51100000000E-03 0. -1.
</event>
<event>
 8    1  0.1123450E+005  0.1043930E+01  0.7957747E-01            NaN
         13   -1    0    0    0    0  0.00000000000E+00  0.00000000000E+00  0.74505805969E-08  0.10566000000E+00  0.10566000000E+00 0.  1.
     999900   -1    0    0    0    0 -0.00000000000E+00 -0.00000000000E+00 -0.74505805969E-08  0.93827000000E+00  0.93827000000E+00 0.  1.
     999902    2    1    2    0    0 -0.97067324357E-02 -0.15701691558E-01 -0.62811694303E-02  0.10244308497E+01  0.10242452582E+01 0.  0.
     999903    2    3    3    0    0  0.60059313201E-01  0.60887971452E-01  0.99115422093E-01  0.13210707490E+00  0.17718526217E-01 0.  0.
         14    1    1    2    0    0  0.97067324357E-02  0.15701691558E-01  0.62811694303E-02  0.19499150284E-01  0.00000000000E+00 0.  1.
     999901    1    3    3    0    0 -0.69766045637E-01 -0.76589663010E-01 -0.10539659152E+00  0.89232377482E+00  0.88000000000E+00 0.  1.
        -11    1    4    4    0    0  0.34889129864E-01  0.24862972315E-01  0.41561036910E-01  0.59690867686E-01  0.51100000000E-03 0. -1.
         11    1    4    4    0    0  0.25170183337E-01  0.36024999137E-01  0.57554385183E-01  0.72416207211E-01  0.51100000000E-03 0.  1.
</event>
<event>
 8    1  0.1123450E+005  0.1043930E+01  0.7957747E-01            NaN
         13   -1    0    0    0    0  0.00000000000E+00  0.00000000000E+00  0.74505805969E-08  0.10566000000E+00  0.10566000000E+00 0. -1.
     999900   -1    0    0    0    0 -0.00000000000E+00 -0.00000000000E+00 -0.74505805969E-08  0.93827000000E+00  0.93827000000E+00 0. -1.
     999902    2    1    2    0    0  0.61014651476E-02 -0.16842420548E-01  0.15363452974E-01  0.10203306209E+01  0.10200576676E+01 0.  0.
     999903    2    3    3    0    0 -0.97418669585E-01  0.68783390626E-01  0.46711875218E-01  0.12958322606E+00  0.19704344169E-01 0.  0.
         14    1    1    2    0    0 -0.61014651476E-02  0.16842420548E-01 -0.15363452974E-01  0.23599379105E-01  0.00000000000E+00 0.  1.
     999901    1    3    3    0    0  0.10352013473E+00 -0.85625811173E-01 -0.31348422243E-01  0.89074739484E+00  0.88000000000E+00 0. -1.
        -11    1    4    4    0    0 -0.11488331298E-01  0.16153859710E-02  0.67051551666E-02  0.13409379354E-01  0.51100000000E-03 0.  1.
         11    1    4    4    0    0 -0.85930338287E-01  0.67168004655E-01  0.40006720051E-01  0.11617384670E+00  0.51100000000E-03 0. -1.
</event>
<event>
 8    1  0.1123450E+005  0.1043930E+01  0.7957747E-01            NaN
         13   -1    0    0    0    0  0.00000000000E+00  0.00000000000E+00  0.74505805969E-08  0.10566000000E+00  0.10566000000E+00 0.  1.
     999900   -1    0    0    0    0 -0.00000000000E+00 -0.00000000000E+00 -0.74505805969E-08  0.93827000000E+00  0.93827000000E+00 0.  1.
     999902    2    1    2    0    0 -0.52124389023E-03  0.18439283411E-01  0.15265275835E-01  0.10199861592E+01  0.10197050835E+01 0.  0.
     999903    2    3    3    0    0 -0.10910116417E+00  0.60121310461E-01 -0.34827198589E-01  0.13092134349E+00  0.20244219548E-01 0.  0.
         14    1    1    2    0    0  0.52124389023E-03 -0.18439283411E-01 -0.15265275835E-01  0.23943840841E-01  0.00000000000E+00 0.  1.
     999901    1    3    3    0    0  0.10857992028E+00 -0.41682027050E-01  0.50092474424E-01  0.88906481567E+00  0.88000000000E+00 0. -1.
        -11    1    4    4    0    0 -0.50002853829E-01  0.29802765377E-01 -0.60312950675E-02  0.58524591894E-01  0.51100000000E-03 0.  1.
         11    1    4    4    0    0 -0.59098310340E-01  0.30318545084E-01 -0.28795903522E-01  0.72396751596E-01  0.51100000000E-03 0. -1.
</event>
<event>
 8    1  0.1123450E+005  0.1043930E+01  0.7957747E-01            NaN
         13   -1    0    0    0    0  0.00000000000E+00  0.00000000000E+00  0.74505805969E-08  0.10566000000E+00  0.10566000000E+00 0.  1.
     999900   -1    0    0    0    0 -0.00000000000E+00 -0.00000000000E+00 -0.74505805969E-08  0.93827000000E+00  0.93827000000E+00 0. -1.
     999902    2    1    2    0    0 -0.21926212280E-01 -0.93638881984E-02 -0.31163909610E-02  0.10198851860E+01  0.10196017063E+01 0.  0.
     999903    2    3    3    0    0  0.99245438791E-01 -0.89248354738E-02  0.77635162147E-01  0.12791905710E+00  0.20168216562E-01 0.  0.
         14    1    1    2    0    0  0.21926212280E-01  0.93638881984E-02  0.31163909610E-02  0.24044813989E-01  0.00000000000E+00 0.  1.
     999901    1    3    3    0    0 -0.12117165107E+00 -0.43905272457E-03 -0.80751553108E-01  0.89196612891E+00  0.88000000000E+00 0. -1.
        -11    1    4    4    0    0  0.72624141725E-01 -0.54160872348E-02  0.67238467923E-01  0.99120495619E-01  0.51100000000E-03 0.  1.
         11    1    4    4    0    0  0.26621297067E-01 -0.35087482390E-02  0.10396694224E-01  0.28798561483E-01  0.51100000000E-03 0. -1.
</event>
<event>
 8    1  0.1123450E+005  0.1043930E+01  0.7957747E-01            NaN
         13   -1    0    0    0    0  0.00000000000E+00  0.00000000000E+00  0.74505805969E-08  0.10566000000E+00  0.10566000000E+00 0.  1.
     999900   -1    0    0    0    0 -0.00000000000E+00 -0.00000000000E+00 -0.74505805969E-08  0.93827000000E+00  0.93827000000E+00 0. -1.
     999902    2    1    2    0    0 -0.38414197445E-02  0.17683905030E-01 -0.15343336774E-01  0.10202045920E+01  0.10199286811E+01 0.  0.
     999903    2    3    3    0    0 -0.57554986789E-02 -0.12642645755E+00 -0.96953751996E-02  0.12846283576E+00  0.19797094173E-01 0.  0.
         14    1    1    2    0    0  0.38414197445E-02 -0.17683905030E-01  0.15343336774E-01  0.23725408028E-01  0.00000000000E+00 0.  1.
     999901    1    3    3    0    0  0.19140789344E-02  0.14411036258E+00 -0.56479615742E-02  0.89174175621E+00  0.88000000000E+00 0.  1.
        -11    1    4    4    0    0 -0.26618186201E-02 -0.84503597513E-01  0.28370028889E-02  0.84594639177E-01  0.51100000000E-03 0.  1.
         11    1    4    4    0    0 -0.30936800588E-02 -0.41922860036E-01 -0.12532378088E-01  0.43868196584E-01  0.51100000000E-03 0. -1.
</event>
<event>
 8    1  0.1123450E+005  0.1043930E+01  0.7957747E-01            NaN
         13   -1    0    0    0    0  0.00000000000E+00  0.00000000000E+00  0.74505805969E-08  0.10566000000E+00  0.10566000000E+00 0. -1.
     999900   -1    0    0    0    0 -0.00000000000E+00 -0.00000000000E+00 -0.74505805969E-08  0.93827000000E+00  0.93827000000E+00 0. -1.
     999902    2    1    2    0    0  0.33272036002E-02  0.80402305068E-02 -0.21523585458E-01  0.10207140503E+01  0.10204499949E+01 0.  0.
     999903    2    3    3    0    0 -0.79647336286E-01 -0.15201412391E-01 -0.10305759219E+00  0.13275417366E+00  0.20688697412E-01 0.  0.
         14    1    1    2    0    0 -0.33272036002E-02 -0.80402305068E-02  0.21523585458E-01  0.23215949719E-01  0.00000000000E+00 0. -1.
     999901    1    3    3    0    0  0.82974539886E-01  0.23241642898E-01  0.81534006730E-01  0.88795987662E+00  0.88000000000E+00 0.  1.
        -11    1    4    4    0    0 -0.41072795144E-01 -0.12093595200E-01 -0.68965654246E-01  0.81177288279E-01  0.51100000000E-03 0. -1.
         11    1    4    4    0    0 -0.38574541142E-01 -0.31078171909E-02 -0.34091937942E-01  0.51576885381E-01  0.51100000000E-03 0.  1.
</event>
<event>
 8    1  0.1123450E+005  0.1043930E+01  0.7957747E-01            NaN
         13   -1    0    0    0    0  0.00000000000E+00  0.00000000000E+00  0.74505805969E-08  0.10566000000E+00  0.10566000000E+00 0. -1.
     999900   -1    0    0    0    0 -0.00000000000E+00 -0.00000000000E+00 -0.74505805969E-08  0.93827000000E+00  0.93827000000E+00 0.  1.
     999902    2    1    2    0    0 -0.64695248831E-02  0.57265483582E-02 -0.21886076596E-01  0.10204002644E+01  0.10201289385E+01 0.  0.
     999903    2    3    3    0    0  0.10216814158E+00 -0.39859363891E-01 -0.69290382984E-01  0.13128419424E+00  0.20181289345E-01 0.  0.
         14    1    1    2    0    0  0.64695248831E-02 -0.57265483582E-02  0.21886076596E-01  0.23529735593E-01  0.00000000000E+00 0. -1.
     999901    1    3    3    0    0 -0.10863766646E+00  0.45585912249E-01  0.47404306388E-01  0.88911607017E+00  0.88000000000E+00 0. -1.
        -11    1    4    4    0    0  0.86058649460E-01 -0.25313707617E-01 -0.53627999905E-01  0.10451362799E+00  0.51100000000E-03 0. -1.
         11    1    4    4    0    0  0.16109492117E-01 -0.14545656273E-01 -0.15662383078E-01  0.26770566251E-01  0.51100000000E-03 0.  1.
</event>
<event>
 8    1  0.1123450E+005  0.1043930E+01  0.7957747E-01            NaN
         13   -1    0    0    0    0  0.00000000000E+00  0.00000000000E+00  0.74505805969E-08  0.10566000000E+00  0.10566000000E+00 0.  1.
     999900   -1    0    0    0    0 -0.00000000000E+00 -0.00000000000E+00 -0.74505805969E-08  0.93827000000E+00  0.93827000000E+00 0.  1.
     999902    2    1    2    0    0  0.19507524178E-02  0.23338597942E-01 -0.31412779196E-02  0.10203002896E+01  0.10200266259E+01 0.  0.
     999903    2    3    3    0    0 -0.12659395277E+00 -0.29602322677E-02  0.20249959195E-01  0.13026516683E+00  0.22894562457E-01 0.  0.
         14    1    1    2    0    0 -0.19507524178E-02 -0.23338597942E-01  0.31412779196E-02  0.23629710448E-01  0.00000000000E+00 0. -1.
     999901    1    3    3    0    0  0.12854470518E+00  0.26298830210E-01 -0.23391237114E-01  0.89003512272E+00  0.88000000000E+00 0. -1.
        -11    1    4    4    0    0 -0.54700011557E-01 -0.48765429341E-02  0.19688032048E-01  0.58341680318E-01  0.51100000000E-03 0.  1.
         11    1    4    4    0    0 -0.71893941210E-01  0.19163106665E-02  0.56192714637E-03  0.71923486514E-01  0.51100000000E-03 0. -1.
</event>
<event>
 8    1  0.1123450E+005  0.1043930E+01  0.7957747E-01            NaN
         13   -1    0    0    0    0  0.00000000000E+00  0.00000000000E+00  0.74505805969E-08  0.10566000000E+00  0.10566000000E+00 0.  1.
     999900   -1    0    0    0    0 -0.00000000000E+00 -0.00000000000E+00 -0.74505805969E-08  0.93827000000E+00  0.93827000000E+00 0.  1.
     999902    2    1    2    0    0  0.17153339314E-01 -0.15543077460E-01 -0.61717708556E-02  0.10199734756E+01  0.10196920985E+01 0.  0.
     999903    2    3    3    0    0  0.69187916400E-01 -0.67933939967E-01  0.87482935891E-01  0.13192865477E+00  0.18706092620E-01 0.  0.
         14    1    1    2    0    0 -0.17153339314E-01  0.15543077460E-01  0.61717708556E-02  0.23956524415E-01  0.00000000000E+00 0.  1.
     999901    1    3    3    0    0 -0.52034577086E-01  0.52390862508E-01 -0.93654706747E-01  0.88804482082E+00  0.88000000000E+00 0.  1.
        -11    1    4    4    0    0  0.13549031746E-01 -0.19520407296E-01  0.12926807519E-01  0.27055240452E-01  0.51100000000E-03 0. -1.
         11    1    4    4    0    0  0.55638884654E-01 -0.48413532671E-01  0.74556128371E-01  0.10487341431E+00  0.51100000000E-03 0.  1.
</event>
<event>
 8    1  0.1123450E+005  0.1043930E+01  0.7957747E-01            NaN
         13   -1    0    0    0    0  0.00000000000E+00  0.00000000000E+00  0.74505805969E-08  0.10566000000E+00  0.10566000000E+00 0.  1.
     999900   -1    0    0    0    0 -0.00000000000E+00 -0.00000000000E+00 -0.74505805969E-08  0.93827000000E+00  0.93827000000E+00 0.  1.
     999902    2    1    2    0    0  0.45058631478E-02  0.26493617283E-01  0.28799128786E-02  0.10169020800E+01  0.10165428333E+01 0.  0.
     999903    2    3    3    0    0 -0.11495739390E+00  0.16937890384E-01 -0.47992654110E-01  0.12732307861E+00  0.20143906148E-01 0.  0.
         14    1    1    2    0    0 -0.45058631478E-02 -0.26493617283E-01 -0.28799128786E-02  0.27027919965E-01  0.00000000000E+00 0.  1.
     999901    1    3    3    0    0  0.11946325705E+00  0.95557268985E-02  0.50872566989E-01  0.88957900142E+00  0.88000000000E+00 0. -1.
        -11    1    4    4    0    0 -0.66651122038E-01  0.18154521672E-01 -0.34113789271E-01  0.77045249467E-01  0.51100000000E-03 0. -1.
         11    1    4    4    0    0 -0.48306271866E-01 -0.12166312881E-02 -0.13878864839E-01  0.50277829144E-01  0.51100000000E-03 0.  1.
</event>
<event>
 8    1  0.1123450E+005  0.1043930E+01  0.7957747E-01            NaN
         13   -1    0    0    0    0  0.00000000000E+00  0.00000000000E+00  0.74505805969E-08  0.10566000000E+00  0.10566000000E+00 0. -1.
     999900   -1    0    0    0    0 -0.00000000000E+00 -0.00000000000E+00 -0.74505805969E-08  0.93827000000E+00  0.93827000000E+00 0.  1.
     999902    2    1    2    0    0  0.39520060939E-02 -0.15116628712E-01  0.16819396123E-01  0.10209730206E+01  0.10207148897E+01 0.  0.
     999903    2    3    3    0    0  0.12769165091E+00  0.94042020054E-02  0.26920495499E-01  0.13192026458E+00  0.16871467058E-01 0.  0.
         14    1    1    2    0    0 -0.39520060939E-02  0.15116628712E-01 -0.16819396123E-01  0.22956979368E-01  0.00000000000E+00 0.  1.
     999901    1    3    3    0    0 -0.12373964482E+00 -0.24520830717E-01 -0.10101099377E-01  0.88905275605E+00  0.88000000000E+00 0.  1.
        -11    1    4    4    0    0  0.29250998120E-01 -0.34151550239E-02  0.17511643212E-02  0.29506132792E-01  0.51100000000E-03 0.  1.
         11    1    4    4    0    0  0.98440652791E-01  0.12819357029E-01  0.25169331178E-01  0.10241413179E+00  0.51100000000E-03 0. -1.
</event>
<event>
 8    1  0.1123450E+005  0.1043930E+01  0.7957747E-01            NaN
         13   -1    0    0    0    0  0.00000000000E+00  0.00000000000E+00  0.74505805969E-08  0.10566000000E+00  0.10566000000E+00 0.  1.
     999900   -1    0    0    0    0 -0.00000000000E+00 -0.00000000000E+00 -0.74505805969E-08  0.93827000000E+00  0.93827000000E+00 0. -1.
     999902    2    1    2    0    0 -0.17618123606E-01  0.13763965782E-01 -0.10647031936E-01  0.10191670373E+01  0.10188661568E+01 0.  0.
     999903    2    3    3    0    0  0.65546805626E-01  0.10976176151E+00 -0.13576545119E-01  0.13004355638E+00  0.19569771631E-01 0.  0.
         14    1    1    2    0    0  0.17618123606E-01 -0.13763965782E-01  0.10647031936E-01  0.24762962717E-01  0.00000000000E+00 0.  1.
     999901    1    3    3    0    0 -0.83164929233E-01 -0.95997795730E-01  0.29295131826E-02  0.88912348090E+00  0.88000000000E+00 0. -1.
        -11    1    4    4    0    0  0.15077057052E-01  0.33073017254E-01 -0.11801692442E-01  0.38218885189E-01  0.51100000000E-03 0. -1.
         11    1    4    4    0    0  0.50469748575E-01  0.76688744258E-01 -0.17748526775E-02  0.91824671195E-01  0.51100000000E-03 0.  1.
</event>
<event>
 7    1  0.1123450E+005  0.1043930E+01  0.7957747E-01            NaN
         13   -1    0    0    0    0  0.00000000000E+00  0.00000000000E+00  0.74505805969E-08  0.10566000000E+00  0.10566000000E+00 0.  1.
     999900   -1    0    0    0    0 -0.00000000000E+00 -0.00000000000E+00 -0.74505805969E-08  0.93827000000E+00  0.93827000000E+00 0. -1.
     999903    2    1    2    0    0 -0.72283866740E-01  0.19533513356E-01 -0.38991939056E-01  0.86892513555E-01  0.20577222009E-01 0.  0.
         14    1    1    2    0    0 -0.23519883259E-01  0.16279771389E-02  0.67118048333E-01  0.71138369605E-01  0.00000000000E+00 0.  1.
     999901    1    1    2    0    0  0.95803750000E-01 -0.21161490495E-01 -0.28126109276E-01  0.88589911684E+00  0.88000000000E+00 0. -1.
        -11    1    3    3    0    0 -0.11848001740E-01  0.79297429758E-02 -0.15376846745E-01  0.20975330884E-01  0.51100000000E-03 0. -1.
         11    1    3    3    0    0 -0.60435865001E-01  0.11603770381E-01 -0.23615092312E-01  0.65917182671E-01  0.51100000000E-03 0.  1.
</event>
<event>
 8    1  0.1123450E+005  0.1043930E+01  0.7957747E-01            NaN
         13   -1    0    0    0    0  0.00000000000E+00  0.00000000000E+00  0.74505805969E-08  0.10566000000E+00  0.10566000000E+00 0.  1.
     999900   -1    0    0    0    0 -0.00000000000E+00 -0.00000000000E+00 -0.74505805969E-08  0.93827000000E+00  0.93827000000E+00 0. -1.
     999902    2    1    2    0    0  0.23535990906E-01 -0.71105586690E-02 -0.30845915900E-02  0.10191506211E+01  0.10188493367E+01 0.  0.
     999903    2    3    3    0    0 -0.79823570780E-01 -0.96964359017E-01 -0.17904859301E-01  0.12843374985E+00  0.20018859654E-01 0.  0.
         14    1    1    2    0    0 -0.23535990906E-01  0.71105586690E-02  0.30845915900E-02  0.24779378883E-01  0.00000000000E+00 0. -1.
     999901    1    3    3    0    0  0.10335956169E+00  0.89853800348E-01  0.14820267711E-01  0.89071687127E+00  0.88000000000E+00 0.  1.
        -11    1    4    4    0    0 -0.31182596794E-01 -0.44101469098E-01  0.14510092048E-02  0.54033882594E-01  0.51100000000E-03 0.  1.
         11    1    4    4    0    0 -0.48640973986E-01 -0.52862889918E-01 -0.19355868506E-01  0.74399867254E-01  0.51100000000E-03 0. -1.
</event>
<event>
 8    1  0.1123450E+005  0.1043930E+01  0.7957747E-01            NaN
         13   -1    0    0    0    0  0.00000000000E+00  0.00000000000E+00  0.74505805969E-08  0.10566000000E+00  0.10566000000E+00 0. -1.
     999900   -1    0    0    0    0 -0.00000000000E+00 -0.00000000000E+00 -0.74505805969E-08  0.93827000000E+00  0.93827000000E+00 0.  1.
     999902    2    1    2    0    0 -0.19498757708E-01  0.13394449774E-01 -0.44916962735E-03  0.10202695987E+01  0.10199952154E+01 0.  0.
     999903    2    3    3    0    0 -0.11929343304E+00  0.55959892061E-01  0.69368436227E-02  0.13357610751E+00  0.20785187349E-01 0.  0.
         14    1    1    2    0    0  0.19498757708E-01 -0.13394449774E-01  0.44916962735E-03  0.23660401312E-01  0.00000000000E+00 0. -1.
     999901    1    3    3    0    0  0.99794675331E-01 -0.42565442287E-01 -0.73860132500E-02  0.88669349118E+00  0.88000000000E+00 0. -1.
        -11    1    4    4    0    0 -0.58925199964E-01  0.24367874832E-01 -0.65994472827E-02  0.64107615305E-01  0.51100000000E-03 0.  1.
         11    1    4    4    0    0 -0.60368233075E-01  0.31592017228E-01  0.13536290905E-01  0.69468492208E-01  0.51100000000E-03 0. -1.
</event>
<event>
 8    1  0.1123450E+005  0.1043930E+01  0.7957747E-01            NaN
         13   -1    0    0    0    0  0.00000000000E+00  0.00000000000E+00  0.74505805969E-08  0.10566000000E+00  0.10566000000E+00 0. -1.
     999900   -1    0    0    0    0 -0.00000000000E+00 -0.00000000000E+00 -0.74505805969E-08  0.93827000000E+00  0.93827000000E+00 0.  1.
     999902    2    1    2    0    0  0.22148471355E-01  0.42555103208E-02 -0.38489328760E-02  0.10210503489E+01  0.10207939736E+01 0.  0.
     999903    2    3    3    0    0 -0.78841872733E-01  0.90903357927E-01  0.44236283782E-01  0.12974844314E+00  0.19958665210E-01 0.  0.
         14    1    1    2    0    0 -0.22148471355E-01 -0.42555103208E-02  0.38489328760E-02  0.22879651128E-01  0.00000000000E+00 0.  1.
     999901    1    3    3    0    0  0.10099034409E+00 -0.86647847606E-01 -0.48085216658E-01  0.89130190573E+00  0.88000000000E+00 0.  1.
        -11    1    4    4    0    0 -0.34575723552E-01  0.55038667060E-01  0.23351230786E-01  0.69067189251E-01  0.51100000000E-03 0.  1.
         11    1    4    4    0    0 -0.44266149181E-01  0.35864690867E-01  0.20885052997E-01  0.60681253893E-01  0.51100000000E-03 0. -1.
</event>
<event>
 8    1  0.1123450E+005  0.1043930E+01  0.7957747E-01            NaN
         13   -1    0    0    0    0  0.00000000000E+00  0.00000000000E+00  0.74505805969E-08  0.10566000000E+00  0.10566000000E+00 0.  1.
     999900   -1    0    0    0    0 -0.00000000000E+00 -0.00000000000E+00 -0.74505805969E-08  0.93827000000E+00  0.93827000000E+00 0.  1.
     999902    2    1    2    0    0 -0.20624881333E-01  0.79976972104E-04  0.95935135923E-02  0.10211829644E+01  0.10209295858E+01 0.  0.
     999903    2    3    3    0    0 -0.53479166059E-01  0.53950133035E-01  0.10799506600E+00  0.13345312752E+00  0.19394971190E-01 0.  0.
         14    1    1    2    0    0  0.20624881333E-01 -0.79976972104E-04 -0.95935135923E-02  0.22747035617E-01  0.00000000000E+00 0. -1.
     999901    1    3    3    0    0  0.32854284726E-01 -0.53870156062E-01 -0.98401552409E-01  0.88772983686E+00  0.88000000000E+00 0.  1.
        -11    1    4    4    0    0 -0.32191712603E-01  0.24087581860E-01  0.69426595114E-01  0.80229864703E-01  0.51100000000E-03 0.  1.
         11    1    4    4    0    0 -0.21287453456E-01  0.29862551175E-01  0.38568470888E-01  0.53223262818E-01  0.51100000000E-03 0. -1.
</event>
<event>
 8    1  0.1182397E+005  0.1043930E+01  0.7957747E-01            NaN
         13   -1    0    0    0    0  0.00000000000E+00  0.00000000000E+00  0.74505805969E-08  0.10566000000E+00  0.10566000000E+00 0. -1.
     999900   -1    0    0    0    0 -0.00000000000E+00 -0.00000000000E+00 -0.74505805969E-08  0.93827000000E+00  0.93827000000E+00 0.  1.
     999902    2    1    2    0    0 -0.15678549157E-01  0.11341139313E-01 -0.17055138489E-01  0.10181362780E+01  0.10178094932E+01 0.  0.
     999903    2    3    3    0    0 -0.73917876134E-01  0.92290554387E-01 -0.54686046886E-01  0.13170482987E+00  0.19344240635E-01 0.  0.
         14    1    1    2    0    0  0.15678549157E-01 -0.11341139313E-01  0.17055138489E-01  0.25793721978E-01  0.00000000000E+00 0. -1.
     999901    1    3    3    0    0  0.58239326977E-01 -0.80949415073E-01  0.37630908397E-01  0.88643144815E+00  0.88000000000E+00 0.  1.
        -11    1    4    4    0    0 -0.31961638574E-01  0.35188110475E-01 -0.12188270860E-01  0.49077128346E-01  0.51100000000E-03 0. -1.
         11    1    4    4    0    0 -0.41956237559E-01  0.57102443912E-01 -0.42497776026E-01  0.82627701523E-01  0.51100000000E-03 0.  1.
</event>
<event>
 8    1  0.1123450E+005  0.1043930E+01  0.7957747E-01            NaN
         13   -1    0    0    0    0  0.00000000000E+00  0.00000000000E+00  0.74505805969E-08  0.10566000000E+00  0.10566000000E+00 0.  1.
     999900   -1    0    0    0    0 -0.00000000000E+00 -0.00000000000E+00 -0.74505805969E-08  0.93827000000E+00  0.93827000000E+00 0.  1.
     999902    2    1    2    0    0 -0.19647229209E-01 -0.12265162576E-01 -0.14757720218E-01  0.10164666037E+01  0.10160955262E+01 0.  0.
     999903    2    3    3    0    0  0.91459806582E-01 -0.75482226940E-01  0.36742456549E-01  0.12574024910E+00  0.19953428936E-01 0.  0.
         14    1    1    2    0    0  0.19647229209E-01  0.12265162576E-01  0.14757720218E-01  0.27463396269E-01  0.00000000000E+00 0.  1.
     999901    1    3    3    0    0 -0.11110703579E+00  0.63217064364E-01 -0.51500176766E-01  0.89072635463E+00  0.88000000000E+00 0. -1.
        -11    1    4    4    0    0  0.56638300735E-01 -0.58502990869E-01  0.22760175138E-01  0.84550480448E-01  0.51100000000E-03 0. -1.
         11    1    4    4    0    0  0.34821505847E-01 -0.16979236071E-01  0.13982281411E-01  0.41189768650E-01  0.51100000000E-03 0.  1.
</event>
<event>
 8    1  0.1123450E+005  0.1043930E+01  0.7957747E-01            NaN
         13   -1    0    0    0    0  0.00000000000E+00  0.00000000000E+00  0.74505805969E-08  0.10566000000E+00  0.10566000000E+00 0. -1.
     999900   -1    0    0    0    0 -0.00000000000E+00 -0.00000000000E+00 -0.74505805969E-08  0.93827000000E+00  0.93827000000E+00 0.  1.
     999902    2    1    2    0    0 -0.10756274267E-01  0.16545409325E-01  0.12800928096E-01  0.10204074201E+01  0.10201362611E+01 0.  0.
     999903    2    3    3    0    0 -0.47254940282E-01 -0.61558372510E-01  0.10425201499E+00  0.13147792082E+00  0.19887142250E-01 0.  0.
         14    1    1    2    0    0  0.10756274267E-01 -0.16545409325E-01 -0.12800928096E-01  0.23522579917E-01  0.00000000000E+00 0.  1.
     999901    1    3    3    0    0  0.36498666015E-01  0.78103781834E-01 -0.91451086898E-01  0.88892949926E+00  0.88000000000E+00 0.  1.
        -11    1    4    4    0    0 -0.45556111872E-01 -0.47555364993E-01  0.82764325683E-01  0.10576893114E+00  0.51100000000E-03 0. -1.
         11    1    4    4    0    0 -0.16988284105E-02 -0.14003007517E-01  0.21487689311E-01  0.25708989680E-01  0.51100000000E-03 0.  1.
</event>
<event>
 8    1  0.1123450E+005  0.1043930E+01  0.7957747E-01            NaN
         13   -1    0    0    0    0  0.00000000000E+00  0.00000000000E+00  0.74505805969E-08  0.10566000000E+00  0.10566000000E+00 0. -1.
     999900   -1    0    0    0    0 -0.00000000000E+00 -0.00000000000E+00 -0.74505805969E-08  0.93827000000E+00  0.93827000000E+00 0. -1.
     999902    2    1    2    0    0  0.20682413604E-01  0.85298764735E-02  0.86420557728E-03  0.10215409876E+01  0.10212956092E+01 0.  0.
     999903    2    3    3    0    0 -0.25504965164E-01 -0.52979054580E-01  0.11512445519E+00  0.13082665224E+00  0.20116890460E-01 0.  0.
         14    1    1    2    0    0 -0.20682413604E-01 -0.85298764735E-02 -0.86420557728E-03  0.22389012404E-01  0.00000000000E+00 0.  1.
     999901    1    3    3    0    0  0.46187378769E-01  0.61508931054E-01 -0.11426024962E+00  0.89071433535E+00  0.88000000000E+00 0. -1.
        -11    1    4    4    0    0 -0.54029417789E-02 -0.19530923966E-01  0.22326610117E-01  0.30156050987E-01  0.51100000000E-03 0.  1.
         11    1    4    4    0    0 -0.20102023386E-01 -0.33448130614E-01  0.92797845076E-01  0.10067060126E+00  0.51100000000E-03 0. -1.
</event>
<event>
 8    1  0.1123450E+005  0.1043930E+01  0.7957747E-01            NaN
         13   -1    0    0    0    0  0.00000000000E+00  0.00000000000E+00  0.74505805969E-08  0.10566000000E+00  0.10566000000E+00 0.  1.
     999900   -1    0    0    0    0 -0.00000000000E+00 -0.00000000000E+00 -0.74505805969E-08  0.93827000000E+00  0.93827000000E+00 0. -1.
     999902    2    1    2    0    0 -0.89874403762E-02 -0.19466803035E-01 -0.85564533179E-02  0.10208444331E+01  0.10205833691E+01 0.  0.
     999903    2    3    3    0    0  0.86889740680E-01 -0.43043029654E-01  0.85539076723E-01  0.13033770036E+00  0.16384536972E-01 0.  0.
         14    1    1    2    0    0  0.89874403762E-02  0.19466803035E-01  0.85564533179E-02  0.23085566883E-01  0.00000000000E+00 0. -1.
     999901    1    3    3    0    0 -0.95877181056E-01  0.23576226619E-01 -0.94095530041E-01  0.89050673276E+00  0.88000000000E+00 0. -1.
        -11    1    4    4    0    0  0.49445986771E-01 -0.33401378728E-01  0.51901107131E-01  0.79085673488E-01  0.51100000000E-03 0. -1.
         11    1    4    4    0    0  0.37443753909E-01 -0.96416509259E-02  0.33637969592E-01  0.51252026873E-01  0.51100000000E-03 0.  1.
</event>
<event>
 8    1  0.1123450E+005  0.1043930E+01  0.7957747E-01            NaN
         13   -1    0    0    0    0  0.00000000000E+00  0.00000000000E+00  0.74505805969E-08  0.10566000000E+00  0.10566000000E+00 0. -1.
     999900   -1    0    0    0    0 -0.00000000000E+00 -0.00000000000E+00 -0.74505805969E-08  0.93827000000E+00  0.93827000000E+00 0. -1.
     999902    2    1    2    0    0  0.12115408684E-01 -0.19075427362E-01 -0.42943361912E-02  0.10209279049E+01  0.10206687467E+01 0.  0.
     999903    2    3    3    0    0 -0.76399952349E-01  0.89722233572E-01  0.46676639143E-01  0.12836421500E+00  0.20288694758E-01 0.  0.
         14    1    1    2    0    0 -0.12115408684E-01  0.19075427362E-01  0.42943361912E-02  0.23002095120E-01  0.00000000000E+00 0. -1.
     999901    1    3    3    0    0  0.88515361033E-01 -0.10879766093E+00 -0.50970975335E-01  0.89256368988E+00  0.88000000000E+00 0. -1.
        -11    1    4    4    0    0 -0.48050541804E-01  0.69081408103E-01  0.28382757116E-01  0.88808431670E-01  0.51100000000E-03 0. -1.
         11    1    4    4    0    0 -0.28349410545E-01  0.20640825469E-01  0.18293882028E-01  0.39555783331E-01  0.51100000000E-03 0.  1.
</event>
<event>
 8    1  0.1123450E+005  0.1043930E+01  0.7957747E-01            NaN
         13   -1    0    0    0    0  0.00000000000E+00  0.00000000000E+00  0.74505805969E-08  0.10566000000E+00  0.10566000000E+00 0. -1.
     999900   -1    0    0    0    0 -0.00000000000E+00 -0.00000000000E+00 -0.74505805969E-08  0.93827000000E+00  0.93827000000E+00 0.  1.
     999902    2    1    2    0    0  0.18548049369E-02  0.94420027319E-02 -0.21393483816E-01  0.10204721044E+01  0.10202024519E+01 0.  0.
     999903    2    3    3    0    0  0.12119664362E+00 -0.39601897118E-01 -0.26096720683E-01  0.13105100108E+00  0.15374959243E-01 0.  0.
         14    1    1    2    0    0 -0.18548049369E-02 -0.94420027319E-02  0.21393483816E-01  0.23457895616E-01  0.00000000000E+00 0. -1.
     999901    1    3    3    0    0 -0.11934183869E+00  0.49043899850E-01  0.47032368675E-02  0.88942110331E+00  0.88000000000E+00 0. -1.
        -11    1    4    4    0    0  0.20516971097E-01 -0.84321542235E-02  0.10590821594E-02  0.22213286652E-01  0.51100000000E-03 0. -1.
         11    1    4    4    0    0  0.10067967253E+00 -0.31169742895E-01 -0.27155802843E-01  0.10883771442E+00  0.51100000000E-03 0.  1.
</event>
<event>
 8    1  0.1123450E+005  0.1043930E+01  0.7957747E-01            NaN
         13   -1    0    0    0    0  0.00000000000E+00  0.00000000000E+00  0.74505805969E-08  0.10566000000E+00  0.10566000000E+00 0. -1.
     999900   -1    0    0    0    0 -0.00000000000E+00 -0.00000000000E+00 -0.74505805969E-08  0.93827000000E+00  0.93827000000E+00 0.  1.
     999902    2    1    2    0    0 -0.13090553224E-01  0.19920438101E-01  0.79213019142E-02  0.10188116111E+01  0.10185019221E+01 0.  0.
     999903    2    3    3    0    0  0.40258601318E-01  0.38342796263E-01 -0.11426573555E+00  0.12857839013E+00  0.19616806090E-01 0.  0.
         14    1    1    2    0    0  0.13090553224E-01 -0.19920438101E-01 -0.79213019142E-02  0.25118388918E-01  0.00000000000E+00 0.  1.
     999901    1    3    3    0    0 -0.53349154542E-01 -0.18422358162E-01  0.12218703746E+00  0.89023322096E+00  0.88000000000E+00 0. -1.
        -11    1    4    4    0    0  0.34173114384E-01  0.39981098141E-01 -0.10058689717E+00  0.11350892018E+00  0.51100000000E-03 0. -1.
         11    1    4    4    0    0  0.60854869342E-02 -0.16383018781E-02 -0.13678838375E-01  0.15069469949E-01  0.51100000000E-03 0.  1.
</event>
<event>
 8    1  0.1123450E+005  0.1043930E+01  0.7957747E-01            NaN
         13   -1    0    0    0    0  0.00000000000E+00  0.00000000000E+00  0.74505805969E-08  0.10566000000E+00  0.10566000000E+00 0.  1.
     999900   -1    0    0    0    0 -0.00000000000E+00 -0.00000000000E+00 -0.74505805969E-08  0.93827000000E+00  0.93827000000E+00 0.  1.
     999902    2    1    2    0    0  0.20799652279E-01 -0.50489490157E-02  0.94981871640E-02  0.10205134891E+01  0.10202447983E+01 0.  0.
     999903    2    3    3    0    0 -0.81430993125E-02  0.84109724264E-01 -0.95548221571E-01  0.12932232005E+00  0.21308309072E-01 0.  0.
         14    1    1    2    0    0 -0.20799652279E-01  0.50489490157E-02 -0.94981871640E-02  0.23416510852E-01  0.00000000000E+00 0.  1.
     999901    1    3    3    0    0  0.28942751591E-01 -0.89158673280E-01  0.10504640873E+00  0.89119116910E+00  0.88000000000E+00 0.  1.
        -11    1    4    4    0    0 -0.15428283135E-01  0.58857578558E-01 -0.67739807576E-01  0.91055966997E-01  0.51100000000E-03 0. -1.
         11    1    4    4    0    0  0.72851838230E-02  0.25252145706E-01 -0.27808413995E-01  0.38266353053E-01  0.51100000000E-03 0.  1.
</event>
<event>
 8    1  0.1123450E+005  0.1043930E+01  0.7957747E-01            NaN
         13   -1    0    0    0    0  0.00000000000E+00  0.00000000000E+00  0.74505805969E-08  0.10566000000E+00  0.10566000000E+00 0.  1.
     999900   -1    0    0    0    0 -0.00000000000E+00 -0.00000000000E+00 -0.74505805969E-08  0.93827000000E+00  0.93827000000E+00 0. -1.
     999902    2    1    2    0    0 -0.14304802762E-01 -0.17079549589E-01 -0.72156558417E-02  0.10205119709E+01  0.10202432449E+01 0.  0.
     999903    2    3    3    0    0 -0.10616046032E+00 -0.74334366770E-01  0.24168277432E-01  0.13332510945E+00  0.19895671839E-01 0.  0.
         14    1    1    2    0    0  0.14304802762E-01  0.17079549589E-01  0.72156558417E-02  0.23418029068E-01  0.00000000000E+00 0. -1.
     999901    1    3    3    0    0  0.91855657556E-01  0.57254817182E-01 -0.31383933273E-01  0.88718686148E+00  0.88000000000E+00 0. -1.
        -11    1    4    4    0    0 -0.76943362585E-01 -0.47394595502E-01  0.91297085002E-02  0.90830289149E-01  0.51100000000E-03 0.  1.
         11    1    4    4    0    0 -0.29217097734E-01 -0.26939771269E-01  0.15038568931E-01  0.42494820302E-01  0.51100000000E-03 0. -1.
</event>
<event>
 8    1  0.1123450E+005  0.1043930E+01  0.7957747E-01            NaN
         13   -1    0    0    0    0  0.00000000000E+00  0.00000000000E+00  0.74505805969E-08  0.10566000000E+00  0.10566000000E+00 0.  1.
     999900   -1    0    0    0    0 -0.00000000000E+00 -0.00000000000E+00 -0.74505805969E-08  0.93827000000E+00  0.93827000000E+00 0. -1.
     999902    2    1    2    0    0  0.22961930728E-01  0.15017664815E-02  0.53578013252E-02  0.10203034979E+01  0.10200299095E+01 0.  0.
     999903    2    3    3    0    0  0.12881383080E-01  0.70748148066E-01 -0.10692434335E+00  0.13041364024E+00  0.20091587156E-01 0.  0.
         14    1    1    2    0    0 -0.22961930728E-01 -0.15017664815E-02 -0.53578013252E-02  0.23626502076E-01  0.00000000000E+00 0. -1.
     999901    1    3    3    0    0  0.10080547648E-01 -0.69246381585E-01  0.11228214467E+00  0.88988985769E+00  0.88000000000E+00 0.  1.
        -11    1    4    4    0    0  0.15273941514E-01  0.45806367491E-01 -0.58219487981E-01  0.75639186232E-01  0.51100000000E-03 0.  1.
         11    1    4    4    0    0 -0.23925584347E-02  0.24941780575E-01 -0.48704855367E-01  0.54774454004E-01  0.51100000000E-03 0. -1.
</event>
<event>
 8    1  0.1123450E+005  0.1043930E+01  0.7957747E-01            NaN
         13   -1    0    0    0    0  0.00000000000E+00  0.00000000000E+00  0.74505805969E-08  0.10566000000E+00  0.10566000000E+00 0.  1.
     999900   -1    0    0    0    0 -0.00000000000E+00 -0.00000000000E+00 -0.74505805969E-08  0.93827000000E+00  0.93827000000E+00 0.  1.
     999902    2    1    2    0    0 -0.14709235590E-02  0.20572182409E-01  0.81291728679E-02  0.10217610632E+01  0.10215205375E+01 0.  0.
     999903    2    3    3    0    0 -0.72984893915E-01  0.49465210148E-01  0.98625009844E-01  0.13376413109E+00  0.19807787494E-01 0.  0.
         14    1    1    2    0    0  0.14709235590E-02 -0.20572182409E-01 -0.81291728679E-02  0.22168936752E-01  0.00000000000E+00 0. -1.
     999901    1    3    3    0    0  0.71513970356E-01 -0.28893027739E-01 -0.90495836976E-01  0.88799693216E+00  0.88000000000E+00 0. -1.
        -11    1    4    4    0    0 -0.30418388557E-01  0.31891216516E-01  0.43401892300E-01  0.61857201921E-01  0.51100000000E-03 0.  1.
         11    1    4    4    0    0 -0.42566505359E-01  0.17573993632E-01  0.55223117544E-01  0.71906929172E-01  0.51100000000E-03 0. -1.
</event>
<event>
 8    1  0.1123450E+005  0.1043930E+01  0.7957747E-01            NaN
         13   -1    0    0    0    0  0.00000000000E+00  0.00000000000E+00  0.74505805969E-08  0.10566000000E+00  0.10566000000E+00 0.  1.
     999900   -1    0    0    0    0 -0.00000000000E+00 -0.00000000000E+00 -0.74505805969E-08  0.93827000000E+00  0.93827000000E+00 0.  1.
     999902    2    1    2    0    0 -0.19959639036E-02 -0.12065719988E-01  0.19386376547E-01  0.10210084585E+01  0.10207511328E+01 0.  0.
     999903    2    3    3    0    0  0.67068425967E-01 -0.38843703409E-01  0.10682566062E+00  0.13357813515E+00  0.20600712752E-01 0.  0.
         14    1    1    2    0    0  0.19959639036E-02  0.12065719988E-01 -0.19386376547E-01  0.22921541536E-01  0.00000000000E+00 0. -1.
     999901    1    3    3    0    0 -0.69064389870E-01  0.26777983421E-01 -0.87439284074E-01  0.88743032332E+00  0.88000000000E+00 0.  1.
        -11    1    4    4    0    0  0.62847030127E-01 -0.32014228483E-01  0.85825959309E-01  0.11109012752E+00  0.51100000000E-03 0. -1.
         11    1    4    4    0    0  0.42213958400E-02 -0.68294749262E-02  0.20999701313E-01  0.22488007623E-01  0.51100000000E-03 0.  1.
</event>
<event>
 8    1  0.1123450E+005  0.1043930E+01  0.7957747E-01            NaN
         13   -1    0    0    0    0  0.00000000000E+00  0.00000000000E+00  0.74505805969E-08  0.10566000000E+00  0.10566000000E+00 0. -1.
     999900   -1    0    0    0    0 -0.00000000000E+00 -0.00000000000E+00 -0.74505805969E-08  0.93827000000E+00  0.93827000000E+00 0.  1.
     999902    2    1    2    0    0 -0.17023319630E-01  0.23786339245E-02 -0.17200983391E-01  0.10196128221E+01  0.10193228055E+01 0.  0.
     999903    2    3    3    0    0  0.43918308703E-01  0.10387030335E+00  0.58505742831E-01  0.12846415359E+00  0.19033104197E-01 0.  0.
         14    1    1    2    0    0  0.17023319630E-01 -0.23786339245E-02  0.17200983391E-01  0.24317177883E-01  0.00000000000E+00 0.  1.
     999901    1    3    3    0    0 -0.60941628333E-01 -0.10149166943E+00 -0.75706726222E-01  0.89114866853E+00  0.88000000000E+00 0.  1.
        -11    1    4    4    0    0  0.60035548952E-02  0.41037335085E-02  0.63728647486E-02  0.96828624999E-02  0.51100000000E-03 0.  1.
         11    1    4    4    0    0  0.37914753808E-01  0.99766569842E-01  0.52132878082E-01  0.11878129109E+00  0.51100000000E-03 0. -1.
</event>
<event>
 8    1  0.1123450E+005  0.1043930E+01  0.7957747E-01            NaN
         13   -1    0    0    0    0  0.00000000000E+00  0.00000000000E+00  0.74505805969E-08  0.10566000000E+00  0.10566000000E+00 0.  1.
     999900   -1    0    0    0    0 -0.00000000000E+00 -0.00000000000E+00 -0.74505805969E-08  0.93827000000E+00  0.93827000000E+00 0.  1.
     999902    2    1    2    0    0  0.10924430190E-02 -0.30656531533E-01 -0.56298341346E-02  0.10127416786E+01  0.10122613280E+01 0.  0.
     999903    2    3    3    0    0  0.10304323061E+00  0.56253766020E-01  0.26212599878E-01  0.12203336301E+00  0.20558398027E-01 0.  0.
         14    1    1    2    0    0 -0.10924430190E-02  0.30656531533E-01  0.56298341346E-02  0.31188321368E-01  0.00000000000E+00 0.  1.
     999901    1    3    3    0    0 -0.10195078759E+00 -0.86910297553E-01 -0.31842434013E-01  0.89070831562E+00  0.88000000000E+00 0.  1.
        -11    1    4    4    0    0  0.15903152938E-01  0.15376079052E-01 -0.53424388593E-03  0.22133246890E-01  0.51100000000E-03 0.  1.
         11    1    4    4    0    0  0.87140077673E-01  0.40877686968E-01  0.26746843764E-01  0.99900116121E-01  0.51100000000E-03 0. -1.
</event>
<event>
 8    1  0.1123450E+005  0.1043930E+01  0.7957747E-01            NaN
         13   -1    0    0    0    0  0.00000000000E+00  0.00000000000E+00  0.74505805969E-08  0.10566000000E+00  0.10566000000E+00 0.  1.
     999900   -1    0    0    0    0 -0.00000000000E+00 -0.00000000000E+00 -0.74505805969E-08  0.93827000000E+00  0.93827000000E+00 0. -1.
     999902    2    1    2    0    0  0.11423221965E-01 -0.17146054307E-01 -0.11297802277E-01  0.10204328190E+01  0.10201622521E+01 0.  0.
     999903    2    3    3    0    0  0.12899067729E+00  0.16718569693E-01 -0.13990881822E-01  0.13196437726E+00  0.17342049794E-01 0.  0.
         14    1    1    2    0    0 -0.11423221965E-01  0.17146054307E-01  0.11297802277E-01  0.23497180993E-01  0.00000000000E+00 0. -1.
     999901    1    3    3    0    0 -0.11756745532E+00 -0.33864624000E-01  0.26930795450E-02  0.88846844175E+00  0.88000000000E+00 0. -1.
        -11    1    4    4    0    0  0.15674820188E-01  0.18700100822E-02  0.39458494897E-02  0.16279673671E-01  0.51100000000E-03 0.  1.
         11    1    4    4    0    0  0.11331585710E+00  0.14848559611E-01 -0.17936731311E-01  0.11568470359E+00  0.51100000000E-03 0. -1.
</event>
<event>
 8    1  0.1123450E+005  0.1043930E+01  0.7957747E-01            NaN
         13   -1    0    0    0    0  0.00000000000E+00  0.00000000000E+00  0.74505805969E-08  0.10566000000E+00  0.10566000000E+00 0.  1.
     999900   -1    0    0    0    0 -0.00000000000E+00 -0.00000000000E+00 -0.74505805969E-08  0.93827000000E+00  0.93827000000E+00 0. -1.
     999902    2    1    2    0    0  0.14339018977E-02 -0.22341580697E-01 -0.81038341944E-02  0.10201208750E+01  0.10198429905E+01 0.  0.
     999903    2    3    3    0    0  0.70248466918E-01  0.84291850465E-01  0.63161529129E-01  0.12816522311E+00  0.19924419533E-01 0.  0.
         14    1    1    2    0    0 -0.14339018977E-02  0.22341580697E-01  0.81038341944E-02  0.23809124959E-01  0.00000000000E+00 0. -1.
     999901    1    3    3    0    0 -0.68814565021E-01 -0.10663343116E+00 -0.71265363324E-01  0.89195565193E+00  0.88000000000E+00 0. -1.
        -11    1    4    4    0    0  0.26232068645E-01  0.17629933488E-01  0.19174927749E-01  0.36971272028E-01  0.51100000000E-03 0.  1.
         11    1    4    4    0    0  0.44016398274E-01  0.66661916977E-01  0.43986601380E-01  0.91193951082E-01  0.51100000000E-03 0. -1.
</event>
<event>
 8    1  0.1123450E+005  0.1043930E+01  0.7957747E-01            NaN
         13   -1    0    0    0    0  0.00000000000E+00  0.00000000000E+00  0.74505805969E-08  0.10566000000E+00  0.10566000000E+00 0.  1.
     999900   -1    0    0    0    0 -0.00000000000E+00 -0.00000000000E+00 -0.74505805969E-08  0.93827000000E+00  0.93827000000E+00 0. -1.
     999902    2    1    2    0    0  0.10839610298E-01  0.16937847621E-01 -0.10923742250E-01  0.10210451583E+01  0.10207886654E+01 0.  0.
     999903    2    3    3    0    0  0.81988024884E-01 -0.66950275469E-01  0.72831559746E-01  0.13025098193E+00  0.21366014828E-01 0.  0.
         14    1    1    2    0    0 -0.10839610298E-01 -0.16937847621E-01  0.10923742250E-01  0.22884841668E-01  0.00000000000E+00 0.  1.
     999901    1    3    3    0    0 -0.71148414586E-01  0.83888123090E-01 -0.83755301996E-01  0.89079417640E+00  0.88000000000E+00 0. -1.
        -11    1    4    4    0    0  0.34284192217E-01 -0.31948908476E-01  0.44583338245E-01  0.64684416662E-01  0.51100000000E-03 0. -1.
         11    1    4    4    0    0  0.47703832667E-01 -0.35001366993E-01  0.28248221501E-01  0.65566565271E-01  0.51100000000E-03 0.  1.
</event>
<event>
 8    1  0.1123450E+005  0.1043930E+01  0.7957747E-01            NaN
         13   -1    0    0    0    0  0.00000000000E+00  0.00000000000E+00  0.74505805969E-08  0.10566000000E+00  0.10566000000E+00 0.  1.
     999900   -1    0    0    0    0 -0.00000000000E+00 -0.00000000000E+00 -0.74505805969E-08  0.93827000000E+00  0.93827000000E+00 0.  1.
     999902    2    1    2    0    0  0.22540097249E-01 -0.37177563046E-02  0.67453345280E-02  0.10201103184E+01  0.10198321844E+01 0.  0.
     999903    2    3    3    0    0  0.21055114685E-01 -0.12685081999E+00  0.17957968197E-01  0.13146546257E+00  0.20645358839E-01 0.  0.
         14    1    1    2    0    0 -0.22540097249E-01  0.37177563046E-02 -0.67453345280E-02  0.23819681649E-01  0.00000000000E+00 0. -1.
     999901    1    3    3    0    0  0.14849825639E-02  0.12313306368E+00 -0.11212633669E-01  0.88864485578E+00  0.88000000000E+00 0. -1.
        -11    1    4    4    0    0  0.11137694646E-01 -0.23940999137E-01  0.80216912488E-02  0.27601237892E-01  0.51100000000E-03 0.  1.
         11    1    4    4    0    0  0.99174200399E-02 -0.10290982085E+00  0.99362769482E-02  0.10386422468E+00  0.51100000000E-03 0. -1.
</event>
<event>
 8    1  0.1123450E+005  0.1043930E+01  0.7957747E-01            NaN
         13   -1    0    0    0    0  0.00000000000E+00  0.00000000000E+00  0.74505805969E-08  0.10566000000E+00  0.10566000000E+00 0. -1.
     999900   -1    0    0    0    0 -0.00000000000E+00 -0.00000000000E+00 -0.74505805969E-08  0.93827000000E+00  0.93827000000E+00 0. -1.
     999902    2    1    2    0    0 -0.19729709698E-01  0.14694738341E-01 -0.63560320528E-02  0.10185214203E+01  0.10182044430E+01 0.  0.
     999903    2    3    3    0    0 -0.12838794316E+00  0.20725220696E-01 -0.81297390032E-02  0.13181621310E+00  0.19910365595E-01 0.  0.
         14    1    1    2    0    0  0.19729709698E-01 -0.14694738341E-01  0.63560320528E-02  0.25408579715E-01  0.00000000000E+00 0. -1.
     999901    1    3    3    0    0  0.10865823346E+00 -0.60304823546E-02  0.17737069504E-02  0.88670520719E+00  0.88000000000E+00 0. -1.
        -11    1    4    4    0    0 -0.82310847018E-01  0.87123308540E-02 -0.13603362111E-01  0.83882613380E-01  0.51100000000E-03 0.  1.
         11    1    4    4    0    0 -0.46077096140E-01  0.12012889842E-01  0.54736231077E-02  0.47933599718E-01  0.51100000000E-03 0. -1.
</event>
<event>
 8    1  0.1123450E+005  0.1043930E+01  0.7957747E-01            NaN
         13   -1    0    0    0    0  0.00000000000E+00  0.00000000000E+00  0.74505805969E-08  0.10566000000E+00  0.10566000000E+00 0. -1.
     999900   -1    0    0    0    0 -0.00000000000E+00 -0.00000000000E+00 -0.74505805969E-08  0.93827000000E+00  0.93827000000E+00 0.  1.
     999902    2    1    2    0    0 -0.84434305443E-02  0.16365727955E-01  0.89219946629E-02  0.10234670931E+01  0.10232625079E+01 0.  0.
     999903    2    3    3    0    0 -0.33362886263E-01 -0.12425304030E+00  0.20817737807E-01  0.13187518757E+00  0.20144147711E-01 0.  0.
         14    1    1    2    0    0  0.84434305443E-02 -0.16365727955E-01 -0.89219946629E-02  0.20462906920E-01  0.00000000000E+00 0.  1.
     999901    1    3    3    0    0  0.24919455718E-01  0.14061876825E+00 -0.11895743144E-01  0.89159190551E+00  0.88000000000E+00 0. -1.
        -11    1    4    4    0    0 -0.20709623844E-01 -0.10412875575E+00  0.13663429622E-01  0.10704502194E+00  0.51100000000E-03 0.  1.
         11    1    4    4    0    0 -0.12653262419E-01 -0.20124284552E-01  0.71543081848E-02  0.24830165629E-01  0.51100000000E-03 0. -1.
</event>
<event>
 8    1  0.1123450E+005  0.1043930E+01  0.7957747E-01            NaN
         13   -1    0    0    0    0  0.00000000000E+00  0.00000000000E+00  0.74505805969E-08  0.10566000000E+00  0.10566000000E+00 0.  1.
     999900   -1    0    0    0    0 -0.00000000000E+00 -0.00000000000E+00 -0.74505805969E-08  0.93827000000E+00  0.93827000000E+00 0. -1.
     999902    2    1    2    0    0 -0.36341453467E-02 -0.40641363569E-02  0.20438051515E-01  0.10227772657E+01  0.10225585055E+01 0.  0.
     999903    2    3    3    0    0 -0.77004254264E-01  0.33430700142E-01  0.10387331954E+00  0.13499887020E+00  0.19691662068E-01 0.  0.
         14    1    1    2    0    0  0.36341453467E-02  0.40641363569E-02 -0.20438051515E-01  0.21152734255E-01  0.00000000000E+00 0. -1.
     999901    1    3    3    0    0  0.73370108918E-01 -0.37494836499E-01 -0.83435268030E-01  0.88777839555E+00  0.88000000000E+00 0. -1.
        -11    1    4    4    0    0 -0.53753395357E-01  0.32729944043E-01  0.77225927966E-01  0.99623199209E-01  0.51100000000E-03 0.  1.
         11    1    4    4    0    0 -0.23250858907E-01  0.70075609910E-03  0.26647391579E-01  0.35375670990E-01  0.51100000000E-03 0. -1.
</event>
<event>
 8    1  0.1123450E+005  0.1043930E+01  0.7957747E-01            NaN
         13   -1    0    0    0    0  0.00000000000E+00  0.00000000000E+00  0.74505805969E-08  0.10566000000E+00  0.10566000000E+00 0.  1.
     999900   -1    0    0    0    0 -0.00000000000E+00 -0.00000000000E+00 -0.74505805969E-08  0.93827000000E+00  0.93827000000E+00 0. -1.
     999902    2    1    2    0    0  0.38785862123E-02  0.18955030620E-01 -0.14445636171E-01  0.10197843374E+01  0.10194984462E+01 0.  0.
     999903    2    3    3    0    0  0.98466343843E-02 -0.10740663060E+00 -0.68079702807E-01  0.12912194340E+00  0.20111932500E-01 0.  0.
         14    1    1    2    0    0 -0.38785862123E-02 -0.18955030620E-01  0.14445636171E-01  0.24145662575E-01  0.00000000000E+00 0.  1.
     999901    1    3    3    0    0 -0.59680481720E-02  0.12636166122E+00  0.53634066635E-01  0.89066239402E+00  0.88000000000E+00 0. -1.
        -11    1    4    4    0    0  0.15715268298E-01 -0.85463654740E-01 -0.56148020757E-01  0.10345949592E+00  0.51100000000E-03 0. -1.
         11    1    4    4    0    0 -0.58686339141E-02 -0.21942975855E-01 -0.11931682049E-01  0.25662447485E-01  0.51100000000E-03 0.  1.
</event>
<event>
 8    1  0.1123450E+005  0.1043930E+01  0.7957747E-01            NaN
         13   -1    0    0    0    0  0.00000000000E+00  0.00000000000E+00  0.74505805969E-08  0.10566000000E+00  0.10566000000E+00 0. -1.
     999900   -1    0    0    0    0 -0.00000000000E+00 -0.00000000000E+00 -0.74505805969E-08  0.93827000000E+00  0.93827000000E+00 0. -1.
     999902    2    1    2    0    0 -0.11131903778E-02 -0.18064362974E-01  0.13541426866E-01  0.10213262250E+01  0.10210760634E+01 0.  0.
     999903    2    3    3    0    0  0.11441818122E+00  0.54318898103E-01  0.23027815542E-01  0.13077761551E+00  0.23031316614E-01 0.  0.
         14    1    1    2    0    0  0.11131903778E-02  0.18064362974E-01 -0.13541426866E-01  0.22603774996E-01  0.00000000000E+00 0.  1.
     999901    1    3    3    0    0 -0.11553137160E+00 -0.72383261077E-01 -0.94863886755E-02  0.89054860950E+00  0.88000000000E+00 0.  1.
        -11    1    4    4    0    0  0.31826509477E-01  0.11997471107E-01  0.16324784194E-01  0.37730964982E-01  0.51100000000E-03 0.  1.
         11    1    4    4    0    0  0.82591671740E-01  0.42321426996E-01  0.67030313475E-02  0.93046650526E-01  0.51100000000E-03 0. -1.
</event>
<event>
 8    1  0.1123450E+005  0.1043930E+01  0.7957747E-01            NaN
         13   -1    0    0    0    0  0.00000000000E+00  0.00000000000E+00  0.74505805969E-08  0.10566000000E+00  0.10566000000E+00 0. -1.
     999900   -1    0    0    0    0 -0.00000000000E+00 -0.00000000000E+00 -0.74505805969E-08  0.93827000000E+00  0.93827000000E+00 0. -1.
     999902    2    1    2    0    0  0.18322012792E-01 -0.16829498637E-01 -0.19924375663E-02  0.10189720757E+01  0.10186663797E+01 0.  0.
     999903    2    3    3    0    0  0.12062920989E+00 -0.14517569121E-01 -0.47252459082E-01  0.13188663612E+00  0.19978083129E-01 0.  0.
         14    1    1    2    0    0 -0.18322012792E-01  0.16829498637E-01  0.19924375663E-02  0.24957924284E-01  0.00000000000E+00 0. -1.
     999901    1    3    3    0    0 -0.10230719710E+00 -0.23119295152E-02  0.45260021516E-01  0.88708543960E+00  0.88000000000E+00 0.  1.
        -11    1    4    4    0    0  0.70424274821E-01 -0.26115334289E-02 -0.35735829902E-01  0.79017145296E-01  0.51100000000E-03 0.  1.
         11    1    4    4    0    0  0.50204935070E-01 -0.11906035693E-01 -0.11516629180E-01  0.52869490823E-01  0.51100000000E-03 0. -1.
</event>
<event>
 8    1  0.1123450E+005  0.1043930E+01  0.7957747E-01            NaN
         13   -1    0    0    0    0  0.00000000000E+00  0.00000000000E+00  0.74505805969E-08  0.10566000000E+00  0.10566000000E+00 0.  1.
     999900   -1    0    0    0    0 -0.00000000000E+00 -0.00000000000E+00 -0.74505805969E-08  0.93827000000E+00  0.93827000000E+00 0. -1.
     999902    2    1    2    0    0  0.11883352873E-01  0.20867932044E-02  0.23963811914E-01  0.10171002951E+01  0.10167463682E+01 0.  0.
     999903    2    3    3    0    0 -0.82824341896E-01  0.44048094991E-01 -0.80265558872E-01  0.12491530310E+00  0.19004386963E-01 0.  0.
         14    1    1    2    0    0 -0.11883352873E-01 -0.20867932044E-02 -0.23963811914E-01  0.26829704859E-01  0.00000000000E+00 0. -1.
     999901    1    3    3    0    0  0.94707694769E-01 -0.41961301786E-01  0.10422937079E+00  0.89218499205E+00  0.88000000000E+00 0. -1.
        -11    1    4    4    0    0 -0.42221871546E-01  0.24481528316E-01 -0.29517423533E-01  0.57040083087E-01  0.51100000000E-03 0. -1.
         11    1    4    4    0    0 -0.40602470350E-01  0.19566566674E-01 -0.50748135339E-01  0.67875220009E-01  0.51100000000E-03 0.  1.
</event>
<event>
 8    1  0.1123450E+005  0.1043930E+01  0.7957747E-01            NaN
         13   -1    0    0    0    0  0.00000000000E+00  0.00000000000E+00  0.74505805969E-08  0.10566000000E+00  0.10566000000E+00 0. -1.
     999900   -1    0    0    0    0 -0.00000000000E+00 -0.00000000000E+00 -0.74505805969E-08  0.93827000000E+00  0.93827000000E+00 0.  1.
     999902    2    1    2    0    0  0.99547242668E-02 -0.14575020573E-01  0.15654937531E-01  0.10203375260E+01  0.10200647343E+01 0.  0.
     999903    2    3    3    0    0  0.78187621727E-01  0.53695792530E-01  0.89452597427E-01  0.13198921210E+00  0.20563136866E-01 0.  0.
         14    1    1    2    0    0 -0.99547242668E-02  0.14575020573E-01 -0.15654937531E-01  0.23592473991E-01  0.00000000000E+00 0.  1.
     999901    1    3    3    0    0 -0.68232897460E-01 -0.68270813103E-01 -0.73797659896E-01  0.88834831391E+00  0.88000000000E+00 0.  1.
        -11    1    4    4    0    0  0.61170409592E-01  0.32804526510E-01  0.71221447295E-01  0.99452057017E-01  0.51100000000E-03 0.  1.
         11    1    4    4    0    0  0.17017212135E-01  0.20891266020E-01  0.18231150132E-01  0.32537155083E-01  0.51100000000E-03 0. -1.
</event>
<event>
 8    1  0.1123450E+005  0.1043930E+01  0.7957747E-01            NaN
         13   -1    0    0    0    0  0.00000000000E+00  0.00000000000E+00  0.74505805969E-08  0.10566000000E+00  0.10566000000E+00 0. -1.
     999900   -1    0    0    0    0 -0.00000000000E+00 -0.00000000000E+00 -0.74505805969E-08  0.93827000000E+00  0.93827000000E+00 0.  1.
     999902    2    1    2    0    0 -0.14118763862E-01  0.13242405885E-01  0.14719942548E-01  0.10196117452E+01  0.10193217026E+01 0.  0.
     999903    2    3    3    0    0 -0.33429999400E-01 -0.10542892803E+00  0.65153250275E-01  0.13000546836E+00  0.20582809760E-01 0.  0.
         14    1    1    2    0    0  0.14118763862E-01 -0.13242405885E-01 -0.14719942548E-01  0.24318254774E-01  0.00000000000E+00 0.  1.
     999901    1    3    3    0    0  0.19311235538E-01  0.11867133391E+00 -0.50433307727E-01  0.88960627687E+00  0.88000000000E+00 0.  1.
        -11    1    4    4    0    0 -0.20324977113E-01 -0.76167907774E-01  0.55863660680E-01  0.96621242876E-01  0.51100000000E-03 0. -1.
         11    1    4    4    0    0 -0.13105022287E-01 -0.29261020253E-01  0.92895895943E-02  0.33384225485E-01  0.51100000000E-03 0.  1.
</event>
<event>
 8    1  0.1123450E+005  0.1043930E+01  0.7957747E-01            NaN
         13   -1    0    0    0    0  0.00000000000E+00  0.00000000000E+00  0.74505805969E-08  0.10566000000E+00  0.10566000000E+00 0. -1.
     999900   -1    0    0    0    0 -0.00000000000E+00 -0.00000000000E+00 -0.74505805969E-08  0.93827000000E+00  0.93827000000E+00 0. -1.
     999902    2    1    2    0    0  0.18694927035E-01  0.14077073843E-01  0.53969799392E-02  0.10199135120E+01  0.10196307078E+01 0.  0.
     999903    2    3    3    0    0  0.63535061999E-01  0.11341730791E+00 -0.18865700754E-01  0.13285782179E+00  0.19877029691E-01 0.  0.
         14    1    1    2    0    0 -0.18694927035E-01 -0.14077073843E-01 -0.53969799392E-02  0.24016488029E-01  0.00000000000E+00 0.  1.
     999901    1    3    3    0    0 -0.44840134964E-01 -0.99340234066E-01  0.24262680693E-01  0.88705569018E+00  0.88000000000E+00 0.  1.
        -11    1    4    4    0    0  0.88794067590E-02  0.71829859120E-02  0.19199208577E-02  0.11592513451E-01  0.51100000000E-03 0.  1.
         11    1    4    4    0    0  0.54655655240E-01  0.10623432200E+00 -0.20785621612E-01  0.12126530834E+00  0.51100000000E-03 0. -1.
</event>
<event>
 8    1  0.1123450E+005  0.1043930E+01  0.7957747E-01            NaN
         13   -1    0    0    0    0  0.00000000000E+00  0.00000000000E+00  0.74505805969E-08  0.10566000000E+00  0.10566000000E+00 0.  1.
     999900   -1    0    0    0    0 -0.00000000000E+00 -0.00000000000E+00 -0.74505805969E-08  0.93827000000E+00  0.93827000000E+00 0.  1.
     999902    2    1    2    0    0  0.23530739269E-01 -0.68672315768E-03  0.10651136121E-02  0.10203651587E+01  0.10200930131E+01 0.  0.
     999903    2    3    3    0    0 -0.53636018330E-01 -0.14733691353E-01  0.11519220792E+00  0.12953575894E+00  0.20404998317E-01 0.  0.
         14    1    1    2    0    0 -0.23530739269E-01  0.68672315768E-03 -0.10651136121E-02  0.23564841316E-01  0.00000000000E+00 0. -1.
     999901    1    3    3    0    0  0.77166757599E-01  0.14046968195E-01 -0.11412709430E+00  0.89082939974E+00  0.88000000000E+00 0.  1.
        -11    1    4    4    0    0 -0.28896238759E-01 -0.16099046717E-01  0.79249259578E-01  0.85877110945E-01  0.51100000000E-03 0.  1.
         11    1    4    4    0    0 -0.24739779571E-01  0.13653553635E-02  0.35942948338E-01  0.43658647994E-01  0.51100000000E-03 0. -1.
</event>
<event>
 8    1  0.1123450E+005  0.1043930E+01  0.7957747E-01            NaN
         13   -1    0    0    0    0  0.00000000000E+00  0.00000000000E+00  0.74505805969E-08  0.10566000000E+00  0.10566000000E+00 0. -1.
     999900   -1    0    0    0    0 -0.00000000000E+00 -0.00000000000E+00 -0.74505805969E-08  0.93827000000E+00  0.93827000000E+00 0.  1.
     999902    2    1    2    0    0  0.10729952087E-02 -0.20406510408E-01 -0.11736225342E-01  0.10203648569E+01  0.10200927042E+01 0.  0.
     999903    2    3    3    0    0  0.27241898322E-01 -0.12646186112E+00 -0.28502680081E-01  0.13345242437E+00  0.16199489432E-01 0.  0.
         14    1    1    2    0    0 -0.10729952087E-02  0.20406510408E-01  0.11736225342E-01  0.23565143136E-01  0.00000000000E+00 0.  1.
     999901    1    3    3    0    0 -0.26168903114E-01  0.10605535071E+00  0.16766454740E-01  0.88691243249E+00  0.88000000000E+00 0. -1.
        -11    1    4    4    0    0  0.16245620555E-01 -0.10378758737E+00 -0.25190074662E-01  0.10803047932E+00  0.51100000000E-03 0.  1.
         11    1    4    4    0    0  0.10996277767E-01 -0.22674273744E-01 -0.33126054192E-02  0.25421945051E-01  0.51100000000E-03 0. -1.
</event>
<event>
 8    1  0.1123450E+005  0.1043930E+01  0.7957747E-01            NaN
         13   -1    0    0    0    0  0.00000000000E+00  0.00000000000E+00  0.74505805969E-08  0.10566000000E+00  0.10566000000E+00 0. -1.
     999900   -1    0    0    0    0 -0.00000000000E+00 -0.00000000000E+00 -0.74505805969E-08  0.93827000000E+00  0.93827000000E+00 0.  1.
     999902    2    1    2    0    0  0.19669260540E-01 -0.65110823658E-02 -0.11180656601E-01  0.10203868251E+01  0.10201151855E+01 0.  0.
     999903    2    3    3    0    0 -0.61901741921E-01  0.10163288444E+00 -0.46559184533E-01  0.12931971972E+00  0.19868653461E-01 0.  0.
         14    1    1    2    0    0 -0.19669260540E-01  0.65110823658E-02  0.11180656601E-01  0.23543174930E-01  0.00000000000E+00 0. -1.
     999901    1    3    3    0    0  0.81571002461E-01 -0.10814396681E+00  0.35378527932E-01  0.89106710535E+00  0.88000000000E+00 0.  1.
        -11    1    4    4    0    0 -0.11691504096E-01  0.27522640103E-01 -0.39154390113E-02  0.30162539182E-01  0.51100000000E-03 0.  1.
         11    1    4    4    0    0 -0.50210237825E-01  0.74110244341E-01 -0.42643745522E-01  0.99157180537E-01  0.51100000000E-03 0. -1.
</event>
<event>
 8    1  0.1123450E+005  0.1043930E+01  0.7957747E-01            NaN
         13   -1    0    0    0    0  0.00000000000E+00  0.00000000000E+00  0.74505805969E-08  0.10566000000E+00  0.10566000000E+00 0.  1.
     999900   -1    0    0    0    0 -0.00000000000E+00 -0.00000000000E+00 -0.74505805969E-08  0.93827000000E+00  0.93827000000E+00 0.  1.
     999902    2    1    2    0    0 -0.14339396567E-01 -0.18513792654E-01  0.43610376178E-02  0.10201098938E+01  0.10198317498E+01 0.  0.
     999903    2    3    3    0    0  0.94445546518E-01  0.14312553451E-01  0.84852532132E-01  0.12916061713E+00  0.18913021011E-01 0.  0.
         14    1    1    2    0    0  0.14339396567E-01  0.18513792654E-01 -0.43610376178E-02  0.23820106243E-01  0.00000000000E+00 0. -1.
     999901    1    3    3    0    0 -0.10878494309E+00 -0.32826346105E-01 -0.80491494514E-01  0.89094927663E+00  0.88000000000E+00 0.  1.
        -11    1    4    4    0    0  0.47706592157E-01 -0.78583454733E-04  0.49970100012E-01  0.69088328441E-01  0.51100000000E-03 0.  1.
         11    1    4    4    0    0  0.46738954361E-01  0.14391136906E-01  0.34882432119E-01  0.60072288684E-01  0.51100000000E-03 0. -1.
</event>
<event>
 8    1  0.1123450E+005  0.1043930E+01  0.7957747E-01            NaN
         13   -1    0    0    0    0  0.00000000000E+00  0.00000000000E+00  0.74505805969E-08  0.10566000000E+00  0.10566000000E+00 0. -1.
     999900   -1    0    0    0    0 -0.00000000000E+00 -0.00000000000E+00 -0.74505805969E-08  0.93827000000E+00  0.93827000000E+00 0. -1.
     999902    2    1    2    0    0 -0.88410295090E-02 -0.19697474864E-01  0.13071861638E-01  0.10186905886E+01  0.10183778707E+01 0.  0.
     999903    2    3    3    0    0 -0.67783856404E-01  0.47911346576E-01  0.97971772089E-01  0.13006625611E+00  0.20703007818E-01 0.  0.
         14    1    1    2    0    0  0.88410295090E-02  0.19697474864E-01 -0.13071861638E-01  0.25239411354E-01  0.00000000000E+00 0. -1.
     999901    1    3    3    0    0  0.58942826895E-01 -0.67608821440E-01 -0.84899910451E-01  0.88862433254E+00  0.88000000000E+00 0. -1.
        -11    1    4    4    0    0 -0.16897416713E-01  0.18279723510E-01  0.17868372660E-01  0.30646547043E-01  0.51100000000E-03 0. -1.
         11    1    4    4    0    0 -0.50886439691E-01  0.29631623066E-01  0.80103399429E-01  0.99419709068E-01  0.51100000000E-03 0.  1.
</event>
<event>
 8    1  0.1123450E+005  0.1043930E+01  0.7957747E-01            NaN
         13   -1    0    0    0    0  0.00000000000E+00  0.00000000000E+00  0.74505805969E-08  0.10566000000E+00  0.10566000000E+00 0.  1.
     999900   -1    0    0    0    0 -0.00000000000E+00 -0.00000000000E+00 -0.74505805969E-08  0.93827000000E+00  0.93827000000E+00 0. -1.
     999902    2    1    2    0    0  0.25598773075E-02  0.33127862624E-02  0.21707725895E-01  0.10218222437E+01  0.10215830582E+01 0.  0.
     999903    2    3    3    0    0  0.22482933673E-01 -0.12066609258E+00  0.45885527648E-01  0.13257972523E+00  0.20152262622E-01 0.  0.
         14    1    1    2    0    0 -0.25598773075E-02 -0.33127862624E-02 -0.21707725895E-01  0.22107756290E-01  0.00000000000E+00 0. -1.
     999901    1    3    3    0    0 -0.19923056366E-01  0.12397887885E+00 -0.24177801753E-01  0.88924251848E+00  0.88000000000E+00 0. -1.
        -11    1    4    4    0    0  0.20527977052E-01 -0.60634995186E-01  0.28294434610E-01  0.69991689749E-01  0.51100000000E-03 0.  1.
         11    1    4    4    0    0  0.19549566210E-02 -0.60031097397E-01  0.17591093038E-01  0.62588035481E-01  0.51100000000E-03 0. -1.
</event>
<event>
 8    1  0.1123450E+005  0.1043930E+01  0.7957747E-01            NaN
         13   -1    0    0    0    0  0.00000000000E+00  0.00000000000E+00  0.74505805969E-08  0.10566000000E+00  0.10566000000E+00 0. -1.
     999900   -1    0    0    0    0 -0.00000000000E+00 -0.00000000000E+00 -0.74505805969E-08  0.93827000000E+00  0.93827000000E+00 0. -1.
     999902    2    1    2    0    0  0.11815544012E-01 -0.15787181234E-01 -0.12577225838E-01  0.10205413536E+01  0.10202733093E+01 0.  0.
     999903    2    3    3    0    0 -0.18998202981E-01  0.67427595581E-01 -0.10898590518E+00  0.13083981962E+00  0.18267963932E-01 0.  0.
         14    1    1    2    0    0 -0.11815544012E-01  0.15787181234E-01  0.12577225838E-01  0.23388646421E-01  0.00000000000E+00 0. -1.
     999901    1    3    3    0    0  0.30813746994E-01 -0.83214776816E-01  0.96408679344E-01  0.88970153396E+00  0.88000000000E+00 0.  1.
        -11    1    4    4    0    0 -0.20670692547E-01  0.44783767052E-01 -0.80467874473E-01  0.94383278524E-01  0.51100000000E-03 0. -1.
         11    1    4    4    0    0  0.16724895658E-02  0.22643828530E-01 -0.28518030709E-01  0.36456541092E-01  0.51100000000E-03 0.  1.
</event>
<event>
 8    1  0.1123450E+005  0.1043930E+01  0.7957747E-01            NaN
         13   -1    0    0    0    0  0.00000000000E+00  0.00000000000E+00  0.74505805969E-08  0.10566000000E+00  0.10566000000E+00 0.  1.
     999900   -1    0    0    0    0 -0.00000000000E+00 -0.00000000000E+00 -0.74505805969E-08  0.93827000000E+00  0.93827000000E+00 0. -1.
     999902    2    1    2    0    0 -0.83646959596E-02  0.10253086981E-01 -0.88983287341E-03  0.10306678081E+01  0.10305824785E+01 0.  0.
     999903    2    3    3    0    0 -0.11568948031E+00 -0.33473426651E-01 -0.69932806301E-01  0.14038832980E+00  0.17713260530E-01 0.  0.
         14    1    1    2    0    0  0.83646959596E-02 -0.10253086981E-01  0.88983287341E-03  0.13262191888E-01  0.00000000000E+00 0.  1.
     999901    1    3    3    0    0  0.10732478435E+00  0.43726513632E-01  0.69042973427E-01  0.89027947832E+00  0.88000000000E+00 0.  1.
        -11    1    4    4    0    0 -0.70694521847E-01 -0.28470779126E-01 -0.48108876756E-01  0.90127830479E-01  0.51100000000E-03 0. -1.
         11    1    4    4    0    0 -0.44994958468E-01 -0.50026475247E-02 -0.21823929544E-01  0.50260499316E-01  0.51100000000E-03 0.  1.
</event>
<event>
 8    1  0.1123450E+005  0.1043930E+01  0.7957747E-01            NaN
         13   -1    0    0    0    0  0.00000000000E+00  0.00000000000E+00  0.74505805969E-08  0.10566000000E+00  0.10566000000E+00 0.  1.
     999900   -1    0    0    0    0 -0.00000000000E+00 -0.00000000000E+00 -0.74505805969E-08  0.93827000000E+00  0.93827000000E+00 0.  1.
     999902    2    1    2    0    0  0.73080472465E-02  0.15369042672E-01  0.20266813569E-01  0.10174657078E+01  0.10171214814E+01 0.  0.
     999903    2    3    3    0    0 -0.12003484742E+00 -0.30743681148E-01 -0.14711367800E-01  0.12641797102E+00  0.20286461717E-01 0.  0.
         14    1    1    2    0    0 -0.73080472465E-02 -0.15369042672E-01 -0.20266813569E-01  0.26464292158E-01  0.00000000000E+00 0. -1.
     999901    1    3    3    0    0  0.12734289467E+00  0.46112723820E-01  0.34978181368E-01  0.89104773682E+00  0.88000000000E+00 0. -1.
        -11    1    4    4    0    0 -0.15856144374E-01 -0.11026995535E-01 -0.49242238982E-02  0.19937929856E-01  0.51100000000E-03 0. -1.
         11    1    4    4    0    0 -0.10417870305E+00 -0.19716685613E-01 -0.97871439015E-02  0.10648004117E+00  0.51100000000E-03 0.  1.
</event>
<event>
 8    1  0.1123450E+005  0.1043930E+01  0.7957747E-01            NaN
         13   -1    0    0    0    0  0.00000000000E+00  0.00000000000E+00  0.74505805969E-08  0.10566000000E+00  0.10566000000E+00 0.  1.
     999900   -1    0    0    0    0 -0.00000000000E+00 -0.00000000000E+00 -0.74505805969E-08  0.93827000000E+00  0.93827000000E+00 0.  1.
     999902    2    1    2    0    0 -0.22325703439E-01  0.80044813406E-02 -0.41323157059E-02  0.10198554327E+01  0.10195712427E+01 0.  0.
     999903    2    3    3    0    0 -0.11967217670E+00  0.47875355836E-01  0.26228689862E-01  0.13307033299E+00  0.20156631091E-01 0.  0.
         14    1    1    2    0    0  0.22325703439E-01 -0.80044813406E-02  0.41323157059E-02  0.24074567258E-01  0.00000000000E+00 0. -1.
     999901    1    3    3    0    0  0.97346473260E-01 -0.39870874496E-01 -0.30361005568E-01  0.88678509976E+00  0.88000000000E+00 0.  1.
        -11    1    4    4    0    0 -0.49503678588E-01  0.12806427282E-01  0.17924610014E-01  0.54186451615E-01  0.51100000000E-03 0.  1.
         11    1    4    4    0    0 -0.70168498111E-01  0.35068928555E-01  0.83040798478E-02  0.78883881371E-01  0.51100000000E-03 0. -1.
</event>
<event>
 8    1  0.1123450E+005  0.1043930E+01  0.7957747E-01            NaN
         13   -1    0    0    0    0  0.00000000000E+00  0.00000000000E+00  0.74505805969E-08  0.10566000000E+00  0.10566000000E+00 0.  1.
     999900   -1    0    0    0    0 -0.00000000000E+00 -0.00000000000E+00 -0.74505805969E-08  0.93827000000E+00  0.93827000000E+00 0. -1.
     999902    2    1    2    0    0 -0.20039446603E-01 -0.12597458731E-01  0.15773236782E-02  0.10202073666E+01  0.10199315210E+01 0.  0.
     999903    2    3    3    0    0  0.49630749904E-01  0.11622847468E+00 -0.54377522447E-02  0.12807549925E+00  0.20037332577E-01 0.  0.
         14    1    1    2    0    0  0.20039446603E-01  0.12597458731E-01 -0.15773236782E-02  0.23722633425E-01  0.00000000000E+00 0. -1.
     999901    1    3    3    0    0 -0.69670196507E-01 -0.12882593341E+00  0.70150759229E-02  0.89213186732E+00  0.88000000000E+00 0. -1.
        -11    1    4    4    0    0  0.28541619843E-01  0.42814222805E-01  0.49413580650E-03  0.51460538560E-01  0.51100000000E-03 0. -1.
         11    1    4    4    0    0  0.21089130061E-01  0.73414251876E-01 -0.59318880512E-02  0.76614960693E-01  0.51100000000E-03 0.  1.
</event>
<event>
 8    1  0.1123450E+005  0.1043930E+01  0.7957747E-01            NaN
         13   -1    0    0    0    0  0.00000000000E+00  0.00000000000E+00  0.74505805969E-08  0.10566000000E+00  0.10566000000E+00 0.  1.
     999900   -1    0    0    0    0 -0.00000000000E+00 -0.00000000000E+00 -0.74505805969E-08  0.93827000000E+00  0.93827000000E+00 0. -1.
     999902    2    1    2    0    0 -0.20073477509E-01 -0.60207368166E-02 -0.10543833385E-01  0.10204701152E+01  0.10202004165E+01 0.  0.
     999903    2    3    3    0    0  0.48981492671E-01 -0.11297461047E+00  0.37049832051E-01  0.13003602054E+00  0.19344956656E-01 0.  0.
         14    1    1    2    0    0  0.20073477509E-01  0.60207368166E-02  0.10543833385E-01  0.23459884773E-01  0.00000000000E+00 0. -1.
     999901    1    3    3    0    0 -0.69054970181E-01  0.10695387365E+00 -0.47593665436E-01  0.89043409469E+00  0.88000000000E+00 0. -1.
        -11    1    4    4    0    0  0.17155601434E-01 -0.63794439346E-01  0.19326893931E-01  0.68831933738E-01  0.51100000000E-03 0.  1.
         11    1    4    4    0    0  0.31825891237E-01 -0.49180171120E-01  0.17722938120E-01  0.61204086800E-01  0.51100000000E-03 0. -1.
</event>
<event>
 8    1  0.1123450E+005  0.1043930E+01  0.7957747E-01            NaN
         13   -1    0    0    0    0  0.00000000000E+00  0.00000000000E+00  0.74505805969E-08  0.10566000000E+00  0.10566000000E+00 0.  1.
     999900   -1    0    0    0    0 -0.00000000000E+00 -0.00000000000E+00 -0.74505805969E-08  0.93827000000E+00  0.93827000000E+00 0.  1.
     999902    2    1    2    0    0  0.19432176736E-01 -0.16030126283E-02 -0.12438462569E-01  0.10208022138E+01  0.10205401831E+01 0.  0.
     999903    2    3    3    0    0  0.13079325893E+00  0.47519422616E-02 -0.18414035556E-01  0.13374112036E+00  0.20448790479E-01 0.  0.
         14    1    1    2    0    0 -0.19432176736E-01  0.16030126283E-02  0.12438462569E-01  0.23127786173E-01  0.00000000000E+00 0.  1.
     999901    1    3    3    0    0 -0.11136108219E+00 -0.63549548899E-02  0.59755729871E-02  0.88706109347E+00  0.88000000000E+00 0. -1.
        -11    1    4    4    0    0  0.65171350828E-01 -0.74938790673E-02 -0.64282070505E-02  0.65916964122E-01  0.51100000000E-03 0.  1.
         11    1    4    4    0    0  0.65621908101E-01  0.12245821329E-01 -0.11985828505E-01  0.67824156233E-01  0.51100000000E-03 0. -1.
</event>
<event>
 8    1  0.1123450E+005  0.1043930E+01  0.7957747E-01            NaN
         13   -1    0    0    0    0  0.00000000000E+00  0.00000000000E+00  0.74505805969E-08  0.10566000000E+00  0.10566000000E+00 0. -1.
     999900   -1    0    0    0    0 -0.00000000000E+00 -0.00000000000E+00 -0.74505805969E-08  0.93827000000E+00  0.93827000000E+00 0. -1.
     999902    2    1    2    0    0 -0.13539660654E-02 -0.21562699765E-01 -0.86435399364E-02  0.10206599758E+01  0.10203946747E+01 0.  0.
     999903    2    3    3    0    0  0.10161985874E+00 -0.57509080288E-01 -0.59942902648E-01  0.13244413742E+00  0.17731552464E-01 0.  0.
         14    1    1    2    0    0  0.13539660654E-02  0.21562699765E-01  0.86435399364E-02  0.23270024235E-01  0.00000000000E+00 0. -1.
     999901    1    3    3    0    0 -0.10297382481E+00  0.35946380523E-01  0.51299362711E-01  0.88821583834E+00  0.88000000000E+00 0. -1.
        -11    1    4    4    0    0  0.19205167213E-01 -0.87208375981E-02 -0.38333077867E-02  0.21444039397E-01  0.51100000000E-03 0.  1.
         11    1    4    4    0    0  0.82414691532E-01 -0.48788242690E-01 -0.56109594861E-01  0.11100009803E+00  0.51100000000E-03 0. -1.
</event>
<event>
 8    1  0.1123450E+005  0.1043930E+01  0.7957747E-01            NaN
         13   -1    0    0    0    0  0.00000000000E+00  0.00000000000E+00  0.74505805969E-08  0.10566000000E+00  0.10566000000E+00 0.  1.
     999900   -1    0    0    0    0 -0.00000000000E+00 -0.00000000000E+00 -0.74505805969E-08  0.93827000000E+00  0.93827000000E+00 0.  1.
     999902    2    1    2    0    0 -0.47889934086E-02  0.10450306424E-01  0.20936910548E-01  0.10200449087E+01  0.10197652270E+01 0.  0.
     999903    2    3    3    0    0 -0.13570791816E-02 -0.11990313159E+00  0.45880702135E-01  0.13008648858E+00  0.20948819854E-01 0.  0.
         14    1    1    2    0    0  0.47889934086E-02 -0.10450306424E-01 -0.20936910548E-01  0.23885091282E-01  0.00000000000E+00 0. -1.
     999901    1    3    3    0    0 -0.34319142270E-02  0.13035343801E+00 -0.24943791587E-01  0.88995842014E+00  0.88000000000E+00 0.  1.
        -11    1    4    4    0    0 -0.58583595887E-02 -0.12665246995E-01  0.89090437926E-02  0.16563847404E-01  0.51100000000E-03 0. -1.
         11    1    4    4    0    0  0.45012804071E-02 -0.10723788460E+00  0.36971658343E-01  0.11352264118E+00  0.51100000000E-03 0.  1.
</event>
<event>
 8    1  0.1123450E+005  0.1043930E+01  0.7957747E-01            NaN
         13   -1    0    0    0    0  0.00000000000E+00  0.00000000000E+00  0.74505805969E-08  0.10566000000E+00  0.10566000000E+00 0. -1.
     999900   -1    0    0    0    0 -0.00000000000E+00 -0.00000000000E+00 -0.74505805969E-08  0.93827000000E+00  0.93827000000E+00 0.  1.
     999902    2    1    2    0    0 -0.13810478297E-01  0.16314234656E-01 -0.13861805268E-01  0.10184538698E+01  0.10181351834E+01 0.  0.
     999903    2    3    3    0    0 -0.74837135940E-01 -0.48979989815E-01  0.89346971976E-01  0.12792613843E+00  0.19559631232E-01 0.  0.
         14    1    1    2    0    0  0.13810478297E-01 -0.16314234656E-01  0.13861805268E-01  0.25476130171E-01  0.00000000000E+00 0.  1.
     999901    1    3    3    0    0  0.61026657643E-01  0.65294224471E-01 -0.10320877724E+00  0.89052773140E+00  0.88000000000E+00 0.  1.
        -11    1    4    4    0    0 -0.36768602394E-01 -0.12721817586E-01  0.40463173497E-01  0.56136479184E-01  0.51100000000E-03 0. -1.
         11    1    4    4    0    0 -0.38068533546E-01 -0.36258172229E-01  0.48883798479E-01  0.71789659245E-01  0.51100000000E-03 0.  1.
</event>
<event>
 7    1  0.1123450E+005  0.1043930E+01  0.7957747E-01            NaN
         13   -1    0    0    0    0  0.00000000000E+00  0.00000000000E+00  0.74505805969E-08  0.10566000000E+00  0.10566000000E+00 0.  1.
     999900   -1    0    0    0    0 -0.00000000000E+00 -0.00000000000E+00 -0.74505805969E-08  0.93827000000E+00  0.93827000000E+00 0.  1.
     999903    2    1    2    0    0  0.73791658835E-02 -0.37035302463E-01 -0.11034970970E+00  0.11825172939E+00  0.19502496088E-01 0.  0.
         14    1    1    2    0    0  0.31170516514E-01 -0.11124025022E-01  0.20556920816E-01  0.38960647144E-01  0.00000000000E+00 0.  1.
     999901    1    1    2    0    0 -0.38549682397E-01  0.48159327485E-01  0.89792788887E-01  0.88671762347E+00  0.88000000000E+00 0.  1.
        -11    1    3    3    0    0  0.29058463756E-02 -0.13520222928E-01 -0.69822712068E-01  0.71180844423E-01  0.51100000000E-03 0.  1.
         11    1    3    3    0    0  0.44733195079E-02 -0.23515079535E-01 -0.40526997634E-01  0.47070884963E-01  0.51100000000E-03 0. -1.
</event>
<event>
 8    1  0.1123450E+005  0.1043930E+01  0.7957747E-01            NaN
         13   -1    0    0    0    0  0.00000000000E+00  0.00000000000E+00  0.74505805969E-08  0.10566000000E+00  0.10566000000E+00 0. -1.
     999900   -1    0    0    0    0 -0.00000000000E+00 -0.00000000000E+00 -0.74505805969E-08  0.93827000000E+00  0.93827000000E+00 0.  1.
     999902    2    1    2    0    0  0.23075957609E-01 -0.37533205085E-02 -0.21353583259E-02  0.10204534800E+01  0.10201833943E+01 0.  0.
     999903    2    3    3    0    0 -0.11524491893E+00 -0.40016045096E-01 -0.33633506118E-01  0.12835495218E+00  0.21473374463E-01 0.  0.
         14    1    1    2    0    0 -0.23075957609E-01  0.37533205085E-02  0.21353583259E-02  0.23476519964E-01  0.00000000000E+00 0. -1.
     999901    1    3    3    0    0  0.13832087654E+00  0.36262724588E-01  0.31498147792E-01  0.89209852785E+00  0.88000000000E+00 0.  1.
        -11    1    4    4    0    0 -0.69987835715E-01 -0.23695649467E-01 -0.31116605572E-01  0.80176587699E-01  0.51100000000E-03 0. -1.
         11    1    4    4    0    0 -0.45257083220E-01 -0.16320395629E-01 -0.25169005462E-02  0.48178364485E-01  0.51100000000E-03 0.  1.
</event>
<event>
 8    1  0.1123450E+005  0.1043930E+01  0.7957747E-01            NaN
         13   -1    0    0    0    0  0.00000000000E+00  0.00000000000E+00  0.74505805969E-08  0.10566000000E+00  0.10566000000E+00 0. -1.
     999900   -1    0    0    0    0 -0.00000000000E+00 -0.00000000000E+00 -0.74505805969E-08  0.93827000000E+00  0.93827000000E+00 0.  1.
     999902    2    1    2    0    0 -0.97362566824E-02 -0.18732919988E-01  0.10136250098E-01  0.10205107654E+01  0.10202420113E+01 0.  0.
     999903    2    3    3    0    0  0.49367741657E-01  0.10887812986E+00 -0.40722154938E-01  0.12789413990E+00  0.20174142893E-01 0.  0.
         14    1    1    2    0    0  0.97362566824E-02  0.18732919988E-01 -0.10136250098E-01  0.23419234648E-01  0.00000000000E+00 0. -1.
     999901    1    3    3    0    0 -0.59103998340E-01 -0.12761104985E+00  0.50858405036E-01  0.89261662545E+00  0.88000000000E+00 0. -1.
        -11    1    4    4    0    0  0.13773648636E-01  0.53752405215E-01 -0.21566010467E-01  0.59534766243E-01  0.51100000000E-03 0. -1.
         11    1    4    4    0    0  0.35594093021E-01  0.55125724643E-01 -0.19156144471E-01  0.68359373661E-01  0.51100000000E-03 0.  1.
</event>
<event>
 8    1  0.1123450E+005  0.1043930E+01  0.7957747E-01            NaN
         13   -1    0    0    0    0  0.00000000000E+00  0.00000000000E+00  0.74505805969E-08  0.10566000000E+00  0.10566000000E+00 0.  1.
     999900   -1    0    0    0    0 -0.00000000000E+00 -0.00000000000E+00 -0.74505805969E-08  0.93827000000E+00  0.93827000000E+00 0.  1.
     999902    2    1    2    0    0 -0.44397173978E-02  0.22422646562E-01 -0.40232046129E-02  0.10207206841E+01  0.10204567813E+01 0.  0.
     999903    2    3    3    0    0 -0.11061164821E+00 -0.61151505110E-01  0.68788889192E-02  0.13034100476E+00  0.31096866606E-01 0.  0.
         14    1    1    2    0    0  0.44397173978E-02 -0.22422646562E-01  0.40232046129E-02  0.23209315905E-01  0.00000000000E+00 0. -1.
     999901    1    3    3    0    0  0.10617193082E+00  0.83574151672E-01 -0.10902093532E-01  0.89037967933E+00  0.88000000000E+00 0. -1.
        -11    1    4    4    0    0 -0.35753510666E-01 -0.13404199520E-01  0.15329410745E-01  0.41148973796E-01  0.51100000000E-03 0.  1.
         11    1    4    4    0    0 -0.74858137548E-01 -0.47747305589E-01 -0.84505218258E-02  0.89192030968E-01  0.51100000000E-03 0. -1.
</event>
<event>
 8    1  0.1123450E+005  0.1043930E+01  0.7957747E-01            NaN
         13   -1    0    0    0    0  0.00000000000E+00  0.00000000000E+00  0.74505805969E-08  0.10566000000E+00  0.10566000000E+00 0.  1.
     999900   -1    0    0    0    0 -0.00000000000E+00 -0.00000000000E+00 -0.74505805969E-08  0.93827000000E+00  0.93827000000E+00 0. -1.
     999902    2    1    2    0    0 -0.49831026076E-02  0.61864663895E-02  0.22723254986E-01  0.10198582324E+01  0.10195741092E+01 0.  0.
     999903    2    3    3    0    0  0.11434506713E+00 -0.45119643758E-01 -0.32067506214E-01  0.12863796976E+00  0.20219438146E-01 0.  0.
         14    1    1    2    0    0  0.49831026076E-02 -0.61864663895E-02 -0.22723254986E-01  0.24071767595E-01  0.00000000000E+00 0. -1.
     999901    1    3    3    0    0 -0.11932816974E+00  0.51306110147E-01  0.54790761200E-01  0.89122026264E+00  0.88000000000E+00 0. -1.
        -11    1    4    4    0    0  0.73900501778E-01 -0.34247817811E-01 -0.12487668026E-01  0.82403884384E-01  0.51100000000E-03 0. -1.
         11    1    4    4    0    0  0.40444565356E-01 -0.10871825947E-01 -0.19579838188E-01  0.46234085378E-01  0.51100000000E-03 0.  1.
</event>
<event>
 8    1  0.1123450E+005  0.1043930E+01  0.7957747E-01            NaN
         13   -1    0    0    0    0  0.00000000000E+00  0.00000000000E+00  0.74505805969E-08  0.10566000000E+00  0.10566000000E+00 0.  1.
     999900   -1    0    0    0    0 -0.00000000000E+00 -0.00000000000E+00 -0.74505805969E-08  0.93827000000E+00  0.93827000000E+00 0.  1.
     999902    2    1    2    0    0  0.14293935022E-01 -0.78557189432E-02 -0.18002680591E-01  0.10196375031E+01  0.10193480820E+01 0.  0.
     999903    2    3    3    0    0  0.57059696882E-02 -0.12889106792E+00  0.73160152802E-02  0.13095063740E+00  0.21191504856E-01 0.  0.
         14    1    1    2    0    0 -0.14293935022E-01  0.78557189432E-02  0.18002680591E-01  0.24292496928E-01  0.00000000000E+00 0.  1.
     999901    1    3    3    0    0  0.85879653335E-02  0.12103534897E+00 -0.25318695872E-01  0.88868686567E+00  0.88000000000E+00 0.  1.
        -11    1    4    4    0    0  0.11620812310E-01 -0.72071020770E-01  0.10386418809E-01  0.73738823765E-01  0.51100000000E-03 0. -1.
         11    1    4    4    0    0 -0.59148426214E-02 -0.56820047147E-01 -0.30704035291E-02  0.57211813639E-01  0.51100000000E-03 0.  1.
</event>
<event>
 8    1  0.1123450E+005  0.1043930E+01  0.7957747E-01            NaN
         13   -1    0    0    0    0  0.00000000000E+00  0.00000000000E+00  0.74505805969E-08  0.10566000000E+00  0.10566000000E+00 0.  1.
     999900   -1    0    0    0    0 -0.00000000000E+00 -0.00000000000E+00 -0.74505805969E-08  0.93827000000E+00  0.93827000000E+00 0. -1.
     999902    2    1    2    0    0 -0.30609314609E-02 -0.23149089906E-01 -0.67173178153E-02  0.10196324276E+01  0.10193428841E+01 0.  0.
     999903    2    3    3    0    0 -0.83790241289E-01 -0.87267303783E-01 -0.49735971460E-01  0.13257043916E+00  0.21560789330E-01 0.  0.
         14    1    1    2    0    0  0.30609314609E-02  0.23149089906E-01  0.67173178153E-02  0.24297572379E-01  0.00000000000E+00 0.  1.
     999901    1    3    3    0    0  0.80729309828E-01  0.64118213877E-01  0.43018653644E-01  0.88706198846E+00  0.88000000000E+00 0. -1.
        -11    1    4    4    0    0 -0.39313784799E-01 -0.49594355599E-01 -0.35510505148E-01  0.72570178995E-01  0.51100000000E-03 0. -1.
         11    1    4    4    0    0 -0.44476456490E-01 -0.37672948184E-01 -0.14225466312E-01  0.60000260162E-01  0.51100000000E-03 0.  1.
</event>
<event>
 8    1  0.1123450E+005  0.1043930E+01  0.7957747E-01            NaN
         13   -1    0    0    0    0  0.00000000000E+00  0.00000000000E+00  0.74505805969E-08  0.10566000000E+00  0.10566000000E+00 0. -1.
     999900   -1    0    0    0    0 -0.00000000000E+00 -0.00000000000E+00 -0.74505805969E-08  0.93827000000E+00  0.93827000000E+00 0. -1.
     999902    2    1    2    0    0  0.12796159573E-01  0.17694037981E-01  0.91974558176E-02  0.10202358262E+01  0.10199606498E+01 0.  0.
     999903    2    3    3    0    0  0.10868108824E+00  0.57665858978E-01 -0.44357491332E-01  0.13250850408E+00  0.21306956262E-01 0.  0.
         14    1    1    2    0    0 -0.12796159573E-01 -0.17694037981E-01 -0.91974558176E-02  0.23694173828E-01  0.00000000000E+00 0.  1.
     999901    1    3    3    0    0 -0.95884928663E-01 -0.39971820998E-01  0.53554947150E-01  0.88772732209E+00  0.88000000000E+00 0.  1.
        -11    1    4    4    0    0  0.66101391654E-01  0.30424712584E-01 -0.15855354697E-01  0.74476241231E-01  0.51100000000E-03 0. -1.
         11    1    4    4    0    0  0.42579696582E-01  0.27241146395E-01 -0.28502136635E-01  0.58032262852E-01  0.51100000000E-03 0.  1.
</event>
<event>
 8    1  0.1123450E+005  0.1043930E+01  0.7957747E-01            NaN
         13   -1    0    0    0    0  0.00000000000E+00  0.00000000000E+00  0.74505805969E-08  0.10566000000E+00  0.10566000000E+00 0. -1.
     999900   -1    0    0    0    0 -0.00000000000E+00 -0.00000000000E+00 -0.74505805969E-08  0.93827000000E+00  0.93827000000E+00 0. -1.
     999902    2    1    2    0    0  0.13620876364E-01 -0.43856686011E-02  0.12261083781E-01  0.10250859947E+01  0.10249127767E+01 0.  0.
     999903    2    3    3    0    0  0.10567368564E+00  0.36570081308E-02 -0.81809070144E-01  0.13526151859E+00  0.20558523996E-01 0.  0.
         14    1    1    2    0    0 -0.13620876364E-01  0.43856686011E-02 -0.12261083781E-01  0.18844005346E-01  0.00000000000E+00 0.  1.
     999901    1    3    3    0    0 -0.92052809272E-01 -0.80426767319E-02  0.94070153924E-01  0.88982447606E+00  0.88000000000E+00 0.  1.
        -11    1    4    4    0    0  0.29736077459E-01 -0.40496742968E-02 -0.13824171586E-01  0.33045468760E-01  0.51100000000E-03 0.  1.
         11    1    4    4    0    0  0.75937608177E-01  0.77066824276E-02 -0.67984898558E-01  0.10221604983E+00  0.51100000000E-03 0. -1.
</event>
<event>
 8    1  0.1123450E+005  0.1043930E+01  0.7957747E-01            NaN
         13   -1    0    0    0    0  0.00000000000E+00  0.00000000000E+00  0.74505805969E-08  0.10566000000E+00  0.10566000000E+00 0.  1.
     999900   -1    0    0    0    0 -0.00000000000E+00 -0.00000000000E+00 -0.74505805969E-08  0.93827000000E+00  0.93827000000E+00 0.  1.
     999902    2    1    2    0    0 -0.41552589524E-02 -0.22941944687E-01 -0.52912006806E-02  0.10200219301E+01  0.10197417036E+01 0.  0.
     999903    2    3    3    0    0  0.10835200030E-01 -0.12456958430E+00  0.39924466671E-01  0.13289322038E+00  0.20776479260E-01 0.  0.
         14    1    1    2    0    0  0.41552589524E-02  0.22941944687E-01  0.52912006806E-02  0.23908069927E-01  0.00000000000E+00 0. -1.
     999901    1    3    3    0    0 -0.14990458983E-01  0.10162763961E+00 -0.45215667351E-01  0.88712870970E+00  0.88000000000E+00 0. -1.
        -11    1    4    4    0    0  0.69290590113E-02 -0.10426466146E+00  0.40830920501E-01  0.11218982430E+00  0.51100000000E-03 0. -1.
         11    1    4    4    0    0  0.39061410190E-02 -0.20304922845E-01 -0.90645383009E-03  0.20703396073E-01  0.51100000000E-03 0.  1.
</event>
<event>
 8    1  0.1123450E+005  0.1043930E+01  0.7957747E-01            NaN
         13   -1    0    0    0    0  0.00000000000E+00  0.00000000000E+00  0.74505805969E-08  0.10566000000E+00  0.10566000000E+00 0.  1.
     999900   -1    0    0    0    0 -0.00000000000E+00 -0.00000000000E+00 -0.74505805969E-08  0.93827000000E+00  0.93827000000E+00 0.  1.
     999902    2    1    2    0    0  0.14054497749E-01 -0.17769242562E-01 -0.75678417105E-02  0.10200438719E+01  0.10197641656E+01 0.  0.
     999903    2    3    3    0    0 -0.97674980213E-01 -0.73246150807E-01 -0.41900735370E-01  0.13058341117E+00  0.19772589103E-01 0.  0.
         14    1    1    2    0    0 -0.14054497749E-01  0.17769242562E-01  0.75678417105E-02  0.23886128115E-01  0.00000000000E+00 0.  1.
     999901    1    3    3    0    0  0.11172947796E+00  0.55476908245E-01  0.34332893660E-01  0.88946046072E+00  0.88000000000E+00 0. -1.
        -11    1    4    4    0    0 -0.16723503508E-01 -0.22847907228E-01 -0.94883273211E-02  0.29866233620E-01  0.51100000000E-03 0.  1.
         11    1    4    4    0    0 -0.80951476704E-01 -0.50398243578E-01 -0.32412408049E-01  0.10071717755E+00  0.51100000000E-03 0. -1.
</event>
<event>
 8    1  0.1123450E+005  0.1043930E+01  0.7957747E-01            NaN
         13   -1    0    0    0    0  0.00000000000E+00  0.00000000000E+00  0.74505805969E-08  0.10566000000E+00  0.10566000000E+00 0. -1.
     999900   -1    0    0    0    0 -0.00000000000E+00 -0.00000000000E+00 -0.74505805969E-08  0.93827000000E+00  0.93827000000E+00 0.  1.
     999902    2    1    2    0    0  0.90853029750E-02  0.21021991662E-01  0.39428187064E-02  0.10206918270E+01  0.10204272601E+01 0.  0.
     999903    2    3    3    0    0  0.10114548998E+00 -0.75602053025E-01 -0.24642986958E-01  0.13017038859E+00  0.19773029431E-01 0.  0.
         14    1    1    2    0    0 -0.90853029750E-02 -0.21021991662E-01 -0.39428187064E-02  0.23238172969E-01  0.00000000000E+00 0.  1.
     999901    1    3    3    0    0 -0.92060187009E-01  0.96624044687E-01  0.28585805664E-01  0.89052143844E+00  0.88000000000E+00 0. -1.
        -11    1    4    4    0    0  0.80504925978E-01 -0.57059698838E-01 -0.11124450088E-01  0.99301897509E-01  0.51100000000E-03 0. -1.
         11    1    4    4    0    0  0.20640564006E-01 -0.18542354187E-01 -0.13518536870E-01  0.30868491077E-01  0.51100000000E-03 0.  1.
</event>
<event>
 8    1  0.1123450E+005  0.1043930E+01  0.7957747E-01            NaN
         13   -1    0    0    0    0  0.00000000000E+00  0.00000000000E+00  0.74505805969E-08  0.10566000000E+00  0.10566000000E+00 0. -1.
     999900   -1    0    0    0    0 -0.00000000000E+00 -0.00000000000E+00 -0.74505805969E-08  0.93827000000E+00  0.93827000000E+00 0. -1.
     999902    2    1    2    0    0 -0.14062451944E-01 -0.83165899951E-02 -0.18891470150E-01  0.10189538941E+01  0.10186477469E+01 0.  0.
     999903    2    3    3    0    0  0.11863233167E+00 -0.41431887116E-01  0.10734206847E-01  0.12789710055E+00  0.21265317892E-01 0.  0.
         14    1    1    2    0    0  0.14062451944E-01  0.83165899951E-02  0.18891470150E-01  0.24976105946E-01  0.00000000000E+00 0. -1.
     999901    1    3    3    0    0 -0.13269478362E+00  0.33115297121E-01 -0.29625676997E-01  0.89105679350E+00  0.88000000000E+00 0.  1.
        -11    1    4    4    0    0  0.76513445442E-01 -0.16057189859E-01  0.89203886976E-02  0.78689104297E-01  0.51100000000E-03 0.  1.
         11    1    4    4    0    0  0.42118886232E-01 -0.25374697258E-01  0.18138181491E-02  0.49207996257E-01  0.51100000000E-03 0. -1.
</event>
<event>
 8    1  0.1123450E+005  0.1043930E+01  0.7957747E-01            NaN
         13   -1    0    0    0    0  0.00000000000E+00  0.00000000000E+00  0.74505805969E-08  0.10566000000E+00  0.10566000000E+00 0. -1.
     999900   -1    0    0    0    0 -0.00000000000E+00 -0.00000000000E+00 -0.74505805969E-08  0.93827000000E+00  0.93827000000E+00 0. -1.
     999902    2    1    2    0    0  0.84627607681E-03  0.51905839150E-02 -0.23320267024E-01  0.10200240761E+01  0.10197439005E+01 0.  0.
     999903    2    3    3    0    0  0.19005845069E-01 -0.13720453180E-01  0.12374197315E+00  0.12743531312E+00  0.19447625291E-01 0.  0.
         14    1    1    2    0    0 -0.84627607681E-03 -0.51905839150E-02  0.23320267024E-01  0.23905923923E-01  0.00000000000E+00 0. -1.
     999901    1    3    3    0    0 -0.18159568992E-01  0.18911037095E-01 -0.14706224017E+00  0.89258876296E+00  0.88000000000E+00 0. -1.
        -11    1    4    4    0    0 -0.35538697376E-02  0.34504367707E-03  0.21042141405E-01  0.21349048718E-01  0.51100000000E-03 0.  1.
         11    1    4    4    0    0  0.22559714807E-01 -0.14065496857E-01  0.10269983174E+00  0.10608626440E+00  0.51100000000E-03 0. -1.
</event>
<event>
 8    1  0.1123450E+005  0.1043930E+01  0.7957747E-01            NaN
         13   -1    0    0    0    0  0.00000000000E+00  0.00000000000E+00  0.74505805969E-08  0.10566000000E+00  0.10566000000E+00 0. -1.
     999900   -1    0    0    0    0 -0.00000000000E+00 -0.00000000000E+00 -0.74505805969E-08  0.93827000000E+00  0.93827000000E+00 0.  1.
     999902    2    1    2    0    0  0.10918574920E-01  0.19830852942E-01  0.46952593361E-02  0.10208102364E+01  0.10205483895E+01 0.  0.
     999903    2    3    3    0    0  0.64057267997E-01  0.11417998033E+00 -0.20291187316E-01  0.13382105891E+00  0.18866426112E-01 0.  0.
         14    1    1    2    0    0 -0.10918574920E-01 -0.19830852942E-01 -0.46952593361E-02  0.23119763556E-01  0.00000000000E+00 0. -1.
     999901    1    3    3    0    0 -0.53138693078E-01 -0.94349127389E-01  0.24986446652E-01  0.88698917753E+00  0.88000000000E+00 0. -1.
        -11    1    4    4    0    0  0.18107544366E-01  0.41900339105E-01  0.62905666873E-03  0.45652802908E-01  0.51100000000E-03 0. -1.
         11    1    4    4    0    0  0.45949723631E-01  0.72279641226E-01 -0.20920243985E-01  0.88168256005E-01  0.51100000000E-03 0.  1.
</event>
<event>
 8    1  0.1123450E+005  0.1043930E+01  0.7957747E-01            NaN
         13   -1    0    0    0    0  0.00000000000E+00  0.00000000000E+00  0.74505805969E-08  0.10566000000E+00  0.10566000000E+00 0.  1.
     999900   -1    0    0    0    0 -0.00000000000E+00 -0.00000000000E+00 -0.74505805969E-08  0.93827000000E+00  0.93827000000E+00 0.  1.
     999902    2    1    2    0    0 -0.84835120613E-02 -0.18633868171E-01 -0.98059155009E-02  0.10212287446E+01  0.10209763963E+01 0.  0.
     999903    2    3    3    0    0  0.96577310737E-01 -0.82298041830E-01 -0.32269389964E-01  0.13241182799E+00  0.19784691659E-01 0.  0.
         14    1    1    2    0    0  0.84835120613E-02  0.18633868171E-01  0.98059155009E-02  0.22701255443E-01  0.00000000000E+00 0. -1.
     999901    1    3    3    0    0 -0.10506082280E+00  0.63664173659E-01  0.22463474463E-01  0.88881691657E+00  0.88000000000E+00 0. -1.
        -11    1    4    4    0    0  0.19736566527E-01 -0.26347715611E-01 -0.13157595986E-01  0.35455854655E-01  0.51100000000E-03 0.  1.
         11    1    4    4    0    0  0.76840744210E-01 -0.55950326219E-01 -0.19111793978E-01  0.96955973333E-01  0.51100000000E-03 0. -1.
</event>
<event>
 8    1  0.1123450E+005  0.1043930E+01  0.7957747E-01            NaN
         13   -1    0    0    0    0  0.00000000000E+00  0.00000000000E+00  0.74505805969E-08  0.10566000000E+00  0.10566000000E+00 0.  1.
     999900   -1    0    0    0    0 -0.00000000000E+00 -0.00000000000E+00 -0.74505805969E-08  0.93827000000E+00  0.93827000000E+00 0. -1.
     999902    2    1    2    0    0  0.26910437891E-01 -0.35884308432E-03 -0.16982697376E-01  0.10121068568E+01  0.10116064339E+01 0.  0.
     999903    2    3    3    0    0  0.14188807978E-01 -0.89342221470E-01  0.79906475014E-01  0.12223754431E+00  0.19329192475E-01 0.  0.
         14    1    1    2    0    0 -0.26910437891E-01  0.35884308432E-03  0.16982697376E-01  0.31823143246E-01  0.00000000000E+00 0.  1.
     999901    1    3    3    0    0  0.12721629913E-01  0.88983378385E-01 -0.96889172390E-01  0.88986931244E+00  0.88000000000E+00 0. -1.
        -11    1    4    4    0    0  0.17131442342E-02 -0.12808456908E-01  0.21760515385E-01  0.25313486175E-01  0.51100000000E-03 0.  1.
         11    1    4    4    0    0  0.12475663744E-01 -0.76533764562E-01  0.58145959629E-01  0.96924058138E-01  0.51100000000E-03 0. -1.
</event>
<event>
 8    1  0.1123450E+005  0.1043930E+01  0.7957747E-01            NaN
         13   -1    0    0    0    0  0.00000000000E+00  0.00000000000E+00  0.74505805969E-08  0.10566000000E+00  0.10566000000E+00 0. -1.
     999900   -1    0    0    0    0 -0.00000000000E+00 -0.00000000000E+00 -0.74505805969E-08  0.93827000000E+00  0.93827000000E+00 0. -1.
     999902    2    1    2    0    0 -0.21237762599E-01 -0.63339196905E-02 -0.95956173102E-02  0.10197797004E+01  0.10194936981E+01 0.  0.
     999903    2    3    3    0    0  0.23484812488E-01 -0.12396420416E+00  0.24312875564E-01  0.13018047692E+00  0.20908857485E-01 0.  0.
         14    1    1    2    0    0  0.21237762599E-01  0.63339196905E-02  0.95956173102E-02  0.24150299593E-01  0.00000000000E+00 0. -1.
     999901    1    3    3    0    0 -0.44722575088E-01  0.11763028447E+00 -0.33908492875E-01  0.88959922349E+00  0.88000000000E+00 0. -1.
        -11    1    4    4    0    0 -0.33307405918E-02 -0.21624257250E-01  0.13883617948E-02  0.21929227164E-01  0.51100000000E-03 0. -1.
         11    1    4    4    0    0  0.26815553080E-01 -0.10233994691E+00  0.22924513770E-01  0.10825124975E+00  0.51100000000E-03 0.  1.
</event>
<event>
 8    1  0.1123450E+005  0.1043930E+01  0.7957747E-01            NaN
         13   -1    0    0    0    0  0.00000000000E+00  0.00000000000E+00  0.74505805969E-08  0.10566000000E+00  0.10566000000E+00 0.  1.
     999900   -1    0    0    0    0 -0.00000000000E+00 -0.00000000000E+00 -0.74505805969E-08  0.93827000000E+00  0.93827000000E+00 0. -1.
     999902    2    1    2    0    0 -0.88869638907E-02  0.74233786685E-02  0.20002440573E-01  0.10208176157E+01  0.10205559378E+01 0.  0.
     999903    2    3    3    0    0  0.79480401550E-01  0.97544084806E-01  0.33645159625E-01  0.13170757938E+00  0.19568009303E-01 0.  0.
         14    1    1    2    0    0  0.88869638907E-02 -0.74233786685E-02 -0.20002440573E-01  0.23112384276E-01  0.00000000000E+00 0. -1.
     999901    1    3    3    0    0 -0.88367365440E-01 -0.90120706137E-01 -0.13642719052E-01  0.88911003635E+00  0.88000000000E+00 0.  1.
        -11    1    4    4    0    0  0.56496593011E-01  0.58927524348E-01  0.14765990809E-01  0.82961519714E-01  0.51100000000E-03 0. -1.
         11    1    4    4    0    0  0.22983808539E-01  0.38616560457E-01  0.18879168816E-01  0.48746059663E-01  0.51100000000E-03 0.  1.
</event>
<event>
 8    1  0.1123450E+005  0.1043930E+01  0.7957747E-01            NaN
         13   -1    0    0    0    0  0.00000000000E+00  0.00000000000E+00  0.74505805969E-08  0.10566000000E+00  0.10566000000E+00 0.  1.
     999900   -1    0    0    0    0 -0.00000000000E+00 -0.00000000000E+00 -0.74505805969E-08  0.93827000000E+00  0.93827000000E+00 0.  1.
     999902    2    1    2    0    0  0.32363345492E-02 -0.67866400763E-02 -0.22354953189E-01  0.10203444901E+01  0.10200718613E+01 0.  0.
     999903    2    3    3    0    0 -0.81670757035E-01 -0.51116961457E-01  0.83257970155E-01  0.12886903830E+00  0.19806138823E-01 0.  0.
         14    1    1    2    0    0 -0.32363345492E-02  0.67866400763E-02  0.22354953189E-01  0.23585509893E-01  0.00000000000E+00 0.  1.
     999901    1    3    3    0    0  0.84907091585E-01  0.44330321380E-01 -0.10561292334E+00  0.89147545181E+00  0.88000000000E+00 0.  1.
        -11    1    4    4    0    0 -0.45320385890E-01 -0.36347563422E-01  0.58636909060E-01  0.82544721024E-01  0.51100000000E-03 0. -1.
         11    1    4    4    0    0 -0.36350371145E-01 -0.14769398035E-01  0.24621061095E-01  0.46324317277E-01  0.51100000000E-03 0.  1.
</event>
<event>
 8    1  0.1123450E+005  0.1043930E+01  0.7957747E-01            NaN
         13   -1    0    0    0    0  0.00000000000E+00  0.00000000000E+00  0.74505805969E-08  0.10566000000E+00  0.10566000000E+00 0.  1.
     999900   -1    0    0    0    0 -0.00000000000E+00 -0.00000000000E+00 -0.74505805969E-08  0.93827000000E+00  0.93827000000E+00 0.  1.
     999902    2    1    2    0    0 -0.17171056863E-01  0.11750893157E-01 -0.95106934370E-02  0.10210524570E+01  0.10207961295E+01 0.  0.
     999903    2    3    3    0    0 -0.67990783908E-01 -0.54840598346E-01  0.95409029008E-01  0.13086976814E+00  0.19843776697E-01 0.  0.
         14    1    1    2    0    0  0.17171056863E-01 -0.11750893157E-01  0.95106934370E-02  0.22877542994E-01  0.00000000000E+00 0.  1.
     999901    1    3    3    0    0  0.50819727045E-01  0.66591491503E-01 -0.10491972244E+00  0.89018268887E+00  0.88000000000E+00 0.  1.
        -11    1    4    4    0    0 -0.52743262155E-01 -0.51032034218E-01  0.73186553001E-01  0.10364676975E+00  0.51100000000E-03 0.  1.
         11    1    4    4    0    0 -0.15247521753E-01 -0.38085641286E-02  0.22222476007E-01  0.27222998387E-01  0.51100000000E-03 0. -1.
</event>
<event>
 8    1  0.1123450E+005  0.1043930E+01  0.7957747E-01            NaN
         13   -1    0    0    0    0  0.00000000000E+00  0.00000000000E+00  0.74505805969E-08  0.10566000000E+00  0.10566000000E+00 0. -1.
     999900   -1    0    0    0    0 -0.00000000000E+00 -0.00000000000E+00 -0.74505805969E-08  0.93827000000E+00  0.93827000000E+00 0. -1.
     999902    2    1    2    0    0  0.11458195352E-01 -0.11488722503E-01  0.26026413643E-01  0.10132598974E+01  0.10127956183E+01 0.  0.
     999903    2    3    3    0    0 -0.15026948407E-02  0.23986443477E-02 -0.11972599938E+00  0.12106899322E+00  0.17758789496E-01 0.  0.
         14    1    1    2    0    0 -0.11458195352E-01  0.11488722503E-01 -0.26026413643E-01  0.30670102586E-01  0.00000000000E+00 0.  1.
     999901    1    3    3    0    0  0.12960890193E-01 -0.13887366851E-01  0.14575241302E+00  0.89219090420E+00  0.88000000000E+00 0.  1.
        -11    1    4    4    0    0 -0.64809181920E-02 -0.55446868662E-02 -0.52545670892E-01  0.53235838525E-01  0.51100000000E-03 0.  1.
         11    1    4    4    0    0  0.49782233513E-02  0.79433312138E-02 -0.67180328488E-01  0.67833154690E-01  0.51100000000E-03 0. -1.
</event>
<event>
 8    1  0.1123450E+005  0.1043930E+01  0.7957747E-01            NaN
         13   -1    0    0    0    0  0.00000000000E+00  0.00000000000E+00  0.74505805969E-08  0.10566000000E+00  0.10566000000E+00 0.  1.
     999900   -1    0    0    0    0 -0.00000000000E+00 -0.00000000000E+00 -0.74505805969E-08  0.93827000000E+00  0.93827000000E+00 0.  1.
     999902    2    1    2    0    0 -0.60827983272E-02 -0.11107909869E-01  0.19483415001E-01  0.10206923246E+01  0.10204277691E+01 0.  0.
     999903    2    3    3    0    0 -0.64669740198E-01 -0.10267080537E+00  0.52296725703E-01  0.13339704854E+00  0.18339996380E-01 0.  0.
         14    1    1    2    0    0  0.60827983272E-02  0.11107909869E-01 -0.19483415001E-01  0.23237675384E-01  0.00000000000E+00 0. -1.
     999901    1    3    3    0    0  0.58586941871E-01  0.91562895500E-01 -0.32813310702E-01  0.88729527608E+00  0.88000000000E+00 0.  1.
        -11    1    4    4    0    0 -0.45325289176E-01 -0.85087306685E-01  0.43924348159E-01  0.10594263108E+00  0.51100000000E-03 0.  1.
         11    1    4    4    0    0 -0.19344451022E-01 -0.17583498684E-01  0.83723775438E-02  0.27454417460E-01  0.51100000000E-03 0. -1.
</event>
<event>
 8    1  0.1123450E+005  0.1043930E+01  0.7957747E-01            NaN
         13   -1    0    0    0    0  0.00000000000E+00  0.00000000000E+00  0.74505805969E-08  0.10566000000E+00  0.10566000000E+00 0. -1.
     999900   -1    0    0    0    0 -0.00000000000E+00 -0.00000000000E+00 -0.74505805969E-08  0.93827000000E+00  0.93827000000E+00 0. -1.
     999902    2    1    2    0    0 -0.11345142670E-01  0.14457047054E-01 -0.14998679104E-01  0.10202091474E+01  0.10199333437E+01 0.  0.
     999903    2    3    3    0    0 -0.11310172572E+00 -0.54378756104E-01  0.29626269911E-01  0.13055519444E+00  0.20442442374E-01 0.  0.
         14    1    1    2    0    0  0.11345142670E-01 -0.14457047054E-01  0.14998679104E-01  0.23720852568E-01  0.00000000000E+00 0. -1.
     999901    1    3    3    0    0  0.10175658306E+00  0.68835803158E-01 -0.44624949015E-01  0.88965395299E+00  0.88000000000E+00 0. -1.
        -11    1    4    4    0    0 -0.55997795239E-01 -0.30919736929E-01  0.52641113496E-02  0.64185319137E-01  0.51100000000E-03 0. -1.
         11    1    4    4    0    0 -0.57103930486E-01 -0.23459019176E-01  0.24362158562E-01  0.66369875308E-01  0.51100000000E-03 0.  1.
</event>
<event>
 8    1  0.1123450E+005  0.1043930E+01  0.7957747E-01            NaN
         13   -1    0    0    0    0  0.00000000000E+00  0.00000000000E+00  0.74505805969E-08  0.10566000000E+00  0.10566000000E+00 0.  1.
     999900   -1    0    0    0    0 -0.00000000000E+00 -0.00000000000E+00 -0.74505805969E-08  0.93827000000E+00  0.93827000000E+00 0. -1.
     999902    2    1    2    0    0 -0.23992439390E-01 -0.42494396009E-02  0.17473746378E-02  0.10195015698E+01  0.10192088611E+01 0.  0.
     999903    2    3    3    0    0  0.93414517911E-02 -0.10476285199E+00  0.74128297505E-01  0.13020235559E+00  0.19877903068E-01 0.  0.
         14    1    1    2    0    0  0.23992439390E-01  0.42494396009E-02 -0.17473746378E-02  0.24428430218E-01  0.00000000000E+00 0.  1.
     999901    1    3    3    0    0 -0.33333891181E-01  0.10051341239E+00 -0.72380922867E-01  0.88929921419E+00  0.88000000000E+00 0. -1.
        -11    1    4    4    0    0  0.46224962495E-02 -0.14154163806E-01  0.37213099864E-02  0.15356337247E-01  0.51100000000E-03 0. -1.
         11    1    4    4    0    0  0.47189555416E-02 -0.90608688187E-01  0.70406987518E-01  0.11484601834E+00  0.51100000000E-03 0.  1.
</event>
<event>
 8    1  0.1123450E+005  0.1043930E+01  0.7957747E-01            NaN
         13   -1    0    0    0    0  0.00000000000E+00  0.00000000000E+00  0.74505805969E-08  0.10566000000E+00  0.10566000000E+00 0. -1.
     999900   -1    0    0    0    0 -0.00000000000E+00 -0.00000000000E+00 -0.74505805969E-08  0.93827000000E+00  0.93827000000E+00 0. -1.
     999902    2    1    2    0    0  0.51230261067E-02 -0.48796619465E-02 -0.22098954360E-01  0.10207261150E+01  0.10204623371E+01 0.  0.
     999903    2    3    3    0    0 -0.90521250069E-01 -0.64242265652E-01 -0.69035231102E-01  0.13231474608E+00  0.20497889793E-01 0.  0.
         14    1    1    2    0    0 -0.51230261067E-02  0.48796619465E-02  0.22098954360E-01  0.23203885041E-01  0.00000000000E+00 0. -1.
     999901    1    3    3    0    0  0.95644276176E-01  0.59362603705E-01  0.46936276742E-01  0.88841136888E+00  0.88000000000E+00 0.  1.
        -11    1    4    4    0    0 -0.55186022787E-01 -0.31399969469E-01 -0.29850124414E-01  0.70162285042E-01  0.51100000000E-03 0.  1.
         11    1    4    4    0    0 -0.35335227282E-01 -0.32842296183E-01 -0.39185106688E-01  0.62152461035E-01  0.51100000000E-03 0. -1.
</event>
<event>
 8    1  0.1123450E+005  0.1043930E+01  0.7957747E-01            NaN
         13   -1    0    0    0    0  0.00000000000E+00  0.00000000000E+00  0.74505805969E-08  0.10566000000E+00  0.10566000000E+00 0.  1.
     999900   -1    0    0    0    0 -0.00000000000E+00 -0.00000000000E+00 -0.74505805969E-08  0.93827000000E+00  0.93827000000E+00 0. -1.
     999902    2    1    2    0    0  0.92778969022E-02  0.35680051946E-02  0.21690650692E-01  0.10200701098E+01  0.10197910250E+01 0.  0.
     999903    2    3    3    0    0 -0.12312066979E+00  0.17268870626E-01 -0.26798960954E-01  0.12874057670E+00  0.19975949518E-01 0.  0.
         14    1    1    2    0    0 -0.92778969022E-02 -0.35680051946E-02 -0.21690650692E-01  0.23859890181E-01  0.00000000000E+00 0. -1.
     999901    1    3    3    0    0  0.13239856669E+00 -0.13700865432E-01  0.48489611646E-01  0.89132953312E+00  0.88000000000E+00 0.  1.
        -11    1    4    4    0    0 -0.91237248028E-01  0.14457886276E-01 -0.28530642352E-01  0.96682597076E-01  0.51100000000E-03 0. -1.
         11    1    4    4    0    0 -0.31883421758E-01  0.28109843509E-02  0.17316813982E-02  0.32057979622E-01  0.51100000000E-03 0.  1.
</event>
<event>
 7    1  0.1123450E+005  0.1043930E+01  0.7957747E-01            NaN
         13   -1    0    0    0    0  0.00000000000E+00  0.00000000000E+00  0.74505805969E-08  0.10566000000E+00  0.10566000000E+00 0. -1.
     999900   -1    0    0    0    0 -0.00000000000E+00 -0.00000000000E+00 -0.74505805969E-08  0.93827000000E+00  0.93827000000E+00 0. -1.
     999903    2    1    2    0    0  0.63091940663E-01 -0.92384348785E-01  0.34793541995E-01  0.11886237019E+00  0.20055213943E-01 0.  0.
         14    1    1    2    0    0 -0.32847460601E-01 -0.84509436992E-02 -0.18519272904E-01  0.38643726351E-01  0.00000000000E+00 0.  1.
     999901    1    1    2    0    0 -0.30244480062E-01  0.10083529248E+00 -0.16274269090E-01  0.88642390346E+00  0.88000000000E+00 0.  1.
        -11    1    3    3    0    0  0.14111650612E-01 -0.84595387809E-02  0.58565946765E-02  0.17471785873E-01  0.51100000000E-03 0. -1.
         11    1    3    3    0    0  0.48980290051E-01 -0.83924810004E-01  0.28936947318E-01  0.10139058432E+00  0.51100000000E-03 0.  1.
</event>
<event>
 8    1  0.1123450E+005  0.1043930E+01  0.7957747E-01            NaN
         13   -1    0    0    0    0  0.00000000000E+00  0.00000000000E+00  0.74505805969E-08  0.10566000000E+00  0.10566000000E+00 0.  1.
     999900   -1    0    0    0    0 -0.00000000000E+00 -0.00000000000E+00 -0.74505805969E-08  0.93827000000E+00  0.93827000000E+00 0.  1.
     999902    2    1    2    0    0  0.14101509683E-01  0.16302159149E-01 -0.86340030240E-02  0.10207102029E+01  0.10204460590E+01 0.  0.
     999903    2    3    3    0    0 -0.52543508462E-02 -0.55028353490E-01  0.11469106741E+00  0.12904223536E+00  0.21026879759E-01 0.  0.
         14    1    1    2    0    0 -0.14101509683E-01 -0.16302159149E-01  0.86340030240E-02  0.23219797081E-01  0.00000000000E+00 0.  1.
     999901    1    3    3    0    0  0.19355860530E-01  0.71330512639E-01 -0.12332507044E+00  0.89166796756E+00  0.88000000000E+00 0.  1.
        -11    1    4    4    0    0 -0.11557130377E-01 -0.45045565760E-01  0.81853441259E-01  0.94143067850E-01  0.51100000000E-03 0. -1.
         11    1    4    4    0    0  0.63027795308E-02 -0.99827877298E-02  0.32837626152E-01  0.34899167511E-01  0.51100000000E-03 0.  1.
</event>
<event>
 8    1  0.1123450E+005  0.1043930E+01  0.7957747E-01            NaN
         13   -1    0    0    0    0  0.00000000000E+00  0.00000000000E+00  0.74505805969E-08  0.10566000000E+00  0.10566000000E+00 0.  1.
     999900   -1    0    0    0    0 -0.00000000000E+00 -0.00000000000E+00 -0.74505805969E-08  0.93827000000E+00  0.93827000000E+00 0. -1.
     999902    2    1    2    0    0 -0.15743411289E-01 -0.14995584555E-01 -0.10311076164E-01  0.10198667324E+01  0.10195828123E+01 0.  0.
     999903    2    3    3    0    0 -0.34017706284E-01 -0.12400586928E+00  0.23606376016E-01  0.13230401035E+00  0.20308377853E-01 0.  0.
         14    1    1    2    0    0  0.15743411289E-01  0.14995584555E-01  0.10311076164E-01  0.24063267584E-01  0.00000000000E+00 0.  1.
     999901    1    3    3    0    0  0.18274294995E-01  0.10901028472E+00 -0.33917452181E-01  0.88756272206E+00  0.88000000000E+00 0. -1.
        -11    1    4    4    0    0 -0.23337842474E-01 -0.77131101847E-01  0.49684707871E-02  0.80739139124E-01  0.51100000000E-03 0. -1.
         11    1    4    4    0    0 -0.10679863810E-01 -0.46874767430E-01  0.18637905229E-01  0.51564871230E-01  0.51100000000E-03 0.  1.
</event>
<event>
 8    1  0.1123450E+005  0.1043930E+01  0.7957747E-01            NaN
         13   -1    0    0    0    0  0.00000000000E+00  0.00000000000E+00  0.74505805969E-08  0.10566000000E+00  0.10566000000E+00 0. -1.
     999900   -1    0    0    0    0 -0.00000000000E+00 -0.00000000000E+00 -0.74505805969E-08  0.93827000000E+00  0.93827000000E+00 0.  1.
     999902    2    1    2    0    0  0.23218189254E-01  0.14838861410E-02 -0.50064843736E-02  0.10201318674E+01  0.10198542424E+01 0.  0.
     999903    2    3    3    0    0 -0.71926112075E-01  0.78065254498E-02  0.10393411501E+00  0.12830202485E+00  0.20610722442E-01 0.  0.
         14    1    1    2    0    0 -0.23218189254E-01 -0.14838861410E-02  0.50064843736E-02  0.23798132618E-01  0.00000000000E+00 0. -1.
     999901    1    3    3    0    0  0.95144301330E-01 -0.63226393088E-02 -0.10894059938E+00  0.89182984254E+00  0.88000000000E+00 0.  1.
        -11    1    4    4    0    0 -0.58268692633E-01  0.90720924775E-02  0.68997406715E-01  0.90765889284E-01  0.51100000000E-03 0.  1.
         11    1    4    4    0    0 -0.13657419443E-01 -0.12655670277E-02  0.34936708291E-01  0.37536135563E-01  0.51100000000E-03 0. -1.
</event>
<event>
 8    1  0.1123450E+005  0.1043930E+01  0.7957747E-01            NaN
         13   -1    0    0    0    0  0.00000000000E+00  0.00000000000E+00  0.74505805969E-08  0.10566000000E+00  0.10566000000E+00 0.  1.
     999900   -1    0    0    0    0 -0.00000000000E+00 -0.00000000000E+00 -0.74505805969E-08  0.93827000000E+00  0.93827000000E+00 0.  1.
     999902    2    1    2    0    0  0.98816504403E-02 -0.17749733660E-01  0.11145391895E-01  0.10207584696E+01  0.10204954353E+01 0.  0.
     999903    2    3    3    0    0  0.35147149867E-01 -0.13227905513E-01  0.12561160854E+00  0.13297397597E+00  0.22214915154E-01 0.  0.
         14    1    1    2    0    0 -0.98816504403E-02  0.17749733660E-01 -0.11145391895E-01  0.23171530396E-01  0.00000000000E+00 0. -1.
     999901    1    3    3    0    0 -0.25265499427E-01 -0.45218281465E-02 -0.11446621665E+00  0.88778449364E+00  0.88000000000E+00 0.  1.
        -11    1    4    4    0    0  0.34746316447E-01 -0.79822587942E-02  0.87315157254E-01  0.94314478048E-01  0.51100000000E-03 0. -1.
         11    1    4    4    0    0  0.40083341955E-03 -0.52456467192E-02  0.38296451288E-01  0.38659497917E-01  0.51100000000E-03 0.  1.
</event>
<event>
 8    1  0.1123450E+005  0.1043930E+01  0.7957747E-01            NaN
         13   -1    0    0    0    0  0.00000000000E+00  0.00000000000E+00  0.74505805969E-08  0.10566000000E+00  0.10566000000E+00 0.  1.
     999900   -1    0    0    0    0 -0.00000000000E+00 -0.00000000000E+00 -0.74505805969E-08  0.93827000000E+00  0.93827000000E+00 0.  1.
     999902    2    1    2    0    0  0.18730036776E-01 -0.58467690135E-02 -0.17905887147E-01  0.10173664953E+01  0.10170196488E+01 0.  0.
     999903    2    3    3    0    0 -0.56841305158E-01 -0.10645039411E+00 -0.38141517159E-01  0.12818619988E+00  0.20354511318E-01 0.  0.
         14    1    1    2    0    0 -0.18730036776E-01  0.58467690135E-02  0.17905887147E-01  0.26563504664E-01  0.00000000000E+00 0.  1.
     999901    1    3    3    0    0  0.75571341933E-01  0.10060362509E+00  0.20235630011E-01  0.88918029546E+00  0.88000000000E+00 0. -1.
        -11    1    4    4    0    0 -0.19396964626E-01 -0.57128100960E-01 -0.21650654576E-01  0.64100500158E-01  0.51100000000E-03 0.  1.
         11    1    4    4    0    0 -0.37444340531E-01 -0.49322293148E-01 -0.16490862583E-01  0.64085699723E-01  0.51100000000E-03 0. -1.
</event>
<event>
 8    1  0.1123450E+005  0.1043930E+01  0.7957747E-01            NaN
         13   -1    0    0    0    0  0.00000000000E+00  0.00000000000E+00  0.74505805969E-08  0.10566000000E+00  0.10566000000E+00 0. -1.
     999900   -1    0    0    0    0 -0.00000000000E+00 -0.00000000000E+00 -0.74505805969E-08  0.93827000000E+00  0.93827000000E+00 0. -1.
     999902    2    1    2    0    0  0.20846906973E-01  0.80029805378E-02 -0.95497124973E-02  0.10196434145E+01  0.10193541359E+01 0.  0.
     999903    2    3    3    0    0  0.12418013232E+00  0.20112654637E-01 -0.38350549239E-01  0.13304661329E+00  0.20134858860E-01 0.  0.
         14    1    1    2    0    0 -0.20846906973E-01 -0.80029805378E-02  0.95497124973E-02  0.24286585528E-01  0.00000000000E+00 0. -1.
     999901    1    3    3    0    0 -0.10333322535E+00 -0.12109674099E-01  0.28800836742E-01  0.88659680118E+00  0.88000000000E+00 0. -1.
        -11    1    4    4    0    0  0.47277294221E-01  0.10326833459E-01 -0.49985907641E-02  0.48652164071E-01  0.51100000000E-03 0.  1.
         11    1    4    4    0    0  0.76902838100E-01  0.97858211776E-02 -0.33351958475E-01  0.84394449220E-01  0.51100000000E-03 0. -1.
</event>
<event>
 8    1  0.1123450E+005  0.1043930E+01  0.7957747E-01            NaN
         13   -1    0    0    0    0  0.00000000000E+00  0.00000000000E+00  0.74505805969E-08  0.10566000000E+00  0.10566000000E+00 0. -1.
     999900   -1    0    0    0    0 -0.00000000000E+00 -0.00000000000E+00 -0.74505805969E-08  0.93827000000E+00  0.93827000000E+00 0.  1.
     999902    2    1    2    0    0 -0.12570810704E-01  0.17651305933E-01 -0.45634488875E-02  0.10217845953E+01  0.10215445856E+01 0.  0.
     999903    2    3    3    0    0 -0.85953681689E-01 -0.95147662420E-01 -0.20790783514E-01  0.13140715883E+00  0.19861310442E-01 0.  0.
         14    1    1    2    0    0  0.12570810704E-01 -0.17651305933E-01  0.45634488875E-02  0.22145404684E-01  0.00000000000E+00 0. -1.
     999901    1    3    3    0    0  0.73382870986E-01  0.11279896835E+00  0.16227334626E-01  0.89037743649E+00  0.88000000000E+00 0. -1.
        -11    1    4    4    0    0 -0.10811179704E-01 -0.22407654871E-01 -0.74501475253E-02  0.25975958549E-01  0.51100000000E-03 0.  1.
         11    1    4    4    0    0 -0.75142501985E-01 -0.72740007549E-01 -0.13340635988E-01  0.10543120028E+00  0.51100000000E-03 0. -1.
</event>
<event>
 8    1  0.1123450E+005  0.1043930E+01  0.7957747E-01            NaN
         13   -1    0    0    0    0  0.00000000000E+00  0.00000000000E+00  0.74505805969E-08  0.10566000000E+00  0.10566000000E+00 0.  1.
     999900   -1    0    0    0    0 -0.00000000000E+00 -0.00000000000E+00 -0.74505805969E-08  0.93827000000E+00  0.93827000000E+00 0.  1.
     999902    2    1    2    0    0 -0.22009017172E-01  0.28101929374E-02  0.59331556564E-02  0.10209627111E+01  0.10207043456E+01 0.  0.
     999903    2    3    3    0    0  0.66213371087E-01  0.10138227469E+00  0.44253525051E-01  0.13025058268E+00  0.18554343872E-01 0.  0.
         14    1    1    2    0    0  0.22009017172E-01 -0.28101929374E-02 -0.59331556564E-02  0.22967288853E-01  0.00000000000E+00 0. -1.
     999901    1    3    3    0    0 -0.88222388259E-01 -0.98572081752E-01 -0.38320369395E-01  0.89071212847E+00  0.88000000000E+00 0.  1.
        -11    1    4    4    0    0  0.32486862357E-01  0.60844313128E-01  0.32363047982E-01  0.76190909310E-01  0.51100000000E-03 0. -1.
         11    1    4    4    0    0  0.33726508730E-01  0.40537961562E-01  0.11890477070E-01  0.54059673368E-01  0.51100000000E-03 0.  1.
</event>
<event>
 8    1  0.1123450E+005  0.1043930E+01  0.7957747E-01            NaN
         13   -1    0    0    0    0  0.00000000000E+00  0.00000000000E+00  0.74505805969E-08  0.10566000000E+00  0.10566000000E+00 0.  1.
     999900   -1    0    0    0    0 -0.00000000000E+00 -0.00000000000E+00 -0.74505805969E-08  0.93827000000E+00  0.93827000000E+00 0. -1.
     999902    2    1    2    0    0 -0.67392680326E-02 -0.33300269069E-02  0.22546339856E-01  0.10201635477E+01  0.10198866701E+01 0.  0.
     999903    2    3    3    0    0 -0.10203929559E+00  0.24440389665E-01 -0.73148430213E-01  0.12942745869E+00  0.19784431470E-01 0.  0.
         14    1    1    2    0    0  0.67392680326E-02  0.33300269069E-02 -0.22546339856E-01  0.23766452275E-01  0.00000000000E+00 0. -1.
     999901    1    3    3    0    0  0.95300027560E-01 -0.27770416572E-01  0.95694770069E-01  0.89073608903E+00  0.88000000000E+00 0. -1.
        -11    1    4    4    0    0 -0.27160428355E-01  0.15641143691E-01 -0.22937629059E-01  0.38842376244E-01  0.51100000000E-03 0.  1.
         11    1    4    4    0    0 -0.74878867237E-01  0.87992459733E-02 -0.50210801154E-01  0.90585082447E-01  0.51100000000E-03 0. -1.
</event>
<event>
 7    1  0.1123450E+005  0.1043930E+01  0.7957747E-01            NaN
         13   -1    0    0    0    0  0.00000000000E+00  0.00000000000E+00  0.74505805969E-08  0.10566000000E+00  0.10566000000E+00 0. -1.
     999900   -1    0    0    0    0 -0.00000000000E+00 -0.00000000000E+00 -0.74505805969E-08  0.93827000000E+00  0.93827000000E+00 0. -1.
     999903    2    1    2    0    0 -0.13393937961E-01  0.65501544233E-01 -0.62235548014E-01  0.93573531291E-01  0.20319755184E-01 0.  0.
         14    1    1    2    0    0  0.22320830000E-01  0.20943765549E-01 -0.50364115910E-01  0.58935599926E-01  0.00000000000E+00 0.  1.
     999901    1    1    2    0    0 -0.89268920386E-02 -0.86445309782E-01  0.11259966392E+00  0.89142086878E+00  0.88000000000E+00 0.  1.
        -11    1    3    3    0    0 -0.28017777902E-02  0.48562409922E-02  0.52935244572E-03  0.56545884352E-02  0.51100000000E-03 0.  1.
         11    1    3    3    0    0 -0.10592160171E-01  0.60645303240E-01 -0.62764900460E-01  0.87918942856E-01  0.51100000000E-03 0. -1.
</event>
<event>
 8    1  0.1123450E+005  0.1043930E+01  0.7957747E-01            NaN
         13   -1    0    0    0    0  0.00000000000E+00  0.00000000000E+00  0.74505805969E-08  0.10566000000E+00  0.10566000000E+00 0.  1.
     999900   -1    0    0    0    0 -0.00000000000E+00 -0.00000000000E+00 -0.74505805969E-08  0.93827000000E+00  0.93827000000E+00 0. -1.
     999902    2    1    2    0    0  0.54937360145E-02 -0.48352880552E-02 -0.22268715252E-01  0.10204895046E+01  0.10202202567E+01 0.  0.
     999903    2    3    3    0    0  0.23705435602E-01 -0.97201503586E-02 -0.12955372283E+00  0.13377331509E+00  0.21323783181E-01 0.  0.
         14    1    1    2    0    0 -0.54937360145E-02  0.48352880552E-02  0.22268715252E-01  0.23440495408E-01  0.00000000000E+00 0.  1.
     999901    1    3    3    0    0 -0.18211699588E-01  0.48848623034E-02  0.10728500758E+00  0.88671618951E+00  0.88000000000E+00 0.  1.
        -11    1    4    4    0    0  0.38501818088E-02 -0.79054691205E-02 -0.78005702666E-01  0.78501408340E-01  0.51100000000E-03 0.  1.
         11    1    4    4    0    0  0.19855253793E-01 -0.18146812382E-02 -0.51548020167E-01  0.55271906746E-01  0.51100000000E-03 0. -1.
</event>
<event>
 8    1  0.1123450E+005  0.1043930E+01  0.7957747E-01            NaN
         13   -1    0    0    0    0  0.00000000000E+00  0.00000000000E+00  0.74505805969E-08  0.10566000000E+00  0.10566000000E+00 0.  1.
     999900   -1    0    0    0    0 -0.00000000000E+00 -0.00000000000E+00 -0.74505805969E-08  0.93827000000E+00  0.93827000000E+00 0.  1.
     999902    2    1    2    0    0  0.41734911191E-03 -0.80411020413E-02  0.21245571228E-01  0.10212097932E+01  0.10209570186E+01 0.  0.
     999903    2    3    3    0    0 -0.66137170464E-01 -0.11173092654E+00 -0.16267525994E-02  0.13233172110E+00  0.25516912506E-01 0.  0.
         14    1    1    2    0    0 -0.41734911191E-03  0.80411020413E-02 -0.21245571228E-01  0.22720206846E-01  0.00000000000E+00 0. -1.
     999901    1    3    3    0    0  0.66554519576E-01  0.10368982450E+00  0.22872323827E-01  0.88887807205E+00  0.88000000000E+00 0.  1.
        -11    1    4    4    0    0 -0.40967770395E-01 -0.76119535537E-01 -0.12606266895E-01  0.87359721769E-01  0.51100000000E-03 0. -1.
         11    1    4    4    0    0 -0.25169400069E-01 -0.35611391000E-01  0.10979514296E-01  0.44971999332E-01  0.51100000000E-03 0.  1.
</event>
<event>
 8    1  0.1123450E+005  0.1043930E+01  0.7957747E-01            NaN
         13   -1    0    0    0    0  0.00000000000E+00  0.00000000000E+00  0.74505805969E-08  0.10566000000E+00  0.10566000000E+00 0. -1.
     999900   -1    0    0    0    0 -0.00000000000E+00 -0.00000000000E+00 -0.74505805969E-08  0.93827000000E+00  0.93827000000E+00 0. -1.
     999902    2    1    2    0    0 -0.53761545864E-02  0.61364802730E-02  0.19218248974E-01  0.10230517692E+01  0.10228387077E+01 0.  0.
     999903    2    3    3    0    0  0.60539459595E-01 -0.43445549841E-01  0.11010092387E+00  0.13453451753E+00  0.20610215935E-01 0.  0.
         14    1    1    2    0    0  0.53761545864E-02 -0.61364802730E-02 -0.19218248974E-01  0.20878230813E-01  0.00000000000E+00 0.  1.
     999901    1    3    3    0    0 -0.65915614182E-01  0.49582030114E-01 -0.90882674891E-01  0.88851725166E+00  0.88000000000E+00 0. -1.
        -11    1    4    4    0    0  0.34995652890E-01 -0.13300601691E-01  0.47132172486E-01  0.60193891142E-01  0.51100000000E-03 0. -1.
         11    1    4    4    0    0  0.25543806706E-01 -0.30144948149E-01  0.62968751379E-01  0.74340626384E-01  0.51100000000E-03 0.  1.
</event>
<event>
 8    1  0.1123450E+005  0.1043930E+01  0.7957747E-01            NaN
         13   -1    0    0    0    0  0.00000000000E+00  0.00000000000E+00  0.74505805969E-08  0.10566000000E+00  0.10566000000E+00 0. -1.
     999900   -1    0    0    0    0 -0.00000000000E+00 -0.00000000000E+00 -0.74505805969E-08  0.93827000000E+00  0.93827000000E+00 0. -1.
     999902    2    1    2    0    0  0.69942301828E-02  0.21315030800E-01  0.86750351088E-02  0.10198778477E+01  0.10195941929E+01 0.  0.
     999903    2    3    3    0    0  0.56732797730E-01  0.70813856325E-01  0.94859164049E-01  0.13288756431E+00  0.20679244623E-01 0.  0.
         14    1    1    2    0    0 -0.69942301828E-02 -0.21315030800E-01 -0.86750351088E-02  0.24052152253E-01  0.00000000000E+00 0.  1.
     999901    1    3    3    0    0 -0.49738567548E-01 -0.49498825524E-01 -0.86184128941E-01  0.88699028344E+00  0.88000000000E+00 0. -1.
        -11    1    4    4    0    0  0.13417643425E-01  0.53777140904E-02  0.12358757457E-01  0.19025061650E-01  0.51100000000E-03 0.  1.
         11    1    4    4    0    0  0.43315154306E-01  0.65436142234E-01  0.82500406593E-01  0.11386250266E+00  0.51100000000E-03 0. -1.
</event>
<event>
 8    1  0.1123450E+005  0.1043930E+01  0.7957747E-01            NaN
         13   -1    0    0    0    0  0.00000000000E+00  0.00000000000E+00  0.74505805969E-08  0.10566000000E+00  0.10566000000E+00 0.  1.
     999900   -1    0    0    0    0 -0.00000000000E+00 -0.00000000000E+00 -0.74505805969E-08  0.93827000000E+00  0.93827000000E+00 0.  1.
     999902    2    1    2    0    0 -0.90211514109E-02 -0.45404990357E-02 -0.21685619414E-01  0.10200079726E+01  0.10197274150E+01 0.  0.
     999903    2    3    3    0    0  0.78738444854E-01  0.88484246461E-01 -0.50444072839E-01  0.13029880742E+00  0.20099008939E-01 0.  0.
         14    1    1    2    0    0  0.90211514109E-02  0.45404990357E-02  0.21685619414E-01  0.23922027373E-01  0.00000000000E+00 0.  1.
     999901    1    3    3    0    0 -0.87759596265E-01 -0.93024745497E-01  0.28758453425E-01  0.88970916521E+00  0.88000000000E+00 0. -1.
        -11    1    4    4    0    0  0.75129608016E-01  0.76977365929E-01 -0.41573629745E-01  0.11531955895E+00  0.51100000000E-03 0. -1.
         11    1    4    4    0    0  0.36088368380E-02  0.11506880532E-01 -0.88704430940E-02  0.14979248466E-01  0.51100000000E-03 0.  1.
</event>
<event>
 8    1  0.1123450E+005  0.1043930E+01  0.7957747E-01            NaN
         13   -1    0    0    0    0  0.00000000000E+00  0.00000000000E+00  0.74505805969E-08  0.10566000000E+00  0.10566000000E+00 0.  1.
     999900   -1    0    0    0    0 -0.00000000000E+00 -0.00000000000E+00 -0.74505805969E-08  0.93827000000E+00  0.93827000000E+00 0.  1.
     999902    2    1    2    0    0 -0.89500087370E-02 -0.18355656719E-01  0.80615644000E-02  0.10219750094E+01  0.10217391538E+01 0.  0.
     999903    2    3    3    0    0 -0.12632524678E+00  0.23037358289E-01  0.28118230587E-01  0.13299098368E+00  0.20178676813E-01 0.  0.
         14    1    1    2    0    0  0.89500087370E-02  0.18355656719E-01 -0.80615644000E-02  0.21954990561E-01  0.00000000000E+00 0.  1.
     999901    1    3    3    0    0  0.11737523804E+00 -0.41393015007E-01 -0.20056666187E-01  0.88898402576E+00  0.88000000000E+00 0.  1.
        -11    1    4    4    0    0 -0.14996516690E-01 -0.20261127858E-02  0.79658497236E-02  0.17108960479E-01  0.51100000000E-03 0.  1.
         11    1    4    4    0    0 -0.11132873009E+00  0.25063471074E-01  0.20152380864E-01  0.11588202320E+00  0.51100000000E-03 0. -1.
</event>
<event>
 8    1  0.1123450E+005  0.1043930E+01  0.7957747E-01            NaN
         13   -1    0    0    0    0  0.00000000000E+00  0.00000000000E+00  0.74505805969E-08  0.10566000000E+00  0.10566000000E+00 0. -1.
     999900   -1    0    0    0    0 -0.00000000000E+00 -0.00000000000E+00 -0.74505805969E-08  0.93827000000E+00  0.93827000000E+00 0. -1.
     999902    2    1    2    0    0 -0.23008183666E-01 -0.32045248160E-02 -0.38052966624E-02  0.10203901237E+01  0.10201185611E+01 0.  0.
     999903    2    3    3    0    0  0.58855262596E-01 -0.11201854153E+00 -0.18153224145E-02  0.12991492802E+00  0.29368308543E-01 0.  0.
         14    1    1    2    0    0  0.23008183666E-01  0.32045248160E-02  0.38052966624E-02  0.23539876329E-01  0.00000000000E+00 0.  1.
     999901    1    3    3    0    0 -0.81863446262E-01  0.10881401671E+00 -0.19899742479E-02  0.89047519565E+00  0.88000000000E+00 0. -1.
        -11    1    4    4    0    0  0.50986792752E-01 -0.67206581848E-01  0.39092071003E-03  0.84361078815E-01  0.51100000000E-03 0.  1.
         11    1    4    4    0    0  0.78684698440E-02 -0.44811959679E-01 -0.22062431246E-02  0.45553849208E-01  0.51100000000E-03 0. -1.
</event>
<event>
 8    1  0.1123450E+005  0.1043930E+01  0.7957747E-01            NaN
         13   -1    0    0    0    0  0.00000000000E+00  0.00000000000E+00  0.74505805969E-08  0.10566000000E+00  0.10566000000E+00 0. -1.
     999900   -1    0    0    0    0 -0.00000000000E+00 -0.00000000000E+00 -0.74505805969E-08  0.93827000000E+00  0.93827000000E+00 0.  1.
     999902    2    1    2    0    0 -0.10007767757E-01 -0.17788262547E-01 -0.13216983728E-01  0.10196140308E+01  0.10193240434E+01 0.  0.
     999903    2    3    3    0    0  0.85003095240E-01 -0.41805802565E-01 -0.88176370809E-01  0.13100679695E+00  0.20358220688E-01 0.  0.
         14    1    1    2    0    0  0.10007767757E-01  0.17788262547E-01  0.13216983728E-01  0.24315969213E-01  0.00000000000E+00 0. -1.
     999901    1    3    3    0    0 -0.95010862997E-01  0.24017540018E-01  0.74959387081E-01  0.88860723384E+00  0.88000000000E+00 0. -1.
        -11    1    4    4    0    0  0.27992946714E-01 -0.16484077489E-01 -0.43418315790E-01  0.54228600788E-01  0.51100000000E-03 0.  1.
         11    1    4    4    0    0  0.57010148526E-01 -0.25321725076E-01 -0.44758055019E-01  0.76778196162E-01  0.51100000000E-03 0. -1.
</event>
<event>
 8    1  0.1123450E+005  0.1043930E+01  0.7957747E-01            NaN
         13   -1    0    0    0    0  0.00000000000E+00  0.00000000000E+00  0.74505805969E-08  0.10566000000E+00  0.10566000000E+00 0. -1.
     999900   -1    0    0    0    0 -0.00000000000E+00 -0.00000000000E+00 -0.74505805969E-08  0.93827000000E+00  0.93827000000E+00 0. -1.
     999902    2    1    2    0    0 -0.23477592463E-01 -0.12683696774E-02 -0.38591183971E-02  0.10201035671E+01  0.10198252736E+01 0.  0.
     999903    2    3    3    0    0  0.42843129004E-01  0.36448904558E-01  0.11470298201E+00  0.12888081015E+00  0.17012724524E-01 0.  0.
         14    1    1    2    0    0  0.23477592463E-01  0.12683696774E-02  0.38591183971E-02  0.23826432891E-01  0.00000000000E+00 0. -1.
     999901    1    3    3    0    0 -0.66320721467E-01 -0.37717274236E-01 -0.11856210041E+00  0.89122275696E+00  0.88000000000E+00 0. -1.
        -11    1    4    4    0    0  0.28072424644E-01  0.13134648818E-01  0.65468392004E-01  0.72435844011E-01  0.51100000000E-03 0. -1.
         11    1    4    4    0    0  0.14770704360E-01  0.23314255741E-01  0.49234590008E-01  0.56444966138E-01  0.51100000000E-03 0.  1.
</event>
<event>
 8    1  0.1123450E+005  0.1043930E+01  0.7957747E-01            NaN
         13   -1    0    0    0    0  0.00000000000E+00  0.00000000000E+00  0.74505805969E-08  0.10566000000E+00  0.10566000000E+00 0. -1.
     999900   -1    0    0    0    0 -0.00000000000E+00 -0.00000000000E+00 -0.74505805969E-08  0.93827000000E+00  0.93827000000E+00 0. -1.
     999902    2    1    2    0    0  0.88772325476E-03 -0.26182324658E-01 -0.58187879684E-02  0.10170941942E+01  0.10167401042E+01 0.  0.
     999903    2    3    3    0    0 -0.65676892965E-01  0.29600605383E-01 -0.10325465552E+00  0.12746711973E+00  0.19917143814E-01 0.  0.
         14    1    1    2    0    0 -0.88772325476E-03  0.26182324658E-01  0.58187879684E-02  0.26835805754E-01  0.00000000000E+00 0. -1.
     999901    1    3    3    0    0  0.66564616219E-01 -0.55782930041E-01  0.97435867555E-01  0.88962707451E+00  0.88000000000E+00 0.  1.
        -11    1    4    4    0    0 -0.71533277545E-02  0.63188006134E-02 -0.50802331693E-02  0.10824381239E-01  0.51100000000E-03 0. -1.
         11    1    4    4    0    0 -0.58523565210E-01  0.23281804770E-01 -0.98174422354E-01  0.11664273850E+00  0.51100000000E-03 0.  1.
</event>
<event>
 8    1  0.1123450E+005  0.1043930E+01  0.7957747E-01            NaN
         13   -1    0    0    0    0  0.00000000000E+00  0.00000000000E+00  0.74505805969E-08  0.10566000000E+00  0.10566000000E+00 0.  1.
     999900   -1    0    0    0    0 -0.00000000000E+00 -0.00000000000E+00 -0.74505805969E-08  0.93827000000E+00  0.93827000000E+00 0.  1.
     999902    2    1    2    0    0 -0.25020947512E-01 -0.11028813345E-01 -0.10973842142E-02  0.10165642040E+01  0.10161957951E+01 0.  0.
     999903    2    3    3    0    0 -0.12801272586E+00  0.11598342300E-01  0.31172355692E-02  0.13025891936E+00  0.20877964210E-01 0.  0.
         14    1    1    2    0    0  0.25020947512E-01  0.11028813345E-01  0.10973842142E-02  0.27365795993E-01  0.00000000000E+00 0.  1.
     999901    1    3    3    0    0  0.10299177834E+00 -0.22627155644E-01 -0.42146197834E-02  0.88630528465E+00  0.88000000000E+00 0. -1.
        -11    1    4    4    0    0 -0.47070026870E-01  0.70748152477E-02  0.10843640732E-01  0.48820959696E-01  0.51100000000E-03 0.  1.
         11    1    4    4    0    0 -0.80942698985E-01  0.45235270518E-02 -0.77264051631E-02  0.81437959661E-01  0.51100000000E-03 0. -1.
</event>
<event>
 8    1  0.1123450E+005  0.1043930E+01  0.7957747E-01            NaN
         13   -1    0    0    0    0  0.00000000000E+00  0.00000000000E+00  0.74505805969E-08  0.10566000000E+00  0.10566000000E+00 0. -1.
     999900   -1    0    0    0    0 -0.00000000000E+00 -0.00000000000E+00 -0.74505805969E-08  0.93827000000E+00  0.93827000000E+00 0.  1.
     999902    2    1    2    0    0 -0.25145792818E-01 -0.11580335795E-02  0.46799010031E-02  0.10183262227E+01  0.10180042939E+01 0.  0.
     999903    2    3    3    0    0 -0.24760704581E-01 -0.12247798642E+00  0.28410152298E-01  0.12968579820E+00  0.19932883700E-01 0.  0.
         14    1    1    2    0    0  0.25145792818E-01  0.11580335795E-02 -0.46799010031E-02  0.25603777292E-01  0.00000000000E+00 0. -1.
     999901    1    3    3    0    0 -0.38508823711E-03  0.12131995284E+00 -0.23730251295E-01  0.88864042451E+00  0.88000000000E+00 0. -1.
        -11    1    4    4    0    0 -0.11125725345E-01 -0.94498646913E-01  0.17836703827E-01  0.96810046778E-01  0.51100000000E-03 0.  1.
         11    1    4    4    0    0 -0.13634979235E-01 -0.27979339503E-01  0.10573448471E-01  0.32875751419E-01  0.51100000000E-03 0. -1.
</event>
<event>
 8    1  0.1123450E+005  0.1043930E+01  0.7957747E-01            NaN
         13   -1    0    0    0    0  0.00000000000E+00  0.00000000000E+00  0.74505805969E-08  0.10566000000E+00  0.10566000000E+00 0.  1.
     999900   -1    0    0    0    0 -0.00000000000E+00 -0.00000000000E+00 -0.74505805969E-08  0.93827000000E+00  0.93827000000E+00 0.  1.
     999902    2    1    2    0    0 -0.23875075487E-01  0.30629914238E-03 -0.20048745292E-02  0.10199689364E+01  0.10196874514E+01 0.  0.
     999903    2    3    3    0    0 -0.41933336294E-01 -0.89722985741E-01 -0.83887975066E-01  0.13141043234E+00  0.20564301695E-01 0.  0.
         14    1    1    2    0    0  0.23875075487E-01 -0.30629914238E-03  0.20048745292E-02  0.23961063635E-01  0.00000000000E+00 0. -1.
     999901    1    3    3    0    0  0.18058260807E-01  0.90029284884E-01  0.81883100537E-01  0.88855850402E+00  0.88000000000E+00 0.  1.
        -11    1    4    4    0    0 -0.15815139344E-01 -0.41880662459E-01 -0.50500733677E-01  0.67488471189E-01  0.51100000000E-03 0. -1.
         11    1    4    4    0    0 -0.26118196950E-01 -0.47842323282E-01 -0.33387241389E-01  0.63921961152E-01  0.51100000000E-03 0.  1.
</event>
<event>
 8    1  0.1123450E+005  0.1043930E+01  0.7957747E-01            NaN
         13   -1    0    0    0    0  0.00000000000E+00  0.00000000000E+00  0.74505805969E-08  0.10566000000E+00  0.10566000000E+00 0. -1.
     999900   -1    0    0    0    0 -0.00000000000E+00 -0.00000000000E+00 -0.74505805969E-08  0.93827000000E+00  0.93827000000E+00 0.  1.
     999902    2    1    2    0    0  0.51561186947E-02  0.19642652588E-01 -0.11624032302E-01  0.10205304810E+01  0.10202621846E+01 0.  0.
     999903    2    3    3    0    0  0.12104492265E+00 -0.35968072318E-01 -0.27561869121E-01  0.13104929391E+00  0.21649140419E-01 0.  0.
         14    1    1    2    0    0 -0.51561186947E-02 -0.19642652588E-01  0.11624032302E-01  0.23399518962E-01  0.00000000000E+00 0. -1.
     999901    1    3    3    0    0 -0.11588880395E+00  0.55610724906E-01  0.15937836819E-01  0.88948118712E+00  0.88000000000E+00 0.  1.
        -11    1    4    4    0    0  0.62095253170E-01 -0.22865758684E-01 -0.24560850094E-01  0.70584416586E-01  0.51100000000E-03 0.  1.
         11    1    4    4    0    0  0.58949669477E-01 -0.13102313635E-01 -0.30010190263E-02  0.60464877328E-01  0.51100000000E-03 0. -1.
</event>
<event>
 8    1  0.1123450E+005  0.1043930E+01  0.7957747E-01            NaN
         13   -1    0    0    0    0  0.00000000000E+00  0.00000000000E+00  0.74505805969E-08  0.10566000000E+00  0.10566000000E+00 0.  1.
     999900   -1    0    0    0    0 -0.00000000000E+00 -0.00000000000E+00 -0.74505805969E-08  0.93827000000E+00  0.93827000000E+00 0.  1.
     999902    2    1    2    0    0 -0.90346496871E-02 -0.18118171252E-01 -0.13367296472E-01  0.10196693809E+01  0.10193807280E+01 0.  0.
     999903    2    3    3    0    0  0.11802680205E+00 -0.24221003238E-01 -0.44233486842E-01  0.12998708997E+00  0.20568402986E-01 0.  0.
         14    1    1    2    0    0  0.90346496871E-02  0.18118171252E-01  0.13367296472E-01  0.24260619107E-01  0.00000000000E+00 0.  1.
     999901    1    3    3    0    0 -0.12706145173E+00  0.61028319859E-02  0.30866190370E-01  0.88968229092E+00  0.88000000000E+00 0. -1.
        -11    1    4    4    0    0  0.53152482177E-01 -0.16344524142E-01 -0.11073036409E-01  0.56702760844E-01  0.51100000000E-03 0. -1.
         11    1    4    4    0    0  0.64874319870E-01 -0.78764790959E-02 -0.33160450433E-01  0.73284329126E-01  0.51100000000E-03 0.  1.
</event>
<event>
 8    1  0.1123450E+005  0.1043930E+01  0.7957747E-01            NaN
         13   -1    0    0    0    0  0.00000000000E+00  0.00000000000E+00  0.74505805969E-08  0.10566000000E+00  0.10566000000E+00 0. -1.
     999900   -1    0    0    0    0 -0.00000000000E+00 -0.00000000000E+00 -0.74505805969E-08  0.93827000000E+00  0.93827000000E+00 0.  1.
     999902    2    1    2    0    0 -0.22267206119E-01 -0.21224562434E-02 -0.13109071266E-01  0.10180035456E+01  0.10176733453E+01 0.  0.
     999903    2    3    3    0    0  0.93398494182E-01  0.47204776347E-01  0.66930483263E-01  0.12546891859E+00  0.17640587216E-01 0.  0.
         14    1    1    2    0    0  0.22267206119E-01  0.21224562434E-02  0.13109071266E-01  0.25926454411E-01  0.00000000000E+00 0. -1.
     999901    1    3    3    0    0 -0.11566570030E+00 -0.49327232590E-01 -0.80039554529E-01  0.89253462700E+00  0.88000000000E+00 0. -1.
        -11    1    4    4    0    0  0.70543458923E-01  0.42882833559E-01  0.48173161247E-01  0.95583636656E-01  0.51100000000E-03 0. -1.
         11    1    4    4    0    0  0.22855035259E-01  0.43219427877E-02  0.18757322016E-01  0.29885281936E-01  0.51100000000E-03 0.  1.
</event>
<event>
 8    1  0.1123450E+005  0.1043930E+01  0.7957747E-01            NaN
         13   -1    0    0    0    0  0.00000000000E+00  0.00000000000E+00  0.74505805969E-08  0.10566000000E+00  0.10566000000E+00 0. -1.
     999900   -1    0    0    0    0 -0.00000000000E+00 -0.00000000000E+00 -0.74505805969E-08  0.93827000000E+00  0.93827000000E+00 0.  1.
     999902    2    1    2    0    0 -0.99937609770E-02 -0.14082082196E-01 -0.16862438805E-01  0.10197945046E+01  0.10195088570E+01 0.  0.
     999903    2    3    3    0    0 -0.16955707813E-01  0.10759997652E+00 -0.67979312485E-01  0.12992489227E+00  0.19850434024E-01 0.  0.
         14    1    1    2    0    0  0.99937609770E-02  0.14082082196E-01  0.16862438805E-01  0.24135495435E-01  0.00000000000E+00 0. -1.
     999901    1    3    3    0    0  0.69619468357E-02 -0.12168205871E+00  0.51116873680E-01  0.88986961230E+00  0.88000000000E+00 0. -1.
        -11    1    4    4    0    0 -0.20495849671E-02  0.59756481385E-01 -0.29109136206E-01  0.66502938264E-01  0.51100000000E-03 0. -1.
         11    1    4    4    0    0 -0.14906122846E-01  0.47843495132E-01 -0.38870176278E-01  0.63421954003E-01  0.51100000000E-03 0.  1.
</event>
<event>
 8    1  0.1123450E+005  0.1043930E+01  0.7957747E-01            NaN
         13   -1    0    0    0    0  0.00000000000E+00  0.00000000000E+00  0.74505805969E-08  0.10566000000E+00  0.10566000000E+00 0.  1.
     999900   -1    0    0    0    0 -0.00000000000E+00 -0.00000000000E+00 -0.74505805969E-08  0.93827000000E+00  0.93827000000E+00 0.  1.
     999902    2    1    2    0    0 -0.34009767530E-02  0.11406229070E-01 -0.20468395858E-01  0.10202525015E+01  0.10199777169E+01 0.  0.
     999903    2    3    3    0    0 -0.74848780386E-01 -0.96109544301E-02  0.10110061097E+00  0.12877870267E+00  0.25843961613E-01 0.  0.
         14    1    1    2    0    0  0.34009767530E-02 -0.11406229070E-01  0.20468395858E-01  0.23677498463E-01  0.00000000000E+00 0.  1.
     999901    1    3    3    0    0  0.71447803633E-01  0.21017183500E-01 -0.12156900683E+00  0.89147379887E+00  0.88000000000E+00 0.  1.
        -11    1    4    4    0    0 -0.29636332283E-01 -0.33763113241E-02  0.61489165159E-01  0.68343911377E-01  0.51100000000E-03 0.  1.
         11    1    4    4    0    0 -0.45212448103E-01 -0.62346431060E-02  0.39611445813E-01  0.60434791292E-01  0.51100000000E-03 0. -1.
</event>
<event>
 8    1  0.1123450E+005  0.1043930E+01  0.7957747E-01            NaN
         13   -1    0    0    0    0  0.00000000000E+00  0.00000000000E+00  0.74505805969E-08  0.10566000000E+00  0.10566000000E+00 0. -1.
     999900   -1    0    0    0    0 -0.00000000000E+00 -0.00000000000E+00 -0.74505805969E-08  0.93827000000E+00  0.93827000000E+00 0. -1.
     999902    2    1    2    0    0  0.55927977894E-02  0.12340832654E-02  0.16829163651E-01  0.10261529615E+01  0.10259989655E+01 0.  0.
     999903    2    3    3    0    0  0.42870190405E-01 -0.12077814590E+00 -0.38255805398E-01  0.13524839765E+00  0.20085035933E-01 0.  0.
         14    1    1    2    0    0 -0.55927977894E-02 -0.12340832654E-02 -0.16829163651E-01  0.17777038500E-01  0.00000000000E+00 0.  1.
     999901    1    3    3    0    0 -0.37277392616E-01  0.12201222917E+00  0.55084969049E-01  0.89090456385E+00  0.88000000000E+00 0.  1.
        -11    1    4    4    0    0  0.26093615864E-01 -0.57983764785E-01 -0.27865417489E-01  0.69424321245E-01  0.51100000000E-03 0.  1.
         11    1    4    4    0    0  0.16776574541E-01 -0.62794381117E-01 -0.10390387909E-01  0.65824076409E-01  0.51100000000E-03 0. -1.
</event>
<event>
 8    1  0.1123450E+005  0.1043930E+01  0.7957747E-01            NaN
         13   -1    0    0    0    0  0.00000000000E+00  0.00000000000E+00  0.74505805969E-08  0.10566000000E+00  0.10566000000E+00 0.  1.
     999900   -1    0    0    0    0 -0.00000000000E+00 -0.00000000000E+00 -0.74505805969E-08  0.93827000000E+00  0.93827000000E+00 0.  1.
     999902    2    1    2    0    0 -0.14741317404E-01 -0.16249047700E-01  0.11491176109E-01  0.10191633870E+01  0.10188624168E+01 0.  0.
     999903    2    3    3    0    0 -0.11308765831E+00  0.61780047218E-01  0.20103873540E-02  0.13020307982E+00  0.18525864139E-01 0.  0.
         14    1    1    2    0    0  0.14741317404E-01  0.16249047700E-01 -0.11491176109E-01  0.24766612976E-01  0.00000000000E+00 0. -1.
     999901    1    3    3    0    0  0.98346340905E-01 -0.78029094918E-01  0.94807887546E-02  0.88896030720E+00  0.88000000000E+00 0. -1.
        -11    1    4    4    0    0 -0.53031425416E-01  0.36950210221E-01 -0.50404711060E-02  0.64832997671E-01  0.51100000000E-03 0. -1.
         11    1    4    4    0    0 -0.60056232893E-01  0.24829836997E-01  0.70508584601E-02  0.65370082152E-01  0.51100000000E-03 0.  1.
</event>
<event>
 8    1  0.1123450E+005  0.1043930E+01  0.7957747E-01            NaN
         13   -1    0    0    0    0  0.00000000000E+00  0.00000000000E+00  0.74505805969E-08  0.10566000000E+00  0.10566000000E+00 0. -1.
     999900   -1    0    0    0    0 -0.00000000000E+00 -0.00000000000E+00 -0.74505805969E-08  0.93827000000E+00  0.93827000000E+00 0.  1.
     999902    2    1    2    0    0 -0.30788081659E-02 -0.22350842419E-01 -0.73088673417E-02  0.10202137870E+01  0.10199380925E+01 0.  0.
     999903    2    3    3    0    0  0.35810790874E-01 -0.70010536713E-01 -0.10463977334E+00  0.13271327849E+00  0.21896212648E-01 0.  0.
         14    1    1    2    0    0  0.30788081659E-02  0.22350842419E-01  0.73088673417E-02  0.23716212986E-01  0.00000000000E+00 0. -1.
     999901    1    3    3    0    0 -0.38889599040E-01  0.47659694294E-01  0.97330905998E-01  0.88750050853E+00  0.88000000000E+00 0. -1.
        -11    1    4    4    0    0  0.14087368799E-01 -0.30653230496E-01 -0.62847355669E-01  0.71331099354E-01  0.51100000000E-03 0. -1.
         11    1    4    4    0    0  0.21723422075E-01 -0.39357306217E-01 -0.41792417671E-01  0.61382179133E-01  0.51100000000E-03 0.  1.
</event>
<event>
 8    1  0.1123450E+005  0.1043930E+01  0.7957747E-01            NaN
         13   -1    0    0    0    0  0.00000000000E+00  0.00000000000E+00  0.74505805969E-08  0.10566000000E+00  0.10566000000E+00 0. -1.
     999900   -1    0    0    0    0 -0.00000000000E+00 -0.00000000000E+00 -0.74505805969E-08  0.93827000000E+00  0.93827000000E+00 0. -1.
     999902    2    1    2    0    0  0.24274648253E-02 -0.20052967452E-01 -0.10798481670E-01  0.10210253870E+01  0.10207684457E+01 0.  0.
     999903    2    3    3    0    0  0.85813784335E-01 -0.90680878396E-01 -0.43819361599E-01  0.13365175738E+00  0.18858115241E-01 0.  0.
         14    1    1    2    0    0 -0.24274648253E-02  0.20052967452E-01  0.10798481670E-01  0.22904612974E-01  0.00000000000E+00 0. -1.
     999901    1    3    3    0    0 -0.83386319509E-01  0.70627910944E-01  0.33020879929E-01  0.88737362965E+00  0.88000000000E+00 0. -1.
        -11    1    4    4    0    0  0.39611041689E-01 -0.28682478113E-01 -0.18489983401E-01  0.52286324996E-01  0.51100000000E-03 0.  1.
         11    1    4    4    0    0  0.46202742645E-01 -0.61998400283E-01 -0.25329378198E-01  0.81365432381E-01  0.51100000000E-03 0. -1.
</event>
<event>
 8    1  0.1123450E+005  0.1043930E+01  0.7957747E-01            NaN
         13   -1    0    0    0    0  0.00000000000E+00  0.00000000000E+00  0.74505805969E-08  0.10566000000E+00  0.10566000000E+00 0.  1.
     999900   -1    0    0    0    0 -0.00000000000E+00 -0.00000000000E+00 -0.74505805969E-08  0.93827000000E+00  0.93827000000E+00 0.  1.
     999902    2    1    2    0    0  0.32154710110E-03 -0.19933942384E-02  0.21470376111E-01  0.10223648878E+01  0.10221374222E+01 0.  0.
     999903    2    3    3    0    0  0.86597991910E-01 -0.88083622100E-01 -0.41368585980E-01  0.13174494226E+00  0.19683323415E-01 0.  0.
         14    1    1    2    0    0 -0.32154710110E-03  0.19933942384E-02 -0.21470376111E-01  0.21565112183E-01  0.00000000000E+00 0. -1.
     999901    1    3    3    0    0 -0.86276444809E-01  0.86090227862E-01  0.62838962091E-01  0.89061994555E+00  0.88000000000E+00 0. -1.
        -11    1    4    4    0    0  0.74848996890E-01 -0.76876347287E-01 -0.42620284650E-01  0.11545169939E+00  0.51100000000E-03 0. -1.
         11    1    4    4    0    0  0.11748995021E-01 -0.11207274813E-01  0.12516986694E-02  0.16293242872E-01  0.51100000000E-03 0.  1.
</event>
<event>
 8    1  0.1123450E+005  0.1043930E+01  0.7957747E-01            NaN
         13   -1    0    0    0    0  0.00000000000E+00  0.00000000000E+00  0.74505805969E-08  0.10566000000E+00  0.10566000000E+00 0.  1.
     999900   -1    0    0    0    0 -0.00000000000E+00 -0.00000000000E+00 -0.74505805969E-08  0.93827000000E+00  0.93827000000E+00 0.  1.
     999902    2    1    2    0    0  0.48405347481E-03 -0.23401536325E-01  0.41588437887E-02  0.10201568599E+01  0.10198798246E+01 0.  0.
     999903    2    3    3    0    0 -0.86513962015E-01  0.17023371581E-01  0.93911207523E-01  0.13040503229E+00  0.20290311603E-01 0.  0.
         14    1    1    2    0    0 -0.48405347481E-03  0.23401536325E-01 -0.41588437887E-02  0.23773140133E-01  0.00000000000E+00 0.  1.
     999901    1    3    3    0    0  0.86998015489E-01 -0.40424907906E-01 -0.89752363735E-01  0.88975182758E+00  0.88000000000E+00 0.  1.
        -11    1    4    4    0    0 -0.66384288660E-01  0.18253449223E-01  0.81624398384E-01  0.10678420165E+00  0.51100000000E-03 0. -1.
         11    1    4    4    0    0 -0.20129673355E-01 -0.12300776420E-02  0.12286809139E-01  0.23620830642E-01  0.51100000000E-03 0.  1.
</event>
<event>
 8    1  0.1123450E+005  0.1043930E+01  0.7957747E-01            NaN
         13   -1    0    0    0    0  0.00000000000E+00  0.00000000000E+00  0.74505805969E-08  0.10566000000E+00  0.10566000000E+00 0.  1.
     999900   -1    0    0    0    0 -0.00000000000E+00 -0.00000000000E+00 -0.74505805969E-08  0.93827000000E+00  0.93827000000E+00 0.  1.
     999902    2    1    2    0    0 -0.18284965428E-01  0.14723436148E-01  0.37118317117E-02  0.10201624333E+01  0.10198855294E+01 0.  0.
     999903    2    3    3    0    0  0.37238928770E-01 -0.89652908701E-01  0.82292822641E-01  0.12878580339E+00  0.19730500316E-01 0.  0.
         14    1    1    2    0    0  0.18284965428E-01 -0.14723436148E-01 -0.37118317117E-02  0.23767566711E-01  0.00000000000E+00 0.  1.
     999901    1    3    3    0    0 -0.55523894197E-01  0.10437634485E+00 -0.78580990930E-01  0.89137662990E+00  0.88000000000E+00 0.  1.
        -11    1    4    4    0    0  0.20623198878E-01 -0.30882549345E-01  0.39451208763E-01  0.54182166622E-01  0.51100000000E-03 0. -1.
         11    1    4    4    0    0  0.16615729892E-01 -0.58770359356E-01  0.42841613878E-01  0.74603636770E-01  0.51100000000E-03 0.  1.
</event>
<event>
 8    1  0.1123450E+005  0.1043930E+01  0.7957747E-01            NaN
         13   -1    0    0    0    0  0.00000000000E+00  0.00000000000E+00  0.74505805969E-08  0.10566000000E+00  0.10566000000E+00 0. -1.
     999900   -1    0    0    0    0 -0.00000000000E+00 -0.00000000000E+00 -0.74505805969E-08  0.93827000000E+00  0.93827000000E+00 0. -1.
     999902    2    1    2    0    0 -0.17638884375E-01 -0.14781400212E-01  0.57390645499E-02  0.10202117181E+01  0.10199359749E+01 0.  0.
     999903    2    3    3    0    0  0.11294771618E+00 -0.50881530898E-01 -0.30542135056E-01  0.12910431429E+00  0.19722707172E-01 0.  0.
         14    1    1    2    0    0  0.17638884375E-01  0.14781400212E-01 -0.57390645499E-02  0.23718281897E-01  0.00000000000E+00 0. -1.
     999901    1    3    3    0    0 -0.13058660056E+00  0.36100130685E-01  0.36281199606E-01  0.89110740381E+00  0.88000000000E+00 0.  1.
        -11    1    4    4    0    0  0.92072263089E-02 -0.10638705023E-01 -0.19270629398E-02  0.14210198923E-01  0.51100000000E-03 0. -1.
         11    1    4    4    0    0  0.10374048987E+00 -0.40242825875E-01 -0.28615072116E-01  0.11489411537E+00  0.51100000000E-03 0.  1.
</event>
<event>
 8    1  0.1123450E+005  0.1043930E+01  0.7957747E-01            NaN
         13   -1    0    0    0    0  0.00000000000E+00  0.00000000000E+00  0.74505805969E-08  0.10566000000E+00  0.10566000000E+00 0. -1.
     999900   -1    0    0    0    0 -0.00000000000E+00 -0.00000000000E+00 -0.74505805969E-08  0.93827000000E+00  0.93827000000E+00 0.  1.
     999902    2    1    2    0    0 -0.20304256975E-01 -0.36327516825E-02 -0.13602128649E-01  0.10192221543E+01  0.10189226281E+01 0.  0.
     999903    2    3    3    0    0 -0.79286988724E-02  0.57887442684E-01 -0.11575653360E+00  0.13109299070E+00  0.19286701488E-01 0.  0.
         14    1    1    2    0    0  0.20304256975E-01  0.36327516825E-02  0.13602128649E-01  0.24707845715E-01  0.00000000000E+00 0. -1.
     999901    1    3    3    0    0 -0.12375558102E-01 -0.61520194367E-01  0.10215440495E+00  0.88812916358E+00  0.88000000000E+00 0. -1.
        -11    1    4    4    0    0 -0.10365760351E-01  0.14374767713E-01 -0.38613641685E-01  0.42489497286E-01  0.51100000000E-03 0.  1.
         11    1    4    4    0    0  0.24370614788E-02  0.43512674972E-01 -0.77142891914E-01  0.88603493417E-01  0.51100000000E-03 0. -1.
</event>
<event>
 8    1  0.1123450E+005  0.1043930E+01  0.7957747E-01            NaN
         13   -1    0    0    0    0  0.00000000000E+00  0.00000000000E+00  0.74505805969E-08  0.10566000000E+00  0.10566000000E+00 0.  1.
     999900   -1    0    0    0    0 -0.00000000000E+00 -0.00000000000E+00 -0.74505805969E-08  0.93827000000E+00  0.93827000000E+00 0.  1.
     999902    2    1    2    0    0  0.19802520415E-01  0.10669334034E-01 -0.51740652186E-02  0.10208487207E+01  0.10205877547E+01 0.  0.
     999903    2    3    3    0    0 -0.40530476034E-01 -0.10894002590E+00 -0.53151405123E-01  0.12941824411E+00  0.20331288984E-01 0.  0.
         14    1    1    2    0    0 -0.19802520415E-01 -0.10669334034E-01  0.51740652186E-02  0.23081279306E-01  0.00000000000E+00 0.  1.
     999901    1    3    3    0    0  0.60332996449E-01  0.11960935993E+00  0.47977339904E-01  0.89143047659E+00  0.88000000000E+00 0. -1.
        -11    1    4    4    0    0 -0.15645726716E-01 -0.24026503402E-01 -0.65665153859E-02  0.29418393489E-01  0.51100000000E-03 0. -1.
         11    1    4    4    0    0 -0.24884749318E-01 -0.84913522493E-01 -0.46584889737E-01  0.99999850618E-01  0.51100000000E-03 0.  1.
</event>
<event>
 8    1  0.1123450E+005  0.1043930E+01  0.7957747E-01            NaN
         13   -1    0    0    0    0  0.00000000000E+00  0.00000000000E+00  0.74505805969E-08  0.10566000000E+00  0.10566000000E+00 0. -1.
     999900   -1    0    0    0    0 -0.00000000000E+00 -0.00000000000E+00 -0.74505805969E-08  0.93827000000E+00  0.93827000000E+00 0.  1.
     999902    2    1    2    0    0  0.20364414610E-01  0.16939996268E-02  0.71152986997E-02  0.10222919203E+01  0.10220628962E+01 0.  0.
     999903    2    3    3    0    0  0.73320563534E-01  0.89272911230E-01  0.65918901138E-01  0.13441113826E+00  0.19377689368E-01 0.  0.
         14    1    1    2    0    0 -0.20364414610E-01 -0.16939996268E-02 -0.71152986997E-02  0.21638079692E-01  0.00000000000E+00 0. -1.
     999901    1    3    3    0    0 -0.52956148924E-01 -0.87578911604E-01 -0.58803602439E-01  0.88788078205E+00  0.88000000000E+00 0.  1.
        -11    1    4    4    0    0  0.25542018390E-01  0.42085227202E-01  0.20445080902E-01  0.53308756374E-01  0.51100000000E-03 0.  1.
         11    1    4    4    0    0  0.47778545144E-01  0.47187684028E-01  0.45473820237E-01  0.81102381888E-01  0.51100000000E-03 0. -1.
</event>
<event>
 8    1  0.1123450E+005  0.1043930E+01  0.7957747E-01            NaN
         13   -1    0    0    0    0  0.00000000000E+00  0.00000000000E+00  0.74505805969E-08  0.10566000000E+00  0.10566000000E+00 0. -1.
     999900   -1    0    0    0    0 -0.00000000000E+00 -0.00000000000E+00 -0.74505805969E-08  0.93827000000E+00  0.93827000000E+00 0. -1.
     999902    2    1    2    0    0 -0.23710740240E-01 -0.11645674293E-02 -0.31291865964E-04  0.10201906571E+01  0.10199144182E+01 0.  0.
     999903    2    3    3    0    0  0.44088772605E-02  0.12842019816E+00  0.70124297324E-02  0.13022855774E+00  0.19977927487E-01 0.  0.
         14    1    1    2    0    0  0.23710740240E-01  0.11645674293E-02  0.31291865964E-04  0.23739342855E-01  0.00000000000E+00 0. -1.
     999901    1    3    3    0    0 -0.28119617500E-01 -0.12958476559E+00 -0.70437215984E-02  0.88996209940E+00  0.88000000000E+00 0. -1.
        -11    1    4    4    0    0 -0.42240886812E-02  0.69111571427E-01 -0.37075378700E-02  0.69341612243E-01  0.51100000000E-03 0. -1.
         11    1    4    4    0    0  0.86329659417E-02  0.59308626732E-01  0.10719967602E-01  0.60886945499E-01  0.51100000000E-03 0.  1.
</event>
<event>
 8    1  0.1123450E+005  0.1043930E+01  0.7957747E-01            NaN
         13   -1    0    0    0    0  0.00000000000E+00  0.00000000000E+00  0.74505805969E-08  0.10566000000E+00  0.10566000000E+00 0.  1.
     999900   -1    0    0    0    0 -0.00000000000E+00 -0.00000000000E+00 -0.74505805969E-08  0.93827000000E+00  0.93827000000E+00 0.  1.
     999902    2    1    2    0    0  0.12721502528E-01  0.20980684973E-01  0.11543633578E-01  0.10168139301E+01  0.10164523045E+01 0.  0.
     999903    2    3    3    0    0 -0.48753578024E-01  0.11235521646E+00  0.37784895967E-01  0.12956137625E+00  0.18916813033E-01 0.  0.
         14    1    1    2    0    0 -0.12721502528E-01 -0.20980684973E-01 -0.11543633578E-01  0.27116069860E-01  0.00000000000E+00 0. -1.
     999901    1    3    3    0    0  0.61475080552E-01 -0.91374531491E-01 -0.26241262389E-01  0.88725255389E+00  0.88000000000E+00 0.  1.
        -11    1    4    4    0    0 -0.26202318722E-01  0.82095679479E-01  0.25520983565E-01  0.89876825816E-01  0.51100000000E-03 0. -1.
         11    1    4    4    0    0 -0.22551259302E-01  0.30259536985E-01  0.12263912402E-01  0.39684550433E-01  0.51100000000E-03 0.  1.
</event>
<event>
 8    1  0.1123450E+005  0.1043930E+01  0.7957747E-01            NaN
         13   -1    0    0    0    0  0.00000000000E+00  0.00000000000E+00  0.74505805969E-08  0.10566000000E+00  0.10566000000E+00 0.  1.
     999900   -1    0    0    0    0 -0.00000000000E+00 -0.00000000000E+00 -0.74505805969E-08  0.93827000000E+00  0.93827000000E+00 0. -1.
     999902    2    1    2    0    0  0.11574573926E-01  0.19234228979E-01 -0.48208548779E-02  0.10209698831E+01  0.10207116808E+01 0.  0.
     999903    2    3    3    0    0  0.41059513834E-01 -0.57777956256E-01  0.10700463891E+00  0.13006855332E+00  0.21063235950E-01 0.  0.
         14    1    1    2    0    0 -0.11574573926E-01 -0.19234228979E-01  0.48208548779E-02  0.22960116893E-01  0.00000000000E+00 0.  1.
     999901    1    3    3    0    0 -0.29484939908E-01  0.77012185235E-01 -0.11182549379E+00  0.89090132979E+00  0.88000000000E+00 0. -1.
        -11    1    4    4    0    0  0.31496407806E-01 -0.53969476833E-01  0.82583024885E-01  0.10356131157E+00  0.51100000000E-03 0.  1.
         11    1    4    4    0    0  0.95631060282E-02 -0.38084794225E-02  0.24421614026E-01  0.26507241747E-01  0.51100000000E-03 0. -1.
</event>
<event>
 8    1  0.1123450E+005  0.1043930E+01  0.7957747E-01            NaN
         13   -1    0    0    0    0  0.00000000000E+00  0.00000000000E+00  0.74505805969E-08  0.10566000000E+00  0.10566000000E+00 0. -1.
     999900   -1    0    0    0    0 -0.00000000000E+00 -0.00000000000E+00 -0.74505805969E-08  0.93827000000E+00  0.93827000000E+00 0.  1.
     999902    2    1    2    0    0 -0.18501053460E-01  0.12945298314E-01  0.61111203936E-02  0.10205373618E+01  0.10202692250E+01 0.  0.
     999903    2    3    3    0    0 -0.10397059091E+00 -0.24261602963E-01  0.76428176657E-01  0.13282463593E+00  0.20065108291E-01 0.  0.
         14    1    1    2    0    0  0.18501053460E-01 -0.12945298314E-01 -0.61111203936E-02  0.23392638159E-01  0.00000000000E+00 0.  1.
     999901    1    3    3    0    0  0.85469537454E-01  0.37206901276E-01 -0.70317056263E-01  0.88771272591E+00  0.88000000000E+00 0. -1.
        -11    1    4    4    0    0 -0.58470632668E-01 -0.60084409580E-02  0.33483701038E-01  0.67648618638E-01  0.51100000000E-03 0.  1.
         11    1    4    4    0    0 -0.45499958246E-01 -0.18253162005E-01  0.42944475618E-01  0.65176017297E-01  0.51100000000E-03 0. -1.
</event>
<event>
 8    1  0.1123450E+005  0.1043930E+01  0.7957747E-01            NaN
         13   -1    0    0    0    0  0.00000000000E+00  0.00000000000E+00  0.74505805969E-08  0.10566000000E+00  0.10566000000E+00 0. -1.
     999900   -1    0    0    0    0 -0.00000000000E+00 -0.00000000000E+00 -0.74505805969E-08  0.93827000000E+00  0.93827000000E+00 0.  1.
     999902    2    1    2    0    0 -0.33668781378E-02  0.23124355665E-01 -0.22128602760E-02  0.10204572830E+01  0.10201872857E+01 0.  0.
     999903    2    3    3    0    0  0.78851804805E-01  0.86869286402E-01  0.58594496063E-01  0.13224511092E+00  0.17075548403E-01 0.  0.
         14    1    1    2    0    0  0.33668781378E-02 -0.23124355665E-01  0.22128602760E-02  0.23472717012E-01  0.00000000000E+00 0.  1.
     999901    1    3    3    0    0 -0.82218682943E-01 -0.63744930737E-01 -0.60807356339E-01  0.88821217207E+00  0.88000000000E+00 0.  1.
        -11    1    4    4    0    0  0.47373997094E-01  0.43472344105E-01  0.25074873621E-01  0.69015583101E-01  0.51100000000E-03 0. -1.
         11    1    4    4    0    0  0.31477807711E-01  0.43396942297E-01  0.33519622441E-01  0.63229527822E-01  0.51100000000E-03 0.  1.
</event>
<event>
 8    1  0.1123450E+005  0.1043930E+01  0.7957747E-01            NaN
         13   -1    0    0    0    0  0.00000000000E+00  0.00000000000E+00  0.74505805969E-08  0.10566000000E+00  0.10566000000E+00 0.  1.
     999900   -1    0    0    0    0 -0.00000000000E+00 -0.00000000000E+00 -0.74505805969E-08  0.93827000000E+00  0.93827000000E+00 0. -1.
     999902    2    1    2    0    0 -0.15848947844E-01  0.11133587643E-01  0.10818175453E-01  0.10217448960E+01  0.10215040154E+01 0.  0.
     999903    2    3    3    0    0  0.56123066956E-01  0.11561614456E+00  0.24967409893E-01  0.13253357323E+00  0.20612737577E-01 0.  0.
         14    1    1    2    0    0  0.15848947844E-01 -0.11133587643E-01 -0.10818175453E-01  0.22185104050E-01  0.00000000000E+00 0. -1.
     999901    1    3    3    0    0 -0.71972014800E-01 -0.10448255691E+00 -0.14149234440E-01  0.88921132272E+00  0.88000000000E+00 0. -1.
        -11    1    4    4    0    0  0.33437377781E-01  0.89415302588E-01  0.19679338093E-01  0.97471493466E-01  0.51100000000E-03 0. -1.
         11    1    4    4    0    0  0.22685689174E-01  0.26200841969E-01  0.52880717998E-02  0.35062079766E-01  0.51100000000E-03 0.  1.
</event>
<event>
 8    1  0.1123450E+005  0.1043930E+01  0.7957747E-01            NaN
         13   -1    0    0    0    0  0.00000000000E+00  0.00000000000E+00  0.74505805969E-08  0.10566000000E+00  0.10566000000E+00 0.  1.
     999900   -1    0    0    0    0 -0.00000000000E+00 -0.00000000000E+00 -0.74505805969E-08  0.93827000000E+00  0.93827000000E+00 0. -1.
     999902    2    1    2    0    0  0.10644387273E-01  0.76322364855E-02 -0.20383136978E-01  0.10197013746E+01  0.10194134917E+01 0.  0.
     999903    2    3    3    0    0  0.45590773637E-02  0.12680362890E+00  0.23546231394E-01  0.13056210479E+00  0.19801330882E-01 0.  0.
         14    1    1    2    0    0 -0.10644387273E-01 -0.76322364855E-02  0.20383136978E-01  0.24228625369E-01  0.00000000000E+00 0.  1.
     999901    1    3    3    0    0  0.60853099093E-02 -0.11917139242E+00 -0.43929368372E-01  0.88913926984E+00  0.88000000000E+00 0.  1.
        -11    1    4    4    0    0  0.86903715130E-02  0.79082341023E-01  0.22370130647E-01  0.82645163711E-01  0.51100000000E-03 0.  1.
         11    1    4    4    0    0 -0.41312941493E-02  0.47721287881E-01  0.11761007473E-02  0.47916941079E-01  0.51100000000E-03 0. -1.
</event>
<event>
 8    1  0.1123450E+005  0.1043930E+01  0.7957747E-01            NaN
         13   -1    0    0    0    0  0.00000000000E+00  0.00000000000E+00  0.74505805969E-08  0.10566000000E+00  0.10566000000E+00 0.  1.
     999900   -1    0    0    0    0 -0.00000000000E+00 -0.00000000000E+00 -0.74505805969E-08  0.93827000000E+00  0.93827000000E+00 0.  1.
     999902    2    1    2    0    0 -0.15370562022E-01 -0.17556833938E-01 -0.13857126398E-02  0.10205544402E+01  0.10202866993E+01 0.  0.
     999903    2    3    3    0    0 -0.10878601531E+00 -0.58951828978E-01  0.45154235892E-01  0.13342087682E+00  0.21272284429E-01 0.  0.
         14    1    1    2    0    0  0.15370562022E-01  0.17556833938E-01  0.13857126398E-02  0.23375559765E-01  0.00000000000E+00 0.  1.
     999901    1    3    3    0    0  0.93415453292E-01  0.41394995040E-01 -0.46539948532E-01  0.88713356341E+00  0.88000000000E+00 0.  1.
        -11    1    4    4    0    0 -0.26781326352E-01 -0.25422333958E-01  0.12147804962E-01  0.38876275432E-01  0.51100000000E-03 0.  1.
         11    1    4    4    0    0 -0.82004688962E-01 -0.33529495020E-01  0.33006430930E-01  0.94544601389E-01  0.51100000000E-03 0. -1.
</event>
<event>
 8    1  0.1123450E+005  0.1043930E+01  0.7957747E-01            NaN
         13   -1    0    0    0    0  0.00000000000E+00  0.00000000000E+00  0.74505805969E-08  0.10566000000E+00  0.10566000000E+00 0. -1.
     999900   -1    0    0    0    0 -0.00000000000E+00 -0.00000000000E+00 -0.74505805969E-08  0.93827000000E+00  0.93827000000E+00 0. -1.
     999902    2    1    2    0    0  0.79173321654E-02  0.13379292957E-01  0.13826640068E-01  0.10231245775E+01  0.10229130146E+01 0.  0.
     999903    2    3    3    0    0  0.87572084448E-01 -0.97666645449E-01  0.40877374092E-02  0.13252313680E+00  0.18385553653E-01 0.  0.
         14    1    1    2    0    0 -0.79173321654E-02 -0.13379292957E-01 -0.13826640068E-01  0.20805422472E-01  0.00000000000E+00 0.  1.
     999901    1    3    3    0    0 -0.79654752282E-01  0.11104593841E+00  0.97389026593E-02  0.89060144073E+00  0.88000000000E+00 0.  1.
        -11    1    4    4    0    0  0.58799024176E-01 -0.52332694425E-01  0.41627580082E-02  0.78826555329E-01  0.51100000000E-03 0. -1.
         11    1    4    4    0    0  0.28773060272E-01 -0.45333951024E-01 -0.75020599062E-04  0.53696581474E-01  0.51100000000E-03 0.  1.
</event>
<event>
 8    1  0.1123450E+005  0.1043930E+01  0.7957747E-01            NaN
         13   -1    0    0    0    0  0.00000000000E+00  0.00000000000E+00  0.74505805969E-08  0.10566000000E+00  0.10566000000E+00 0. -1.
     999900   -1    0    0    0    0 -0.00000000000E+00 -0.00000000000E+00 -0.74505805969E-08  0.93827000000E+00  0.93827000000E+00 0. -1.
     999902    2    1    2    0    0 -0.11148039654E-01 -0.53323665008E-02  0.20235611294E-01  0.10202193930E+01  0.10199438303E+01 0.  0.
     999903    2    3    3    0    0  0.29739473526E-02  0.12780042683E+00 -0.78870927553E-02  0.12964954302E+00  0.20124718968E-01 0.  0.
         14    1    1    2    0    0  0.11148039654E-01  0.53323665008E-02 -0.20235611294E-01  0.23710607016E-01  0.00000000000E+00 0.  1.
     999901    1    3    3    0    0 -0.14121987007E-01 -0.13313279333E+00  0.28122704049E-01  0.89056984996E+00  0.88000000000E+00 0.  1.
        -11    1    4    4    0    0 -0.86610165959E-02  0.56040433190E-01 -0.38524681666E-02  0.56838771913E-01  0.51100000000E-03 0.  1.
         11    1    4    4    0    0  0.11634963949E-01  0.71759993638E-01 -0.40346245887E-02  0.72810771110E-01  0.51100000000E-03 0. -1.
</event>
<event>
 8    1  0.1123450E+005  0.1043930E+01  0.7957747E-01            NaN
         13   -1    0    0    0    0  0.00000000000E+00  0.00000000000E+00  0.74505805969E-08  0.10566000000E+00  0.10566000000E+00 0.  1.
     999900   -1    0    0    0    0 -0.00000000000E+00 -0.00000000000E+00 -0.74505805969E-08  0.93827000000E+00  0.93827000000E+00 0.  1.
     999902    2    1    2    0    0 -0.14979893527E-01  0.18260846763E-02 -0.18561348415E-01  0.10200081387E+01  0.10197275849E+01 0.  0.
     999903    2    3    3    0    0 -0.40787585957E-01  0.79674653062E-01 -0.96332420903E-01  0.13277943290E+00  0.18405569175E-01 0.  0.
         14    1    1    2    0    0  0.14979893527E-01 -0.18260846763E-02  0.18561348415E-01  0.23921861347E-01  0.00000000000E+00 0. -1.
     999901    1    3    3    0    0  0.25807692430E-01 -0.77848568386E-01  0.77771072489E-01  0.88722870575E+00  0.88000000000E+00 0. -1.
        -11    1    4    4    0    0 -0.23183360231E-01  0.61597087400E-01 -0.64465755296E-01  0.92129062161E-01  0.51100000000E-03 0.  1.
         11    1    4    4    0    0 -0.17604225726E-01  0.18077565662E-01 -0.31866665608E-01  0.40650370744E-01  0.51100000000E-03 0. -1.
</event>
<event>
 8    1  0.1123450E+005  0.1043930E+01  0.7957747E-01            NaN
         13   -1    0    0    0    0  0.00000000000E+00  0.00000000000E+00  0.74505805969E-08  0.10566000000E+00  0.10566000000E+00 0.  1.
     999900   -1    0    0    0    0 -0.00000000000E+00 -0.00000000000E+00 -0.74505805969E-08  0.93827000000E+00  0.93827000000E+00 0. -1.
     999902    2    1    2    0    0  0.17237751003E-01 -0.14266890766E-01 -0.91824694753E-02  0.10197431859E+01  0.10194563076E+01 0.  0.
     999903    2    3    3    0    0  0.40777511854E-02  0.12324149110E+00  0.29074305663E-01  0.12814612357E+00  0.19261893779E-01 0.  0.
         14    1    1    2    0    0 -0.17237751003E-01  0.14266890766E-01  0.91824694753E-02  0.24186814123E-01  0.00000000000E+00 0.  1.
     999901    1    3    3    0    0  0.13159999817E-01 -0.13750838187E+00 -0.38256775138E-01  0.89159706231E+00  0.88000000000E+00 0.  1.
        -11    1    4    4    0    0  0.78605890128E-03  0.85114733496E-01  0.11022911855E-01  0.85830655674E-01  0.51100000000E-03 0. -1.
         11    1    4    4    0    0  0.32916922842E-02  0.38126757603E-01  0.18051393808E-01  0.42315467891E-01  0.51100000000E-03 0.  1.
</event>
<event>
 8    1  0.1123450E+005  0.1043930E+01  0.7957747E-01            NaN
         13   -1    0    0    0    0  0.00000000000E+00  0.00000000000E+00  0.74505805969E-08  0.10566000000E+00  0.10566000000E+00 0. -1.
     999900   -1    0    0    0    0 -0.00000000000E+00 -0.00000000000E+00 -0.74505805969E-08  0.93827000000E+00  0.93827000000E+00 0.  1.
     999902    2    1    2    0    0 -0.20369358945E-01  0.12689808316E-01 -0.30937533195E-02  0.10197326173E+01  0.10194454853E+01 0.  0.
     999903    2    3    3    0    0 -0.78210319973E-01  0.10407876157E+00  0.17108433571E-01  0.13288108188E+00  0.20382361568E-01 0.  0.
         14    1    1    2    0    0  0.20369358945E-01 -0.12689808316E-01  0.30937533195E-02  0.24197382679E-01  0.00000000000E+00 0. -1.
     999901    1    3    3    0    0  0.57840961028E-01 -0.91388953256E-01 -0.20202186890E-01  0.88685153544E+00  0.88000000000E+00 0.  1.
        -11    1    4    4    0    0 -0.33390006336E-01  0.42091755824E-01 -0.29151441566E-02  0.53808620294E-01  0.51100000000E-03 0. -1.
         11    1    4    4    0    0 -0.44820313637E-01  0.61987005748E-01  0.20023577727E-01  0.79072461591E-01  0.51100000000E-03 0.  1.
</event>
<event>
 8    1  0.1123450E+005  0.1043930E+01  0.7957747E-01            NaN
         13   -1    0    0    0    0  0.00000000000E+00  0.00000000000E+00  0.74505805969E-08  0.10566000000E+00  0.10566000000E+00 0.  1.
     999900   -1    0    0    0    0 -0.00000000000E+00 -0.00000000000E+00 -0.74505805969E-08  0.93827000000E+00  0.93827000000E+00 0.  1.
     999902    2    1    2    0    0 -0.72273049998E-02 -0.65184226068E-02  0.34849890372E-01  0.10077465973E+01  0.10070968006E+01 0.  0.
     999903    2    3    3    0    0  0.10156067688E+00 -0.34729299080E-01  0.50632732198E-01  0.12045872033E+00  0.20638178928E-01 0.  0.
         14    1    1    2    0    0  0.72273049998E-02  0.65184226068E-02 -0.34849890372E-01  0.36183402684E-01  0.00000000000E+00 0. -1.
     999901    1    3    3    0    0 -0.10878798188E+00  0.28210876473E-01 -0.15782841826E-01  0.88728787699E+00  0.88000000000E+00 0. -1.
        -11    1    4    4    0    0  0.80540581524E-01 -0.29466729184E-01  0.30939143188E-01  0.91173269675E-01  0.51100000000E-03 0.  1.
         11    1    4    4    0    0  0.21020095360E-01 -0.52625698964E-02  0.19693589009E-01  0.29285450653E-01  0.51100000000E-03 0. -1.
</event>
<event>
 8    1  0.1123450E+005  0.1043930E+01  0.7957747E-01            NaN
         13   -1    0    0    0    0  0.00000000000E+00  0.00000000000E+00  0.74505805969E-08  0.10566000000E+00  0.10566000000E+00 0.  1.
     999900   -1    0    0    0    0 -0.00000000000E+00 -0.00000000000E+00 -0.74505805969E-08  0.93827000000E+00  0.93827000000E+00 0.  1.
     999902    2    1    2    0    0  0.14162808305E-01  0.66309786893E-02  0.17541464817E-01  0.10204298297E+01  0.10201591931E+01 0.  0.
     999903    2    3    3    0    0  0.10308536849E+00 -0.47370860605E-01 -0.60326856099E-01  0.13088674710E+00  0.24928284489E-01 0.  0.
         14    1    1    2    0    0 -0.14162808305E-01 -0.66309786893E-02 -0.17541464817E-01  0.23500170327E-01  0.00000000000E+00 0. -1.
     999901    1    3    3    0    0 -0.88922560184E-01  0.54001839294E-01  0.77868320916E-01  0.88954308258E+00  0.88000000000E+00 0. -1.
        -11    1    4    4    0    0  0.55485624538E-01 -0.30854412403E-01 -0.46317765881E-01  0.78589094996E-01  0.51100000000E-03 0.  1.
         11    1    4    4    0    0  0.47599743952E-01 -0.16516448202E-01 -0.14009090219E-01  0.52297652101E-01  0.51100000000E-03 0. -1.
</event>
<event>
 8    1  0.1123450E+005  0.1043930E+01  0.7957747E-01            NaN
         13   -1    0    0    0    0  0.00000000000E+00  0.00000000000E+00  0.74505805969E-08  0.10566000000E+00  0.10566000000E+00 0.  1.
     999900   -1    0    0    0    0 -0.00000000000E+00 -0.00000000000E+00 -0.74505805969E-08  0.93827000000E+00  0.93827000000E+00 0.  1.
     999902    2    1    2    0    0 -0.12893299784E-01 -0.17273234201E-01 -0.10848965801E-01  0.10197990684E+01  0.10195135301E+01 0.  0.
     999903    2    3    3    0    0 -0.66075232178E-01  0.10686931443E+00  0.20636282500E-01  0.12893936502E+00  0.20310515046E-01 0.  0.
         14    1    1    2    0    0  0.12893299784E-01  0.17273234201E-01  0.10848965801E-01  0.24130931561E-01  0.00000000000E+00 0. -1.
     999901    1    3    3    0    0  0.53181932395E-01 -0.12414254863E+00 -0.31485248302E-01  0.89085970342E+00  0.88000000000E+00 0.  1.
        -11    1    4    4    0    0 -0.21277001962E-01  0.53580553414E-01  0.87656985659E-02  0.58315393413E-01  0.51100000000E-03 0.  1.
         11    1    4    4    0    0 -0.44798230217E-01  0.53288761019E-01  0.11870583934E-01  0.70623971606E-01  0.51100000000E-03 0. -1.
</event>
<event>
 8    1  0.1123450E+005  0.1043930E+01  0.7957747E-01            NaN
         13   -1    0    0    0    0  0.00000000000E+00  0.00000000000E+00  0.74505805969E-08  0.10566000000E+00  0.10566000000E+00 0.  1.
     999900   -1    0    0    0    0 -0.00000000000E+00 -0.00000000000E+00 -0.74505805969E-08  0.93827000000E+00  0.93827000000E+00 0. -1.
     999902    2    1    2    0    0 -0.13961843939E-01 -0.73597888470E-02  0.17408670898E-01  0.10204318852E+01  0.10201612965E+01 0.  0.
     999903    2    3    3    0    0  0.63520968913E-01  0.54804280985E-01  0.98704622167E-01  0.13111923511E+00  0.20278773951E-01 0.  0.
         14    1    1    2    0    0  0.13961843939E-01  0.73597888470E-02 -0.17408670898E-01  0.23498114828E-01  0.00000000000E+00 0.  1.
     999901    1    3    3    0    0 -0.77482812852E-01 -0.62164069832E-01 -0.81295951269E-01  0.88931265006E+00  0.88000000000E+00 0. -1.
        -11    1    4    4    0    0  0.46568045888E-01  0.44235172625E-01  0.61706976376E-01  0.89069329455E-01  0.51100000000E-03 0.  1.
         11    1    4    4    0    0  0.16952923025E-01  0.10569108360E-01  0.36997645791E-01  0.42049905656E-01  0.51100000000E-03 0. -1.
</event>
<event>
 8    1  0.1123450E+005  0.1043930E+01  0.7957747E-01            NaN
         13   -1    0    0    0    0  0.00000000000E+00  0.00000000000E+00  0.74505805969E-08  0.10566000000E+00  0.10566000000E+00 0. -1.
     999900   -1    0    0    0    0 -0.00000000000E+00 -0.00000000000E+00 -0.74505805969E-08  0.93827000000E+00  0.93827000000E+00 0.  1.
     999902    2    1    2    0    0  0.25498385763E-02 -0.19861603580E-01 -0.14854931435E-01  0.10189970106E+01  0.10186919326E+01 0.  0.
     999903    2    3    3    0    0 -0.99200195262E-01  0.55215663185E-01 -0.57708706802E-01  0.12892616428E+00  0.20055243547E-01 0.  0.
         14    1    1    2    0    0 -0.25498385763E-02  0.19861603580E-01  0.14854931435E-01  0.24932989421E-01  0.00000000000E+00 0. -1.
     999901    1    3    3    0    0  0.10175003384E+00 -0.75077266765E-01  0.42853775367E-01  0.89007084630E+00  0.88000000000E+00 0.  1.
        -11    1    4    4    0    0 -0.79491002344E-01  0.39395591568E-01 -0.36518399195E-01  0.95941058413E-01  0.51100000000E-03 0. -1.
         11    1    4    4    0    0 -0.19709192918E-01  0.15820071617E-01 -0.21190307607E-01  0.32985105865E-01  0.51100000000E-03 0.  1.
</event>
<event>
 8    1  0.1123450E+005  0.1043930E+01  0.7957747E-01            NaN
         13   -1    0    0    0    0  0.00000000000E+00  0.00000000000E+00  0.74505805969E-08  0.10566000000E+00  0.10566000000E+00 0. -1.
     999900   -1    0    0    0    0 -0.00000000000E+00 -0.00000000000E+00 -0.74505805969E-08  0.93827000000E+00  0.93827000000E+00 0. -1.
     999902    2    1    2    0    0  0.18023121717E-01  0.13778538672E-01 -0.74977920530E-02  0.10200365296E+01  0.10197566493E+01 0.  0.
     999903    2    3    3    0    0 -0.83191804844E-01  0.90246311227E-01 -0.39324329193E-01  0.13037102496E+00  0.19619587127E-01 0.  0.
         14    1    1    2    0    0 -0.18023121717E-01 -0.13778538672E-01  0.74977920530E-02  0.23893470447E-01  0.00000000000E+00 0. -1.
     999901    1    3    3    0    0  0.10121492656E+00 -0.76467772555E-01  0.31826537140E-01  0.88966550459E+00  0.88000000000E+00 0.  1.
        -11    1    4    4    0    0 -0.17704970342E-01  0.11338218693E-01 -0.12148063024E-01  0.24286986931E-01  0.51100000000E-03 0.  1.
         11    1    4    4    0    0 -0.65486834502E-01  0.78908092534E-01 -0.27176266169E-01  0.10608403803E+00  0.51100000000E-03 0. -1.
</event>
<event>
 8    1  0.1123450E+005  0.1043930E+01  0.7957747E-01            NaN
         13   -1    0    0    0    0  0.00000000000E+00  0.00000000000E+00  0.74505805969E-08  0.10566000000E+00  0.10566000000E+00 0.  1.
     999900   -1    0    0    0    0 -0.00000000000E+00 -0.00000000000E+00 -0.74505805969E-08  0.93827000000E+00  0.93827000000E+00 0. -1.
     999902    2    1    2    0    0 -0.13374203618E-01  0.14038733052E-01 -0.14099690134E-01  0.10199559180E+01  0.10196741234E+01 0.  0.
     999903    2    3    3    0    0 -0.11494608286E+00 -0.76273818343E-02 -0.62543086499E-01  0.13252534048E+00  0.19507672347E-01 0.  0.
         14    1    1    2    0    0  0.13374203618E-01 -0.14038733052E-01  0.14099690134E-01  0.23974082047E-01  0.00000000000E+00 0.  1.
     999901    1    3    3    0    0  0.10157187925E+00  0.21666114886E-01  0.48443396365E-01  0.88743057748E+00  0.88000000000E+00 0. -1.
        -11    1    4    4    0    0 -0.44955295926E-01 -0.14574374702E-02 -0.35243448254E-01  0.57144243119E-01  0.51100000000E-03 0.  1.
         11    1    4    4    0    0 -0.69990786939E-01 -0.61699443641E-02 -0.27299638244E-01  0.75381097359E-01  0.51100000000E-03 0. -1.
</event>
<event>
 8    1  0.1123450E+005  0.1043930E+01  0.7957747E-01            NaN
         13   -1    0    0    0    0  0.00000000000E+00  0.00000000000E+00  0.74505805969E-08  0.10566000000E+00  0.10566000000E+00 0.  1.
     999900   -1    0    0    0    0 -0.00000000000E+00 -0.00000000000E+00 -0.74505805969E-08  0.93827000000E+00  0.93827000000E+00 0.  1.
     999902    2    1    2    0    0  0.15441899589E-01 -0.12008709324E-01 -0.22247916078E-01  0.10143051602E+01  0.10138724411E+01 0.  0.
     999903    2    3    3    0    0  0.12086192349E+00  0.24117804461E-01  0.19190779658E-01  0.12630984945E+00  0.19915295681E-01 0.  0.
         14    1    1    2    0    0 -0.15441899589E-01  0.12008709324E-01  0.22247916078E-01  0.29624839786E-01  0.00000000000E+00 0.  1.
     999901    1    3    3    0    0 -0.10542002390E+00 -0.36126513785E-01 -0.41438695736E-01  0.88799531077E+00  0.88000000000E+00 0. -1.
        -11    1    4    4    0    0  0.50020639631E-01  0.20018342833E-01  0.86169143186E-02  0.54564739276E-01  0.51100000000E-03 0.  1.
         11    1    4    4    0    0  0.70841283859E-01  0.40994616279E-02  0.10573865340E-01  0.71745110173E-01  0.51100000000E-03 0. -1.
</event>
<event>
 8    1  0.1123450E+005  0.1043930E+01  0.7957747E-01            NaN
         13   -1    0    0    0    0  0.00000000000E+00  0.00000000000E+00  0.74505805969E-08  0.10566000000E+00  0.10566000000E+00 0. -1.
     999900   -1    0    0    0    0 -0.00000000000E+00 -0.00000000000E+00 -0.74505805969E-08  0.93827000000E+00  0.93827000000E+00 0. -1.
     999902    2    1    2    0    0  0.27466654500E-02  0.12627816919E-01  0.19812184899E-01  0.10202756431E+01  0.10200014016E+01 0.  0.
     999903    2    3    3    0    0 -0.11154027785E+00  0.63261138690E-01  0.20172985737E-01  0.13144193036E+00  0.20659778566E-01 0.  0.
         14    1    1    2    0    0 -0.27466654500E-02 -0.12627816919E-01 -0.19812184899E-01  0.23654356929E-01  0.00000000000E+00 0.  1.
     999901    1    3    3    0    0  0.11428694330E+00 -0.50633321771E-01 -0.36080083789E-03  0.88883371272E+00  0.88000000000E+00 0.  1.
        -11    1    4    4    0    0 -0.15795563715E-01  0.16496094138E-02  0.49424088190E-03  0.15897372089E-01  0.51100000000E-03 0. -1.
         11    1    4    4    0    0 -0.95744714137E-01  0.61611529276E-01  0.19678744855E-01  0.11554455827E+00  0.51100000000E-03 0.  1.
</event>
<event>
 8    1  0.1123450E+005  0.1043930E+01  0.7957747E-01            NaN
         13   -1    0    0    0    0  0.00000000000E+00  0.00000000000E+00  0.74505805969E-08  0.10566000000E+00  0.10566000000E+00 0. -1.
     999900   -1    0    0    0    0 -0.00000000000E+00 -0.00000000000E+00 -0.74505805969E-08  0.93827000000E+00  0.93827000000E+00 0. -1.
     999902    2    1    2    0    0  0.99112299209E-02  0.19564135515E-01 -0.98215146854E-02  0.10198998101E+01  0.10196166792E+01 0.  0.
     999903    2    3    3    0    0  0.91010365757E-01  0.21062031768E-01 -0.91835372525E-01  0.13237201536E+00  0.19029423145E-01 0.  0.
         14    1    1    2    0    0 -0.99112299209E-02 -0.19564135515E-01  0.98215146854E-02  0.24030189922E-01  0.00000000000E+00 0. -1.
     999901    1    3    3    0    0 -0.81099135836E-01 -0.14978962536E-02  0.82013857839E-01  0.88752779472E+00  0.88000000000E+00 0.  1.
        -11    1    4    4    0    0  0.74486886566E-01  0.12719354550E-01 -0.64475563228E-01  0.99334976846E-01  0.51100000000E-03 0. -1.
         11    1    4    4    0    0  0.16523479191E-01  0.83426772177E-02 -0.27359809297E-01  0.33037038509E-01  0.51100000000E-03 0.  1.
</event>
<event>
 8    1  0.1123450E+005  0.1043930E+01  0.7957747E-01            NaN
         13   -1    0    0    0    0  0.00000000000E+00  0.00000000000E+00  0.74505805969E-08  0.10566000000E+00  0.10566000000E+00 0.  1.
     999900   -1    0    0    0    0 -0.00000000000E+00 -0.00000000000E+00 -0.74505805969E-08  0.93827000000E+00  0.93827000000E+00 0.  1.
     999902    2    1    2    0    0 -0.14184756386E-01  0.11002812102E-01  0.15093338272E-01  0.10204762573E+01  0.10202067014E+01 0.  0.
     999903    2    3    3    0    0 -0.79317232771E-01  0.10426660160E+00 -0.88947310000E-02  0.13283004319E+00  0.20048853092E-01 0.  0.
         14    1    1    2    0    0  0.14184756386E-01 -0.11002812102E-01 -0.15093338272E-01  0.23453742730E-01  0.00000000000E+00 0. -1.
     999901    1    3    3    0    0  0.65132476385E-01 -0.93263789494E-01  0.23988069272E-01  0.88764621408E+00  0.88000000000E+00 0. -1.
        -11    1    4    4    0    0 -0.58344173680E-01  0.60853335047E-01 -0.64312763941E-02  0.84550537703E-01  0.51100000000E-03 0.  1.
         11    1    4    4    0    0 -0.20973059091E-01  0.43413266549E-01 -0.24634546059E-02  0.48279505483E-01  0.51100000000E-03 0. -1.
</event>
<event>
 8    1  0.1123450E+005  0.1043930E+01  0.7957747E-01            NaN
         13   -1    0    0    0    0  0.00000000000E+00  0.00000000000E+00  0.74505805969E-08  0.10566000000E+00  0.10566000000E+00 0. -1.
     999900   -1    0    0    0    0 -0.00000000000E+00 -0.00000000000E+00 -0.74505805969E-08  0.93827000000E+00  0.93827000000E+00 0.  1.
     999902    2    1    2    0    0 -0.56770701448E-02 -0.11031459582E-01 -0.18380020285E-01  0.10217546224E+01  0.10215139554E+01 0.  0.
     999903    2    3    3    0    0 -0.75796279650E-01  0.85290615134E-01 -0.64882606284E-01  0.13250936033E+00  0.18149736564E-01 0.  0.
         14    1    1    2    0    0  0.56770701448E-02  0.11031459582E-01  0.18380020285E-01  0.22175377598E-01  0.00000000000E+00 0. -1.
     999901    1    3    3    0    0  0.70119209505E-01 -0.96322074716E-01  0.46502585999E-01  0.88924526208E+00  0.88000000000E+00 0. -1.
        -11    1    4    4    0    0 -0.57773107042E-01  0.59180634817E-01 -0.38429880181E-01  0.91198663621E-01  0.51100000000E-03 0. -1.
         11    1    4    4    0    0 -0.18023172608E-01  0.26109980317E-01 -0.26452726102E-01  0.41310696705E-01  0.51100000000E-03 0.  1.
</event>
<event>
 8    1  0.1123450E+005  0.1043930E+01  0.7957747E-01            NaN
         13   -1    0    0    0    0  0.00000000000E+00  0.00000000000E+00  0.74505805969E-08  0.10566000000E+00  0.10566000000E+00 0. -1.
     999900   -1    0    0    0    0 -0.00000000000E+00 -0.00000000000E+00 -0.74505805969E-08  0.93827000000E+00  0.93827000000E+00 0.  1.
     999902    2    1    2    0    0  0.21028638870E-01 -0.56640076937E-02 -0.54961474276E-02  0.10214690946E+01  0.10212221203E+01 0.  0.
     999903    2    3    3    0    0 -0.63022611321E-01  0.27700660033E-01  0.10806235900E+00  0.12957596864E+00  0.19320510161E-01 0.  0.
         14    1    1    2    0    0 -0.21028638870E-01  0.56640076937E-02  0.54961474276E-02  0.22460905423E-01  0.00000000000E+00 0.  1.
     999901    1    3    3    0    0  0.84051250190E-01 -0.33364667727E-01 -0.11355850643E+00  0.89189312594E+00  0.88000000000E+00 0.  1.
        -11    1    4    4    0    0 -0.25219463817E-01  0.10851827695E-01  0.26752570398E-01  0.38337249033E-01  0.51100000000E-03 0.  1.
         11    1    4    4    0    0 -0.37803147504E-01  0.16848832338E-01  0.81309788601E-01  0.91238719608E-01  0.51100000000E-03 0. -1.
</event>
<event>
 8    1  0.1123450E+005  0.1043930E+01  0.7957747E-01            NaN
         13   -1    0    0    0    0  0.00000000000E+00  0.00000000000E+00  0.74505805969E-08  0.10566000000E+00  0.10566000000E+00 0. -1.
     999900   -1    0    0    0    0 -0.00000000000E+00 -0.00000000000E+00 -0.74505805969E-08  0.93827000000E+00  0.93827000000E+00 0.  1.
     999902    2    1    2    0    0  0.41138142125E-02 -0.20306269713E-01  0.89451292471E-02  0.10213626919E+01  0.10211133458E+01 0.  0.
     999903    2    3    3    0    0  0.43186068822E-01 -0.12482630583E+00  0.13534944241E-01  0.13430455096E+00  0.20195903678E-01 0.  0.
         14    1    1    2    0    0 -0.41138142125E-02  0.20306269713E-01 -0.89451292471E-02  0.22567308086E-01  0.00000000000E+00 0.  1.
     999901    1    3    3    0    0 -0.39072254610E-01  0.10452003612E+00 -0.45898149936E-02  0.88705814095E+00  0.88000000000E+00 0.  1.
        -11    1    4    4    0    0  0.34977645713E-02 -0.36132937958E-01  0.64795760768E-02  0.36879121323E-01  0.51100000000E-03 0. -1.
         11    1    4    4    0    0  0.39688304251E-01 -0.88693367873E-01  0.70553681639E-02  0.97425429637E-01  0.51100000000E-03 0.  1.
</event>
<event>
 8    1  0.1123450E+005  0.1043930E+01  0.7957747E-01            NaN
         13   -1    0    0    0    0  0.00000000000E+00  0.00000000000E+00  0.74505805969E-08  0.10566000000E+00  0.10566000000E+00 0. -1.
     999900   -1    0    0    0    0 -0.00000000000E+00 -0.00000000000E+00 -0.74505805969E-08  0.93827000000E+00  0.93827000000E+00 0. -1.
     999902    2    1    2    0    0 -0.10087442049E-01 -0.15848536157E-01 -0.15901774571E-01  0.10193170152E+01  0.10190198126E+01 0.  0.
     999903    2    3    3    0    0 -0.99019483410E-01 -0.40733394190E-01 -0.75369164712E-01  0.13248865830E+00  0.20215491386E-01 0.  0.
         14    1    1    2    0    0  0.10087442049E-01  0.15848536157E-01  0.15901774571E-01  0.24612984783E-01  0.00000000000E+00 0. -1.
     999901    1    3    3    0    0  0.88932041361E-01  0.24884858033E-01  0.59467390141E-01  0.88682835692E+00  0.88000000000E+00 0.  1.
        -11    1    4    4    0    0 -0.44075182391E-01 -0.19588447190E-01 -0.46172432575E-01  0.66771877441E-01  0.51100000000E-03 0.  1.
         11    1    4    4    0    0 -0.54944301019E-01 -0.21144947000E-01 -0.29196732137E-01  0.65716780860E-01  0.51100000000E-03 0. -1.
</event>
<event>
 8    1  0.1123450E+005  0.1043930E+01  0.7957747E-01            NaN
         13   -1    0    0    0    0  0.00000000000E+00  0.00000000000E+00  0.74505805969E-08  0.10566000000E+00  0.10566000000E+00 0. -1.
     999900   -1    0    0    0    0 -0.00000000000E+00 -0.00000000000E+00 -0.74505805969E-08  0.93827000000E+00  0.93827000000E+00 0. -1.
     999902    2    1    2    0    0 -0.23001026587E-01  0.28640584767E-02 -0.25725352964E-02  0.10206090225E+01  0.10203425448E+01 0.  0.
     999903    2    3    3    0    0  0.11457149392E+00 -0.53364223878E-01  0.14080747214E-01  0.12799199936E+00  0.14467786524E-01 0.  0.
         14    1    1    2    0    0  0.23001026587E-01 -0.28640584767E-02  0.25725352964E-02  0.23320977528E-01  0.00000000000E+00 0. -1.
     999901    1    3    3    0    0 -0.13757252051E+00  0.56228282355E-01 -0.16653282510E-01  0.89261702312E+00  0.88000000000E+00 0. -1.
        -11    1    4    4    0    0  0.84569623965E-01 -0.35479119406E-01  0.47475282209E-02  0.91834576041E-01  0.51100000000E-03 0.  1.
         11    1    4    4    0    0  0.30001869960E-01 -0.17885104472E-01  0.93332189926E-02  0.36157423316E-01  0.51100000000E-03 0. -1.
</event>
<event>
 8    1  0.1123450E+005  0.1043930E+01  0.7957747E-01            NaN
         13   -1    0    0    0    0  0.00000000000E+00  0.00000000000E+00  0.74505805969E-08  0.10566000000E+00  0.10566000000E+00 0.  1.
     999900   -1    0    0    0    0 -0.00000000000E+00 -0.00000000000E+00 -0.74505805969E-08  0.93827000000E+00  0.93827000000E+00 0.  1.
     999902    2    1    2    0    0  0.17039464190E-01 -0.14370807915E-01 -0.25355395280E-02  0.10214958203E+01  0.10212494398E+01 0.  0.
     999903    2    3    3    0    0  0.12064781591E-01 -0.93409706733E-01  0.91588451548E-01  0.13294012662E+00  0.20339629862E-01 0.  0.
         14    1    1    2    0    0 -0.17039464190E-01  0.14370807915E-01  0.25355395280E-02  0.22434179742E-01  0.00000000000E+00 0. -1.
     999901    1    3    3    0    0  0.49746825991E-02  0.79038898817E-01 -0.94123991076E-01  0.88855569363E+00  0.88000000000E+00 0.  1.
        -11    1    4    4    0    0  0.10338586691E-01 -0.31987385780E-01  0.22376891436E-01  0.40386453362E-01  0.51100000000E-03 0.  1.
         11    1    4    4    0    0  0.17261948996E-02 -0.61422320953E-01  0.69211560112E-01  0.92553673261E-01  0.51100000000E-03 0. -1.
</event>
<event>
 8    1  0.1123450E+005  0.1043930E+01  0.7957747E-01            NaN
         13   -1    0    0    0    0  0.00000000000E+00  0.00000000000E+00  0.74505805969E-08  0.10566000000E+00  0.10566000000E+00 0. -1.
     999900   -1    0    0    0    0 -0.00000000000E+00 -0.00000000000E+00 -0.74505805969E-08  0.93827000000E+00  0.93827000000E+00 0.  1.
     999902    2    1    2    0    0  0.10350024615E-01  0.17609975791E-02 -0.20530076748E-01  0.10208712018E+01  0.10206107498E+01 0.  0.
     999903    2    3    3    0    0  0.24222443267E-01 -0.61491930130E-01 -0.11427385921E+00  0.13352613162E+00  0.20068101539E-01 0.  0.
         14    1    1    2    0    0 -0.10350024615E-01 -0.17609975791E-02  0.20530076748E-01  0.23058798175E-01  0.00000000000E+00 0. -1.
     999901    1    3    3    0    0 -0.13872418652E-01  0.63252927709E-01  0.93743782457E-01  0.88734507020E+00  0.88000000000E+00 0. -1.
        -11    1    4    4    0    0  0.68037964393E-02 -0.14700369835E-01 -0.13626381831E-01  0.21173849958E-01  0.51100000000E-03 0.  1.
         11    1    4    4    0    0  0.17418646828E-01 -0.46791560295E-01 -0.10064747738E+00  0.11235228166E+00  0.51100000000E-03 0. -1.
</event>
<event>
 8    1  0.1123450E+005  0.1043930E+01  0.7957747E-01            NaN
         13   -1    0    0    0    0  0.00000000000E+00  0.00000000000E+00  0.74505805969E-08  0.10566000000E+00  0.10566000000E+00 0.  1.
     999900   -1    0    0    0    0 -0.00000000000E+00 -0.00000000000E+00 -0.74505805969E-08  0.93827000000E+00  0.93827000000E+00 0.  1.
     999902    2    1    2    0    0 -0.22903372909E-01  0.36000910528E-02  0.48942834900E-02  0.10202344486E+01  0.10199592398E+01 0.  0.
     999903    2    3    3    0    0 -0.22415335309E-01 -0.11104378540E+00 -0.61405402383E-01  0.13032484366E+00  0.19513377474E-01 0.  0.
         14    1    1    2    0    0  0.22903372909E-01 -0.36000910528E-02 -0.48942834900E-02  0.23695551420E-01  0.00000000000E+00 0.  1.
     999901    1    3    3    0    0 -0.48803760059E-03  0.11464387645E+00  0.66299685873E-01  0.88990960492E+00  0.88000000000E+00 0. -1.
        -11    1    4    4    0    0 -0.32206241801E-02 -0.57697303925E-01 -0.25134787421E-01  0.63018806399E-01  0.51100000000E-03 0. -1.
         11    1    4    4    0    0 -0.19194711128E-01 -0.53346481471E-01 -0.36270614961E-01  0.67306037258E-01  0.51100000000E-03 0.  1.
</event>
<event>
 8    1  0.1123450E+005  0.1043930E+01  0.7957747E-01            NaN
         13   -1    0    0    0    0  0.00000000000E+00  0.00000000000E+00  0.74505805969E-08  0.10566000000E+00  0.10566000000E+00 0. -1.
     999900   -1    0    0    0    0 -0.00000000000E+00 -0.00000000000E+00 -0.74505805969E-08  0.93827000000E+00  0.93827000000E+00 0. -1.
     999902    2    1    2    0    0 -0.12364882424E-01 -0.19497691389E-01 -0.68067983575E-02  0.10198596284E+01  0.10195755385E+01 0.  0.
     999903    2    3    3    0    0  0.49818477181E-01  0.10153500723E+00 -0.56391119214E-01  0.12802203708E+00  0.20455935338E-01 0.  0.
         14    1    1    2    0    0  0.12364882424E-01  0.19497691389E-01  0.68067983575E-02  0.24070371637E-01  0.00000000000E+00 0. -1.
     999901    1    3    3    0    0 -0.62183359605E-01 -0.12103269862E+00  0.49584320856E-01  0.89183759128E+00  0.88000000000E+00 0.  1.
        -11    1    4    4    0    0  0.19988583839E-01  0.63565586286E-01 -0.33480142297E-01  0.74574179801E-01  0.51100000000E-03 0.  1.
         11    1    4    4    0    0  0.29829893342E-01  0.37969420944E-01 -0.22910976917E-01  0.53447857281E-01  0.51100000000E-03 0. -1.
</event>
<event>
 8    1  0.1123450E+005  0.1043930E+01  0.7957747E-01            NaN
         13   -1    0    0    0    0  0.00000000000E+00  0.00000000000E+00  0.74505805969E-08  0.10566000000E+00  0.10566000000E+00 0.  1.
     999900   -1    0    0    0    0 -0.00000000000E+00 -0.00000000000E+00 -0.74505805969E-08  0.93827000000E+00  0.93827000000E+00 0. -1.
     999902    2    1    2    0    0 -0.15303657309E-01  0.18850290010E-01 -0.56651507707E-02  0.10189975053E+01  0.10186924396E+01 0.  0.
     999903    2    3    3    0    0 -0.52649003312E-01  0.11925132735E+00 -0.12229333248E-01  0.13247726767E+00  0.20195871681E-01 0.  0.
         14    1    1    2    0    0  0.15303657309E-01 -0.18850290010E-01  0.56651507707E-02  0.24932494735E-01  0.00000000000E+00 0. -1.
     999901    1    3    3    0    0  0.37345346003E-01 -0.10040103734E+00  0.65641824769E-02  0.88652023759E+00  0.88000000000E+00 0. -1.
        -11    1    4    4    0    0 -0.77618817513E-02  0.30349492993E-01 -0.99006952255E-02  0.32857623472E-01  0.51100000000E-03 0. -1.
         11    1    4    4    0    0 -0.44887121561E-01  0.88901834361E-01 -0.23286380221E-02  0.99619644201E-01  0.51100000000E-03 0.  1.
</event>
<event>
 8    1  0.1123450E+005  0.1043930E+01  0.7957747E-01            NaN
         13   -1    0    0    0    0  0.00000000000E+00  0.00000000000E+00  0.74505805969E-08  0.10566000000E+00  0.10566000000E+00 0.  1.
     999900   -1    0    0    0    0 -0.00000000000E+00 -0.00000000000E+00 -0.74505805969E-08  0.93827000000E+00  0.93827000000E+00 0. -1.
     999902    2    1    2    0    0 -0.17462104283E-01  0.15096232385E-01  0.11507306027E-02  0.10208184120E+01  0.10205567524E+01 0.  0.
     999903    2    3    3    0    0 -0.82526238809E-01  0.10341426385E+00  0.75911324110E-02  0.13398421384E+00  0.19724457068E-01 0.  0.
         14    1    1    2    0    0  0.17462104283E-01 -0.15096232385E-01 -0.11507306027E-02  0.23111587984E-01  0.00000000000E+00 0. -1.
     999901    1    3    3    0    0  0.65064134526E-01 -0.88318031466E-01 -0.64404018083E-02  0.88683419818E+00  0.88000000000E+00 0. -1.
        -11    1    4    4    0    0 -0.61164339106E-01  0.63489403102E-01  0.58655154997E-03  0.88162269981E-01  0.51100000000E-03 0.  1.
         11    1    4    4    0    0 -0.21361899703E-01  0.39924860749E-01  0.70045808610E-02  0.45821943857E-01  0.51100000000E-03 0. -1.
</event>
<event>
 8    1  0.1123450E+005  0.1043930E+01  0.7957747E-01            NaN
         13   -1    0    0    0    0  0.00000000000E+00  0.00000000000E+00  0.74505805969E-08  0.10566000000E+00  0.10566000000E+00 0. -1.
     999900   -1    0    0    0    0 -0.00000000000E+00 -0.00000000000E+00 -0.74505805969E-08  0.93827000000E+00  0.93827000000E+00 0.  1.
     999902    2    1    2    0    0 -0.16422917022E-02 -0.21191795604E-01 -0.62242946120E-02  0.10217820618E+01  0.10215419965E+01 0.  0.
     999903    2    3    3    0    0 -0.11790455483E+00  0.52108429434E-01  0.12427501792E-01  0.13091858948E+00  0.19195358883E-01 0.  0.
         14    1    1    2    0    0  0.16422917022E-02  0.21191795604E-01  0.62242946120E-02  0.22147938197E-01  0.00000000000E+00 0. -1.
     999901    1    3    3    0    0  0.11626226312E+00 -0.73300225038E-01 -0.18651796404E-01  0.89086347233E+00  0.88000000000E+00 0. -1.
        -11    1    4    4    0    0 -0.44534606681E-01  0.99900475451E-02  0.21423022005E-02  0.45694450669E-01  0.51100000000E-03 0. -1.
         11    1    4    4    0    0 -0.73369948146E-01  0.42118381888E-01  0.10285199592E-01  0.85224138807E-01  0.51100000000E-03 0.  1.
</event>
<event>
 8    1  0.1123450E+005  0.1043930E+01  0.7957747E-01            NaN
         13   -1    0    0    0    0  0.00000000000E+00  0.00000000000E+00  0.74505805969E-08  0.10566000000E+00  0.10566000000E+00 0.  1.
     999900   -1    0    0    0    0 -0.00000000000E+00 -0.00000000000E+00 -0.74505805969E-08  0.93827000000E+00  0.93827000000E+00 0. -1.
     999902    2    1    2    0    0 -0.76352657265E-03  0.25476889821E-02  0.23651816000E-01  0.10201291157E+01  0.10198514258E+01 0.  0.
     999903    2    3    3    0    0 -0.85314410561E-01 -0.70501808918E-01 -0.62961165933E-01  0.12884527218E+00  0.19696244266E-01 0.  0.
         14    1    1    2    0    0  0.76352657265E-03 -0.25476889821E-02 -0.23651816000E-01  0.23800884271E-01  0.00000000000E+00 0. -1.
     999901    1    3    3    0    0  0.84550883989E-01  0.73049497900E-01  0.86612981933E-01  0.89128384355E+00  0.88000000000E+00 0.  1.
        -11    1    4    4    0    0 -0.32565639542E-01 -0.36322814279E-01 -0.35043776194E-01  0.60068253569E-01  0.51100000000E-03 0. -1.
         11    1    4    4    0    0 -0.52748771020E-01 -0.34178994639E-01 -0.27917389739E-01  0.68777018614E-01  0.51100000000E-03 0.  1.
</event>
<event>
 8    1  0.1123450E+005  0.1043930E+01  0.7957747E-01            NaN
         13   -1    0    0    0    0  0.00000000000E+00  0.00000000000E+00  0.74505805969E-08  0.10566000000E+00  0.10566000000E+00 0.  1.
     999900   -1    0    0    0    0 -0.00000000000E+00 -0.00000000000E+00 -0.74505805969E-08  0.93827000000E+00  0.93827000000E+00 0.  1.
     999902    2    1    2    0    0  0.21218944928E-01  0.19472644360E-02  0.10506421558E-01  0.10201724674E+01  0.10198958000E+01 0.  0.
     999903    2    3    3    0    0  0.41600790695E-01 -0.10284495977E+00 -0.65021525468E-01  0.13050887889E+00  0.22294778703E-01 0.  0.
         14    1    1    2    0    0 -0.21218944928E-01 -0.19472644360E-02 -0.10506421558E-01  0.23757532628E-01  0.00000000000E+00 0.  1.
     999901    1    3    3    0    0 -0.20381845767E-01  0.10479222421E+00  0.75527947026E-01  0.88966358848E+00  0.88000000000E+00 0. -1.
        -11    1    4    4    0    0  0.19775983403E-01 -0.35922683680E-01 -0.35256757087E-01  0.54081686028E-01  0.51100000000E-03 0. -1.
         11    1    4    4    0    0  0.21824807292E-01 -0.66922276092E-01 -0.29764768381E-01  0.76427192860E-01  0.51100000000E-03 0.  1.
</event>
<event>
 8    1  0.1123450E+005  0.1043930E+01  0.7957747E-01            NaN
         13   -1    0    0    0    0  0.00000000000E+00  0.00000000000E+00  0.74505805969E-08  0.10566000000E+00  0.10566000000E+00 0.  1.
     999900   -1    0    0    0    0 -0.00000000000E+00 -0.00000000000E+00 -0.74505805969E-08  0.93827000000E+00  0.93827000000E+00 0. -1.
     999902    2    1    2    0    0  0.10625287628E-01 -0.16800900291E-01  0.75840042413E-02  0.10226536256E+01  0.10224322735E+01 0.  0.
     999903    2    3    3    0    0 -0.34579167918E-01  0.64208731389E-01 -0.10641026646E+00  0.13046491406E+00  0.19479962816E-01 0.  0.
         14    1    1    2    0    0 -0.10625287628E-01  0.16800900291E-01 -0.75840042413E-02  0.21276374411E-01  0.00000000000E+00 0. -1.
     999901    1    3    3    0    0  0.45204455546E-01 -0.81009631680E-01  0.11399427070E+00  0.89218871153E+00  0.88000000000E+00 0. -1.
        -11    1    4    4    0    0  0.71425484005E-03  0.14061698698E-01 -0.22162954538E-01  0.26262124916E-01  0.51100000000E-03 0.  1.
         11    1    4    4    0    0 -0.35293422758E-01  0.50147032691E-01 -0.84247311925E-01  0.10420278914E+00  0.51100000000E-03 0. -1.
</event>
<event>
 8    1  0.1123450E+005  0.1043930E+01  0.7957747E-01            NaN
         13   -1    0    0    0    0  0.00000000000E+00  0.00000000000E+00  0.74505805969E-08  0.10566000000E+00  0.10566000000E+00 0.  1.
     999900   -1    0    0    0    0 -0.00000000000E+00 -0.00000000000E+00 -0.74505805969E-08  0.93827000000E+00  0.93827000000E+00 0.  1.
     999902    2    1    2    0    0 -0.16842844566E-01  0.14850313596E-01  0.70969064328E-02  0.10203804924E+01  0.10201087050E+01 0.  0.
     999903    2    3    3    0    0 -0.84256058413E-01 -0.97899389261E-01 -0.22189402785E-02  0.13058061497E+00  0.19052546075E-01 0.  0.
         14    1    1    2    0    0  0.16842844566E-01 -0.14850313596E-01 -0.70969064328E-02  0.23549507593E-01  0.00000000000E+00 0. -1.
     999901    1    3    3    0    0  0.67413213847E-01  0.11274970286E+00  0.93158467113E-02  0.88979987744E+00  0.88000000000E+00 0.  1.
        -11    1    4    4    0    0 -0.61872523802E-01 -0.58050528938E-01 -0.22441534925E-02  0.84872672030E-01  0.51100000000E-03 0.  1.
         11    1    4    4    0    0 -0.22383534611E-01 -0.39848860323E-01  0.25213214008E-04  0.45707942936E-01  0.51100000000E-03 0. -1.
</event>
<event>
 8    1  0.1123450E+005  0.1043930E+01  0.7957747E-01            NaN
         13   -1    0    0    0    0  0.00000000000E+00  0.00000000000E+00  0.74505805969E-08  0.10566000000E+00  0.10566000000E+00 0.  1.
     999900   -1    0    0    0    0 -0.00000000000E+00 -0.00000000000E+00 -0.74505805969E-08  0.93827000000E+00  0.93827000000E+00 0. -1.
     999902    2    1    2    0    0  0.34738140648E-01  0.18268354432E-02 -0.52321520258E-02  0.10087525760E+01  0.10081390323E+01 0.  0.
     999903    2    3    3    0    0  0.10111978742E+00 -0.56108663640E-01  0.37715596704E-01  0.12331056538E+00  0.20239460346E-01 0.  0.
         14    1    1    2    0    0 -0.34738140648E-01 -0.18268354432E-02  0.52321520258E-02  0.35177423985E-01  0.00000000000E+00 0. -1.
     999901    1    3    3    0    0 -0.66381646773E-01  0.57935499083E-01 -0.42947748730E-01  0.88544201064E+00  0.88000000000E+00 0. -1.
        -11    1    4    4    0    0  0.68337088308E-01 -0.48274804472E-01  0.25812924907E-01  0.87561307656E-01  0.51100000000E-03 0. -1.
         11    1    4    4    0    0  0.32782699114E-01 -0.78338591676E-02  0.11902671797E-01  0.35749257720E-01  0.51100000000E-03 0.  1.
</event>
<event>
 8    1  0.1123450E+005  0.1043930E+01  0.7957747E-01            NaN
         13   -1    0    0    0    0  0.00000000000E+00  0.00000000000E+00  0.74505805969E-08  0.10566000000E+00  0.10566000000E+00 0.  1.
     999900   -1    0    0    0    0 -0.00000000000E+00 -0.00000000000E+00 -0.74505805969E-08  0.93827000000E+00  0.93827000000E+00 0. -1.
     999902    2    1    2    0    0  0.28977638004E-02  0.18545847774E-01 -0.12763196878E-01  0.10212309978E+01  0.10209787002E+01 0.  0.
     999903    2    3    3    0    0  0.91231706682E-02  0.14286811458E-01 -0.13073423641E+00  0.13332668923E+00  0.19930385484E-01 0.  0.
         14    1    1    2    0    0 -0.28977638004E-02 -0.18545847774E-01  0.12763196878E-01  0.22699002164E-01  0.00000000000E+00 0.  1.
     999901    1    3    3    0    0 -0.62254068679E-02  0.42590363165E-02  0.11797103953E+00  0.88790430861E+00  0.88000000000E+00 0.  1.
        -11    1    4    4    0    0  0.12779516951E-01  0.16922302603E-01 -0.11549328077E+00  0.11742503737E+00  0.51100000000E-03 0. -1.
         11    1    4    4    0    0 -0.36563462829E-02 -0.26354911448E-02 -0.15240955641E-01  0.15901651850E-01  0.51100000000E-03 0.  1.
</event>
<event>
 8    1  0.1123450E+005  0.1043930E+01  0.7957747E-01            NaN
         13   -1    0    0    0    0  0.00000000000E+00  0.00000000000E+00  0.74505805969E-08  0.10566000000E+00  0.10566000000E+00 0.  1.
     999900   -1    0    0    0    0 -0.00000000000E+00 -0.00000000000E+00 -0.74505805969E-08  0.93827000000E+00  0.93827000000E+00 0.  1.
     999902    2    1    2    0    0 -0.12147250935E-01 -0.14530074788E-01 -0.16186835449E-01  0.10190163005E+01  0.10187117003E+01 0.  0.
     999903    2    3    3    0    0 -0.67851459601E-01  0.83323964787E-01 -0.70556856297E-01  0.13017746752E+00  0.20523143084E-01 0.  0.
         14    1    1    2    0    0  0.12147250935E-01  0.14530074788E-01  0.16186835449E-01  0.24913699454E-01  0.00000000000E+00 0. -1.
     999901    1    3    3    0    0  0.55704208667E-01 -0.97854039576E-01  0.54370020847E-01  0.88883883302E+00  0.88000000000E+00 0. -1.
        -11    1    4    4    0    0 -0.13919441362E-01  0.13561433464E-01 -0.43808979452E-02  0.19927787465E-01  0.51100000000E-03 0. -1.
         11    1    4    4    0    0 -0.53932018240E-01  0.69762531323E-01 -0.66175958351E-01  0.11024968006E+00  0.51100000000E-03 0.  1.
</event>
<event>
 8    1  0.1123450E+005  0.1043930E+01  0.7957747E-01            NaN
         13   -1    0    0    0    0  0.00000000000E+00  0.00000000000E+00  0.74505805969E-08  0.10566000000E+00  0.10566000000E+00 0. -1.
     999900   -1    0    0    0    0 -0.00000000000E+00 -0.00000000000E+00 -0.74505805969E-08  0.93827000000E+00  0.93827000000E+00 0.  1.
     999902    2    1    2    0    0 -0.14170603888E-01 -0.15603170154E-01  0.11355385971E-01  0.10199882013E+01  0.10197071742E+01 0.  0.
     999903    2    3    3    0    0 -0.67809235854E-01 -0.56870113999E-01 -0.94558577789E-01  0.13105747780E+00  0.20060795632E-01 0.  0.
         14    1    1    2    0    0  0.14170603888E-01  0.15603170154E-01 -0.11355385971E-01  0.23941798679E-01  0.00000000000E+00 0.  1.
     999901    1    3    3    0    0  0.53638631966E-01  0.41266943845E-01  0.10591396376E+00  0.88893072352E+00  0.88000000000E+00 0. -1.
        -11    1    4    4    0    0 -0.36756042307E-01 -0.25540536942E-01 -0.60841133844E-01  0.75532975327E-01  0.51100000000E-03 0. -1.
         11    1    4    4    0    0 -0.31053193548E-01 -0.31329577058E-01 -0.33717443945E-01  0.55524502477E-01  0.51100000000E-03 0.  1.
</event>
<event>
 8    1  0.1123450E+005  0.1043930E+01  0.7957747E-01            NaN
         13   -1    0    0    0    0  0.00000000000E+00  0.00000000000E+00  0.74505805969E-08  0.10566000000E+00  0.10566000000E+00 0.  1.
     999900   -1    0    0    0    0 -0.00000000000E+00 -0.00000000000E+00 -0.74505805969E-08  0.93827000000E+00  0.93827000000E+00 0.  1.
     999902    2    1    2    0    0 -0.10945329688E-01 -0.29549878942E-02  0.20079662219E-01  0.10208708363E+01  0.10206103759E+01 0.  0.
     999903    2    3    3    0    0 -0.80443780670E-01 -0.10298516272E+00  0.28593431546E-02  0.13231436092E+00  0.20537007427E-01 0.  0.
         14    1    1    2    0    0  0.10945329688E-01  0.29549878942E-02 -0.20079662219E-01  0.23059163694E-01  0.00000000000E+00 0. -1.
     999901    1    3    3    0    0  0.69498450982E-01  0.10003017482E+00  0.17220319064E-01  0.88855647539E+00  0.88000000000E+00 0.  1.
        -11    1    4    4    0    0 -0.41298966195E-01 -0.37616792397E-01  0.50134153001E-02  0.56089420865E-01  0.51100000000E-03 0. -1.
         11    1    4    4    0    0 -0.39144814475E-01 -0.65368370319E-01 -0.21540721455E-02  0.76224940054E-01  0.51100000000E-03 0.  1.
</event>
<event>
 8    1  0.1123450E+005  0.1043930E+01  0.7957747E-01            NaN
         13   -1    0    0    0    0  0.00000000000E+00  0.00000000000E+00  0.74505805969E-08  0.10566000000E+00  0.10566000000E+00 0. -1.
     999900   -1    0    0    0    0 -0.00000000000E+00 -0.00000000000E+00 -0.74505805969E-08  0.93827000000E+00  0.93827000000E+00 0. -1.
     999902    2    1    2    0    0 -0.22459635830E-01 -0.61004705887E-02  0.47766362413E-02  0.10201714808E+01  0.10198947901E+01 0.  0.
     999903    2    3    3    0    0  0.11321365081E+00 -0.56946667289E-01  0.56610458946E-03  0.12831369781E+00  0.20095544918E-01 0.  0.
         14    1    1    2    0    0  0.22459635830E-01  0.61004705887E-02 -0.47766362413E-02  0.23758519247E-01  0.00000000000E+00 0.  1.
     999901    1    3    3    0    0 -0.13567328664E+00  0.50846196701E-01  0.42105316519E-02  0.89185778295E+00  0.88000000000E+00 0.  1.
        -11    1    4    4    0    0  0.58299955065E-01 -0.22358256892E-01  0.81469446279E-02  0.62971503393E-01  0.51100000000E-03 0. -1.
         11    1    4    4    0    0  0.54913695744E-01 -0.34588410397E-01 -0.75808400385E-02  0.65342194413E-01  0.51100000000E-03 0.  1.
</event>
<event>
 8    1  0.1123450E+005  0.1043930E+01  0.7957747E-01            NaN
         13   -1    0    0    0    0  0.00000000000E+00  0.00000000000E+00  0.74505805969E-08  0.10566000000E+00  0.10566000000E+00 0.  1.
     999900   -1    0    0    0    0 -0.00000000000E+00 -0.00000000000E+00 -0.74505805969E-08  0.93827000000E+00  0.93827000000E+00 0.  1.
     999902    2    1    2    0    0  0.18369918554E-01  0.65043449117E-02 -0.48198306529E-03  0.10244365981E+01  0.10242511171E+01 0.  0.
     999903    2    3    3    0    0  0.25629322683E-01 -0.11482964521E+00  0.60956898257E-01  0.13395955052E+00  0.19664895899E-01 0.  0.
         14    1    1    2    0    0 -0.18369918554E-01 -0.65043449117E-02  0.48198306529E-03  0.19493401912E-01  0.00000000000E+00 0. -1.
     999901    1    3    3    0    0 -0.72594041294E-02  0.12133399012E+00 -0.61438881322E-01  0.89047704757E+00  0.88000000000E+00 0.  1.
        -11    1    4    4    0    0  0.14336894559E-01 -0.47594909336E-01  0.35918922270E-01  0.61329047265E-01  0.51100000000E-03 0. -1.
         11    1    4    4    0    0  0.11292428124E-01 -0.67234735872E-01  0.25037975986E-01  0.72630503256E-01  0.51100000000E-03 0.  1.
</event>
<event>
 8    1  0.1123450E+005  0.1043930E+01  0.7957747E-01            NaN
         13   -1    0    0    0    0  0.00000000000E+00  0.00000000000E+00  0.74505805969E-08  0.10566000000E+00  0.10566000000E+00 0. -1.
     999900   -1    0    0    0    0 -0.00000000000E+00 -0.00000000000E+00 -0.74505805969E-08  0.93827000000E+00  0.93827000000E+00 0.  1.
     999902    2    1    2    0    0 -0.16556782222E-01  0.75636323431E-02 -0.16309679228E-01  0.10194894352E+01  0.10191964321E+01 0.  0.
     999903    2    3    3    0    0  0.36781837639E-01  0.55280778638E-02  0.12014165346E+00  0.12737502658E+00  0.20172190674E-01 0.  0.
         14    1    1    2    0    0  0.16556782222E-01 -0.75636323431E-02  0.16309679228E-01  0.24440564811E-01  0.00000000000E+00 0. -1.
     999901    1    3    3    0    0 -0.53338619861E-01  0.20355544793E-02 -0.13645133269E+00  0.89211440861E+00  0.88000000000E+00 0.  1.
        -11    1    4    4    0    0  0.20497516387E-02 -0.48889949374E-02  0.89023974084E-02  0.10373888080E-01  0.51100000000E-03 0.  1.
         11    1    4    4    0    0  0.34732086000E-01  0.10417072801E-01  0.11123925605E+00  0.11700113850E+00  0.51100000000E-03 0. -1.
</event>
<event>
 8    1  0.1123450E+005  0.1043930E+01  0.7957747E-01            NaN
         13   -1    0    0    0    0  0.00000000000E+00  0.00000000000E+00  0.74505805969E-08  0.10566000000E+00  0.10566000000E+00 0.  1.
     999900   -1    0    0    0    0 -0.00000000000E+00 -0.00000000000E+00 -0.74505805969E-08  0.93827000000E+00  0.93827000000E+00 0. -1.
     999902    2    1    2    0    0  0.13928304709E-01  0.18969739163E-02 -0.18282381938E-01  0.10208683073E+01  0.10206077891E+01 0.  0.
     999903    2    3    3    0    0  0.10691932364E+00  0.61551435380E-01  0.42335079136E-01  0.13189110793E+00  0.19562322469E-01 0.  0.
         14    1    1    2    0    0 -0.13928304709E-01 -0.18969739163E-02  0.18282381938E-01  0.23061692727E-01  0.00000000000E+00 0.  1.
     999901    1    3    3    0    0 -0.92991018926E-01 -0.59654461464E-01 -0.60617461073E-01  0.88897719935E+00  0.88000000000E+00 0. -1.
        -11    1    4    4    0    0  0.43060709423E-01  0.14137042438E-01  0.17149262607E-01  0.48460695351E-01  0.51100000000E-03 0. -1.
         11    1    4    4    0    0  0.63858614212E-01  0.47414392942E-01  0.25185816529E-01  0.83430412574E-01  0.51100000000E-03 0.  1.
</event>
<event>
 8    1  0.1123450E+005  0.1043930E+01  0.7957747E-01            NaN
         13   -1    0    0    0    0  0.00000000000E+00  0.00000000000E+00  0.74505805969E-08  0.10566000000E+00  0.10566000000E+00 0. -1.
     999900   -1    0    0    0    0 -0.00000000000E+00 -0.00000000000E+00 -0.74505805969E-08  0.93827000000E+00  0.93827000000E+00 0. -1.
     999902    2    1    2    0    0 -0.17042554721E-01 -0.16114280725E-01 -0.56507188392E-03  0.10204685844E+01  0.10201988501E+01 0.  0.
     999903    2    3    3    0    0 -0.83503836821E-01 -0.42665507370E-01  0.91712844320E-01  0.13275394363E+00  0.20472602512E-01 0.  0.
         14    1    1    2    0    0  0.17042554721E-01  0.16114280725E-01  0.56507188392E-03  0.23461415578E-01  0.00000000000E+00 0. -1.
     999901    1    3    3    0    0  0.66461282100E-01  0.26551226645E-01 -0.92277916204E-01  0.88771464079E+00  0.88000000000E+00 0. -1.
        -11    1    4    4    0    0 -0.29320305650E-01 -0.26264375754E-01  0.37437151579E-01  0.54325861213E-01  0.51100000000E-03 0.  1.
         11    1    4    4    0    0 -0.54183531171E-01 -0.16401131616E-01  0.54275692740E-01  0.78428082419E-01  0.51100000000E-03 0. -1.
</event>
<event>
 8    1  0.1123450E+005  0.1043930E+01  0.7957747E-01            NaN
         13   -1    0    0    0    0  0.00000000000E+00  0.00000000000E+00  0.74505805969E-08  0.10566000000E+00  0.10566000000E+00 0. -1.
     999900   -1    0    0    0    0 -0.00000000000E+00 -0.00000000000E+00 -0.74505805969E-08  0.93827000000E+00  0.93827000000E+00 0. -1.
     999902    2    1    2    0    0 -0.23223561873E-02 -0.19033719016E-01 -0.14774039713E-01  0.10197236362E+01  0.10194362885E+01 0.  0.
     999903    2    3    3    0    0  0.13195555096E-01  0.72326908831E-01 -0.10558650833E+00  0.13021001949E+00  0.20020839634E-01 0.  0.
         14    1    1    2    0    0  0.23223561873E-02  0.19033719016E-01  0.14774039713E-01  0.24206363776E-01  0.00000000000E+00 0.  1.
     999901    1    3    3    0    0 -0.15517911283E-01 -0.91360627847E-01  0.90812468618E-01  0.88951361673E+00  0.88000000000E+00 0.  1.
        -11    1    4    4    0    0  0.16692533259E-01  0.35912306890E-01 -0.54014630740E-01  0.66978921369E-01  0.51100000000E-03 0. -1.
         11    1    4    4    0    0 -0.34969781631E-02  0.36414601941E-01 -0.51571877592E-01  0.63231098125E-01  0.51100000000E-03 0.  1.
</event>
<event>
 8    1  0.1123450E+005  0.1043930E+01  0.7957747E-01            NaN
         13   -1    0    0    0    0  0.00000000000E+00  0.00000000000E+00  0.74505805969E-08  0.10566000000E+00  0.10566000000E+00 0. -1.
     999900   -1    0    0    0    0 -0.00000000000E+00 -0.00000000000E+00 -0.74505805969E-08  0.93827000000E+00  0.93827000000E+00 0.  1.
     999902    2    1    2    0    0  0.87413501125E-02  0.27678038694E-02  0.22681047109E-01  0.10194657028E+01  0.10191721235E+01 0.  0.
     999903    2    3    3    0    0 -0.42531336908E-01 -0.25509607496E-01  0.12023380715E+00  0.13214104889E+00  0.23354522577E-01 0.  0.
         14    1    1    2    0    0 -0.87413501125E-02 -0.27678038694E-02 -0.22681047109E-01  0.24464297210E-01  0.00000000000E+00 0.  1.
     999901    1    3    3    0    0  0.51272687020E-01  0.28277411365E-01 -0.97552760046E-01  0.88732465390E+00  0.88000000000E+00 0.  1.
        -11    1    4    4    0    0 -0.42656238403E-01 -0.27681891377E-01  0.10414495358E+00  0.11589768877E+00  0.51100000000E-03 0. -1.
         11    1    4    4    0    0  0.12490149540E-03  0.21722838807E-02  0.16088853570E-01  0.16243360115E-01  0.51100000000E-03 0.  1.
</event>
<event>
 8    1  0.1123450E+005  0.1043930E+01  0.7957747E-01            NaN
         13   -1    0    0    0    0  0.00000000000E+00  0.00000000000E+00  0.74505805969E-08  0.10566000000E+00  0.10566000000E+00 0.  1.
     999900   -1    0    0    0    0 -0.00000000000E+00 -0.00000000000E+00 -0.74505805969E-08  0.93827000000E+00  0.93827000000E+00 0. -1.
     999902    2    1    2    0    0  0.13294062822E-01  0.14548673233E-01  0.12123627005E-01  0.10207917561E+01  0.10205294856E+01 0.  0.
     999903    2    3    3    0    0  0.11625372274E+00  0.23299978418E-01  0.58028680235E-01  0.13355754191E+00  0.20309412265E-01 0.  0.
         14    1    1    2    0    0 -0.13294062822E-01 -0.14548673233E-01 -0.12123627005E-01  0.23138243903E-01  0.00000000000E+00 0. -1.
     999901    1    3    3    0    0 -0.10295965992E+00 -0.87513051846E-02 -0.45905053230E-01  0.88723421419E+00  0.88000000000E+00 0. -1.
        -11    1    4    4    0    0  0.84841775761E-01  0.25646902826E-01  0.45748739479E-01  0.99745169426E-01  0.51100000000E-03 0.  1.
         11    1    4    4    0    0  0.31411946977E-01 -0.23469244080E-02  0.12279940756E-01  0.33812372484E-01  0.51100000000E-03 0. -1.
</event>
<event>
 8    1  0.1123450E+005  0.1043930E+01  0.7957747E-01            NaN
         13   -1    0    0    0    0  0.00000000000E+00  0.00000000000E+00  0.74505805969E-08  0.10566000000E+00  0.10566000000E+00 0.  1.
     999900   -1    0    0    0    0 -0.00000000000E+00 -0.00000000000E+00 -0.74505805969E-08  0.93827000000E+00  0.93827000000E+00 0. -1.
     999902    2    1    2    0    0  0.22887251167E-01  0.23355263157E-02 -0.60935345223E-02  0.10201305859E+01  0.10198529306E+01 0.  0.
     999903    2    3    3    0    0  0.27663782450E-01  0.36218415731E-01 -0.12215783510E+00  0.13185034446E+00  0.19619331306E-01 0.  0.
         14    1    1    2    0    0 -0.22887251167E-01 -0.23355263157E-02  0.60935345223E-02  0.23799414113E-01  0.00000000000E+00 0.  1.
     999901    1    3    3    0    0 -0.47765312829E-02 -0.33882889415E-01  0.11606430057E+00  0.88828024143E+00  0.88000000000E+00 0.  1.
        -11    1    4    4    0    0  0.20081292249E-01  0.29410074765E-01 -0.68235424263E-01  0.76971066261E-01  0.51100000000E-03 0.  1.
         11    1    4    4    0    0  0.75824902011E-02  0.68083409659E-02 -0.53922410833E-01  0.54879278197E-01  0.51100000000E-03 0. -1.
</event>
<event>
 8    1  0.1123450E+005  0.1043930E+01  0.7957747E-01            NaN
         13   -1    0    0    0    0  0.00000000000E+00  0.00000000000E+00  0.74505805969E-08  0.10566000000E+00  0.10566000000E+00 0.  1.
     999900   -1    0    0    0    0 -0.00000000000E+00 -0.00000000000E+00 -0.74505805969E-08  0.93827000000E+00  0.93827000000E+00 0.  1.
     999902    2    1    2    0    0 -0.22000047926E-01 -0.91733310310E-02  0.83295925711E-02  0.10186805599E+01  0.10183675903E+01 0.  0.
     999903    2    3    3    0    0  0.62960038746E-01  0.71043892943E-01  0.83190869474E-01  0.12780614111E+00  0.20062097043E-01 0.  0.
         14    1    1    2    0    0  0.22000047926E-01  0.91733310310E-02 -0.83295925711E-02  0.25249440060E-01  0.00000000000E+00 0. -1.
     999901    1    3    3    0    0 -0.84960086672E-01 -0.80217223974E-01 -0.74861276903E-01  0.89087441883E+00  0.88000000000E+00 0.  1.
        -11    1    4    4    0    0  0.29039498078E-01  0.46229102548E-01  0.52687130510E-01  0.75872374507E-01  0.51100000000E-03 0. -1.
         11    1    4    4    0    0  0.33920540668E-01  0.24814790395E-01  0.30503738964E-01  0.51933766601E-01  0.51100000000E-03 0.  1.
</event>
<event>
 8    1  0.1123450E+005  0.1043930E+01  0.7957747E-01            NaN
         13   -1    0    0    0    0  0.00000000000E+00  0.00000000000E+00  0.74505805969E-08  0.10566000000E+00  0.10566000000E+00 0. -1.
     999900   -1    0    0    0    0 -0.00000000000E+00 -0.00000000000E+00 -0.74505805969E-08  0.93827000000E+00  0.93827000000E+00 0.  1.
     999902    2    1    2    0    0 -0.90943729001E-02  0.21180372720E-01 -0.42587100923E-03  0.10208757775E+01  0.10206154300E+01 0.  0.
     999903    2    3    3    0    0 -0.11617442016E+00 -0.33141996258E-01  0.47482307861E-01  0.13143086643E+00  0.20606195067E-01 0.  0.
         14    1    1    2    0    0  0.90943729001E-02 -0.21180372720E-01  0.42587100923E-03  0.23054222458E-01  0.00000000000E+00 0.  1.
     999901    1    3    3    0    0  0.10708004726E+00  0.54322368979E-01 -0.47908178870E-01  0.88944491111E+00  0.88000000000E+00 0.  1.
        -11    1    4    4    0    0 -0.41370806776E-01 -0.17325583999E-02  0.16913430346E-01  0.44731092754E-01  0.51100000000E-03 0. -1.
         11    1    4    4    0    0 -0.74803613389E-01 -0.31409437859E-01  0.30568877515E-01  0.86699773680E-01  0.51100000000E-03 0.  1.
</event>
<event>
 8    1  0.1123450E+005  0.1043930E+01  0.7957747E-01            NaN
         13   -1    0    0    0    0  0.00000000000E+00  0.00000000000E+00  0.74505805969E-08  0.10566000000E+00  0.10566000000E+00 0. -1.
     999900   -1    0    0    0    0 -0.00000000000E+00 -0.00000000000E+00 -0.74505805969E-08  0.93827000000E+00  0.93827000000E+00 0.  1.
     999902    2    1    2    0    0  0.19044802084E-01 -0.82574894382E-02 -0.11602685747E-01  0.10201494841E+01  0.10198722749E+01 0.  0.
     999903    2    3    3    0    0 -0.86225822095E-01 -0.44843244254E-01  0.80730168268E-01  0.12832787770E+00  0.22469427577E-01 0.  0.
         14    1    1    2    0    0 -0.19044802084E-01  0.82574894382E-02  0.11602685747E-01  0.23780515865E-01  0.00000000000E+00 0.  1.
     999901    1    3    3    0    0  0.10527062418E+00  0.36585754815E-01 -0.92332854015E-01  0.89182160643E+00  0.88000000000E+00 0.  1.
        -11    1    4    4    0    0 -0.64834186715E-01 -0.41758832984E-01  0.70177853695E-01  0.10427110899E+00  0.51100000000E-03 0. -1.
         11    1    4    4    0    0 -0.21391635381E-01 -0.30844112692E-02  0.10552314573E-01  0.24056768715E-01  0.51100000000E-03 0.  1.
</event>
<event>
 8    1  0.1123450E+005  0.1043930E+01  0.7957747E-01            NaN
         13   -1    0    0    0    0  0.00000000000E+00  0.00000000000E+00  0.74505805969E-08  0.10566000000E+00  0.10566000000E+00 0.  1.
     999900   -1    0    0    0    0 -0.00000000000E+00 -0.00000000000E+00 -0.74505805969E-08  0.93827000000E+00  0.93827000000E+00 0. -1.
     999902    2    1    2    0    0 -0.58571301296E-02  0.12603516393E-01  0.14824377841E-01  0.10236096462E+01  0.10234079300E+01 0.  0.
     999903    2    3    3    0    0 -0.11449074756E+00  0.26756797429E-01  0.64156446736E-01  0.13544567983E+00  0.20135169221E-01 0.  0.
         14    1    1    2    0    0  0.58571301296E-02 -0.12603516393E-01 -0.14824377841E-01  0.20320353767E-01  0.00000000000E+00 0.  1.
     999901    1    3    3    0    0  0.10863361743E+00 -0.14153281036E-01 -0.49332068895E-01  0.88816396641E+00  0.88000000000E+00 0. -1.
        -11    1    4    4    0    0 -0.22205170319E-01  0.76236116223E-02  0.45221181513E-02  0.23914424866E-01  0.51100000000E-03 0. -1.
         11    1    4    4    0    0 -0.92285577245E-01  0.19133185807E-01  0.59634328585E-01  0.11153125496E+00  0.51100000000E-03 0.  1.
</event>
<event>
 8    1  0.1123450E+005  0.1043930E+01  0.7957747E-01            NaN
         13   -1    0    0    0    0  0.00000000000E+00  0.00000000000E+00  0.74505805969E-08  0.10566000000E+00  0.10566000000E+00 0. -1.
     999900   -1    0    0    0    0 -0.00000000000E+00 -0.00000000000E+00 -0.74505805969E-08  0.93827000000E+00  0.93827000000E+00 0. -1.
     999902    2    1    2    0    0 -0.13822787314E-01 -0.15100732784E-01  0.11355295210E-01  0.10205196538E+01  0.10202511061E+01 0.  0.
     999903    2    3    3    0    0 -0.52846051796E-01  0.50808099063E-01  0.10784951052E+00  0.13193768073E+00  0.20046609556E-01 0.  0.
         14    1    1    2    0    0  0.13822787314E-01  0.15100732784E-01 -0.11355295210E-01  0.23410346197E-01  0.00000000000E+00 0.  1.
     999901    1    3    3    0    0  0.39023264482E-01 -0.65908831848E-01 -0.96494215314E-01  0.88858197308E+00  0.88000000000E+00 0.  1.
        -11    1    4    4    0    0 -0.22312989055E-01  0.30552799110E-01  0.41630493264E-01  0.56255685085E-01  0.51100000000E-03 0.  1.
         11    1    4    4    0    0 -0.30533062741E-01  0.20255299954E-01  0.66219017260E-01  0.75681995642E-01  0.51100000000E-03 0. -1.
</event>
<event>
 8    1  0.1123450E+005  0.1043930E+01  0.7957747E-01            NaN
         13   -1    0    0    0    0  0.00000000000E+00  0.00000000000E+00  0.74505805969E-08  0.10566000000E+00  0.10566000000E+00 0.  1.
     999900   -1    0    0    0    0 -0.00000000000E+00 -0.00000000000E+00 -0.74505805969E-08  0.93827000000E+00  0.93827000000E+00 0. -1.
     999902    2    1    2    0    0 -0.83028174148E-02 -0.11699668969E-01 -0.19236498148E-01  0.10199328774E+01  0.10196505345E+01 0.  0.
     999903    2    3    3    0    0  0.26352851981E-01  0.33677787176E-01 -0.12324403927E+00  0.13197021066E+00  0.19959387053E-01 0.  0.
         14    1    1    2    0    0  0.83028174148E-02  0.11699668969E-01  0.19236498148E-01  0.23997122577E-01  0.00000000000E+00 0.  1.
     999901    1    3    3    0    0 -0.34655669396E-01 -0.45377456145E-01  0.10400754112E+00  0.88796266676E+00  0.88000000000E+00 0.  1.
        -11    1    4    4    0    0  0.27840129860E-01  0.22382284964E-01 -0.96230352449E-01  0.10264785124E+00  0.51100000000E-03 0.  1.
         11    1    4    4    0    0 -0.14872778797E-02  0.11295502212E-01 -0.27013686818E-01  0.29322359424E-01  0.51100000000E-03 0. -1.
</event>
<event>
 8    1  0.1123450E+005  0.1043930E+01  0.7957747E-01            NaN
         13   -1    0    0    0    0  0.00000000000E+00  0.00000000000E+00  0.74505805969E-08  0.10566000000E+00  0.10566000000E+00 0.  1.
     999900   -1    0    0    0    0 -0.00000000000E+00 -0.00000000000E+00 -0.74505805969E-08  0.93827000000E+00  0.93827000000E+00 0. -1.
     999902    2    1    2    0    0 -0.36538299672E-02  0.23754815115E-01 -0.42865265377E-03  0.10198919997E+01  0.10196086826E+01 0.  0.
     999903    2    3    3    0    0  0.91852643376E-01 -0.80250093778E-01 -0.33195792351E-01  0.12803315832E+00  0.20335765395E-01 0.  0.
         14    1    1    2    0    0  0.36538299672E-02 -0.23754815115E-01  0.42865265377E-03  0.24038000284E-01  0.00000000000E+00 0. -1.
     999901    1    3    3    0    0 -0.95506473343E-01  0.10400490889E+00  0.32767139697E-01  0.89185884139E+00  0.88000000000E+00 0.  1.
        -11    1    4    4    0    0  0.51509027390E-01 -0.53673265320E-01 -0.27808392254E-01  0.79420193361E-01  0.51100000000E-03 0.  1.
         11    1    4    4    0    0  0.40343615986E-01 -0.26576828458E-01 -0.53874000967E-02  0.48612964963E-01  0.51100000000E-03 0. -1.
</event>
<event>
 8    1  0.1123450E+005  0.1043930E+01  0.7957747E-01            NaN
         13   -1    0    0    0    0  0.00000000000E+00  0.00000000000E+00  0.74505805969E-08  0.10566000000E+00  0.10566000000E+00 0.  1.
     999900   -1    0    0    0    0 -0.00000000000E+00 -0.00000000000E+00 -0.74505805969E-08  0.93827000000E+00  0.93827000000E+00 0.  1.
     999902    2    1    2    0    0  0.17773999171E-02  0.18426109218E-02  0.24481726559E-01  0.10193147750E+01  0.10190175176E+01 0.  0.
     999903    2    3    3    0    0  0.10487928023E+00 -0.21786764059E-01  0.73732087546E-01  0.13161328063E+00  0.20280739480E-01 0.  0.
         14    1    1    2    0    0 -0.17773999171E-02 -0.18426109218E-02 -0.24481726559E-01  0.24615224979E-01  0.00000000000E+00 0. -1.
     999901    1    3    3    0    0 -0.10310188032E+00  0.23629374981E-01 -0.49250360988E-01  0.88770149439E+00  0.88000000000E+00 0.  1.
        -11    1    4    4    0    0  0.55322840418E-01 -0.21595029741E-01  0.42559560324E-01  0.73065308303E-01  0.51100000000E-03 0. -1.
         11    1    4    4    0    0  0.49556439815E-01 -0.19173431865E-03  0.31172527222E-01  0.58547972327E-01  0.51100000000E-03 0.  1.
</event>
<event>
 8    1  0.1123450E+005  0.1043930E+01  0.7957747E-01            NaN
         13   -1    0    0    0    0  0.00000000000E+00  0.00000000000E+00  0.74505805969E-08  0.10566000000E+00  0.10566000000E+00 0.  1.
     999900   -1    0    0    0    0 -0.00000000000E+00 -0.00000000000E+00 -0.74505805969E-08  0.93827000000E+00  0.93827000000E+00 0. -1.
     999902    2    1    2    0    0  0.47574950730E-02 -0.27120641206E-01  0.33379115851E-03  0.10163932181E+01  0.10160201275E+01 0.  0.
     999903    2    3    3    0    0 -0.82638828707E-01 -0.62300863876E-01 -0.73158088937E-01  0.12831843417E+00  0.20073388390E-01 0.  0.
         14    1    1    2    0    0 -0.47574950730E-02  0.27120641206E-01 -0.33379115851E-03  0.27536781862E-01  0.00000000000E+00 0. -1.
     999901    1    3    3    0    0  0.87396323780E-01  0.35180222670E-01  0.73491880096E-01  0.88807478397E+00  0.88000000000E+00 0.  1.
        -11    1    4    4    0    0 -0.96365370219E-02 -0.16658715057E-01 -0.11578661714E-01  0.22465577251E-01  0.51100000000E-03 0.  1.
         11    1    4    4    0    0 -0.73002291685E-01 -0.45642148819E-01 -0.61579427223E-01  0.10585285692E+00  0.51100000000E-03 0. -1.
</event>
<event>
 8    1  0.1123450E+005  0.1043930E+01  0.7957747E-01            NaN
         13   -1    0    0    0    0  0.00000000000E+00  0.00000000000E+00  0.74505805969E-08  0.10566000000E+00  0.10566000000E+00 0. -1.
     999900   -1    0    0    0    0 -0.00000000000E+00 -0.00000000000E+00 -0.74505805969E-08  0.93827000000E+00  0.93827000000E+00 0. -1.
     999902    2    1    2    0    0 -0.24762411479E-01 -0.37303593269E-02 -0.34350801578E-02  0.10186536795E+01  0.10183400347E+01 0.  0.
     999903    2    3    3    0    0  0.12240074042E+00  0.11076343640E-01  0.19268095355E-01  0.12602180357E+00  0.20139732684E-01 0.  0.
         14    1    1    2    0    0  0.24762411479E-01  0.37303593269E-02  0.34350801578E-02  0.25276320512E-01  0.00000000000E+00 0.  1.
     999901    1    3    3    0    0 -0.14716315190E+00 -0.14806702967E-01 -0.22703175513E-01  0.89263187592E+00  0.88000000000E+00 0. -1.
        -11    1    4    4    0    0  0.44210100516E-01  0.11041810775E-01  0.34499272184E-03  0.45572302046E-01  0.51100000000E-03 0. -1.
         11    1    4    4    0    0  0.78190639903E-01  0.34532865421E-04  0.18923102633E-01  0.80449501522E-01  0.51100000000E-03 0.  1.
</event>
<event>
 8    1  0.1123450E+005  0.1043930E+01  0.7957747E-01            NaN
         13   -1    0    0    0    0  0.00000000000E+00  0.00000000000E+00  0.74505805969E-08  0.10566000000E+00  0.10566000000E+00 0.  1.
     999900   -1    0    0    0    0 -0.00000000000E+00 -0.00000000000E+00 -0.74505805969E-08  0.93827000000E+00  0.93827000000E+00 0.  1.
     999902    2    1    2    0    0  0.13714186132E-01 -0.50509251428E-02 -0.18439124329E-01  0.10204014630E+01  0.10201301651E+01 0.  0.
     999903    2    3    3    0    0 -0.32721470616E-01 -0.11461093301E+00 -0.52883899615E-01  0.13172485813E+00  0.18664694154E-01 0.  0.
         14    1    1    2    0    0 -0.13714186132E-01  0.50509251428E-02  0.18439124329E-01  0.23528536973E-01  0.00000000000E+00 0.  1.
     999901    1    3    3    0    0  0.46435656748E-01  0.10956000786E+00  0.34444775286E-01  0.88867660489E+00  0.88000000000E+00 0.  1.
        -11    1    4    4    0    0 -0.47880190273E-02 -0.24204746690E-01 -0.19255773818E-01  0.31302409410E-01  0.51100000000E-03 0. -1.
         11    1    4    4    0    0 -0.27933451589E-01 -0.90406186317E-01 -0.33628125796E-01  0.10042244872E+00  0.51100000000E-03 0.  1.
</event>
<event>
 8    1  0.1123450E+005  0.1043930E+01  0.7957747E-01            NaN
         13   -1    0    0    0    0  0.00000000000E+00  0.00000000000E+00  0.74505805969E-08  0.10566000000E+00  0.10566000000E+00 0.  1.
     999900   -1    0    0    0    0 -0.00000000000E+00 -0.00000000000E+00 -0.74505805969E-08  0.93827000000E+00  0.93827000000E+00 0.  1.
     999902    2    1    2    0    0 -0.77439331449E-02 -0.13325173449E-01  0.18295011996E-01  0.10200085408E+01  0.10197279966E+01 0.  0.
     999903    2    3    3    0    0  0.11640260366E+00 -0.38910670454E-01 -0.35445235098E-01  0.12930376677E+00  0.19987320858E-01 0.  0.
         14    1    1    2    0    0  0.77439331449E-02  0.13325173449E-01 -0.18295011996E-01  0.23921459235E-01  0.00000000000E+00 0. -1.
     999901    1    3    3    0    0 -0.12414653681E+00  0.25585497005E-01  0.53740247094E-01  0.89070477399E+00  0.88000000000E+00 0. -1.
        -11    1    4    4    0    0  0.90466016515E-01 -0.23902083800E-01 -0.20403114804E-01  0.95770339713E-01  0.51100000000E-03 0. -1.
         11    1    4    4    0    0  0.25936587149E-01 -0.15008586654E-01 -0.15042120295E-01  0.33533427058E-01  0.51100000000E-03 0.  1.
</event>
<event>
 8    1  0.1123450E+005  0.1043930E+01  0.7957747E-01            NaN
         13   -1    0    0    0    0  0.00000000000E+00  0.00000000000E+00  0.74505805969E-08  0.10566000000E+00  0.10566000000E+00 0. -1.
     999900   -1    0    0    0    0 -0.00000000000E+00 -0.00000000000E+00 -0.74505805969E-08  0.93827000000E+00  0.93827000000E+00 0.  1.
     999902    2    1    2    0    0  0.18281072408E-01  0.64291007287E-03 -0.25156801677E-01  0.10128257300E+01  0.10123480053E+01 0.  0.
     999903    2    3    3    0    0  0.44074959099E-02  0.26860955372E-01 -0.12247362962E+00  0.12696432604E+00  0.19473396979E-01 0.  0.
         14    1    1    2    0    0 -0.18281072408E-01 -0.64291007287E-03  0.25156801677E-01  0.31104270002E-01  0.00000000000E+00 0. -1.
     999901    1    3    3    0    0  0.13873576498E-01 -0.26218045299E-01  0.97316827945E-01  0.88586140396E+00  0.88000000000E+00 0. -1.
        -11    1    4    4    0    0  0.92107121110E-05  0.23769491297E-01 -0.64544511046E-01  0.68784037600E-01  0.51100000000E-03 0. -1.
         11    1    4    4    0    0  0.43982851978E-02  0.30914640746E-02 -0.57929118576E-01  0.58180288438E-01  0.51100000000E-03 0.  1.
</event>
<event>
 8    1  0.1123450E+005  0.1043930E+01  0.7957747E-01            NaN
         13   -1    0    0    0    0  0.00000000000E+00  0.00000000000E+00  0.74505805969E-08  0.10566000000E+00  0.10566000000E+00 0. -1.
     999900   -1    0    0    0    0 -0.00000000000E+00 -0.00000000000E+00 -0.74505805969E-08  0.93827000000E+00  0.93827000000E+00 0.  1.
     999902    2    1    2    0    0  0.35193416868E-03 -0.14246783860E-01 -0.18989462031E-01  0.10201877512E+01  0.10199114439E+01 0.  0.
     999903    2    3    3    0    0  0.11007644152E+00 -0.71778917442E-02  0.64901559038E-01  0.12938634791E+00  0.18980767995E-01 0.  0.
         14    1    1    2    0    0 -0.35193416868E-03  0.14246783860E-01  0.18989462031E-01  0.23742248761E-01  0.00000000000E+00 0. -1.
     999901    1    3    3    0    0 -0.10972450735E+00 -0.70688921154E-02 -0.83891021070E-01  0.89080140332E+00  0.88000000000E+00 0.  1.
        -11    1    4    4    0    0  0.69371014720E-01 -0.10657693397E-01  0.48732614203E-01  0.85446198979E-01  0.51100000000E-03 0. -1.
         11    1    4    4    0    0  0.40705426798E-01  0.34798016530E-02  0.16168944835E-01  0.43940148935E-01  0.51100000000E-03 0.  1.
</event>
<event>
 8    1  0.1123450E+005  0.1043930E+01  0.7957747E-01            NaN
         13   -1    0    0    0    0  0.00000000000E+00  0.00000000000E+00  0.74505805969E-08  0.10566000000E+00  0.10566000000E+00 0. -1.
     999900   -1    0    0    0    0 -0.00000000000E+00 -0.00000000000E+00 -0.74505805969E-08  0.93827000000E+00  0.93827000000E+00 0. -1.
     999902    2    1    2    0    0  0.17208665841E-01  0.14318362193E-01  0.10120013687E-01  0.10193623719E+01  0.10190662769E+01 0.  0.
     999903    2    3    3    0    0 -0.11503119008E+00  0.25250573714E-01 -0.45121476711E-01  0.12770183386E+00  0.20051048500E-01 0.  0.
         14    1    1    2    0    0 -0.17208665841E-01 -0.14318362193E-01 -0.10120013687E-01  0.24567628150E-01  0.00000000000E+00 0. -1.
     999901    1    3    3    0    0  0.13223985593E+00 -0.10932211522E-01  0.55241490398E-01  0.89166053799E+00  0.88000000000E+00 0.  1.
        -11    1    4    4    0    0 -0.27718973821E-01  0.12070782798E-01 -0.47518929775E-02  0.30608608509E-01  0.51100000000E-03 0.  1.
         11    1    4    4    0    0 -0.87312216264E-01  0.13179790917E-01 -0.40369583734E-01  0.97093225352E-01  0.51100000000E-03 0. -1.
</event>
<event>
 8    1  0.1123450E+005  0.1043930E+01  0.7957747E-01            NaN
         13   -1    0    0    0    0  0.00000000000E+00  0.00000000000E+00  0.74505805969E-08  0.10566000000E+00  0.10566000000E+00 0. -1.
     999900   -1    0    0    0    0 -0.00000000000E+00 -0.00000000000E+00 -0.74505805969E-08  0.93827000000E+00  0.93827000000E+00 0.  1.
     999902    2    1    2    0    0  0.74847756920E-02  0.58360135663E-02 -0.27012869278E-01  0.10152982689E+01  0.10148944766E+01 0.  0.
     999903    2    3    3    0    0 -0.99809212788E-01 -0.42129882829E-01 -0.62835332791E-01  0.12676240798E+00  0.19586297366E-01 0.  0.
         14    1    1    2    0    0 -0.74847756920E-02 -0.58360135663E-02  0.27012869278E-01  0.28631731141E-01  0.00000000000E+00 0. -1.
     999901    1    3    3    0    0  0.10729398848E+00  0.47965896396E-01  0.35822463513E-01  0.88853586088E+00  0.88000000000E+00 0. -1.
        -11    1    4    4    0    0 -0.22458215047E-01 -0.17920957479E-01 -0.20668587047E-01  0.35397510528E-01  0.51100000000E-03 0. -1.
         11    1    4    4    0    0 -0.77350997741E-01 -0.24208925350E-01 -0.42166745744E-01  0.91364897449E-01  0.51100000000E-03 0.  1.
</event>
<event>
 8    1  0.1123450E+005  0.1043930E+01  0.7957747E-01            NaN
         13   -1    0    0    0    0  0.00000000000E+00  0.00000000000E+00  0.74505805969E-08  0.10566000000E+00  0.10566000000E+00 0.  1.
     999900   -1    0    0    0    0 -0.00000000000E+00 -0.00000000000E+00 -0.74505805969E-08  0.93827000000E+00  0.93827000000E+00 0.  1.
     999902    2    1    2    0    0 -0.21353267931E-01  0.35090850967E-02 -0.66951938117E-02  0.10212782595E+01  0.10210270231E+01 0.  0.
     999903    2    3    3    0    0 -0.90573369032E-02  0.80586881734E-01 -0.10288273997E+00  0.13260271648E+00  0.20550945804E-01 0.  0.
         14    1    1    2    0    0  0.21353267931E-01 -0.35090850967E-02  0.66951938117E-02  0.22651740545E-01  0.00000000000E+00 0. -1.
     999901    1    3    3    0    0 -0.12295931027E-01 -0.77077796638E-01  0.96187546158E-01  0.88867554298E+00  0.88000000000E+00 0. -1.
        -11    1    4    4    0    0 -0.52886468397E-02  0.77681696577E-01 -0.90838232339E-01  0.11964222225E+00  0.51100000000E-03 0.  1.
         11    1    4    4    0    0 -0.37686900635E-02  0.29051851575E-02 -0.12044507631E-01  0.12960494230E-01  0.51100000000E-03 0. -1.
</event>
<event>
 8    1  0.1123450E+005  0.1043930E+01  0.7957747E-01            NaN
         13   -1    0    0    0    0  0.00000000000E+00  0.00000000000E+00  0.74505805969E-08  0.10566000000E+00  0.10566000000E+00 0.  1.
     999900   -1    0    0    0    0 -0.00000000000E+00 -0.00000000000E+00 -0.74505805969E-08  0.93827000000E+00  0.93827000000E+00 0.  1.
     999902    2    1    2    0    0 -0.29093277072E-02  0.18529874002E-01 -0.15173910933E-01  0.10198039147E+01  0.10195184925E+01 0.  0.
     999903    2    3    3    0    0 -0.67351695108E-01 -0.10428538665E+00 -0.29562573312E-01  0.12882499208E+00  0.17613635126E-01 0.  0.
         14    1    1    2    0    0  0.29093277072E-02 -0.18529874002E-01  0.15173910933E-01  0.24126085286E-01  0.00000000000E+00 0. -1.
     999901    1    3    3    0    0  0.64442367401E-01  0.12281526065E+00  0.14388662380E-01  0.89097892263E+00  0.88000000000E+00 0. -1.
        -11    1    4    4    0    0 -0.20739246577E-01 -0.46142772432E-01 -0.77948274113E-02  0.51188790293E-01  0.51100000000E-03 0. -1.
         11    1    4    4    0    0 -0.46612448531E-01 -0.58142614217E-01 -0.21767745901E-01  0.77636201791E-01  0.51100000000E-03 0.  1.
</event>
<event>
 8    1  0.1123450E+005  0.1043930E+01  0.7957747E-01            NaN
         13   -1    0    0    0    0  0.00000000000E+00  0.00000000000E+00  0.74505805969E-08  0.10566000000E+00  0.10566000000E+00 0.  1.
     999900   -1    0    0    0    0 -0.00000000000E+00 -0.00000000000E+00 -0.74505805969E-08  0.93827000000E+00  0.93827000000E+00 0. -1.
     999902    2    1    2    0    0 -0.12764741143E-01 -0.75547741505E-02 -0.18352659221E-01  0.10203326839E+01  0.10200597788E+01 0.  0.
     999903    2    3    3    0    0 -0.36668045703E-01 -0.84203272297E-01 -0.94754750300E-01  0.13338080254E+00  0.19422645062E-01 0.  0.
         14    1    1    2    0    0  0.12764741143E-01  0.75547741505E-02  0.18352659221E-01  0.23597316148E-01  0.00000000000E+00 0.  1.
     999901    1    3    3    0    0  0.23903304560E-01  0.76648498146E-01  0.76402091079E-01  0.88695188131E+00  0.88000000000E+00 0.  1.
        -11    1    4    4    0    0 -0.28563988207E-01 -0.45230046950E-01 -0.47015282114E-01  0.71220477692E-01  0.51100000000E-03 0. -1.
         11    1    4    4    0    0 -0.81040574962E-02 -0.38973225347E-01 -0.47739468186E-01  0.62160324850E-01  0.51100000000E-03 0.  1.
</event>
<event>
 8    1  0.1123450E+005  0.1043930E+01  0.7957747E-01            NaN
         13   -1    0    0    0    0  0.00000000000E+00  0.00000000000E+00  0.74505805969E-08  0.10566000000E+00  0.10566000000E+00 0. -1.
     999900   -1    0    0    0    0 -0.00000000000E+00 -0.00000000000E+00 -0.74505805969E-08  0.93827000000E+00  0.93827000000E+00 0.  1.
     999902    2    1    2    0    0 -0.15379101569E-01 -0.42381217891E-02 -0.17880330039E-01  0.10199678498E+01  0.10196863390E+01 0.  0.
     999903    2    3    3    0    0 -0.83050892144E-01  0.77213423255E-01 -0.65154049355E-01  0.13235947331E+00  0.20362136673E-01 0.  0.
         14    1    1    2    0    0  0.15379101569E-01  0.42381217891E-02  0.17880330039E-01  0.23962150230E-01  0.00000000000E+00 0. -1.
     999901    1    3    3    0    0  0.67671790575E-01 -0.81451545044E-01  0.47273719316E-01  0.88760837646E+00  0.88000000000E+00 0.  1.
        -11    1    4    4    0    0 -0.25930548538E-01  0.21888527970E-01 -0.93228190761E-02  0.35194844518E-01  0.51100000000E-03 0. -1.
         11    1    4    4    0    0 -0.57120343606E-01  0.55324895286E-01 -0.55831230279E-01  0.97164628788E-01  0.51100000000E-03 0.  1.
</event>
<event>
 8    1  0.1123450E+005  0.1043930E+01  0.7957747E-01            NaN
         13   -1    0    0    0    0  0.00000000000E+00  0.00000000000E+00  0.74505805969E-08  0.10566000000E+00  0.10566000000E+00 0.  1.
     999900   -1    0    0    0    0 -0.00000000000E+00 -0.00000000000E+00 -0.74505805969E-08  0.93827000000E+00  0.93827000000E+00 0.  1.
     999902    2    1    2    0    0 -0.65567280440E-02  0.16684520497E-01 -0.15150166949E-01  0.10204589228E+01  0.10201889637E+01 0.  0.
     999903    2    3    3    0    0 -0.11389436910E+00  0.63805868795E-02 -0.64152033584E-01  0.13252383329E+00  0.20843314882E-01 0.  0.
         14    1    1    2    0    0  0.65567280440E-02 -0.16684520497E-01  0.15150166949E-01  0.23471077211E-01  0.00000000000E+00 0.  1.
     999901    1    3    3    0    0  0.10733764105E+00  0.10303933617E-01  0.49001866636E-01  0.88793508950E+00  0.88000000000E+00 0.  1.
        -11    1    4    4    0    0 -0.50251195867E-01  0.69333744297E-03 -0.16799564214E-01  0.52991979408E-01  0.51100000000E-03 0. -1.
         11    1    4    4    0    0 -0.63643173231E-01  0.56872494365E-02 -0.47352469370E-01  0.79531853879E-01  0.51100000000E-03 0.  1.
</event>
<event>
 8    1  0.1123450E+005  0.1043930E+01  0.7957747E-01            NaN
         13   -1    0    0    0    0  0.00000000000E+00  0.00000000000E+00  0.74505805969E-08  0.10566000000E+00  0.10566000000E+00 0.  1.
     999900   -1    0    0    0    0 -0.00000000000E+00 -0.00000000000E+00 -0.74505805969E-08  0.93827000000E+00  0.93827000000E+00 0.  1.
     999902    2    1    2    0    0 -0.94504460457E-02 -0.21666386128E-01 -0.60792796654E-03  0.10202844339E+01  0.10200103986E+01 0.  0.
     999903    2    3    3    0    0 -0.63227133711E-01 -0.10706550455E+00 -0.44330550494E-01  0.13343799329E+00  0.19488654202E-01 0.  0.
         14    1    1    2    0    0  0.94504460457E-02  0.21666386128E-01  0.60792796654E-03  0.23645566069E-01  0.00000000000E+00 0.  1.
     999901    1    3    3    0    0  0.53776687665E-01  0.85399118426E-01  0.43722622527E-01  0.88684644065E+00  0.88000000000E+00 0. -1.
        -11    1    4    4    0    0 -0.14707592306E-01 -0.43212838234E-01 -0.15197060329E-01  0.48113141899E-01  0.51100000000E-03 0.  1.
         11    1    4    4    0    0 -0.48519541404E-01 -0.63852666319E-01 -0.29133490164E-01  0.85324851388E-01  0.51100000000E-03 0. -1.
</event>
<event>
 8    1  0.1123450E+005  0.1043930E+01  0.7957747E-01            NaN
         13   -1    0    0    0    0  0.00000000000E+00  0.00000000000E+00  0.74505805969E-08  0.10566000000E+00  0.10566000000E+00 0. -1.
     999900   -1    0    0    0    0 -0.00000000000E+00 -0.00000000000E+00 -0.74505805969E-08  0.93827000000E+00  0.93827000000E+00 0. -1.
     999902    2    1    2    0    0  0.21520163676E-01  0.88270112127E-02 -0.44412227299E-02  0.10202496700E+01  0.10199748188E+01 0.  0.
     999903    2    3    3    0    0  0.59832765803E-01 -0.10819753894E+00  0.37346603267E-01  0.13069426234E+00  0.19988850338E-01 0.  0.
         14    1    1    2    0    0 -0.21520163676E-01 -0.88270112127E-02  0.44412227299E-02  0.23680330043E-01  0.00000000000E+00 0.  1.
     999901    1    3    3    0    0 -0.38312602127E-01  0.11702455015E+00 -0.41787825997E-01  0.88955540762E+00  0.88000000000E+00 0. -1.
        -11    1    4    4    0    0  0.28003616233E-01 -0.38209144815E-01  0.22243623839E-01  0.52337187468E-01  0.51100000000E-03 0.  1.
         11    1    4    4    0    0  0.31829149570E-01 -0.69988394121E-01  0.15102979428E-01  0.78357074872E-01  0.51100000000E-03 0. -1.
</event>
<event>
 8    1  0.1123450E+005  0.1043930E+01  0.7957747E-01            NaN
         13   -1    0    0    0    0  0.00000000000E+00  0.00000000000E+00  0.74505805969E-08  0.10566000000E+00  0.10566000000E+00 0. -1.
     999900   -1    0    0    0    0 -0.00000000000E+00 -0.00000000000E+00 -0.74505805969E-08  0.93827000000E+00  0.93827000000E+00 0.  1.
     999902    2    1    2    0    0  0.74495456750E-02  0.21801345800E-01  0.77470436494E-02  0.10196233940E+01  0.10193336326E+01 0.  0.
     999903    2    3    3    0    0  0.92275021496E-01  0.32990208250E-01 -0.83949727608E-01  0.13073147153E+00  0.20979214723E-01 0.  0.
         14    1    1    2    0    0 -0.74495456750E-02 -0.21801345800E-01 -0.77470436494E-02  0.24306605991E-01  0.00000000000E+00 0. -1.
     999901    1    3    3    0    0 -0.84825475821E-01 -0.11188862449E-01  0.91696771257E-01  0.88889192248E+00  0.88000000000E+00 0. -1.
        -11    1    4    4    0    0  0.60790724128E-01  0.12352221044E-01 -0.58655616083E-01  0.85374656215E-01  0.51100000000E-03 0. -1.
         11    1    4    4    0    0  0.31484297368E-01  0.20637987206E-01 -0.25294111525E-01  0.45356815314E-01  0.51100000000E-03 0.  1.
</event>
<event>
 7    1  0.1123450E+005  0.1043930E+01  0.7957747E-01            NaN
         13   -1    0    0    0    0  0.00000000000E+00  0.00000000000E+00  0.74505805969E-08  0.10566000000E+00  0.10566000000E+00 0. -1.
     999900   -1    0    0    0    0 -0.00000000000E+00 -0.00000000000E+00 -0.74505805969E-08  0.93827000000E+00  0.93827000000E+00 0.  1.
     999903    2    1    2    0    0  0.92163478004E-01 -0.56217751109E-01 -0.94175617105E-02  0.11008928276E+00  0.19401481711E-01 0.  0.
         14    1    1    2    0    0  0.77547486094E-02 -0.16856056353E-02  0.44890867590E-01  0.45586921210E-01  0.00000000000E+00 0. -1.
     999901    1    1    2    0    0 -0.99918226613E-01  0.57903356744E-01 -0.35473305880E-01  0.88825379603E+00  0.88000000000E+00 0. -1.
        -11    1    3    3    0    0  0.31067818542E-01 -0.11116322454E-01 -0.87665100494E-02  0.34145201614E-01  0.51100000000E-03 0.  1.
         11    1    3    3    0    0  0.61095659462E-01 -0.45101428655E-01 -0.65105166113E-03  0.75944081146E-01  0.51100000000E-03 0. -1.
</event>
<event>
 8    1  0.1123450E+005  0.1043930E+01  0.7957747E-01            NaN
         13   -1    0    0    0    0  0.00000000000E+00  0.00000000000E+00  0.74505805969E-08  0.10566000000E+00  0.10566000000E+00 0.  1.
     999900   -1    0    0    0    0 -0.00000000000E+00 -0.00000000000E+00 -0.74505805969E-08  0.93827000000E+00  0.93827000000E+00 0. -1.
     999902    2    1    2    0    0 -0.14425159262E-01 -0.19104832193E-01 -0.23360277182E-02  0.10198772068E+01  0.10195935368E+01 0.  0.
     999903    2    3    3    0    0 -0.67769062608E-01 -0.31960167483E-01 -0.10669350303E+00  0.13201386471E+00  0.20737857514E-01 0.  0.
         14    1    1    2    0    0  0.14425159262E-01  0.19104832193E-01  0.23360277182E-02  0.24052793151E-01  0.00000000000E+00 0.  1.
     999901    1    3    3    0    0  0.53343903346E-01  0.12855335290E-01  0.10435747531E+00  0.88786334214E+00  0.88000000000E+00 0.  1.
        -11    1    4    4    0    0 -0.15579822279E-01 -0.10873386670E-01 -0.42987678204E-01  0.47001733993E-01  0.51100000000E-03 0. -1.
         11    1    4    4    0    0 -0.52189240329E-01 -0.21086780812E-01 -0.63705824822E-01  0.85012130713E-01  0.51100000000E-03 0.  1.
</event>
<event>
 8    1  0.1123450E+005  0.1043930E+01  0.7957747E-01            NaN
         13   -1    0    0    0    0  0.00000000000E+00  0.00000000000E+00  0.74505805969E-08  0.10566000000E+00  0.10566000000E+00 0. -1.
     999900   -1    0    0    0    0 -0.00000000000E+00 -0.00000000000E+00 -0.74505805969E-08  0.93827000000E+00  0.93827000000E+00 0. -1.
     999902    2    1    2    0    0 -0.10848645159E-01  0.13317547395E-01  0.16376940133E-01  0.10201970200E+01  0.10199209309E+01 0.  0.
     999903    2    3    3    0    0  0.17386632033E-01 -0.51661332328E-01  0.11854507645E+00  0.13145756790E+00  0.16030245638E-01 0.  0.
         14    1    1    2    0    0  0.10848645159E-01 -0.13317547395E-01 -0.16376940133E-01  0.23732979976E-01  0.00000000000E+00 0. -1.
     999901    1    3    3    0    0 -0.28235277192E-01  0.64978879723E-01 -0.10216813632E+00  0.88873945213E+00  0.88000000000E+00 0. -1.
        -11    1    4    4    0    0  0.11249273086E-01 -0.44912777044E-01  0.86224118641E-01  0.97870135604E-01  0.51100000000E-03 0.  1.
         11    1    4    4    0    0  0.61373589462E-02 -0.67485552848E-02  0.32320957811E-01  0.33587432293E-01  0.51100000000E-03 0. -1.
</event>
<event>
 8    1  0.1123450E+005  0.1043930E+01  0.7957747E-01            NaN
         13   -1    0    0    0    0  0.00000000000E+00  0.00000000000E+00  0.74505805969E-08  0.10566000000E+00  0.10566000000E+00 0. -1.
     999900   -1    0    0    0    0 -0.00000000000E+00 -0.00000000000E+00 -0.74505805969E-08  0.93827000000E+00  0.93827000000E+00 0.  1.
     999902    2    1    2    0    0  0.11488812149E-01  0.10100845055E-01  0.18351185292E-01  0.10200388745E+01  0.10197590498E+01 0.  0.
     999903    2    3    3    0    0 -0.87945756306E-01  0.92923829433E-01  0.15870277552E-01  0.13057103639E+00  0.20679354600E-01 0.  0.
         14    1    1    2    0    0 -0.11488812149E-01 -0.10100845055E-01 -0.18351185292E-01  0.23891125487E-01  0.00000000000E+00 0.  1.
     999901    1    3    3    0    0  0.99434568455E-01 -0.82822984378E-01  0.24809077407E-02  0.88946783812E+00  0.88000000000E+00 0. -1.
        -11    1    4    4    0    0 -0.24307086492E-01  0.20447173900E-01 -0.42263315934E-02  0.32047533040E-01  0.51100000000E-03 0.  1.
         11    1    4    4    0    0 -0.63638669814E-01  0.72476655533E-01  0.20096609145E-01  0.98523503353E-01  0.51100000000E-03 0. -1.
</event>
<event>
 8    1  0.1123450E+005  0.1043930E+01  0.7957747E-01            NaN
         13   -1    0    0    0    0  0.00000000000E+00  0.00000000000E+00  0.74505805969E-08  0.10566000000E+00  0.10566000000E+00 0. -1.
     999900   -1    0    0    0    0 -0.00000000000E+00 -0.00000000000E+00 -0.74505805969E-08  0.93827000000E+00  0.93827000000E+00 0. -1.
     999902    2    1    2    0    0 -0.60035336159E-02 -0.14325639728E-01  0.18721974542E-01  0.10196034980E+01  0.10193132563E+01 0.  0.
     999903    2    3    3    0    0  0.10162830652E+00 -0.70666531780E-01  0.37770468915E-01  0.13105313123E+00  0.20645664977E-01 0.  0.
         14    1    1    2    0    0  0.60035336159E-02  0.14325639728E-01 -0.18721974542E-01  0.24326502014E-01  0.00000000000E+00 0. -1.
     999901    1    3    3    0    0 -0.10763184014E+00  0.56340892052E-01 -0.19048494372E-01  0.88855036676E+00  0.88000000000E+00 0. -1.
        -11    1    4    4    0    0  0.36326535435E-01 -0.22772067593E-01  0.23257538769E-01  0.48778668183E-01  0.51100000000E-03 0. -1.
         11    1    4    4    0    0  0.65301771086E-01 -0.47894464187E-01  0.14512930145E-01  0.82274463044E-01  0.51100000000E-03 0.  1.
</event>
<event>
 8    1  0.1123450E+005  0.1043930E+01  0.7957747E-01            NaN
         13   -1    0    0    0    0  0.00000000000E+00  0.00000000000E+00  0.74505805969E-08  0.10566000000E+00  0.10566000000E+00 0.  1.
     999900   -1    0    0    0    0 -0.00000000000E+00 -0.00000000000E+00 -0.74505805969E-08  0.93827000000E+00  0.93827000000E+00 0. -1.
     999902    2    1    2    0    0 -0.10022160779E-01 -0.20840189088E-01 -0.71998774638E-02  0.10197102679E+01  0.10194225988E+01 0.  0.
     999903    2    3    3    0    0  0.37701471490E-01 -0.65145221108E-01  0.10470364800E+00  0.13023689564E+00  0.18261826168E-01 0.  0.
         14    1    1    2    0    0  0.10022160779E-01  0.20840189088E-01  0.71998774638E-02  0.24219732109E-01  0.00000000000E+00 0.  1.
     999901    1    3    3    0    0 -0.47723632269E-01  0.44305032019E-01 -0.11190352546E+00  0.88947337225E+00  0.88000000000E+00 0. -1.
        -11    1    4    4    0    0  0.13373001115E-01 -0.32036693110E-01  0.34840399705E-01  0.49186394835E-01  0.51100000000E-03 0. -1.
         11    1    4    4    0    0  0.24328470375E-01 -0.33108527998E-01  0.69863248295E-01  0.81050500802E-01  0.51100000000E-03 0.  1.
</event>
<event>
 8    1  0.1123450E+005  0.1043930E+01  0.7957747E-01            NaN
         13   -1    0    0    0    0  0.00000000000E+00  0.00000000000E+00  0.74505805969E-08  0.10566000000E+00  0.10566000000E+00 0. -1.
     999900   -1    0    0    0    0 -0.00000000000E+00 -0.00000000000E+00 -0.74505805969E-08  0.93827000000E+00  0.93827000000E+00 0.  1.
     999902    2    1    2    0    0  0.10203136700E-01  0.10715368668E-01  0.18058835364E-01  0.10205838085E+01  0.10203167476E+01 0.  0.
     999903    2    3    3    0    0 -0.46680606700E-01 -0.11352121689E+00  0.37090248814E-01  0.12983542416E+00  0.20381488768E-01 0.  0.
         14    1    1    2    0    0 -0.10203136700E-01 -0.10715368668E-01 -0.18058835364E-01  0.23346191530E-01  0.00000000000E+00 0.  1.
     999901    1    3    3    0    0  0.56883743400E-01  0.12423658555E+00 -0.19031413449E-01  0.89074838431E+00  0.88000000000E+00 0.  1.
        -11    1    4    4    0    0 -0.23503641910E-02 -0.22614706169E-01  0.22109023407E-02  0.22849471703E-01  0.51100000000E-03 0.  1.
         11    1    4    4    0    0 -0.44330242509E-01 -0.90906510718E-01  0.34879346473E-01  0.10698595246E+00  0.51100000000E-03 0. -1.
</event>
<event>
 8    1  0.1123450E+005  0.1043930E+01  0.7957747E-01            NaN
         13   -1    0    0    0    0  0.00000000000E+00  0.00000000000E+00  0.74505805969E-08  0.10566000000E+00  0.10566000000E+00 0.  1.
     999900   -1    0    0    0    0 -0.00000000000E+00 -0.00000000000E+00 -0.74505805969E-08  0.93827000000E+00  0.93827000000E+00 0.  1.
     999902    2    1    2    0    0  0.97032446338E-02 -0.25013374762E-01 -0.18067438741E-02  0.10170397379E+01  0.10166841900E+01 0.  0.
     999903    2    3    3    0    0  0.11808923099E+00  0.42966856126E-01 -0.11027705433E-01  0.12774009211E+00  0.20117247429E-01 0.  0.
         14    1    1    2    0    0 -0.97032446338E-02  0.25013374762E-01  0.18067438741E-02  0.26890262119E-01  0.00000000000E+00 0.  1.
     999901    1    3    3    0    0 -0.10838598636E+00 -0.67980230888E-01  0.92209615587E-02  0.88929964577E+00  0.88000000000E+00 0. -1.
        -11    1    4    4    0    0  0.11672527120E+00  0.40371007382E-01 -0.12964073866E-01  0.12418911186E+00  0.51100000000E-03 0.  1.
         11    1    4    4    0    0  0.13639597956E-02  0.25958487443E-02  0.19363684335E-02  0.35509802502E-02  0.51100000000E-03 0. -1.
</event>
<event>
 8    1  0.1123450E+005  0.1043930E+01  0.7957747E-01            NaN
         13   -1    0    0    0    0  0.00000000000E+00  0.00000000000E+00  0.74505805969E-08  0.10566000000E+00  0.10566000000E+00 0.  1.
     999900   -1    0    0    0    0 -0.00000000000E+00 -0.00000000000E+00 -0.74505805969E-08  0.93827000000E+00  0.93827000000E+00 0. -1.
     999902    2    1    2    0    0  0.21931769690E-01 -0.69490436128E-03 -0.88577504338E-02  0.10202668397E+01  0.10199923916E+01 0.  0.
     999903    2    3    3    0    0 -0.76103249887E-01 -0.73403992359E-01  0.69942255354E-01  0.12835489478E+00  0.20080069508E-01 0.  0.
         14    1    1    2    0    0 -0.21931769690E-01  0.69490436128E-03  0.88577504338E-02  0.23663160325E-01  0.00000000000E+00 0.  1.
     999901    1    3    3    0    0  0.98035019577E-01  0.72709087998E-01 -0.78800005788E-01  0.89191194490E+00  0.88000000000E+00 0.  1.
        -11    1    4    4    0    0 -0.58862518067E-02 -0.11867640373E-01  0.33523736565E-02  0.13674369400E-01  0.51100000000E-03 0.  1.
         11    1    4    4    0    0 -0.70216998080E-01 -0.61536351987E-01  0.66589881697E-01  0.11468052538E+00  0.51100000000E-03 0. -1.
</event>
<event>
 7    1  0.1123450E+005  0.1043930E+01  0.7957747E-01            NaN
         13   -1    0    0    0    0  0.00000000000E+00  0.00000000000E+00  0.74505805969E-08  0.10566000000E+00  0.10566000000E+00 0. -1.
     999900   -1    0    0    0    0 -0.00000000000E+00 -0.00000000000E+00 -0.74505805969E-08  0.93827000000E+00  0.93827000000E+00 0.  1.
     999902    2    1    2    0    0 -0.17486000162E-01  0.19507169399E-01  0.10866287060E-01  0.10155686521E+01  0.10151725573E+01 0.  0.
         14    1    1    2    0    0  0.17486000162E-01 -0.19507169399E-01 -0.10866287060E-01  0.28361347889E-01  0.00000000000E+00 0.  1.
     999901    1    3    3    0    0 -0.21690468171E-01  0.26668650069E-01 -0.11013536392E+00  0.88753112153E+00  0.88000000000E+00 0.  1.
        -11    1    3    3    0    0  0.21193716702E-01 -0.10711178689E-01  0.57697668493E-01  0.62395392835E-01  0.51100000000E-03 0. -1.
         11    1    3    3    0    0 -0.16989248693E-01  0.35496980188E-02  0.63303982489E-01  0.65642137741E-01  0.51100000000E-03 0.  1.
</event>
<event>
 8    1  0.1123450E+005  0.1043930E+01  0.7957747E-01            NaN
         13   -1    0    0    0    0  0.00000000000E+00  0.00000000000E+00  0.74505805969E-08  0.10566000000E+00  0.10566000000E+00 0.  1.
     999900   -1    0    0    0    0 -0.00000000000E+00 -0.00000000000E+00 -0.74505805969E-08  0.93827000000E+00  0.93827000000E+00 0. -1.
     999902    2    1    2    0    0 -0.10916352990E-02  0.95474141227E-02 -0.23313354333E-01  0.10187137895E+01  0.10184016534E+01 0.  0.
     999903    2    3    3    0    0 -0.50990297398E-01  0.82288435865E-01 -0.87401656493E-01  0.13198471967E+00  0.20236589710E-01 0.  0.
         14    1    1    2    0    0  0.10916352990E-02 -0.95474141227E-02  0.23313354333E-01  0.25216210546E-01  0.00000000000E+00 0.  1.
     999901    1    3    3    0    0  0.49898662099E-01 -0.72741021742E-01  0.64088302160E-01  0.88672906978E+00  0.88000000000E+00 0.  1.
        -11    1    4    4    0    0 -0.39162609673E-01  0.59982510912E-01 -0.75467283990E-01  0.10405375383E+00  0.51100000000E-03 0.  1.
         11    1    4    4    0    0 -0.11827687724E-01  0.22305924954E-01 -0.11934372503E-01  0.27930965844E-01  0.51100000000E-03 0. -1.
</event>
<event>
 8    1  0.1123450E+005  0.1043930E+01  0.7957747E-01            NaN
         13   -1    0    0    0    0  0.00000000000E+00  0.00000000000E+00  0.74505805969E-08  0.10566000000E+00  0.10566000000E+00 0.  1.
     999900   -1    0    0    0    0 -0.00000000000E+00 -0.00000000000E+00 -0.74505805969E-08  0.93827000000E+00  0.93827000000E+00 0.  1.
     999902    2    1    2    0    0  0.41757082289E-02  0.16047997424E-01 -0.20654852929E-01  0.10174423102E+01  0.10170974668E+01 0.  0.
     999903    2    3    3    0    0 -0.98898525870E-01  0.41278359001E-01 -0.70295021522E-01  0.12967825642E+00  0.19754462677E-01 0.  0.
         14    1    1    2    0    0 -0.41757082289E-02 -0.16047997424E-01  0.20654852929E-01  0.26487689783E-01  0.00000000000E+00 0.  1.
     999901    1    3    3    0    0  0.10307423410E+00 -0.25230361576E-01  0.49640168593E-01  0.88776405380E+00  0.88000000000E+00 0. -1.
        -11    1    4    4    0    0 -0.46951274552E-01  0.15041667538E-01 -0.21741987097E-01  0.53885518168E-01  0.51100000000E-03 0.  1.
         11    1    4    4    0    0 -0.51947251319E-01  0.26236691463E-01 -0.48553034425E-01  0.75792738249E-01  0.51100000000E-03 0. -1.
</event>
<event>
 7    1  0.1123450E+005  0.1043930E+01  0.7957747E-01            NaN
         13   -1    0    0    0    0  0.00000000000E+00  0.00000000000E+00  0.74505805969E-08  0.10566000000E+00  0.10566000000E+00 0.  1.
     999900   -1    0    0    0    0 -0.00000000000E+00 -0.00000000000E+00 -0.74505805969E-08  0.93827000000E+00  0.93827000000E+00 0.  1.
     999903    2    1    2    0    0  0.22592555973E-01  0.39605977298E-01  0.60772926334E-02  0.49986764510E-01  0.19562364818E-01 0.  0.
         14    1    1    2    0    0  0.65292125095E-01 -0.80772544623E-01 -0.30576759063E-01  0.10826912653E+00  0.00000000000E+00 0. -1.
     999901    1    1    2    0    0 -0.87884681068E-01  0.41166567326E-01  0.24499466430E-01  0.88567410896E+00  0.88000000000E+00 0. -1.
        -11    1    3    3    0    0  0.98107674148E-02  0.23126718659E-01 -0.60656304017E-02  0.25848583450E-01  0.51100000000E-03 0. -1.
         11    1    3    3    0    0  0.12781788558E-01  0.16479258639E-01  0.12142923035E-01  0.24138181060E-01  0.51100000000E-03 0.  1.
</event>
<event>
 8    1  0.1123450E+005  0.1043930E+01  0.7957747E-01            NaN
         13   -1    0    0    0    0  0.00000000000E+00  0.00000000000E+00  0.74505805969E-08  0.10566000000E+00  0.10566000000E+00 0. -1.
     999900   -1    0    0    0    0 -0.00000000000E+00 -0.00000000000E+00 -0.74505805969E-08  0.93827000000E+00  0.93827000000E+00 0.  1.
     999902    2    1    2    0    0  0.14892989406E-01  0.67548401116E-02  0.17465498992E-01  0.10200035992E+01  0.10197229378E+01 0.  0.
     999903    2    3    3    0    0  0.10482824014E+00  0.29856105726E-01  0.74089543225E-01  0.13330844295E+00  0.20038302504E-01 0.  0.
         14    1    1    2    0    0 -0.14892989406E-01 -0.67548401116E-02 -0.17465498992E-01  0.23926400762E-01  0.00000000000E+00 0.  1.
     999901    1    3    3    0    0 -0.89935250732E-01 -0.23101265614E-01 -0.56624044233E-01  0.88669515629E+00  0.88000000000E+00 0.  1.
        -11    1    4    4    0    0  0.62565073153E-01  0.22855007927E-01  0.34684123956E-01  0.75099862461E-01  0.51100000000E-03 0.  1.
         11    1    4    4    0    0  0.42263166985E-01  0.70010977990E-02  0.39405419269E-01  0.58208580491E-01  0.51100000000E-03 0. -1.
</event>
<event>
 8    1  0.1123450E+005  0.1043930E+01  0.7957747E-01            NaN
         13   -1    0    0    0    0  0.00000000000E+00  0.00000000000E+00  0.74505805969E-08  0.10566000000E+00  0.10566000000E+00 0.  1.
     999900   -1    0    0    0    0 -0.00000000000E+00 -0.00000000000E+00 -0.74505805969E-08  0.93827000000E+00  0.93827000000E+00 0. -1.
     999902    2    1    2    0    0 -0.19011454212E-01  0.10948200466E-01  0.94473574757E-02  0.10200437896E+01  0.10197640814E+01 0.  0.
     999903    2    3    3    0    0  0.74591144828E-01 -0.42569466647E-03 -0.10210203549E+00  0.12800450844E+00  0.19907496749E-01 0.  0.
         14    1    1    2    0    0  0.19011454212E-01 -0.10948200466E-01 -0.94473574757E-02  0.23886210415E-01  0.00000000000E+00 0.  1.
     999901    1    3    3    0    0 -0.93602599040E-01  0.11373895132E-01  0.11154939297E+00  0.89203928115E+00  0.88000000000E+00 0.  1.
        -11    1    4    4    0    0  0.52132266372E-01 -0.75141200854E-03 -0.54819661626E-01  0.75655761438E-01  0.51100000000E-03 0. -1.
         11    1    4    4    0    0  0.22458878456E-01  0.32571734208E-03 -0.47282373864E-01  0.52348747000E-01  0.51100000000E-03 0.  1.
</event>
<event>
 8    1  0.1123450E+005  0.1043930E+01  0.7957747E-01            NaN
         13   -1    0    0    0    0  0.00000000000E+00  0.00000000000E+00  0.74505805969E-08  0.10566000000E+00  0.10566000000E+00 0. -1.
     999900   -1    0    0    0    0 -0.00000000000E+00 -0.00000000000E+00 -0.74505805969E-08  0.93827000000E+00  0.93827000000E+00 0.  1.
     999902    2    1    2    0    0 -0.18675123795E-03 -0.21515540909E-01  0.92808460658E-02  0.10204973843E+01  0.10202283194E+01 0.  0.
     999903    2    3    3    0    0 -0.14464559768E-01  0.65793078743E-01  0.10973231663E+00  0.13037539890E+00  0.20459976176E-01 0.  0.
         14    1    1    2    0    0  0.18675123795E-03  0.21515540909E-01 -0.92808460658E-02  0.23432615738E-01  0.00000000000E+00 0.  1.
     999901    1    3    3    0    0  0.14277808530E-01 -0.87308619652E-01 -0.10045147057E+00  0.89012198536E+00  0.88000000000E+00 0.  1.
        -11    1    4    4    0    0 -0.13598540880E-01  0.17884687706E-01  0.36100955261E-01  0.42524374894E-01  0.51100000000E-03 0.  1.
         11    1    4    4    0    0 -0.86601888819E-03  0.47908391037E-01  0.73631361373E-01  0.87851024007E-01  0.51100000000E-03 0. -1.
</event>
<event>
 8    1  0.1123450E+005  0.1043930E+01  0.7957747E-01            NaN
         13   -1    0    0    0    0  0.00000000000E+00  0.00000000000E+00  0.74505805969E-08  0.10566000000E+00  0.10566000000E+00 0. -1.
     999900   -1    0    0    0    0 -0.00000000000E+00 -0.00000000000E+00 -0.74505805969E-08  0.93827000000E+00  0.93827000000E+00 0.  1.
     999902    2    1    2    0    0  0.21369106647E-01  0.10650806138E-01 -0.49523298148E-02  0.10195454975E+01  0.10192538533E+01 0.  0.
     999903    2    3    3    0    0  0.19470499808E-01  0.99625992017E-01  0.80188317212E-01  0.13096847881E+00  0.20448412586E-01 0.  0.
         14    1    1    2    0    0 -0.21369106647E-01 -0.10650806138E-01  0.49523298148E-02  0.24384502473E-01  0.00000000000E+00 0. -1.
     999901    1    3    3    0    0  0.18986068386E-02 -0.88975185879E-01 -0.85140647027E-01  0.88857701871E+00  0.88000000000E+00 0.  1.
        -11    1    4    4    0    0  0.22481275123E-01  0.66247360730E-01  0.56479504770E-01  0.89912825086E-01  0.51100000000E-03 0.  1.
         11    1    4    4    0    0 -0.30107753153E-02  0.33378631287E-01  0.23708812442E-01  0.41055653727E-01  0.51100000000E-03 0. -1.
</event>
<event>
 8    1  0.1123450E+005  0.1043930E+01  0.7957747E-01            NaN
         13   -1    0    0    0    0  0.00000000000E+00  0.00000000000E+00  0.74505805969E-08  0.10566000000E+00  0.10566000000E+00 0. -1.
     999900   -1    0    0    0    0 -0.00000000000E+00 -0.00000000000E+00 -0.74505805969E-08  0.93827000000E+00  0.93827000000E+00 0.  1.
     999902    2    1    2    0    0  0.14641909671E-01 -0.26017783544E-02 -0.16404545241E-01  0.10217880969E+01  0.10215481638E+01 0.  0.
     999903    2    3    3    0    0 -0.58800645964E-01 -0.51379400605E-01 -0.10577868364E+00  0.13287820154E+00  0.19238704739E-01 0.  0.
         14    1    1    2    0    0 -0.14641909671E-01  0.26017783544E-02  0.16404545241E-01  0.22141903125E-01  0.00000000000E+00 0. -1.
     999901    1    3    3    0    0  0.73442555636E-01  0.48777622251E-01  0.89374138396E-01  0.88890989534E+00  0.88000000000E+00 0.  1.
        -11    1    4    4    0    0 -0.34991910241E-01 -0.21141999013E-01 -0.65117892901E-01  0.76889654710E-01  0.51100000000E-03 0. -1.
         11    1    4    4    0    0 -0.23808735723E-01 -0.30237401592E-01 -0.40660790737E-01  0.55988546830E-01  0.51100000000E-03 0.  1.
</event>
<event>
 8    1  0.1123450E+005  0.1043930E+01  0.7957747E-01            NaN
         13   -1    0    0    0    0  0.00000000000E+00  0.00000000000E+00  0.74505805969E-08  0.10566000000E+00  0.10566000000E+00 0. -1.
     999900   -1    0    0    0    0 -0.00000000000E+00 -0.00000000000E+00 -0.74505805969E-08  0.93827000000E+00  0.93827000000E+00 0.  1.
     999902    2    1    2    0    0 -0.13793790377E-01  0.86314901914E-02  0.15644593615E-01  0.10213573487E+01  0.10211078832E+01 0.  0.
     999903    2    3    3    0    0  0.56411878521E-01 -0.30905891490E-01 -0.10996306186E+00  0.12879400442E+00  0.18935322402E-01 0.  0.
         14    1    1    2    0    0  0.13793790377E-01 -0.86314901914E-02 -0.15644593615E-01  0.22572651268E-01  0.00000000000E+00 0.  1.
     999901    1    3    3    0    0 -0.70205668898E-01  0.39537381681E-01  0.12560765547E+00  0.89256334431E+00  0.88000000000E+00 0. -1.
        -11    1    4    4    0    0  0.16307547065E-01 -0.18972095696E-01 -0.45843599886E-01  0.52228088975E-01  0.51100000000E-03 0. -1.
         11    1    4    4    0    0  0.40104331456E-01 -0.11933795794E-01 -0.64119461971E-01  0.76565915446E-01  0.51100000000E-03 0.  1.
</event>
<event>
 8    1  0.1123450E+005  0.1043930E+01  0.7957747E-01            NaN
         13   -1    0    0    0    0  0.00000000000E+00  0.00000000000E+00  0.74505805969E-08  0.10566000000E+00  0.10566000000E+00 0.  1.
     999900   -1    0    0    0    0 -0.00000000000E+00 -0.00000000000E+00 -0.74505805969E-08  0.93827000000E+00  0.93827000000E+00 0. -1.
     999902    2    1    2    0    0  0.16003178403E-01  0.94843606890E-02 -0.11815127509E-01  0.10218924853E+01  0.10216548338E+01 0.  0.
     999903    2    3    3    0    0  0.83923138639E-01  0.17122665139E-01  0.99012130924E-01  0.13231160313E+00  0.19148874419E-01 0.  0.
         14    1    1    2    0    0 -0.16003178403E-01 -0.94843606890E-02  0.11815127509E-01  0.22037514713E-01  0.00000000000E+00 0.  1.
     999901    1    3    3    0    0 -0.67919960236E-01 -0.76383044501E-02 -0.11082725843E+00  0.88958088216E+00  0.88000000000E+00 0. -1.
        -11    1    4    4    0    0  0.20597984679E-01  0.12812837512E-01  0.28931036723E-01  0.37758598819E-01  0.51100000000E-03 0.  1.
         11    1    4    4    0    0  0.63325153960E-01  0.43098276273E-02  0.70081094201E-01  0.94553004308E-01  0.51100000000E-03 0. -1.
</event>
<event>
 8    1  0.1123450E+005  0.1043930E+01  0.7957747E-01            NaN
         13   -1    0    0    0    0  0.00000000000E+00  0.00000000000E+00  0.74505805969E-08  0.10566000000E+00  0.10566000000E+00 0. -1.
     999900   -1    0    0    0    0 -0.00000000000E+00 -0.00000000000E+00 -0.74505805969E-08  0.93827000000E+00  0.93827000000E+00 0.  1.
     999902    2    1    2    0    0  0.69923472072E-02  0.19221334447E-01  0.11961091738E-01  0.10202356899E+01  0.10199605103E+01 0.  0.
     999903    2    3    3    0    0 -0.24362257586E-01  0.12253052796E+00 -0.36338761564E-01  0.13232309476E+00  0.24117336863E-01 0.  0.
         14    1    1    2    0    0 -0.69923472072E-02 -0.19221334447E-01 -0.11961091738E-01  0.23694310139E-01  0.00000000000E+00 0.  1.
     999901    1    3    3    0    0  0.31354604793E-01 -0.10330919352E+00  0.48299853302E-01  0.88791259510E+00  0.88000000000E+00 0. -1.
        -11    1    4    4    0    0 -0.30212225430E-02  0.59199237105E-01 -0.25862793212E-01  0.64674745096E-01  0.51100000000E-03 0. -1.
         11    1    4    4    0    0 -0.21341035043E-01  0.63331290859E-01 -0.10475968352E-01  0.67648349666E-01  0.51100000000E-03 0.  1.
</event>
<event>
 8    1  0.1123450E+005  0.1043930E+01  0.7957747E-01            NaN
         13   -1    0    0    0    0  0.00000000000E+00  0.00000000000E+00  0.74505805969E-08  0.10566000000E+00  0.10566000000E+00 0.  1.
     999900   -1    0    0    0    0 -0.00000000000E+00 -0.00000000000E+00 -0.74505805969E-08  0.93827000000E+00  0.93827000000E+00 0. -1.
     999902    2    1    2    0    0 -0.23805261830E-01  0.43254966850E-02 -0.12928858338E-02  0.10197004320E+01  0.10194125264E+01 0.  0.
     999903    2    3    3    0    0 -0.27105853416E-01  0.75678025394E-01 -0.10119822645E+00  0.13117178622E+00  0.22429125001E-01 0.  0.
         14    1    1    2    0    0  0.23805261830E-01 -0.43254966850E-02  0.12928858338E-02  0.24229568014E-01  0.00000000000E+00 0.  1.
     999901    1    3    3    0    0  0.33005915863E-02 -0.71352528709E-01  0.99905340612E-01  0.88852864576E+00  0.88000000000E+00 0.  1.
        -11    1    4    4    0    0  0.19835958341E-02  0.22357681218E-01 -0.22829223841E-01  0.32019293310E-01  0.51100000000E-03 0.  1.
         11    1    4    4    0    0 -0.29089449250E-01  0.53320344177E-01 -0.78369002605E-01  0.99152492914E-01  0.51100000000E-03 0. -1.
</event>
<event>
 8    1  0.1123450E+005  0.1043930E+01  0.7957747E-01            NaN
         13   -1    0    0    0    0  0.00000000000E+00  0.00000000000E+00  0.74505805969E-08  0.10566000000E+00  0.10566000000E+00 0. -1.
     999900   -1    0    0    0    0 -0.00000000000E+00 -0.00000000000E+00 -0.74505805969E-08  0.93827000000E+00  0.93827000000E+00 0. -1.
     999902    2    1    2    0    0 -0.21053283418E-01 -0.10353233962E-01  0.55718090345E-03  0.10204621359E+01  0.10201922515E+01 0.  0.
     999903    2    3    3    0    0 -0.11130462639E+00 -0.57823860676E-01  0.41548140745E-01  0.13362560973E+00  0.19930801722E-01 0.  0.
         14    1    1    2    0    0  0.21053283418E-01  0.10353233962E-01 -0.55718090345E-03  0.23467864128E-01  0.00000000000E+00 0. -1.
     999901    1    3    3    0    0  0.90251342973E-01  0.47470626714E-01 -0.40990959841E-01  0.88683652614E+00  0.88000000000E+00 0. -1.
        -11    1    4    4    0    0 -0.78610892577E-01 -0.50157082964E-01  0.27496418230E-01  0.97219954432E-01  0.51100000000E-03 0. -1.
         11    1    4    4    0    0 -0.32693733813E-01 -0.76667777116E-02  0.14051722514E-01  0.36405655299E-01  0.51100000000E-03 0.  1.
</event>
<event>
 8    1  0.1123450E+005  0.1043930E+01  0.7957747E-01            NaN
         13   -1    0    0    0    0  0.00000000000E+00  0.00000000000E+00  0.74505805969E-08  0.10566000000E+00  0.10566000000E+00 0.  1.
     999900   -1    0    0    0    0 -0.00000000000E+00 -0.00000000000E+00 -0.74505805969E-08  0.93827000000E+00  0.93827000000E+00 0.  1.
     999902    2    1    2    0    0  0.35594423762E-02  0.90961687917E-02 -0.21607697566E-01  0.10202170814E+01  0.10199414643E+01 0.  0.
     999903    2    3    3    0    0 -0.10624011376E+00 -0.27523103429E-01  0.63862916688E-01  0.12853208118E+00  0.19938424463E-01 0.  0.
         14    1    1    2    0    0 -0.35594423762E-02 -0.90961687917E-02  0.21607697566E-01  0.23712918649E-01  0.00000000000E+00 0.  1.
     999901    1    3    3    0    0  0.10979955614E+00  0.36619272221E-01 -0.85470614254E-01  0.89168500017E+00  0.88000000000E+00 0.  1.
        -11    1    4    4    0    0 -0.67016323522E-01 -0.78847158203E-02  0.42391010519E-01  0.79690747617E-01  0.51100000000E-03 0. -1.
         11    1    4    4    0    0 -0.39223790242E-01 -0.19638387609E-01  0.21471906169E-01  0.48841333564E-01  0.51100000000E-03 0.  1.
</event>
<event>
 8    1  0.1123450E+005  0.1043930E+01  0.7957747E-01            NaN
         13   -1    0    0    0    0  0.00000000000E+00  0.00000000000E+00  0.74505805969E-08  0.10566000000E+00  0.10566000000E+00 0.  1.
     999900   -1    0    0    0    0 -0.00000000000E+00 -0.00000000000E+00 -0.74505805969E-08  0.93827000000E+00  0.93827000000E+00 0.  1.
     999902    2    1    2    0    0  0.12799368078E-01 -0.19348681677E-01 -0.91834935456E-02  0.10189794116E+01  0.10186738975E+01 0.  0.
     999903    2    3    3    0    0  0.11885198180E+00  0.16299578035E-01 -0.48478487018E-01  0.13102555484E+00  0.20641281323E-01 0.  0.
         14    1    1    2    0    0 -0.12799368078E-01  0.19348681677E-01  0.91834935456E-02  0.24950588360E-01  0.00000000000E+00 0.  1.
     999901    1    3    3    0    0 -0.10605261372E+00 -0.35648259712E-01  0.39294993472E-01  0.88795385680E+00  0.88000000000E+00 0. -1.
        -11    1    4    4    0    0  0.85379188825E-01  0.24708566086E-02 -0.36336650463E-01  0.92824157980E-01  0.51100000000E-03 0. -1.
         11    1    4    4    0    0  0.33472792976E-01  0.13828721427E-01 -0.12141836555E-01  0.38201396857E-01  0.51100000000E-03 0.  1.
</event>
<event>
 8    1  0.1123450E+005  0.1043930E+01  0.7957747E-01            NaN
         13   -1    0    0    0    0  0.00000000000E+00  0.00000000000E+00  0.74505805969E-08  0.10566000000E+00  0.10566000000E+00 0.  1.
     999900   -1    0    0    0    0 -0.00000000000E+00 -0.00000000000E+00 -0.74505805969E-08  0.93827000000E+00  0.93827000000E+00 0.  1.
     999902    2    1    2    0    0  0.59461253834E-03 -0.11933337404E-01  0.20742060579E-01  0.10199927658E+01  0.10197118471E+01 0.  0.
     999903    2    3    3    0    0  0.12200597851E+00 -0.42649507917E-01  0.42566923106E-02  0.13097309766E+00  0.20770015968E-01 0.  0.
         14    1    1    2    0    0 -0.59461253834E-03  0.11933337404E-01 -0.20742060579E-01  0.23937234233E-01  0.00000000000E+00 0. -1.
     999901    1    3    3    0    0 -0.12141136597E+00  0.30716170513E-01  0.16485368269E-01  0.88901966811E+00  0.88000000000E+00 0. -1.
        -11    1    4    4    0    0  0.10500139746E+00 -0.42128918751E-01  0.84178959653E-02  0.11345158156E+00  0.51100000000E-03 0. -1.
         11    1    4    4    0    0  0.17004581047E-01 -0.52058916563E-03 -0.41612036547E-02  0.17521516102E-01  0.51100000000E-03 0.  1.
</event>
<event>
 8    1  0.1123450E+005  0.1043930E+01  0.7957747E-01            NaN
         13   -1    0    0    0    0  0.00000000000E+00  0.00000000000E+00  0.74505805969E-08  0.10566000000E+00  0.10566000000E+00 0. -1.
     999900   -1    0    0    0    0 -0.00000000000E+00 -0.00000000000E+00 -0.74505805969E-08  0.93827000000E+00  0.93827000000E+00 0. -1.
     999902    2    1    2    0    0 -0.16822807926E-01  0.13163597632E-01  0.11227548154E-01  0.10197981744E+01  0.10195126147E+01 0.  0.
     999903    2    3    3    0    0 -0.32507302662E-02 -0.72890704497E-01 -0.10324459813E+00  0.12811806557E+00  0.20764624601E-01 0.  0.
         14    1    1    2    0    0  0.16822807926E-01 -0.13163597632E-01 -0.11227548154E-01  0.24131825597E-01  0.00000000000E+00 0. -1.
     999901    1    3    3    0    0 -0.13572077660E-01  0.86054302128E-01  0.11447214628E+00  0.89168010883E+00  0.88000000000E+00 0.  1.
        -11    1    4    4    0    0  0.85939435569E-02 -0.22709244689E-01 -0.34084110046E-01  0.41851563159E-01  0.51100000000E-03 0. -1.
         11    1    4    4    0    0 -0.11844673823E-01 -0.50181459808E-01 -0.69160488080E-01  0.86266502415E-01  0.51100000000E-03 0.  1.
</event>
<event>
 8    1  0.1123450E+005  0.1043930E+01  0.7957747E-01            NaN
         13   -1    0    0    0    0  0.00000000000E+00  0.00000000000E+00  0.74505805969E-08  0.10566000000E+00  0.10566000000E+00 0. -1.
     999900   -1    0    0    0    0 -0.00000000000E+00 -0.00000000000E+00 -0.74505805969E-08  0.93827000000E+00  0.93827000000E+00 0. -1.
     999902    2    1    2    0    0  0.61732506475E-03 -0.22606927515E-01  0.94812070279E-02  0.10194076113E+01  0.10191126191E+01 0.  0.
     999903    2    3    3    0    0 -0.73650007289E-01  0.70751285555E-01 -0.73569247799E-01  0.12748341570E+00  0.20236577691E-01 0.  0.
         14    1    1    2    0    0 -0.61732506475E-03  0.22606927515E-01 -0.94812070279E-02  0.24522388722E-01  0.00000000000E+00 0.  1.
     999901    1    3    3    0    0  0.74267332354E-01 -0.93358213070E-01  0.83050454827E-01  0.89192419557E+00  0.88000000000E+00 0. -1.
        -11    1    4    4    0    0 -0.23030303385E-01  0.34742091024E-01 -0.24805037026E-01  0.48507306105E-01  0.51100000000E-03 0.  1.
         11    1    4    4    0    0 -0.50619703904E-01  0.36009194530E-01 -0.48764210773E-01  0.78976109599E-01  0.51100000000E-03 0. -1.
</event>
<event>
 8    1  0.1123450E+005  0.1043930E+01  0.7957747E-01            NaN
         13   -1    0    0    0    0  0.00000000000E+00  0.00000000000E+00  0.74505805969E-08  0.10566000000E+00  0.10566000000E+00 0. -1.
     999900   -1    0    0    0    0 -0.00000000000E+00 -0.00000000000E+00 -0.74505805969E-08  0.93827000000E+00  0.93827000000E+00 0. -1.
     999902    2    1    2    0    0 -0.11857239197E-01  0.43023529055E-02  0.19754927558E-01  0.10204915375E+01  0.10202223368E+01 0.  0.
     999903    2    3    3    0    0  0.10669911369E+00  0.45804638552E-01 -0.51771265255E-01  0.12869893560E+00  0.20009656274E-01 0.  0.
         14    1    1    2    0    0  0.11857239197E-01 -0.43023529055E-02 -0.19754927558E-01  0.23438462508E-01  0.00000000000E+00 0.  1.
     999901    1    3    3    0    0 -0.11855635289E+00 -0.41502285646E-01  0.71526192812E-01  0.89179260189E+00  0.88000000000E+00 0.  1.
        -11    1    4    4    0    0  0.52733272767E-01  0.18604429246E-01 -0.14779834297E-01  0.57841399249E-01  0.51100000000E-03 0.  1.
         11    1    4    4    0    0  0.53965840925E-01  0.27200209306E-01 -0.36991430958E-01  0.70857536355E-01  0.51100000000E-03 0. -1.
</event>
<event>
 8    1  0.1123450E+005  0.1043930E+01  0.7957747E-01            NaN
         13   -1    0    0    0    0  0.00000000000E+00  0.00000000000E+00  0.74505805969E-08  0.10566000000E+00  0.10566000000E+00 0. -1.
     999900   -1    0    0    0    0 -0.00000000000E+00 -0.00000000000E+00 -0.74505805969E-08  0.93827000000E+00  0.93827000000E+00 0. -1.
     999902    2    1    2    0    0 -0.49481919180E-02 -0.18117149053E-01 -0.10058942839E-01  0.10226251174E+01  0.10224031654E+01 0.  0.
     999903    2    3    3    0    0 -0.48381689374E-02  0.16152476096E-01  0.12836538923E+00  0.13114560833E+00  0.20909018854E-01 0.  0.
         14    1    1    2    0    0  0.49481919180E-02  0.18117149053E-01  0.10058942839E-01  0.21304882635E-01  0.00000000000E+00 0.  1.
     999901    1    3    3    0    0 -0.11002298057E-03 -0.34269625149E-01 -0.13842433207E+00  0.89147950903E+00  0.88000000000E+00 0. -1.
        -11    1    4    4    0    0 -0.87897583752E-02 -0.73635964238E-03  0.30508587302E-01  0.31762196051E-01  0.51100000000E-03 0.  1.
         11    1    4    4    0    0  0.39515894377E-02  0.16888835739E-01  0.97856801932E-01  0.99383412283E-01  0.51100000000E-03 0. -1.
</event>
<event>
 8    1  0.1123450E+005  0.1043930E+01  0.7957747E-01            NaN
         13   -1    0    0    0    0  0.00000000000E+00  0.00000000000E+00  0.74505805969E-08  0.10566000000E+00  0.10566000000E+00 0. -1.
     999900   -1    0    0    0    0 -0.00000000000E+00 -0.00000000000E+00 -0.74505805969E-08  0.93827000000E+00  0.93827000000E+00 0.  1.
     999902    2    1    2    0    0 -0.17985460737E-01  0.12991707674E-01  0.70185666237E-02  0.10206593845E+01  0.10203940698E+01 0.  0.
     999903    2    3    3    0    0  0.98500447009E-01  0.71319221780E-01 -0.40707570019E-01  0.12978966920E+00  0.19987058742E-01 0.  0.
         14    1    1    2    0    0  0.17985460737E-01 -0.12991707674E-01 -0.70185666237E-02  0.23270615455E-01  0.00000000000E+00 0.  1.
     999901    1    3    3    0    0 -0.11648590775E+00 -0.58327514106E-01  0.47726136643E-01  0.89086971535E+00  0.88000000000E+00 0.  1.
        -11    1    4    4    0    0  0.37780951497E-01  0.16094934120E-01 -0.15960718285E-01  0.44061920629E-01  0.51100000000E-03 0.  1.
         11    1    4    4    0    0  0.60719495512E-01  0.55224287661E-01 -0.24746851735E-01  0.85727748568E-01  0.51100000000E-03 0. -1.
</event>
<event>
 8    1  0.1123450E+005  0.1043930E+01  0.7957747E-01            NaN
         13   -1    0    0    0    0  0.00000000000E+00  0.00000000000E+00  0.74505805969E-08  0.10566000000E+00  0.10566000000E+00 0. -1.
     999900   -1    0    0    0    0 -0.00000000000E+00 -0.00000000000E+00 -0.74505805969E-08  0.93827000000E+00  0.93827000000E+00 0. -1.
     999902    2    1    2    0    0  0.19580618324E-01  0.90462723580E-02 -0.13393968895E-01  0.10185403553E+01  0.10182238561E+01 0.  0.
     999903    2    3    3    0    0  0.19404917237E-01 -0.11381670171E+00  0.50763884321E-01  0.12769156259E+00  0.19934161738E-01 0.  0.
         14    1    1    2    0    0 -0.19580618324E-01 -0.90462723580E-02  0.13393968895E-01  0.25389644745E-01  0.00000000000E+00 0.  1.
     999901    1    3    3    0    0  0.17570108708E-03  0.12286297407E+00 -0.64157853216E-01  0.89084879267E+00  0.88000000000E+00 0. -1.
        -11    1    4    4    0    0  0.12472516543E-01 -0.24568836591E-01  0.14104294180E-01  0.30957771813E-01  0.51100000000E-03 0.  1.
         11    1    4    4    0    0  0.69324006945E-02 -0.89247865117E-01  0.36659590141E-01  0.96733790774E-01  0.51100000000E-03 0. -1.
</event>
<event>
 8    1  0.1123450E+005  0.1043930E+01  0.7957747E-01            NaN
         13   -1    0    0    0    0  0.00000000000E+00  0.00000000000E+00  0.74505805969E-08  0.10566000000E+00  0.10566000000E+00 0. -1.
     999900   -1    0    0    0    0 -0.00000000000E+00 -0.00000000000E+00 -0.74505805969E-08  0.93827000000E+00  0.93827000000E+00 0.  1.
     999902    2    1    2    0    0  0.23733914821E-01 -0.36011527564E-02 -0.50901157249E-02  0.10193907194E+01  0.10190953157E+01 0.  0.
     999903    2    3    3    0    0 -0.98257925079E-01 -0.38719727611E-01 -0.69494643928E-01  0.12795184514E+00  0.19706140997E-01 0.  0.
         14    1    1    2    0    0 -0.23733914821E-01  0.36011527564E-02  0.50901157249E-02  0.24539280593E-01  0.00000000000E+00 0. -1.
     999901    1    3    3    0    0  0.12199183990E+00  0.35118574854E-01  0.64404528203E-01  0.89143887427E+00  0.88000000000E+00 0. -1.
        -11    1    4    4    0    0 -0.12110890233E-01 -0.12204799961E-01 -0.13168060542E-01  0.21663096356E-01  0.51100000000E-03 0. -1.
         11    1    4    4    0    0 -0.86147034846E-01 -0.26514927650E-01 -0.56326583387E-01  0.10628874878E+00  0.51100000000E-03 0.  1.
</event>
<event>
 8    1  0.1123450E+005  0.1043930E+01  0.7957747E-01            NaN
         13   -1    0    0    0    0  0.00000000000E+00  0.00000000000E+00  0.74505805969E-08  0.10566000000E+00  0.10566000000E+00 0.  1.
     999900   -1    0    0    0    0 -0.00000000000E+00 -0.00000000000E+00 -0.74505805969E-08  0.93827000000E+00  0.93827000000E+00 0. -1.
     999902    2    1    2    0    0 -0.96114625542E-02  0.20477222625E-01 -0.27536213669E-01  0.10082937836E+01  0.10076638398E+01 0.  0.
     999903    2    3    3    0    0 -0.10778086334E+00  0.50071271602E-01 -0.21937888738E-01  0.12232291484E+00  0.18915014898E-01 0.  0.
         14    1    1    2    0    0  0.96114625542E-02 -0.20477222625E-01  0.27536213669E-01  0.35636216439E-01  0.00000000000E+00 0.  1.
     999901    1    3    3    0    0  0.98169400790E-01 -0.29594048977E-01 -0.55983249312E-02  0.88597086872E+00  0.88000000000E+00 0.  1.
        -11    1    4    4    0    0 -0.62936805482E-01  0.37446736251E-01 -0.78846138539E-02  0.73659539754E-01  0.51100000000E-03 0.  1.
         11    1    4    4    0    0 -0.44844057863E-01  0.12624535351E-01 -0.14053274884E-01  0.48663375082E-01  0.51100000000E-03 0. -1.
</event>
<event>
 8    1  0.1123450E+005  0.1043930E+01  0.7957747E-01            NaN
         13   -1    0    0    0    0  0.00000000000E+00  0.00000000000E+00  0.74505805969E-08  0.10566000000E+00  0.10566000000E+00 0.  1.
     999900   -1    0    0    0    0 -0.00000000000E+00 -0.00000000000E+00 -0.74505805969E-08  0.93827000000E+00  0.93827000000E+00 0. -1.
     999902    2    1    2    0    0  0.58625000975E-02 -0.15775057511E-01  0.17966966941E-01  0.10193122575E+01  0.10190149385E+01 0.  0.
     999903    2    3    3    0    0  0.58600940029E-01 -0.11366816239E+00  0.30157310494E-01  0.13223108445E+00  0.14868591199E-01 0.  0.
         14    1    1    2    0    0 -0.58625000975E-02  0.15775057511E-01 -0.17966966941E-01  0.24617742543E-01  0.00000000000E+00 0. -1.
     999901    1    3    3    0    0 -0.52738439932E-01  0.97893104881E-01 -0.12190343553E-01  0.88708117301E+00  0.88000000000E+00 0. -1.
        -11    1    4    4    0    0  0.24582381460E-01 -0.60633111674E-01  0.19928042384E-01  0.68396313524E-01  0.51100000000E-03 0. -1.
         11    1    4    4    0    0  0.34018558569E-01 -0.53035050719E-01  0.10229268110E-01  0.63834770924E-01  0.51100000000E-03 0.  1.
</event>
<event>
 8    1  0.1123450E+005  0.1043930E+01  0.7957747E-01            NaN
         13   -1    0    0    0    0  0.00000000000E+00  0.00000000000E+00  0.74505805969E-08  0.10566000000E+00  0.10566000000E+00 0.  1.
     999900   -1    0    0    0    0 -0.00000000000E+00 -0.00000000000E+00 -0.74505805969E-08  0.93827000000E+00  0.93827000000E+00 0. -1.
     999902    2    1    2    0    0 -0.84229867704E-02  0.16280954158E-01 -0.24967985763E-01  0.10129555511E+01  0.10124818675E+01 0.  0.
     999903    2    3    3    0    0 -0.95213843176E-01 -0.86107581744E-02 -0.80393531724E-01  0.12660108401E+00  0.20612943543E-01 0.  0.
         14    1    1    2    0    0  0.84229867704E-02 -0.16280954158E-01  0.24967985763E-01  0.30974448946E-01  0.00000000000E+00 0.  1.
     999901    1    3    3    0    0  0.86790856406E-01  0.24891712332E-01  0.55425545961E-01  0.88635446704E+00  0.88000000000E+00 0.  1.
        -11    1    4    4    0    0 -0.73991611849E-01  0.17544594435E-02 -0.63989449321E-01  0.97840418526E-01  0.51100000000E-03 0. -1.
         11    1    4    4    0    0 -0.21222231327E-01 -0.10365217618E-01 -0.16404082404E-01  0.28760665487E-01  0.51100000000E-03 0.  1.
</event>
<event>
 8    1  0.1123450E+005  0.1043930E+01  0.7957747E-01            NaN
         13   -1    0    0    0    0  0.00000000000E+00  0.00000000000E+00  0.74505805969E-08  0.10566000000E+00  0.10566000000E+00 0. -1.
     999900   -1    0    0    0    0 -0.00000000000E+00 -0.00000000000E+00 -0.74505805969E-08  0.93827000000E+00  0.93827000000E+00 0.  1.
     999902    2    1    2    0    0 -0.16734518512E-01  0.53502418837E-02  0.15118703549E-01  0.10207514669E+01  0.10204882718E+01 0.  0.
     999903    2    3    3    0    0 -0.56685566849E-01 -0.42836122955E-01  0.11113622035E+00  0.13331844098E+00  0.19348393073E-01 0.  0.
         14    1    1    2    0    0  0.16734518512E-01 -0.53502418837E-02 -0.15118703549E-01  0.23178533065E-01  0.00000000000E+00 0.  1.
     999901    1    3    3    0    0  0.39951048338E-01  0.48186364839E-01 -0.96017516797E-01  0.88743302595E+00  0.88000000000E+00 0. -1.
        -11    1    4    4    0    0 -0.33799193912E-01 -0.30384645388E-01  0.54436027686E-01  0.70916531329E-01  0.51100000000E-03 0. -1.
         11    1    4    4    0    0 -0.22886372938E-01 -0.12451477567E-01  0.56700192659E-01  0.62401909654E-01  0.51100000000E-03 0.  1.
</event>
<event>
 7    1  0.1123450E+005  0.1043930E+01  0.7957747E-01            NaN
         13   -1    0    0    0    0  0.00000000000E+00  0.00000000000E+00  0.74505805969E-08  0.10566000000E+00  0.10566000000E+00 0.  1.
     999900   -1    0    0    0    0 -0.00000000000E+00 -0.00000000000E+00 -0.74505805969E-08  0.93827000000E+00  0.93827000000E+00 0. -1.
     999902    2    1    2    0    0  0.20711449690E-01 -0.12720030538E-01  0.12859900634E-02  0.10195903801E+01  0.10192998215E+01 0.  0.
         14    1    1    2    0    0 -0.20711449690E-01  0.12720030538E-01 -0.12859900634E-02  0.24339619874E-01  0.00000000000E+00 0.  1.
     999901    1    3    3    0    0  0.61147062057E-01 -0.63792441663E-01  0.10262912724E+00  0.89036013869E+00  0.88000000000E+00 0.  1.
        -11    1    3    3    0    0 -0.19331299235E-01  0.49578058094E-01 -0.47328113495E-01  0.71217234027E-01  0.51100000000E-03 0.  1.
         11    1    3    3    0    0 -0.21104313132E-01  0.14943530307E-02 -0.54015023686E-01  0.58013007408E-01  0.51100000000E-03 0. -1.
</event>
<event>
 8    1  0.1123450E+005  0.1043930E+01  0.7957747E-01            NaN
         13   -1    0    0    0    0  0.00000000000E+00  0.00000000000E+00  0.74505805969E-08  0.10566000000E+00  0.10566000000E+00 0. -1.
     999900   -1    0    0    0    0 -0.00000000000E+00 -0.00000000000E+00 -0.74505805969E-08  0.93827000000E+00  0.93827000000E+00 0.  1.
     999902    2    1    2    0    0 -0.29784040032E-03  0.16767128722E-01  0.15907005242E-01  0.10208159755E+01  0.10205542600E+01 0.  0.
     999903    2    3    3    0    0  0.98526953704E-01 -0.10881291895E-01 -0.80893058790E-01  0.12958030097E+00  0.20528134837E-01 0.  0.
         14    1    1    2    0    0  0.29784040032E-03 -0.16767128722E-01 -0.15907005242E-01  0.23114024536E-01  0.00000000000E+00 0.  1.
     999901    1    3    3    0    0 -0.98824794104E-01  0.27648420616E-01  0.96800064033E-01  0.89123567449E+00  0.88000000000E+00 0. -1.
        -11    1    4    4    0    0  0.55319260906E-01 -0.12646607457E-01 -0.55770166956E-01  0.79565884339E-01  0.51100000000E-03 0. -1.
         11    1    4    4    0    0  0.43207692797E-01  0.17653155626E-02 -0.25122891834E-01  0.50014416632E-01  0.51100000000E-03 0.  1.
</event>
<event>
 8    1  0.1123450E+005  0.1043930E+01  0.7957747E-01            NaN
         13   -1    0    0    0    0  0.00000000000E+00  0.00000000000E+00  0.74505805969E-08  0.10566000000E+00  0.10566000000E+00 0. -1.
     999900   -1    0    0    0    0 -0.00000000000E+00 -0.00000000000E+00 -0.74505805969E-08  0.93827000000E+00  0.93827000000E+00 0. -1.
     999902    2    1    2    0    0 -0.58722164191E-02 -0.23944527496E-01 -0.11406938789E-01  0.10167649199E+01  0.10164019681E+01 0.  0.
     999903    2    3    3    0    0 -0.12623311206E+00 -0.83709187171E-02  0.53601049824E-02  0.12827720688E+00  0.20529009212E-01 0.  0.
         14    1    1    2    0    0  0.58722164191E-02  0.23944527496E-01  0.11406938789E-01  0.27165080070E-01  0.00000000000E+00 0. -1.
     999901    1    3    3    0    0  0.12036089564E+00 -0.15573608779E-01 -0.16767043772E-01  0.88848771305E+00  0.88000000000E+00 0. -1.
        -11    1    4    4    0    0 -0.43881698729E-01  0.39911924119E-02  0.87772935482E-02  0.44931448933E-01  0.51100000000E-03 0. -1.
         11    1    4    4    0    0 -0.82351413327E-01 -0.12362111129E-01 -0.34171885659E-02  0.83345757944E-01  0.51100000000E-03 0.  1.
</event>
<event>
 8    1  0.1123450E+005  0.1043930E+01  0.7957747E-01            NaN
         13   -1    0    0    0    0  0.00000000000E+00  0.00000000000E+00  0.74505805969E-08  0.10566000000E+00  0.10566000000E+00 0. -1.
     999900   -1    0    0    0    0 -0.00000000000E+00 -0.00000000000E+00 -0.74505805969E-08  0.93827000000E+00  0.93827000000E+00 0. -1.
     999902    2    1    2    0    0  0.32999502957E-02  0.15541104289E-01 -0.14960771988E-01  0.10221070696E+01  0.10218740731E+01 0.  0.
     999903    2    3    3    0    0 -0.72646765799E-01  0.10668669712E+00  0.26163307569E-01  0.13319390581E+00  0.19912156006E-01 0.  0.
         14    1    1    2    0    0 -0.32999502957E-02 -0.15541104289E-01  0.14960771988E-01  0.21822930439E-01  0.00000000000E+00 0.  1.
     999901    1    3    3    0    0  0.75946716094E-01 -0.91145592834E-01 -0.41124079557E-01  0.88891316376E+00  0.88000000000E+00 0. -1.
        -11    1    4    4    0    0 -0.15717058195E-01  0.30388520978E-01 -0.88572852899E-03  0.34227675375E-01  0.51100000000E-03 0. -1.
         11    1    4    4    0    0 -0.56929707603E-01  0.76298176145E-01  0.27049036098E-01  0.98966230431E-01  0.51100000000E-03 0.  1.
</event>
<event>
 8    1  0.1123450E+005  0.1043930E+01  0.7957747E-01            NaN
         13   -1    0    0    0    0  0.00000000000E+00  0.00000000000E+00  0.74505805969E-08  0.10566000000E+00  0.10566000000E+00 0. -1.
     999900   -1    0    0    0    0 -0.00000000000E+00 -0.00000000000E+00 -0.74505805969E-08  0.93827000000E+00  0.93827000000E+00 0. -1.
     999902    2    1    2    0    0 -0.17303855190E-01  0.14999449285E-01  0.99855987115E-02  0.10189476249E+01  0.10186413222E+01 0.  0.
     999903    2    3    3    0    0 -0.64051997785E-01  0.11805736324E-01 -0.11002940085E+00  0.12956627321E+00  0.20950328671E-01 0.  0.
         14    1    1    2    0    0  0.17303855190E-01 -0.14999449285E-01 -0.99855987115E-02  0.24982375086E-01  0.00000000000E+00 0.  1.
     999901    1    3    3    0    0  0.46748142595E-01  0.31937129611E-02  0.12001499956E+00  0.88938135170E+00  0.88000000000E+00 0.  1.
        -11    1    4    4    0    0 -0.28994604966E-01 -0.11082389739E-02 -0.32945372132E-01  0.43904145324E-01  0.51100000000E-03 0. -1.
         11    1    4    4    0    0 -0.35057392819E-01  0.12913975297E-01 -0.77084028720E-01  0.85662127886E-01  0.51100000000E-03 0.  1.
</event>
<event>
 8    1  0.1123450E+005  0.1043930E+01  0.7957747E-01            NaN
         13   -1    0    0    0    0  0.00000000000E+00  0.00000000000E+00  0.74505805969E-08  0.10566000000E+00  0.10566000000E+00 0.  1.
     999900   -1    0    0    0    0 -0.00000000000E+00 -0.00000000000E+00 -0.74505805969E-08  0.93827000000E+00  0.93827000000E+00 0. -1.
     999902    2    1    2    0    0  0.22373069153E-01  0.58311601174E-02 -0.58197732396E-02  0.10200883052E+01  0.10198096508E+01 0.  0.
     999903    2    3    3    0    0 -0.12144225462E+00  0.25567355750E-01 -0.23939717305E-01  0.12801168451E+00  0.20297054449E-01 0.  0.
         14    1    1    2    0    0 -0.22373069153E-01 -0.58311601174E-02  0.58197732396E-02  0.23841694827E-01  0.00000000000E+00 0.  1.
     999901    1    3    3    0    0  0.14381532377E+00 -0.19736195633E-01  0.18119944065E-01  0.89207662067E+00  0.88000000000E+00 0.  1.
        -11    1    4    4    0    0 -0.16801519808E-01  0.78589363967E-02  0.22682344263E-02  0.18693848121E-01  0.51100000000E-03 0. -1.
         11    1    4    4    0    0 -0.10464073481E+00  0.17708419353E-01 -0.26207951731E-01  0.10931783639E+00  0.51100000000E-03 0.  1.
</event>
<event>
 8    1  0.1123450E+005  0.1043930E+01  0.7957747E-01            NaN
         13   -1    0    0    0    0  0.00000000000E+00  0.00000000000E+00  0.74505805969E-08  0.10566000000E+00  0.10566000000E+00 0. -1.
     999900   -1    0    0    0    0 -0.00000000000E+00 -0.00000000000E+00 -0.74505805969E-08  0.93827000000E+00  0.93827000000E+00 0. -1.
     999902    2    1    2    0    0 -0.68943960988E-03  0.16721119435E-01  0.96775134882E-02  0.10245980206E+01  0.10244156277E+01 0.  0.
     999903    2    3    3    0    0 -0.78140024131E-01 -0.82924062616E-01 -0.63591340665E-01  0.13258003848E+00  0.23480725370E-01 0.  0.
         14    1    1    2    0    0  0.68943960988E-03 -0.16721119435E-01 -0.96775134882E-02  0.19331979450E-01  0.00000000000E+00 0.  1.
     999901    1    3    3    0    0  0.77450584521E-01  0.99645182050E-01  0.73268854153E-01  0.89201798207E+00  0.88000000000E+00 0.  1.
        -11    1    4    4    0    0 -0.60009222830E-01 -0.76093952214E-01 -0.51648225184E-01  0.10981437371E+00  0.51100000000E-03 0. -1.
         11    1    4    4    0    0 -0.18130801301E-01 -0.68301104018E-02 -0.11943115481E-01  0.22765664768E-01  0.51100000000E-03 0.  1.
</event>
<event>
 8    1  0.1123450E+005  0.1043930E+01  0.7957747E-01            NaN
         13   -1    0    0    0    0  0.00000000000E+00  0.00000000000E+00  0.74505805969E-08  0.10566000000E+00  0.10566000000E+00 0. -1.
     999900   -1    0    0    0    0 -0.00000000000E+00 -0.00000000000E+00 -0.74505805969E-08  0.93827000000E+00  0.93827000000E+00 0.  1.
     999902    2    1    2    0    0  0.59207901872E-02  0.18749440606E-01  0.14485043855E-01  0.10195084158E+01  0.10192158732E+01 0.  0.
     999903    2    3    3    0    0  0.55828784920E-01 -0.86578522308E-01  0.75719519664E-01  0.12971380537E+00  0.21898216729E-01 0.  0.
         14    1    1    2    0    0 -0.59207901872E-02 -0.18749440606E-01 -0.14485043855E-01  0.24421584202E-01  0.00000000000E+00 0.  1.
     999901    1    3    3    0    0 -0.49907994733E-01  0.10532796291E+00 -0.61234475809E-01  0.88979461042E+00  0.88000000000E+00 0.  1.
        -11    1    4    4    0    0  0.36641188401E-02 -0.19895818605E-01  0.19362545467E-01  0.28007831991E-01  0.51100000000E-03 0.  1.
         11    1    4    4    0    0  0.52164666080E-01 -0.66682703703E-01  0.56356974197E-01  0.10170597338E+00  0.51100000000E-03 0. -1.
</event>
<event>
 8    1  0.1123450E+005  0.1043930E+01  0.7957747E-01            NaN
         13   -1    0    0    0    0  0.00000000000E+00  0.00000000000E+00  0.74505805969E-08  0.10566000000E+00  0.10566000000E+00 0. -1.
     999900   -1    0    0    0    0 -0.00000000000E+00 -0.00000000000E+00 -0.74505805969E-08  0.93827000000E+00  0.93827000000E+00 0. -1.
     999902    2    1    2    0    0 -0.11946483642E-01  0.22756781708E-01  0.30631432078E-03  0.10182262374E+01  0.10179017571E+01 0.  0.
     999903    2    3    3    0    0  0.49908875222E-01 -0.13537995865E-01 -0.11504801082E+00  0.12780497941E+00  0.20588705886E-01 0.  0.
         14    1    1    2    0    0  0.11946483642E-01 -0.22756781708E-01 -0.30631432078E-03  0.25703762635E-01  0.00000000000E+00 0. -1.
     999901    1    3    3    0    0 -0.61855358864E-01  0.36294777573E-01  0.11535432514E+00  0.89042125796E+00  0.88000000000E+00 0.  1.
        -11    1    4    4    0    0  0.13480632730E-02 -0.30952861025E-02 -0.22603828477E-01  0.22860276758E-01  0.51100000000E-03 0. -1.
         11    1    4    4    0    0  0.48560811949E-01 -0.10442709763E-01 -0.92444182339E-01  0.10494470265E+00  0.51100000000E-03 0.  1.
</event>
<event>
 8    1  0.1123450E+005  0.1043930E+01  0.7957747E-01            NaN
         13   -1    0    0    0    0  0.00000000000E+00  0.00000000000E+00  0.74505805969E-08  0.10566000000E+00  0.10566000000E+00 0.  1.
     999900   -1    0    0    0    0 -0.00000000000E+00 -0.00000000000E+00 -0.74505805969E-08  0.93827000000E+00  0.93827000000E+00 0.  1.
     999902    2    1    2    0    0  0.23627600867E-02 -0.12952060728E-01  0.19139052206E-01  0.10206998078E+01  0.10204354246E+01 0.  0.
     999903    2    3    3    0    0  0.81013750742E-01  0.14042776249E-01  0.10255769164E+00  0.13285220318E+00  0.19266561687E-01 0.  0.
         14    1    1    2    0    0 -0.23627600867E-02  0.12952060728E-01 -0.19139052206E-01  0.23230192244E-01  0.00000000000E+00 0. -1.
     999901    1    3    3    0    0 -0.78650990656E-01 -0.26994836977E-01 -0.83418639437E-01  0.88784760458E+00  0.88000000000E+00 0.  1.
        -11    1    4    4    0    0  0.96215411539E-02  0.65312806882E-02  0.22425006224E-01  0.25266058394E-01  0.51100000000E-03 0.  1.
         11    1    4    4    0    0  0.71392209588E-01  0.75114955612E-02  0.80132685419E-01  0.10758614478E+00  0.51100000000E-03 0. -1.
</event>
<event>
 8    1  0.1123450E+005  0.1043930E+01  0.7957747E-01            NaN
         13   -1    0    0    0    0  0.00000000000E+00  0.00000000000E+00  0.74505805969E-08  0.10566000000E+00  0.10566000000E+00 0.  1.
     999900   -1    0    0    0    0 -0.00000000000E+00 -0.00000000000E+00 -0.74505805969E-08  0.93827000000E+00  0.93827000000E+00 0.  1.
     999902    2    1    2    0    0 -0.17712131550E-01 -0.57783759059E-02 -0.14106890387E-01  0.10205609267E+01  0.10202933360E+01 0.  0.
     999903    2    3    3    0    0 -0.29524952829E-01  0.10121416689E+00 -0.76619259135E-01  0.13180069848E+00  0.19618430862E-01 0.  0.
         14    1    1    2    0    0  0.17712131550E-01  0.57783759059E-02  0.14106890387E-01  0.23369073335E-01  0.00000000000E+00 0.  1.
     999901    1    3    3    0    0  0.11812821279E-01 -0.10699254280E+00  0.62512368747E-01  0.88876022819E+00  0.88000000000E+00 0. -1.
        -11    1    4    4    0    0 -0.27767168220E-01  0.61785110701E-01 -0.49933530326E-01  0.84154822245E-01  0.51100000000E-03 0. -1.
         11    1    4    4    0    0 -0.17577846088E-02  0.39429056191E-01 -0.26685728809E-01  0.47645876232E-01  0.51100000000E-03 0.  1.
</event>
<event>
 8    1  0.1123450E+005  0.1043930E+01  0.7957747E-01            NaN
         13   -1    0    0    0    0  0.00000000000E+00  0.00000000000E+00  0.74505805969E-08  0.10566000000E+00  0.10566000000E+00 0. -1.
     999900   -1    0    0    0    0 -0.00000000000E+00 -0.00000000000E+00 -0.74505805969E-08  0.93827000000E+00  0.93827000000E+00 0.  1.
     999902    2    1    2    0    0  0.25696160934E-01 -0.32278534107E-03 -0.11199509830E-02  0.10182074191E+01  0.10178824574E+01 0.  0.
     999903    2    3    3    0    0 -0.70501984538E-01 -0.60105435022E-01 -0.84588437215E-01  0.12703120950E+00  0.19963249560E-01 0.  0.
         14    1    1    2    0    0 -0.25696160934E-01  0.32278534107E-03  0.11199509830E-02  0.25722580884E-01  0.00000000000E+00 0. -1.
     999901    1    3    3    0    0  0.96198145472E-01  0.59782649681E-01  0.83468486232E-01  0.89117620962E+00  0.88000000000E+00 0. -1.
        -11    1    4    4    0    0 -0.95752587864E-02 -0.13376841762E-01 -0.24569310749E-01  0.29572582370E-01  0.51100000000E-03 0. -1.
         11    1    4    4    0    0 -0.60926725752E-01 -0.46728593260E-01 -0.60019126466E-01  0.97458627128E-01  0.51100000000E-03 0.  1.
</event>
<event>
 8    1  0.1123450E+005  0.1043930E+01  0.7957747E-01            NaN
         13   -1    0    0    0    0  0.00000000000E+00  0.00000000000E+00  0.74505805969E-08  0.10566000000E+00  0.10566000000E+00 0. -1.
     999900   -1    0    0    0    0 -0.00000000000E+00 -0.00000000000E+00 -0.74505805969E-08  0.93827000000E+00  0.93827000000E+00 0.  1.
     999902    2    1    2    0    0 -0.57654008454E-02 -0.22366009960E-01  0.20176428969E-02  0.10207448942E+01  0.10204815480E+01 0.  0.
     999903    2    3    3    0    0  0.10527601072E+00 -0.15490225598E-01 -0.73104652730E-01  0.13056467042E+00  0.19489930471E-01 0.  0.
         14    1    1    2    0    0  0.57654008454E-02  0.22366009960E-01 -0.20176428969E-02  0.23185105807E-01  0.00000000000E+00 0. -1.
     999901    1    3    3    0    0 -0.11104141156E+00 -0.68757843619E-02  0.75122295627E-01  0.89018022377E+00  0.88000000000E+00 0.  1.
        -11    1    4    4    0    0  0.72734784563E-02 -0.64790617846E-02 -0.70597372696E-02  0.12040877949E-01  0.51100000000E-03 0. -1.
         11    1    4    4    0    0  0.98002532262E-01 -0.90111638133E-02 -0.66044915460E-01  0.11852379247E+00  0.51100000000E-03 0.  1.
</event>
<event>
 8    1  0.1375347E+005  0.1043930E+01  0.7957747E-01            NaN
         13   -1    0    0    0    0  0.00000000000E+00  0.00000000000E+00  0.74505805969E-08  0.10566000000E+00  0.10566000000E+00 0.  1.
     999900   -1    0    0    0    0 -0.00000000000E+00 -0.00000000000E+00 -0.74505805969E-08  0.93827000000E+00  0.93827000000E+00 0. -1.
     999902    2    1    2    0    0  0.38339257769E-02  0.17689126176E-01 -0.12072269387E-01  0.10221735329E+01  0.10219419688E+01 0.  0.
     999903    2    3    3    0    0 -0.39863574893E-01 -0.10524136750E+00  0.60935226001E-01  0.12956417143E+00  0.20221837510E-01 0.  0.
         14    1    1    2    0    0 -0.38339257769E-02 -0.17689126176E-01  0.12072269387E-01  0.21756467082E-01  0.00000000000E+00 0.  1.
     999901    1    3    3    0    0  0.43697500670E-01  0.12293049368E+00 -0.73007495388E-01  0.89260936149E+00  0.88000000000E+00 0.  1.
        -11    1    4    4    0    0 -0.22217232685E-01 -0.57872137965E-01  0.44848738660E-01  0.76514444788E-01  0.51100000000E-03 0. -1.
         11    1    4    4    0    0 -0.17646342208E-01 -0.47369229538E-01  0.16086487340E-01  0.53049726637E-01  0.51100000000E-03 0.  1.
</event>
<event>
 8    1  0.1123450E+005  0.1043930E+01  0.7957747E-01            NaN
         13   -1    0    0    0    0  0.00000000000E+00  0.00000000000E+00  0.74505805969E-08  0.10566000000E+00  0.10566000000E+00 0.  1.
     999900   -1    0    0    0    0 -0.00000000000E+00 -0.00000000000E+00 -0.74505805969E-08  0.93827000000E+00  0.93827000000E+00 0. -1.
     999902    2    1    2    0    0 -0.15950461965E-01 -0.13218891177E-01 -0.97184037934E-02  0.10210476117E+01  0.10207911744E+01 0.  0.
     999903    2    3    3    0    0  0.75692072815E-01 -0.29957695851E-01  0.98709964583E-01  0.12951227713E+00  0.20075342883E-01 0.  0.
         14    1    1    2    0    0  0.15950461965E-01  0.13218891177E-01  0.97184037934E-02  0.22882388274E-01  0.00000000000E+00 0.  1.
     999901    1    3    3    0    0 -0.91642534780E-01  0.16738804674E-01 -0.10842836838E+00  0.89153533460E+00  0.88000000000E+00 0. -1.
        -11    1    4    4    0    0  0.47898260707E-01 -0.27229789604E-01  0.73698395348E-01  0.92018581919E-01  0.51100000000E-03 0.  1.
         11    1    4    4    0    0  0.27793812108E-01 -0.27279062472E-02  0.25011569236E-01  0.37493695212E-01  0.51100000000E-03 0. -1.
</event>
<event>
 8    1  0.1123450E+005  0.1043930E+01  0.7957747E-01            NaN
         13   -1    0    0    0    0  0.00000000000E+00  0.00000000000E+00  0.74505805969E-08  0.10566000000E+00  0.10566000000E+00 0. -1.
     999900   -1    0    0    0    0 -0.00000000000E+00 -0.00000000000E+00 -0.74505805969E-08  0.93827000000E+00  0.93827000000E+00 0. -1.
     999902    2    1    2    0    0  0.57590848914E-02 -0.13030213758E-01  0.19600663518E-01  0.10196990376E+01  0.10194110985E+01 0.  0.
     999903    2    3    3    0    0  0.65898610921E-01 -0.19672632078E-01  0.11186232758E+00  0.13280947345E+00  0.19888100250E-01 0.  0.
         14    1    1    2    0    0 -0.57590848914E-02  0.13030213758E-01 -0.19600663518E-01  0.24230962419E-01  0.00000000000E+00 0.  1.
     999901    1    3    3    0    0 -0.60139526030E-01  0.66424183195E-02 -0.92261664063E-01  0.88688956413E+00  0.88000000000E+00 0. -1.
        -11    1    4    4    0    0  0.27487492771E-01 -0.32643275186E-02  0.61027364060E-01  0.67013568612E-01  0.51100000000E-03 0.  1.
         11    1    4    4    0    0  0.38411118150E-01 -0.16408304559E-01  0.50834963521E-01  0.65795904836E-01  0.51100000000E-03 0. -1.
</event>
<event>
 8    1  0.1123450E+005  0.1043930E+01  0.7957747E-01            NaN
         13   -1    0    0    0    0  0.00000000000E+00  0.00000000000E+00  0.74505805969E-08  0.10566000000E+00  0.10566000000E+00 0. -1.
     999900   -1    0    0    0    0 -0.00000000000E+00 -0.00000000000E+00 -0.74505805969E-08  0.93827000000E+00  0.93827000000E+00 0.  1.
     999902    2    1    2    0    0 -0.22259991724E-01 -0.90919811788E-02 -0.32107827152E-02  0.10196713834E+01  0.10193827788E+01 0.  0.
     999903    2    3    3    0    0 -0.85084626036E-01  0.90945818835E-01 -0.35805020328E-01  0.13118003262E+00  0.20387886723E-01 0.  0.
         14    1    1    2    0    0  0.22259991724E-01  0.90919811788E-02  0.32107827152E-02  0.24258616592E-01  0.00000000000E+00 0. -1.
     999901    1    3    3    0    0  0.62824634312E-01 -0.10003780001E+00  0.32594237613E-01  0.88849135079E+00  0.88000000000E+00 0.  1.
        -11    1    4    4    0    0 -0.30760968994E-01  0.47356132031E-01 -0.13784413806E-01  0.58130126779E-01  0.51100000000E-03 0. -1.
         11    1    4    4    0    0 -0.54323657042E-01  0.43589686804E-01 -0.22020606522E-01  0.73049905836E-01  0.51100000000E-03 0.  1.
</event>
<event>
 8    1  0.1123450E+005  0.1043930E+01  0.7957747E-01            NaN
         13   -1    0    0    0    0  0.00000000000E+00  0.00000000000E+00  0.74505805969E-08  0.10566000000E+00  0.10566000000E+00 0. -1.
     999900   -1    0    0    0    0 -0.00000000000E+00 -0.00000000000E+00 -0.74505805969E-08  0.93827000000E+00  0.93827000000E+00 0.  1.
     999902    2    1    2    0    0 -0.33815586622E-01 -0.83102054781E-02 -0.65375271710E-02  0.10084998903E+01  0.10078773417E+01 0.  0.
     999903    2    3    3    0    0 -0.67531851090E-01  0.98380356886E-01  0.83271028665E-02  0.12129043371E+00  0.20069457771E-01 0.  0.
         14    1    1    2    0    0  0.33815586622E-01  0.83102054781E-02  0.65375271710E-02  0.35430109726E-01  0.00000000000E+00 0.  1.
     999901    1    3    3    0    0  0.33716264468E-01 -0.10669056236E+00 -0.14864630038E-01  0.88720945656E+00  0.88000000000E+00 0. -1.
        -11    1    4    4    0    0 -0.21293750718E-01  0.27085165026E-01 -0.63986221081E-02  0.35046161987E-01  0.51100000000E-03 0.  1.
         11    1    4    4    0    0 -0.46238100372E-01  0.71295191859E-01  0.14725724975E-01  0.86244271725E-01  0.51100000000E-03 0. -1.
</event>
<event>
 8    1  0.1123450E+005  0.1043930E+01  0.7957747E-01            NaN
         13   -1    0    0    0    0  0.00000000000E+00  0.00000000000E+00  0.74505805969E-08  0.10566000000E+00  0.10566000000E+00 0. -1.
     999900   -1    0    0    0    0 -0.00000000000E+00 -0.00000000000E+00 -0.74505805969E-08  0.93827000000E+00  0.93827000000E+00 0.  1.
     999902    2    1    2    0    0 -0.18800338953E-01 -0.10540629003E-01  0.11706221681E-01  0.10194026025E+01  0.10191074883E+01 0.  0.
     999903    2    3    3    0    0  0.46342548164E-01  0.10673592606E+00  0.50892864370E-01  0.12837343397E+00  0.18693988972E-01 0.  0.
         14    1    1    2    0    0  0.18800338953E-01  0.10540629003E-01 -0.11706221681E-01  0.24527397550E-01  0.00000000000E+00 0. -1.
     999901    1    3    3    0    0 -0.65142887116E-01 -0.11727655507E+00 -0.39186642689E-01  0.89102916848E+00  0.88000000000E+00 0.  1.
        -11    1    4    4    0    0  0.16275903263E-01  0.60731274814E-01  0.28244883652E-01  0.68929147253E-01  0.51100000000E-03 0.  1.
         11    1    4    4    0    0  0.30066644901E-01  0.46004651249E-01  0.22647980718E-01  0.59444286721E-01  0.51100000000E-03 0. -1.
</event>
<event>
 8    1  0.1123450E+005  0.1043930E+01  0.7957747E-01            NaN
         13   -1    0    0    0    0  0.00000000000E+00  0.00000000000E+00  0.74505805969E-08  0.10566000000E+00  0.10566000000E+00 0. -1.
     999900   -1    0    0    0    0 -0.00000000000E+00 -0.00000000000E+00 -0.74505805969E-08  0.93827000000E+00  0.93827000000E+00 0.  1.
     999902    2    1    2    0    0 -0.28033957308E-02 -0.70106573842E-02  0.22009642676E-01  0.10206612932E+01  0.10203960225E+01 0.  0.
     999903    2    3    3    0    0  0.85760791588E-01  0.78532208915E-01 -0.52223345406E-01  0.12899334282E+00  0.19742934820E-01 0.  0.
         14    1    1    2    0    0  0.28033957308E-02  0.70106573842E-02 -0.22009642676E-01  0.23268706782E-01  0.00000000000E+00 0.  1.
     999901    1    3    3    0    0 -0.88564187319E-01 -0.85542866299E-01  0.74232988082E-01  0.89166795040E+00  0.88000000000E+00 0.  1.
        -11    1    4    4    0    0  0.56025355806E-01  0.38345572854E-01 -0.28009568974E-01  0.73443995846E-01  0.51100000000E-03 0.  1.
         11    1    4    4    0    0  0.29735435782E-01  0.40186636060E-01 -0.24213776432E-01  0.55549346973E-01  0.51100000000E-03 0. -1.
</event>
<event>
 8    1  0.1123450E+005  0.1043930E+01  0.7957747E-01            NaN
         13   -1    0    0    0    0  0.00000000000E+00  0.00000000000E+00  0.74505805969E-08  0.10566000000E+00  0.10566000000E+00 0. -1.
     999900   -1    0    0    0    0 -0.00000000000E+00 -0.00000000000E+00 -0.74505805969E-08  0.93827000000E+00  0.93827000000E+00 0. -1.
     999902    2    1    2    0    0 -0.34060621422E-02 -0.36877615080E-02  0.22917651347E-01  0.10204689773E+01  0.10201992521E+01 0.  0.
     999903    2    3    3    0    0 -0.11954051324E+00 -0.47213210046E-01  0.18896953166E-01  0.13176326590E+00  0.22032745963E-01 0.  0.
         14    1    1    2    0    0  0.34060621422E-02  0.36877615080E-02 -0.22917651347E-01  0.23461022730E-01  0.00000000000E+00 0.  1.
     999901    1    3    3    0    0  0.11613445110E+00  0.43525448538E-01  0.40206981814E-02  0.88870571137E+00  0.88000000000E+00 0.  1.
        -11    1    4    4    0    0 -0.10433325936E+00 -0.41070048726E-01  0.23824890234E-01  0.11463012007E+00  0.51100000000E-03 0.  1.
         11    1    4    4    0    0 -0.15207253877E-01 -0.61431613199E-02 -0.49279370677E-02  0.17133145836E-01  0.51100000000E-03 0. -1.
</event>
<event>
 8    1  0.1123450E+005  0.1043930E+01  0.7957747E-01            NaN
         13   -1    0    0    0    0  0.00000000000E+00  0.00000000000E+00  0.74505805969E-08  0.10566000000E+00  0.10566000000E+00 0.  1.
     999900   -1    0    0    0    0 -0.00000000000E+00 -0.00000000000E+00 -0.74505805969E-08  0.93827000000E+00  0.93827000000E+00 0.  1.
     999902    2    1    2    0    0  0.18839237124E-02  0.18145567374E-01 -0.18930150545E-01  0.10176400517E+01  0.10173004047E+01 0.  0.
     999903    2    3    3    0    0 -0.11974124462E+00  0.10721847892E-01 -0.41988941799E-01  0.12894465895E+00  0.20266478531E-01 0.  0.
         14    1    1    2    0    0 -0.18839237124E-02 -0.18145567374E-01  0.18930150545E-01  0.26289948337E-01  0.00000000000E+00 0.  1.
     999901    1    3    3    0    0  0.12162516833E+00  0.74237194817E-02  0.23058791254E-01  0.88869539272E+00  0.88000000000E+00 0. -1.
        -11    1    4    4    0    0 -0.87427326351E-02  0.28131043204E-02 -0.90188579097E-02  0.12882152337E-01  0.51100000000E-03 0.  1.
         11    1    4    4    0    0 -0.11099851198E+00  0.79087435719E-02 -0.32970083890E-01  0.11606250661E+00  0.51100000000E-03 0. -1.
</event>
<event>
 8    1  0.1123450E+005  0.1043930E+01  0.7957747E-01            NaN
         13   -1    0    0    0    0  0.00000000000E+00  0.00000000000E+00  0.74505805969E-08  0.10566000000E+00  0.10566000000E+00 0.  1.
     999900   -1    0    0    0    0 -0.00000000000E+00 -0.00000000000E+00 -0.74505805969E-08  0.93827000000E+00  0.93827000000E+00 0.  1.
     999902    2    1    2    0    0 -0.22010030076E-04  0.15878828110E-01 -0.15437747003E-01  0.10217836301E+01  0.10215435992E+01 0.  0.
     999903    2    3    3    0    0 -0.12858245499E+00  0.21897380279E-01  0.26491141341E-02  0.13223815881E+00  0.21609485039E-01 0.  0.
         14    1    1    2    0    0  0.22010030076E-04 -0.15878828110E-01  0.15437747003E-01  0.22146369886E-01  0.00000000000E+00 0.  1.
     999901    1    3    3    0    0  0.12856044496E+00 -0.60185521688E-02 -0.18086861137E-01  0.88954547131E+00  0.88000000000E+00 0.  1.
        -11    1    4    4    0    0 -0.91784651234E-01  0.12672827667E-01  0.11245178731E-01  0.93336691225E-01  0.51100000000E-03 0.  1.
         11    1    4    4    0    0 -0.36797803759E-01  0.92245526120E-02 -0.85960645971E-02  0.38901467581E-01  0.51100000000E-03 0. -1.
</event>
<event>
 8    1  0.1123450E+005  0.1043930E+01  0.7957747E-01            NaN
         13   -1    0    0    0    0  0.00000000000E+00  0.00000000000E+00  0.74505805969E-08  0.10566000000E+00  0.10566000000E+00 0.  1.
     999900   -1    0    0    0    0 -0.00000000000E+00 -0.00000000000E+00 -0.74505805969E-08  0.93827000000E+00  0.93827000000E+00 0. -1.
     999902    2    1    2    0    0  0.24323818517E-01  0.12240582976E-02 -0.25210215781E-03  0.10195740968E+01  0.10192831446E+01 0.  0.
     999903    2    3    3    0    0 -0.61269313848E-01 -0.98791859490E-01  0.50729390650E-01  0.12832302064E+00  0.19482459536E-01 0.  0.
         14    1    1    2    0    0 -0.24323818517E-01 -0.12240582976E-02  0.25210215781E-03  0.24355903216E-01  0.00000000000E+00 0.  1.
     999901    1    3    3    0    0  0.85593132365E-01  0.10001591779E+00 -0.50981492808E-01  0.89125107614E+00  0.88000000000E+00 0. -1.
        -11    1    4    4    0    0 -0.35655155627E-01 -0.52706255949E-01  0.17500811895E-01  0.65998326319E-01  0.51100000000E-03 0. -1.
         11    1    4    4    0    0 -0.25614158221E-01 -0.46085603542E-01  0.33228578755E-01  0.62324694322E-01  0.51100000000E-03 0.  1.
</event>
<event>
 8    1  0.1123450E+005  0.1043930E+01  0.7957747E-01            NaN
         13   -1    0    0    0    0  0.00000000000E+00  0.00000000000E+00  0.74505805969E-08  0.10566000000E+00  0.10566000000E+00 0.  1.
     999900   -1    0    0    0    0 -0.00000000000E+00 -0.00000000000E+00 -0.74505805969E-08  0.93827000000E+00  0.93827000000E+00 0. -1.
     999902    2    1    2    0    0  0.21785499147E-01  0.48790339018E-02  0.90229741059E-02  0.10198504027E+01  0.10195660924E+01 0.  0.
     999903    2    3    3    0    0  0.99451886031E-01 -0.81096407766E-01  0.24022520956E-01  0.13212925806E+00  0.20340952141E-01 0.  0.
         14    1    1    2    0    0 -0.21785499147E-01 -0.48790339018E-02 -0.90229741059E-02  0.24079597310E-01  0.00000000000E+00 0.  1.
     999901    1    3    3    0    0 -0.77666386884E-01  0.85975441668E-01 -0.14999546850E-01  0.88772114463E+00  0.88000000000E+00 0.  1.
        -11    1    4    4    0    0  0.78637190673E-01 -0.66312314847E-01  0.27187201925E-01  0.10639800716E+00  0.51100000000E-03 0.  1.
         11    1    4    4    0    0  0.20814695358E-01 -0.14784092919E-01 -0.31646809696E-02  0.25731250901E-01  0.51100000000E-03 0. -1.
</event>
<event>
 8    1  0.1123450E+005  0.1043930E+01  0.7957747E-01            NaN
         13   -1    0    0    0    0  0.00000000000E+00  0.00000000000E+00  0.74505805969E-08  0.10566000000E+00  0.10566000000E+00 0. -1.
     999900   -1    0    0    0    0 -0.00000000000E+00 -0.00000000000E+00 -0.74505805969E-08  0.93827000000E+00  0.93827000000E+00 0.  1.
     999902    2    1    2    0    0  0.16487822346E-01 -0.15242169151E-01  0.37670941826E-02  0.10211624133E+01  0.10209085715E+01 0.  0.
     999903    2    3    3    0    0  0.40740692891E-01  0.10053448195E+00 -0.69827095706E-01  0.13020307670E+00  0.17607719006E-01 0.  0.
         14    1    1    2    0    0 -0.16487822346E-01  0.15242169151E-01 -0.37670941826E-02  0.22767586712E-01  0.00000000000E+00 0.  1.
     999901    1    3    3    0    0 -0.24252870545E-01 -0.11577665110E+00  0.73594189889E-01  0.89095933659E+00  0.88000000000E+00 0. -1.
        -11    1    4    4    0    0  0.23377478596E-02  0.11180531983E-01 -0.13946852229E-01  0.18034554848E-01  0.51100000000E-03 0. -1.
         11    1    4    4    0    0  0.38402945032E-01  0.89353949968E-01 -0.55880243477E-01  0.11216852185E+00  0.51100000000E-03 0.  1.
</event>
<event>
 8    1  0.1123450E+005  0.1043930E+01  0.7957747E-01            NaN
         13   -1    0    0    0    0  0.00000000000E+00  0.00000000000E+00  0.74505805969E-08  0.10566000000E+00  0.10566000000E+00 0.  1.
     999900   -1    0    0    0    0 -0.00000000000E+00 -0.00000000000E+00 -0.74505805969E-08  0.93827000000E+00  0.93827000000E+00 0. -1.
     999902    2    1    2    0    0 -0.13659932243E-01 -0.18433972095E-01  0.51352811022E-02  0.10204188072E+01  0.10201479137E+01 0.  0.
     999903    2    3    3    0    0  0.10995457744E+00  0.16718116559E-01 -0.61459790188E-01  0.12859420566E+00  0.19739792251E-01 0.  0.
         14    1    1    2    0    0  0.13659932243E-01  0.18433972095E-01 -0.51352811022E-02  0.23511192826E-01  0.00000000000E+00 0. -1.
     999901    1    3    3    0    0 -0.12361450969E+00 -0.35152088655E-01  0.66595071290E-01  0.89182460151E+00  0.88000000000E+00 0.  1.
        -11    1    4    4    0    0  0.60332706496E-01  0.62977235760E-02 -0.44098821105E-01  0.74997759561E-01  0.51100000000E-03 0. -1.
         11    1    4    4    0    0  0.49621870947E-01  0.10420392983E-01 -0.17360969084E-01  0.53596446101E-01  0.51100000000E-03 0.  1.
</event>
<event>
 8    1  0.1123450E+005  0.1043930E+01  0.7957747E-01            NaN
         13   -1    0    0    0    0  0.00000000000E+00  0.00000000000E+00  0.74505805969E-08  0.10566000000E+00  0.10566000000E+00 0. -1.
     999900   -1    0    0    0    0 -0.00000000000E+00 -0.00000000000E+00 -0.74505805969E-08  0.93827000000E+00  0.93827000000E+00 0. -1.
     999902    2    1    2    0    0 -0.14476653818E-01 -0.87272413847E-02  0.78089144934E-02  0.10253096511E+01  0.10251405578E+01 0.  0.
     999903    2    3    3    0    0 -0.79671373702E-01  0.71854826067E-01 -0.79528319689E-01  0.13493242004E+00  0.19270716876E-01 0.  0.
         14    1    1    2    0    0  0.14476653818E-01  0.87272413847E-02 -0.78089144934E-02  0.18620348910E-01  0.00000000000E+00 0.  1.
     999901    1    3    3    0    0  0.65194719884E-01 -0.80582067452E-01  0.87337234183E-01  0.89037723105E+00  0.88000000000E+00 0.  1.
        -11    1    4    4    0    0 -0.15455368397E-01  0.90386468492E-02 -0.21519768597E-01  0.27998698374E-01  0.51100000000E-03 0.  1.
         11    1    4    4    0    0 -0.64216005305E-01  0.62816179218E-01 -0.58008551092E-01  0.10693372167E+00  0.51100000000E-03 0. -1.
</event>
<event>
 8    1  0.1123450E+005  0.1043930E+01  0.7957747E-01            NaN
         13   -1    0    0    0    0  0.00000000000E+00  0.00000000000E+00  0.74505805969E-08  0.10566000000E+00  0.10566000000E+00 0.  1.
     999900   -1    0    0    0    0 -0.00000000000E+00 -0.00000000000E+00 -0.74505805969E-08  0.93827000000E+00  0.93827000000E+00 0.  1.
     999902    2    1    2    0    0  0.12622468791E-01  0.11641846455E-01 -0.16448561443E-01  0.10201515543E+01  0.10198743938E+01 0.  0.
     999903    2    3    3    0    0  0.10744702605E+00  0.75054090572E-01 -0.14552920453E-01  0.13278668974E+00  0.15573617462E-01 0.  0.
         14    1    1    2    0    0 -0.12622468791E-01 -0.11641846455E-01  0.16448561443E-01  0.23778445719E-01  0.00000000000E+00 0.  1.
     999901    1    3    3    0    0 -0.94824557257E-01 -0.63412244116E-01 -0.18956409904E-02  0.88736486454E+00  0.88000000000E+00 0.  1.
        -11    1    4    4    0    0  0.61288726784E-01  0.36398640607E-01 -0.13602919717E-01  0.72570445876E-01  0.51100000000E-03 0. -1.
         11    1    4    4    0    0  0.46158299265E-01  0.38655449965E-01 -0.95000073542E-03  0.60216243866E-01  0.51100000000E-03 0.  1.
</event>
<event>
 8    1  0.1123450E+005  0.1043930E+01  0.7957747E-01            NaN
         13   -1    0    0    0    0  0.00000000000E+00  0.00000000000E+00  0.74505805969E-08  0.10566000000E+00  0.10566000000E+00 0. -1.
     999900   -1    0    0    0    0 -0.00000000000E+00 -0.00000000000E+00 -0.74505805969E-08  0.93827000000E+00  0.93827000000E+00 0. -1.
     999902    2    1    2    0    0 -0.19691658206E-01 -0.12863620667E-01 -0.35820782750E-02  0.10201378705E+01  0.10198603873E+01 0.  0.
     999903    2    3    3    0    0 -0.13022063872E+00 -0.19056450850E-01  0.29178444584E-02  0.13317831358E+00  0.20183813427E-01 0.  0.
         14    1    1    2    0    0  0.19691658206E-01  0.12863620667E-01  0.35820782750E-02  0.23792129461E-01  0.00000000000E+00 0.  1.
     999901    1    3    3    0    0  0.11052898052E+00  0.61928301833E-02 -0.64999227335E-02  0.88695955696E+00  0.88000000000E+00 0. -1.
        -11    1    4    4    0    0 -0.66488951273E-01 -0.12064639869E-01 -0.83130786629E-02  0.68086008654E-01  0.51100000000E-03 0. -1.
         11    1    4    4    0    0 -0.63731687449E-01 -0.69918109813E-02  0.11230923121E-01  0.65092304929E-01  0.51100000000E-03 0.  1.
</event>
<event>
 8    1  0.1123450E+005  0.1043930E+01  0.7957747E-01            NaN
         13   -1    0    0    0    0  0.00000000000E+00  0.00000000000E+00  0.74505805969E-08  0.10566000000E+00  0.10566000000E+00 0.  1.
     999900   -1    0    0    0    0 -0.00000000000E+00 -0.00000000000E+00 -0.74505805969E-08  0.93827000000E+00  0.93827000000E+00 0. -1.
     999902    2    1    2    0    0 -0.16405049029E-01  0.15065640385E-01 -0.97311810736E-02  0.10196237243E+01  0.10193339708E+01 0.  0.
     999903    2    3    3    0    0  0.61725682589E-01  0.98811380433E-01 -0.51884620727E-01  0.13120114878E+00  0.30789264021E-01 0.  0.
         14    1    1    2    0    0  0.16405049029E-01 -0.15065640385E-01  0.97311810736E-02  0.24306275711E-01  0.00000000000E+00 0.  1.
     999901    1    3    3    0    0 -0.78130731618E-01 -0.83745740048E-01  0.42153439654E-01  0.88842257551E+00  0.88000000000E+00 0.  1.
        -11    1    4    4    0    0  0.47833946408E-01  0.63106240931E-01 -0.20832504863E-01  0.81882467313E-01  0.51100000000E-03 0.  1.
         11    1    4    4    0    0  0.13891736182E-01  0.35705139502E-01 -0.31052115864E-01  0.49318681467E-01  0.51100000000E-03 0. -1.
</event>
<event>
 8    1  0.1123450E+005  0.1043930E+01  0.7957747E-01            NaN
         13   -1    0    0    0    0  0.00000000000E+00  0.00000000000E+00  0.74505805969E-08  0.10566000000E+00  0.10566000000E+00 0.  1.
     999900   -1    0    0    0    0 -0.00000000000E+00 -0.00000000000E+00 -0.74505805969E-08  0.93827000000E+00  0.93827000000E+00 0. -1.
     999902    2    1    2    0    0  0.19687143603E-01  0.11798662514E-01 -0.55842562194E-02  0.10203084849E+01  0.10200350133E+01 0.  0.
     999903    2    3    3    0    0  0.10942227176E+00 -0.12645274707E-01 -0.73725538125E-01  0.13278770561E+00  0.79989536579E-02 0.  0.
         14    1    1    2    0    0 -0.19687143603E-01 -0.11798662514E-01  0.55842562194E-02  0.23621515148E-01  0.00000000000E+00 0.  1.
     999901    1    3    3    0    0 -0.89735128154E-01  0.24443937221E-01  0.68141281906E-01  0.88752077924E+00  0.88000000000E+00 0.  1.
        -11    1    4    4    0    0  0.32404958102E-01 -0.87937361012E-03 -0.19029405136E-01  0.37593004514E-01  0.51100000000E-03 0. -1.
         11    1    4    4    0    0  0.77017313655E-01 -0.11765901097E-01 -0.54696132989E-01  0.95194701093E-01  0.51100000000E-03 0.  1.
</event>
<event>
 8    1  0.1123450E+005  0.1043930E+01  0.7957747E-01            NaN
         13   -1    0    0    0    0  0.00000000000E+00  0.00000000000E+00  0.74505805969E-08  0.10566000000E+00  0.10566000000E+00 0.  1.
     999900   -1    0    0    0    0 -0.00000000000E+00 -0.00000000000E+00 -0.74505805969E-08  0.93827000000E+00  0.93827000000E+00 0. -1.
     999902    2    1    2    0    0 -0.13424132094E-01  0.18501167005E-01 -0.12250223131E-01  0.10179960749E+01  0.10176656819E+01 0.  0.
     999903    2    3    3    0    0  0.55252633180E-01  0.11489115451E+00 -0.15645857226E-01  0.13006642788E+00  0.20485408337E-01 0.  0.
         14    1    1    2    0    0  0.13424132094E-01 -0.18501167005E-01  0.12250223131E-01  0.25933925075E-01  0.00000000000E+00 0.  1.
     999901    1    3    3    0    0 -0.68676765274E-01 -0.96389987502E-01  0.33956340950E-02  0.88792964705E+00  0.88000000000E+00 0. -1.
        -11    1    4    4    0    0  0.51590891625E-01  0.95575437113E-01 -0.77961693495E-02  0.10889134794E+00  0.51100000000E-03 0.  1.
         11    1    4    4    0    0  0.36617415554E-02  0.19315717393E-01 -0.78496878764E-02  0.21175079938E-01  0.51100000000E-03 0. -1.
</event>
<event>
 7    1  0.1123450E+005  0.1043930E+01  0.7957747E-01            NaN
         13   -1    0    0    0    0  0.00000000000E+00  0.00000000000E+00  0.74505805969E-08  0.10566000000E+00  0.10566000000E+00 0.  1.
     999900   -1    0    0    0    0 -0.00000000000E+00 -0.00000000000E+00 -0.74505805969E-08  0.93827000000E+00  0.93827000000E+00 0. -1.
     999903    2    1    2    0    0  0.10917249989E-01  0.94921473107E-01 -0.58669173728E-01  0.11381981265E+00  0.19585846988E-01 0.  0.
         14    1    1    2    0    0 -0.15239938321E-01 -0.34850980492E-01 -0.22717427829E-01  0.44304944289E-01  0.00000000000E+00 0. -1.
     999901    1    1    2    0    0  0.43226883319E-02 -0.60070492615E-01  0.81386601557E-01  0.88580524306E+00  0.88000000000E+00 0.  1.
        -11    1    3    3    0    0  0.64009405521E-03  0.43430876502E-01 -0.16471862406E-01  0.46456798493E-01  0.51100000000E-03 0.  1.
         11    1    3    3    0    0  0.10277155934E-01  0.51490596605E-01 -0.42197311322E-01  0.67363014159E-01  0.51100000000E-03 0. -1.
</event>
<event>
 8    1  0.1123450E+005  0.1043930E+01  0.7957747E-01            NaN
         13   -1    0    0    0    0  0.00000000000E+00  0.00000000000E+00  0.74505805969E-08  0.10566000000E+00  0.10566000000E+00 0.  1.
     999900   -1    0    0    0    0 -0.00000000000E+00 -0.00000000000E+00 -0.74505805969E-08  0.93827000000E+00  0.93827000000E+00 0.  1.
     999902    2    1    2    0    0 -0.18025523404E-01  0.16468058769E-01  0.61547230361E-03  0.10195067476E+01  0.10192141645E+01 0.  0.
     999903    2    3    3    0    0  0.20860950277E-01 -0.61854168531E-01 -0.10805608566E+00  0.12852075629E+00  0.24090449089E-01 0.  0.
         14    1    1    2    0    0  0.18025523404E-01 -0.16468058769E-01 -0.61547230361E-03  0.24423252441E-01  0.00000000000E+00 0.  1.
     999901    1    3    3    0    0 -0.38886473682E-01  0.78322227300E-01  0.10867155797E+00  0.89098599127E+00  0.88000000000E+00 0. -1.
        -11    1    4    4    0    0  0.17191997116E-01 -0.33497884240E-01 -0.80193822197E-01  0.88594487712E-01  0.51100000000E-03 0. -1.
         11    1    4    4    0    0  0.36689531615E-02 -0.28356284292E-01 -0.27862263468E-01  0.39926268579E-01  0.51100000000E-03 0.  1.
</event>
<event>
 8    1  0.1123450E+005  0.1043930E+01  0.7957747E-01            NaN
         13   -1    0    0    0    0  0.00000000000E+00  0.00000000000E+00  0.74505805969E-08  0.10566000000E+00  0.10566000000E+00 0.  1.
     999900   -1    0    0    0    0 -0.00000000000E+00 -0.00000000000E+00 -0.74505805969E-08  0.93827000000E+00  0.93827000000E+00 0. -1.
     999902    2    1    2    0    0  0.20600935918E-02 -0.15825922730E-01  0.17975016511E-01  0.10198924245E+01  0.10196091175E+01 0.  0.
     999903    2    3    3    0    0 -0.31476557450E-01 -0.11622229421E+00 -0.47837483340E-01  0.13110931066E+00  0.20070654882E-01 0.  0.
         14    1    1    2    0    0 -0.20600935918E-02  0.15825922730E-01 -0.17975016511E-01  0.24037575469E-01  0.00000000000E+00 0. -1.
     999901    1    3    3    0    0  0.33536651042E-01  0.10039637148E+00  0.65812499850E-01  0.88878311387E+00  0.88000000000E+00 0.  1.
        -11    1    4    4    0    0 -0.24435400286E-01 -0.58328525661E-01 -0.30835509366E-01  0.70359046695E-01  0.51100000000E-03 0.  1.
         11    1    4    4    0    0 -0.70411571638E-02 -0.57893768553E-01 -0.17001973974E-01  0.60750263963E-01  0.51100000000E-03 0. -1.
</event>
<event>
 8    1  0.1123450E+005  0.1043930E+01  0.7957747E-01            NaN
         13   -1    0    0    0    0  0.00000000000E+00  0.00000000000E+00  0.74505805969E-08  0.10566000000E+00  0.10566000000E+00 0. -1.
     999900   -1    0    0    0    0 -0.00000000000E+00 -0.00000000000E+00 -0.74505805969E-08  0.93827000000E+00  0.93827000000E+00 0. -1.
     999902    2    1    2    0    0 -0.62089303985E-02 -0.49522390705E-03  0.21277888942E-01  0.10217591944E+01  0.10215186277E+01 0.  0.
     999903    2    3    3    0    0  0.10012118402E+00  0.78147540533E-01 -0.24219968435E-01  0.13071439605E+00  0.19192625758E-01 0.  0.
         14    1    1    2    0    0  0.62089303985E-02  0.49522390705E-03 -0.21277888942E-01  0.22170805606E-01  0.00000000000E+00 0.  1.
     999901    1    3    3    0    0 -0.10633011441E+00 -0.78642764440E-01  0.45497857377E-01  0.89104479834E+00  0.88000000000E+00 0.  1.
        -11    1    4    4    0    0  0.38161430568E-01  0.41070314403E-01 -0.71818955593E-02  0.56523501775E-01  0.51100000000E-03 0. -1.
         11    1    4    4    0    0  0.61959753449E-01  0.37077226130E-01 -0.17038072876E-01  0.74190894274E-01  0.51100000000E-03 0.  1.
</event>
<event>
 8    1  0.1123450E+005  0.1043930E+01  0.7957747E-01            NaN
         13   -1    0    0    0    0  0.00000000000E+00  0.00000000000E+00  0.74505805969E-08  0.10566000000E+00  0.10566000000E+00 0.  1.
     999900   -1    0    0    0    0 -0.00000000000E+00 -0.00000000000E+00 -0.74505805969E-08  0.93827000000E+00  0.93827000000E+00 0.  1.
     999902    2    1    2    0    0 -0.22467011764E-01 -0.18882766939E-02 -0.10445037703E-01  0.10190818407E+01  0.10187788607E+01 0.  0.
     999903    2    3    3    0    0  0.22413700509E-01 -0.12501241814E+00 -0.13298946520E-01  0.12937291230E+00  0.20736677563E-01 0.  0.
         14    1    1    2    0    0  0.22467011764E-01  0.18882766939E-02  0.10445037703E-01  0.24848159269E-01  0.00000000000E+00 0. -1.
     999901    1    3    3    0    0 -0.44880712273E-01  0.12312414145E+00  0.28539088176E-02  0.88970892844E+00  0.88000000000E+00 0. -1.
        -11    1    4    4    0    0  0.70787948956E-02 -0.87731674278E-01 -0.46507533015E-02  0.88141061011E-01  0.51100000000E-03 0. -1.
         11    1    4    4    0    0  0.15334905614E-01 -0.37280743866E-01 -0.86481932188E-02  0.41231851285E-01  0.51100000000E-03 0.  1.
</event>
<event>
 8    1  0.1123450E+005  0.1043930E+01  0.7957747E-01            NaN
         13   -1    0    0    0    0  0.00000000000E+00  0.00000000000E+00  0.74505805969E-08  0.10566000000E+00  0.10566000000E+00 0. -1.
     999900   -1    0    0    0    0 -0.00000000000E+00 -0.00000000000E+00 -0.74505805969E-08  0.93827000000E+00  0.93827000000E+00 0. -1.
     999902    2    1    2    0    0 -0.23492130992E-01 -0.24772184155E-02 -0.35442056565E-02  0.10200432207E+01  0.10197634990E+01 0.  0.
     999903    2    3    3    0    0 -0.10891916869E+00 -0.70994392178E-01 -0.19548953392E-01  0.13311112987E+00  0.20804381468E-01 0.  0.
         14    1    1    2    0    0  0.23492130992E-01  0.24772184155E-02  0.35442056565E-02  0.23886779258E-01  0.00000000000E+00 0. -1.
     999901    1    3    3    0    0  0.85427037695E-01  0.68517173762E-01  0.16004747736E-01  0.88693209087E+00  0.88000000000E+00 0. -1.
        -11    1    4    4    0    0 -0.52825783508E-01 -0.41732218490E-01 -0.15880316877E-02  0.67341847532E-01  0.51100000000E-03 0. -1.
         11    1    4    4    0    0 -0.56093385178E-01 -0.29262173688E-01 -0.17960921705E-01  0.65769282337E-01  0.51100000000E-03 0.  1.
</event>
<event>
 8    1  0.1123450E+005  0.1043930E+01  0.7957747E-01            NaN
         13   -1    0    0    0    0  0.00000000000E+00  0.00000000000E+00  0.74505805969E-08  0.10566000000E+00  0.10566000000E+00 0. -1.
     999900   -1    0    0    0    0 -0.00000000000E+00 -0.00000000000E+00 -0.74505805969E-08  0.93827000000E+00  0.93827000000E+00 0. -1.
     999902    2    1    2    0    0  0.44984668214E-02  0.23311017101E-01  0.37603000102E-02  0.10198929540E+01  0.10196096597E+01 0.  0.
     999903    2    3    3    0    0  0.34684527686E-01 -0.97425753616E-01 -0.72456342899E-01  0.12787415227E+00  0.20176304489E-01 0.  0.
         14    1    1    2    0    0 -0.44984668214E-02 -0.23311017101E-01 -0.37603000102E-02  0.24037045954E-01  0.00000000000E+00 0. -1.
     999901    1    3    3    0    0 -0.30186060865E-01  0.12073677072E+00  0.76216642909E-01  0.89201880178E+00  0.88000000000E+00 0.  1.
        -11    1    4    4    0    0  0.23708987093E-01 -0.46929759341E-01 -0.27293317115E-01  0.59242760409E-01  0.51100000000E-03 0. -1.
         11    1    4    4    0    0  0.10975540593E-01 -0.50495994275E-01 -0.45163025784E-01  0.68631391856E-01  0.51100000000E-03 0.  1.
</event>
<event>
 8    1  0.1123450E+005  0.1043930E+01  0.7957747E-01            NaN
         13   -1    0    0    0    0  0.00000000000E+00  0.00000000000E+00  0.74505805969E-08  0.10566000000E+00  0.10566000000E+00 0.  1.
     999900   -1    0    0    0    0 -0.00000000000E+00 -0.00000000000E+00 -0.74505805969E-08  0.93827000000E+00  0.93827000000E+00 0. -1.
     999902    2    1    2    0    0  0.10854765990E-01 -0.20645448464E-01 -0.77598540402E-02  0.10193479777E+01  0.10190515315E+01 0.  0.
     999903    2    3    3    0    0  0.11014052353E+00  0.60386627343E-01 -0.27089057851E-01  0.12985515753E+00  0.18736733884E-01 0.  0.
         14    1    1    2    0    0 -0.10854765990E-01  0.20645448464E-01  0.77598540402E-02  0.24582022327E-01  0.00000000000E+00 0.  1.
     999901    1    3    3    0    0 -0.99285757543E-01 -0.81032075807E-01  0.19329203811E-01  0.88949282014E+00  0.88000000000E+00 0.  1.
        -11    1    4    4    0    0  0.52078102996E-01  0.37912668171E-01 -0.91874478265E-02  0.65070496679E-01  0.51100000000E-03 0. -1.
         11    1    4    4    0    0  0.58062420537E-01  0.22473959173E-01 -0.17901610024E-01  0.64784660854E-01  0.51100000000E-03 0.  1.
</event>
<event>
 8    1  0.1123450E+005  0.1043930E+01  0.7957747E-01            NaN
         13   -1    0    0    0    0  0.00000000000E+00  0.00000000000E+00  0.74505805969E-08  0.10566000000E+00  0.10566000000E+00 0. -1.
     999900   -1    0    0    0    0 -0.00000000000E+00 -0.00000000000E+00 -0.74505805969E-08  0.93827000000E+00  0.93827000000E+00 0.  1.
     999902    2    1    2    0    0 -0.22402949399E-01  0.25770809318E-03  0.73553590594E-02  0.10203490784E+01  0.10200765569E+01 0.  0.
     999903    2    3    3    0    0 -0.10638957044E-01 -0.12740822348E+00 -0.18454195822E-01  0.13068447043E+00  0.19794712711E-01 0.  0.
         14    1    1    2    0    0  0.22402949399E-01 -0.25770809318E-03 -0.73553590594E-02  0.23580921571E-01  0.00000000000E+00 0.  1.
     999901    1    3    3    0    0 -0.11763992355E-01  0.12766593157E+00  0.25809554882E-01  0.88966460800E+00  0.88000000000E+00 0.  1.
        -11    1    4    4    0    0 -0.76577918801E-02 -0.15033015822E-01 -0.39688473682E-02  0.17339152564E-01  0.51100000000E-03 0. -1.
         11    1    4    4    0    0 -0.29811651640E-02 -0.11237520766E+00 -0.14485348454E-01  0.11334531787E+00  0.51100000000E-03 0.  1.
</event>
<event>
 8    1  0.1123450E+005  0.1043930E+01  0.7957747E-01            NaN
         13   -1    0    0    0    0  0.00000000000E+00  0.00000000000E+00  0.74505805969E-08  0.10566000000E+00  0.10566000000E+00 0. -1.
     999900   -1    0    0    0    0 -0.00000000000E+00 -0.00000000000E+00 -0.74505805969E-08  0.93827000000E+00  0.93827000000E+00 0.  1.
     999902    2    1    2    0    0 -0.54800245531E-02 -0.83785995296E-03 -0.23806762797E-01  0.10194862967E+01  0.10191932174E+01 0.  0.
     999903    2    3    3    0    0  0.32199014383E-01  0.64182981488E-01  0.10459089761E+00  0.12699910963E+00  0.57694318404E-02 0.  0.
         14    1    1    2    0    0  0.54800245531E-02  0.83785995296E-03  0.23806762797E-01  0.24443703346E-01  0.00000000000E+00 0. -1.
     999901    1    3    3    0    0 -0.37679038936E-01 -0.65020841441E-01 -0.12839766041E+00  0.89248718702E+00  0.88000000000E+00 0. -1.
        -11    1    4    4    0    0  0.54838230628E-02  0.11660267323E-01  0.15215316004E-01  0.19944952031E-01  0.51100000000E-03 0.  1.
         11    1    4    4    0    0  0.26715191320E-01  0.52522714165E-01  0.89375581611E-01  0.10705415760E+00  0.51100000000E-03 0. -1.
</event>
<event>
 7    1  0.1123450E+005  0.1043930E+01  0.7957747E-01            NaN
         13   -1    0    0    0    0  0.00000000000E+00  0.00000000000E+00  0.74505805969E-08  0.10566000000E+00  0.10566000000E+00 0.  1.
     999900   -1    0    0    0    0 -0.00000000000E+00 -0.00000000000E+00 -0.74505805969E-08  0.93827000000E+00  0.93827000000E+00 0.  1.
     999902    2    1    2    0    0  0.11357529346E-01 -0.20767833264E-01  0.81628306447E-03  0.10202453491E+01  0.10199703964E+01 0.  0.
         14    1    1    2    0    0 -0.11357529346E-01  0.20767833264E-01 -0.81628306447E-03  0.23684650924E-01  0.00000000000E+00 0.  1.
     999901    1    3    3    0    0  0.81039129087E-01 -0.10156042589E+00  0.58625477202E-01  0.89147002593E+00  0.88000000000E+00 0.  1.
        -11    1    3    3    0    0 -0.32011844759E-01  0.28020629270E-01 -0.46375731135E-01  0.62935549802E-01  0.51100000000E-03 0.  1.
         11    1    3    3    0    0 -0.37669754981E-01  0.52771963359E-01 -0.11433463002E-01  0.65839773346E-01  0.51100000000E-03 0. -1.
</event>
<event>
 8    1  0.1123450E+005  0.1043930E+01  0.7957747E-01            NaN
         13   -1    0    0    0    0  0.00000000000E+00  0.00000000000E+00  0.74505805969E-08  0.10566000000E+00  0.10566000000E+00 0.  1.
     999900   -1    0    0    0    0 -0.00000000000E+00 -0.00000000000E+00 -0.74505805969E-08  0.93827000000E+00  0.93827000000E+00 0.  1.
     999902    2    1    2    0    0 -0.34427331300E-02 -0.21274272567E-01 -0.10230313627E-01  0.10200740489E+01  0.10197950573E+01 0.  0.
     999903    2    3    3    0    0 -0.38476194086E-01 -0.42494417193E-01 -0.11788534627E+00  0.13256785516E+00  0.19775953881E-01 0.  0.
         14    1    1    2    0    0  0.34427331300E-02  0.21274272567E-01  0.10230313627E-01  0.23855951073E-01  0.00000000000E+00 0. -1.
     999901    1    3    3    0    0  0.35033460956E-01  0.21220144625E-01  0.10765503264E+00  0.88750619377E+00  0.88000000000E+00 0. -1.
        -11    1    4    4    0    0 -0.99172455130E-02 -0.20727591783E-01 -0.31314029108E-01  0.38843459676E-01  0.51100000000E-03 0.  1.
         11    1    4    4    0    0 -0.28558948573E-01 -0.21766825410E-01 -0.86571317164E-01  0.93724395482E-01  0.51100000000E-03 0. -1.
</event>
<event>
 8    1  0.1123450E+005  0.1043930E+01  0.7957747E-01            NaN
         13   -1    0    0    0    0  0.00000000000E+00  0.00000000000E+00  0.74505805969E-08  0.10566000000E+00  0.10566000000E+00 0.  1.
     999900   -1    0    0    0    0 -0.00000000000E+00 -0.00000000000E+00 -0.74505805969E-08  0.93827000000E+00  0.93827000000E+00 0.  1.
     999902    2    1    2    0    0  0.32690879448E-02  0.21654296290E-01 -0.10288162977E-01  0.10197340958E+01  0.10194469993E+01 0.  0.
     999903    2    3    3    0    0  0.74164474861E-01  0.95336135045E-01 -0.50848706405E-01  0.13288555914E+00  0.21991655424E-01 0.  0.
         14    1    1    2    0    0 -0.32690879448E-02 -0.21654296290E-01  0.10288162977E-01  0.24195904225E-01  0.00000000000E+00 0.  1.
     999901    1    3    3    0    0 -0.70895386917E-01 -0.73681838755E-01  0.40560543428E-01  0.88684853663E+00  0.88000000000E+00 0. -1.
        -11    1    4    4    0    0  0.15432762660E-01  0.36520078196E-01 -0.16712527273E-01  0.43028548240E-01  0.51100000000E-03 0.  1.
         11    1    4    4    0    0  0.58731712201E-01  0.58816056849E-01 -0.34136179131E-01  0.89857010901E-01  0.51100000000E-03 0. -1.
</event>
<event>
 8    1  0.1123450E+005  0.1043930E+01  0.7957747E-01            NaN
         13   -1    0    0    0    0  0.00000000000E+00  0.00000000000E+00  0.74505805969E-08  0.10566000000E+00  0.10566000000E+00 0.  1.
     999900   -1    0    0    0    0 -0.00000000000E+00 -0.00000000000E+00 -0.74505805969E-08  0.93827000000E+00  0.93827000000E+00 0.  1.
     999902    2    1    2    0    0 -0.33667102866E-02  0.23113027575E-01  0.16965102545E-02  0.10205115259E+01  0.10202427895E+01 0.  0.
     999903    2    3    3    0    0  0.89613798577E-01 -0.87357855704E-01 -0.22479225814E-01  0.12841643159E+00  0.17984339346E-01 0.  0.
         14    1    1    2    0    0  0.33667102866E-02 -0.23113027575E-01 -0.16965102545E-02  0.23418474093E-01  0.00000000000E+00 0. -1.
     999901    1    3    3    0    0 -0.92980508864E-01  0.11047088328E+00  0.24175736069E-01  0.89209509431E+00  0.88000000000E+00 0.  1.
        -11    1    4    4    0    0  0.18123571450E-01 -0.88245593895E-02 -0.51455690476E-02  0.20810446712E-01  0.51100000000E-03 0. -1.
         11    1    4    4    0    0  0.71490227127E-01 -0.78533296314E-01 -0.17333656767E-01  0.10760598488E+00  0.51100000000E-03 0.  1.
</event>
<event>
 8    1  0.1123450E+005  0.1043930E+01  0.7957747E-01            NaN
         13   -1    0    0    0    0  0.00000000000E+00  0.00000000000E+00  0.74505805969E-08  0.10566000000E+00  0.10566000000E+00 0. -1.
     999900   -1    0    0    0    0 -0.00000000000E+00 -0.00000000000E+00 -0.74505805969E-08  0.93827000000E+00  0.93827000000E+00 0.  1.
     999902    2    1    2    0    0 -0.21498250307E-01  0.32419525221E-02  0.89305103046E-02  0.10204259783E+01  0.10201552520E+01 0.  0.
     999903    2    3    3    0    0 -0.10435590698E-01 -0.10377439791E+00 -0.74851901263E-01  0.12992366263E+00  0.19983087204E-01 0.  0.
         14    1    1    2    0    0  0.21498250307E-01 -0.32419525221E-02 -0.89305103046E-02  0.23504021714E-01  0.00000000000E+00 0.  1.
     999901    1    3    3    0    0 -0.11062659609E-01  0.10701635043E+00  0.83782411568E-01  0.89050231565E+00  0.88000000000E+00 0. -1.
        -11    1    4    4    0    0 -0.66201005531E-03 -0.85426569731E-02 -0.14205428157E-01  0.16597305673E-01  0.51100000000E-03 0. -1.
         11    1    4    4    0    0 -0.97735806428E-02 -0.95231740936E-01 -0.60646473107E-01  0.11332635696E+00  0.51100000000E-03 0.  1.
</event>
<event>
 8    1  0.1123450E+005  0.1043930E+01  0.7957747E-01            NaN
         13   -1    0    0    0    0  0.00000000000E+00  0.00000000000E+00  0.74505805969E-08  0.10566000000E+00  0.10566000000E+00 0. -1.
     999900   -1    0    0    0    0 -0.00000000000E+00 -0.00000000000E+00 -0.74505805969E-08  0.93827000000E+00  0.93827000000E+00 0.  1.
     999902    2    1    2    0    0 -0.20034076624E-01  0.13150415699E-01  0.35156722690E-03  0.10199629130E+01  0.10196812848E+01 0.  0.
     999903    2    3    3    0    0  0.44038746116E-01  0.12168204120E+00 -0.24832354193E-02  0.13097895565E+00  0.20084572555E-01 0.  0.
         14    1    1    2    0    0  0.20034076624E-01 -0.13150415699E-01 -0.35156722690E-03  0.23967086989E-01  0.00000000000E+00 0. -1.
     999901    1    3    3    0    0 -0.64072822740E-01 -0.10853162550E+00  0.28348026462E-02  0.88898395737E+00  0.88000000000E+00 0. -1.
        -11    1    4    4    0    0  0.15659158719E-01  0.65450081680E-01 -0.78778893515E-02  0.67758724201E-01  0.51100000000E-03 0.  1.
         11    1    4    4    0    0  0.28379587397E-01  0.56231959516E-01  0.53946539323E-02  0.63220231445E-01  0.51100000000E-03 0. -1.
</event>
<event>
 8    1  0.1123450E+005  0.1043930E+01  0.7957747E-01            NaN
         13   -1    0    0    0    0  0.00000000000E+00  0.00000000000E+00  0.74505805969E-08  0.10566000000E+00  0.10566000000E+00 0.  1.
     999900   -1    0    0    0    0 -0.00000000000E+00 -0.00000000000E+00 -0.74505805969E-08  0.93827000000E+00  0.93827000000E+00 0.  1.
     999902    2    1    2    0    0  0.18145044825E-01 -0.11901440736E-01 -0.95918388876E-02  0.10202046904E+01  0.10199287818E+01 0.  0.
     999903    2    3    3    0    0 -0.86877808631E-01  0.43729541595E-01  0.80269072856E-01  0.12768041093E+00  0.19978409307E-01 0.  0.
         14    1    1    2    0    0 -0.18145044825E-01  0.11901440736E-01  0.95918388876E-02  0.23725309619E-01  0.00000000000E+00 0.  1.
     999901    1    3    3    0    0  0.10502285346E+00 -0.55630982330E-01 -0.89860911744E-01  0.89252427945E+00  0.88000000000E+00 0.  1.
        -11    1    4    4    0    0 -0.84692999333E-01  0.44416551834E-01  0.80886193163E-01  0.12525402819E+00  0.51100000000E-03 0.  1.
         11    1    4    4    0    0 -0.21848092980E-02 -0.68701023951E-03 -0.61712030680E-03  0.24263827420E-02  0.51100000000E-03 0. -1.
</event>
<event>
 8    1  0.1123450E+005  0.1043930E+01  0.7957747E-01            NaN
         13   -1    0    0    0    0  0.00000000000E+00  0.00000000000E+00  0.74505805969E-08  0.10566000000E+00  0.10566000000E+00 0.  1.
     999900   -1    0    0    0    0 -0.00000000000E+00 -0.00000000000E+00 -0.74505805969E-08  0.93827000000E+00  0.93827000000E+00 0. -1.
     999902    2    1    2    0    0  0.17279140509E-02 -0.20135356770E-01 -0.11253126590E-01  0.10207988276E+01  0.10205367192E+01 0.  0.
     999903    2    3    3    0    0 -0.95927166573E-01  0.64442916476E-01  0.53716782757E-01  0.12899667004E+00  0.19993432966E-01 0.  0.
         14    1    1    2    0    0 -0.17279140509E-02  0.20135356770E-01  0.11253126590E-01  0.23131172414E-01  0.00000000000E+00 0. -1.
     999901    1    3    3    0    0  0.97655080624E-01 -0.84578273246E-01 -0.64969909347E-01  0.89180215754E+00  0.88000000000E+00 0. -1.
        -11    1    4    4    0    0 -0.60134255237E-01  0.43587239088E-01  0.24149224936E-01  0.78098798008E-01  0.51100000000E-03 0. -1.
         11    1    4    4    0    0 -0.35792911335E-01  0.20855677388E-01  0.29567557821E-01  0.50897872035E-01  0.51100000000E-03 0.  1.
</event>
<event>
 8    1  0.1123450E+005  0.1043930E+01  0.7957747E-01            NaN
         13   -1    0    0    0    0  0.00000000000E+00  0.00000000000E+00  0.74505805969E-08  0.10566000000E+00  0.10566000000E+00 0. -1.
     999900   -1    0    0    0    0 -0.00000000000E+00 -0.00000000000E+00 -0.74505805969E-08  0.93827000000E+00  0.93827000000E+00 0.  1.
     999902    2    1    2    0    0 -0.19377678269E-01  0.15211112570E-02 -0.13648069839E-01  0.10201796736E+01  0.10199031760E+01 0.  0.
     999903    2    3    3    0    0 -0.50136208224E-01  0.11606923430E+00  0.29773259401E-01  0.13116180453E+00  0.18200699602E-01 0.  0.
         14    1    1    2    0    0  0.19377678269E-01 -0.15211112570E-02  0.13648069839E-01  0.23750326417E-01  0.00000000000E+00 0.  1.
     999901    1    3    3    0    0  0.30758529954E-01 -0.11454812305E+00 -0.43421329240E-01  0.88901786905E+00  0.88000000000E+00 0. -1.
        -11    1    4    4    0    0 -0.22093789221E-01  0.64873751370E-01  0.86296719307E-02  0.69075838739E-01  0.51100000000E-03 0.  1.
         11    1    4    4    0    0 -0.28042419002E-01  0.51195482934E-01  0.21143587470E-01  0.62085965793E-01  0.51100000000E-03 0. -1.
</event>
<event>
 7    1  0.1123450E+005  0.1043930E+01  0.7957747E-01            NaN
         13   -1    0    0    0    0  0.00000000000E+00  0.00000000000E+00  0.74505805969E-08  0.10566000000E+00  0.10566000000E+00 0. -1.
     999900   -1    0    0    0    0 -0.00000000000E+00 -0.00000000000E+00 -0.74505805969E-08  0.93827000000E+00  0.93827000000E+00 0.  1.
     999903    2    1    2    0    0  0.34212231730E-01 -0.91857673767E-01 -0.55847935618E-01  0.11500206383E+00  0.22319806074E-01 0.  0.
         14    1    1    2    0    0 -0.95651581788E-03  0.45367940234E-01  0.15882860849E-02  0.45405809940E-01  0.00000000000E+00 0. -1.
     999901    1    1    2    0    0 -0.33255715912E-01  0.46489733533E-01  0.54259649533E-01  0.88352212623E+00  0.88000000000E+00 0.  1.
        -11    1    3    3    0    0  0.89882767151E-03 -0.24066135454E-01 -0.20380918301E-01  0.31553600724E-01  0.51100000000E-03 0.  1.
         11    1    3    3    0    0  0.33313404059E-01 -0.67791538314E-01 -0.35467017316E-01  0.83448463109E-01  0.51100000000E-03 0. -1.
</event>
<event>
 8    1  0.1123450E+005  0.1043930E+01  0.7957747E-01            NaN
         13   -1    0    0    0    0  0.00000000000E+00  0.00000000000E+00  0.74505805969E-08  0.10566000000E+00  0.10566000000E+00 0. -1.
     999900   -1    0    0    0    0 -0.00000000000E+00 -0.00000000000E+00 -0.74505805969E-08  0.93827000000E+00  0.93827000000E+00 0. -1.
     999902    2    1    2    0    0 -0.32947093572E-02 -0.19949063698E-01  0.10679793206E-01  0.10210634691E+01  0.10208073911E+01 0.  0.
     999903    2    3    3    0    0 -0.46525422425E-01  0.87131139518E-02 -0.11954205868E+00  0.12996967736E+00  0.19007365772E-01 0.  0.
         14    1    1    2    0    0  0.32947093572E-02  0.19949063698E-01 -0.10679793206E-01  0.22866530893E-01  0.00000000000E+00 0. -1.
     999901    1    3    3    0    0  0.43230713068E-01 -0.28662177650E-01  0.13022185188E+00  0.89109379175E+00  0.88000000000E+00 0.  1.
        -11    1    4    4    0    0 -0.27051137085E-01 -0.25074515778E-02 -0.79936032553E-01  0.84427967832E-01  0.51100000000E-03 0.  1.
         11    1    4    4    0    0 -0.19474285340E-01  0.11220565530E-01 -0.39606026126E-01  0.45541709528E-01  0.51100000000E-03 0. -1.
</event>
<event>
 8    1  0.1123450E+005  0.1043930E+01  0.7957747E-01            NaN
         13   -1    0    0    0    0  0.00000000000E+00  0.00000000000E+00  0.74505805969E-08  0.10566000000E+00  0.10566000000E+00 0. -1.
     999900   -1    0    0    0    0 -0.00000000000E+00 -0.00000000000E+00 -0.74505805969E-08  0.93827000000E+00  0.93827000000E+00 0.  1.
     999902    2    1    2    0    0  0.30134092758E-01 -0.97653858993E-02  0.29192809385E-02  0.10121188619E+01  0.10116188225E+01 0.  0.
     999903    2    3    3    0    0 -0.64429061598E-01  0.99290895008E-01 -0.81974420129E-02  0.12028981766E+00  0.19815558697E-01 0.  0.
         14    1    1    2    0    0 -0.30134092758E-01  0.97653858993E-02 -0.29192809385E-02  0.31811138133E-01  0.00000000000E+00 0.  1.
     999901    1    3    3    0    0  0.94563154356E-01 -0.10905628091E+00  0.11116722951E-01  0.89182904421E+00  0.88000000000E+00 0. -1.
        -11    1    4    4    0    0 -0.16944727393E-01  0.32128866999E-01 -0.11098139113E-01  0.37984440154E-01  0.51100000000E-03 0.  1.
         11    1    4    4    0    0 -0.47484334205E-01  0.67162028010E-01  0.29006970998E-02  0.82305377503E-01  0.51100000000E-03 0. -1.
</event>
<event>
 8    1  0.1123450E+005  0.1043930E+01  0.7957747E-01            NaN
         13   -1    0    0    0    0  0.00000000000E+00  0.00000000000E+00  0.74505805969E-08  0.10566000000E+00  0.10566000000E+00 0. -1.
     999900   -1    0    0    0    0 -0.00000000000E+00 -0.00000000000E+00 -0.74505805969E-08  0.93827000000E+00  0.93827000000E+00 0. -1.
     999902    2    1    2    0    0 -0.60507166565E-02  0.11208584774E-01 -0.19744051975E-01  0.10204338060E+01  0.10201632621E+01 0.  0.
     999903    2    3    3    0    0 -0.48326265452E-01 -0.16129717757E-01  0.11637820729E+00  0.12854599114E+00  0.19610940244E-01 0.  0.
         14    1    1    2    0    0  0.60507166565E-02 -0.11208584774E-01  0.19744051975E-01  0.23496194013E-01  0.00000000000E+00 0. -1.
     999901    1    3    3    0    0  0.42275548796E-01  0.27338302531E-01 -0.13612225927E+00  0.89188781485E+00  0.88000000000E+00 0. -1.
        -11    1    4    4    0    0 -0.62128084237E-02 -0.17305110056E-02  0.36812650775E-01  0.37376811460E-01  0.51100000000E-03 0. -1.
         11    1    4    4    0    0 -0.42113457028E-01 -0.14399206752E-01  0.79565556517E-01  0.91169179676E-01  0.51100000000E-03 0.  1.
</event>
<event>
 8    1  0.1123450E+005  0.1043930E+01  0.7957747E-01            NaN
         13   -1    0    0    0    0  0.00000000000E+00  0.00000000000E+00  0.74505805969E-08  0.10566000000E+00  0.10566000000E+00 0. -1.
     999900   -1    0    0    0    0 -0.00000000000E+00 -0.00000000000E+00 -0.74505805969E-08  0.93827000000E+00  0.93827000000E+00 0. -1.
     999902    2    1    2    0    0  0.42343605351E-02 -0.70514176577E-02 -0.22076867259E-01  0.10203707053E+01  0.10200986892E+01 0.  0.
     999903    2    3    3    0    0 -0.32089886046E-01 -0.95562347714E-01 -0.84504567203E-01  0.13298642924E+00  0.19556211204E-01 0.  0.
         14    1    1    2    0    0 -0.42343605351E-02  0.70514176577E-02  0.22076867259E-01  0.23559294728E-01  0.00000000000E+00 0. -1.
     999901    1    3    3    0    0  0.36324246581E-01  0.88510930056E-01  0.62427699945E-01  0.88738427603E+00  0.88000000000E+00 0. -1.
        -11    1    4    4    0    0 -0.19623906681E-01 -0.60420709567E-01 -0.65050446734E-01  0.90926242633E-01  0.51100000000E-03 0.  1.
         11    1    4    4    0    0 -0.12465979365E-01 -0.35141638147E-01 -0.19454120469E-01  0.42060186607E-01  0.51100000000E-03 0. -1.
</event>
<event>
 8    1  0.1123450E+005  0.1043930E+01  0.7957747E-01            NaN
         13   -1    0    0    0    0  0.00000000000E+00  0.00000000000E+00  0.74505805969E-08  0.10566000000E+00  0.10566000000E+00 0.  1.
     999900   -1    0    0    0    0 -0.00000000000E+00 -0.00000000000E+00 -0.74505805969E-08  0.93827000000E+00  0.93827000000E+00 0. -1.
     999902    2    1    2    0    0  0.99119128176E-02  0.16941067562E-01 -0.16637791441E-01  0.10181994367E+01  0.10178742707E+01 0.  0.
     999903    2    3    3    0    0 -0.29059110867E-01  0.11051743052E+00 -0.61415272804E-01  0.13124943850E+00  0.19900879401E-01 0.  0.
         14    1    1    2    0    0 -0.99119128176E-02 -0.16941067562E-01  0.16637791441E-01  0.25730563341E-01  0.00000000000E+00 0.  1.
     999901    1    3    3    0    0  0.38971023684E-01 -0.93576362957E-01  0.44777481363E-01  0.88694999816E+00  0.88000000000E+00 0.  1.
        -11    1    4    4    0    0 -0.27742775157E-01  0.76682489523E-01 -0.37286971664E-01  0.89668529316E-01  0.51100000000E-03 0.  1.
         11    1    4    4    0    0 -0.13163357092E-02  0.33834940996E-01 -0.24128301140E-01  0.41580909187E-01  0.51100000000E-03 0. -1.
</event>
<event>
 8    1  0.1123450E+005  0.1043930E+01  0.7957747E-01            NaN
         13   -1    0    0    0    0  0.00000000000E+00  0.00000000000E+00  0.74505805969E-08  0.10566000000E+00  0.10566000000E+00 0.  1.
     999900   -1    0    0    0    0 -0.00000000000E+00 -0.00000000000E+00 -0.74505805969E-08  0.93827000000E+00  0.93827000000E+00 0. -1.
     999902    2    1    2    0    0 -0.14694180694E-01 -0.28216996773E-02  0.18222179020E-01  0.10203518588E+01  0.10200794023E+01 0.  0.
     999903    2    3    3    0    0 -0.44429631870E-02 -0.10099778054E+00 -0.78270995324E-01  0.12959119338E+00  0.21147980923E-01 0.  0.
         14    1    1    2    0    0  0.14694180694E-01  0.28216996773E-02 -0.18222179020E-01  0.23578141224E-01  0.00000000000E+00 0. -1.
     999901    1    3    3    0    0 -0.10251217507E-01  0.98176080867E-01  0.96493174344E-01  0.89076066539E+00  0.88000000000E+00 0.  1.
        -11    1    4    4    0    0 -0.40155600591E-02 -0.36418618886E-01 -0.16368490246E-01  0.40132644046E-01  0.51100000000E-03 0.  1.
         11    1    4    4    0    0 -0.42740312795E-03 -0.64579161658E-01 -0.61902505078E-01  0.89458549339E-01  0.51100000000E-03 0. -1.
</event>
<event>
 8    1  0.1123450E+005  0.1043930E+01  0.7957747E-01            NaN
         13   -1    0    0    0    0  0.00000000000E+00  0.00000000000E+00  0.74505805969E-08  0.10566000000E+00  0.10566000000E+00 0. -1.
     999900   -1    0    0    0    0 -0.00000000000E+00 -0.00000000000E+00 -0.74505805969E-08  0.93827000000E+00  0.93827000000E+00 0.  1.
     999902    2    1    2    0    0 -0.60576385235E-03 -0.22329319256E-01  0.77280289454E-02  0.10202934207E+01  0.10200195961E+01 0.  0.
     999903    2    3    3    0    0 -0.12876212702E-03  0.12384160126E+00 -0.23616159341E-01  0.12768565487E+00  0.20227325416E-01 0.  0.
         14    1    1    2    0    0  0.60576385235E-03  0.22329319256E-01 -0.77280289454E-02  0.23636579272E-01  0.00000000000E+00 0. -1.
     999901    1    3    3    0    0 -0.47700172533E-03 -0.14617092052E+00  0.31344188286E-01  0.89260776586E+00  0.88000000000E+00 0. -1.
        -11    1    4    4    0    0  0.80036257227E-03  0.16591956971E-01 -0.10435717961E-01  0.19623938105E-01  0.51100000000E-03 0. -1.
         11    1    4    4    0    0 -0.92912469929E-03  0.10724964429E+00 -0.13180441380E-01  0.10806171676E+00  0.51100000000E-03 0.  1.
</event>
<event>
 8    1  0.1123450E+005  0.1043930E+01  0.7957747E-01            NaN
         13   -1    0    0    0    0  0.00000000000E+00  0.00000000000E+00  0.74505805969E-08  0.10566000000E+00  0.10566000000E+00 0.  1.
     999900   -1    0    0    0    0 -0.00000000000E+00 -0.00000000000E+00 -0.74505805969E-08  0.93827000000E+00  0.93827000000E+00 0. -1.
     999902    2    1    2    0    0 -0.18634459225E-01 -0.11086251644E-01  0.79505396099E-02  0.10208354308E+01  0.10205741608E+01 0.  0.
     999903    2    3    3    0    0 -0.35215896876E-01 -0.83076814593E-01  0.96024136743E-01  0.13335892760E+00  0.20543909519E-01 0.  0.
         14    1    1    2    0    0  0.18634459225E-01  0.11086251644E-01 -0.79505396099E-02  0.23094569193E-01  0.00000000000E+00 0. -1.
     999901    1    3    3    0    0  0.16581437650E-01  0.71990562950E-01 -0.88073597133E-01  0.88747650320E+00  0.88000000000E+00 0.  1.
        -11    1    4    4    0    0 -0.98419018829E-02 -0.10394983873E-01  0.79546321220E-02  0.16384627417E-01  0.51100000000E-03 0.  1.
         11    1    4    4    0    0 -0.25373994993E-01 -0.72681830720E-01  0.88069504621E-01  0.11697430019E+00  0.51100000000E-03 0. -1.
</event>
<event>
 8    1  0.1123450E+005  0.1043930E+01  0.7957747E-01            NaN
         13   -1    0    0    0    0  0.00000000000E+00  0.00000000000E+00  0.74505805969E-08  0.10566000000E+00  0.10566000000E+00 0. -1.
     999900   -1    0    0    0    0 -0.00000000000E+00 -0.00000000000E+00 -0.74505805969E-08  0.93827000000E+00  0.93827000000E+00 0.  1.
     999902    2    1    2    0    0  0.25844449006E-01  0.25040049557E-01 -0.21697465082E-02  0.10078793769E+01  0.10072344270E+01 0.  0.
     999903    2    3    3    0    0 -0.73369997921E-01  0.68524440743E-01 -0.60482059946E-01  0.11932171154E+00  0.22379358717E-01 0.  0.
         14    1    1    2    0    0 -0.25844449006E-01 -0.25040049557E-01  0.21697465082E-02  0.36050623104E-01  0.00000000000E+00 0.  1.
     999901    1    3    3    0    0  0.99214446927E-01 -0.43484391186E-01  0.58312313438E-01  0.88855766535E+00  0.88000000000E+00 0. -1.
        -11    1    4    4    0    0 -0.32855897336E-01  0.21617285559E-01 -0.33716989771E-01  0.51806500991E-01  0.51100000000E-03 0. -1.
         11    1    4    4    0    0 -0.40514100585E-01  0.46907155184E-01 -0.26765070175E-01  0.67515210554E-01  0.51100000000E-03 0.  1.
</event>
<event>
 8    1  0.1123450E+005  0.1043930E+01  0.7957747E-01            NaN
         13   -1    0    0    0    0  0.00000000000E+00  0.00000000000E+00  0.74505805969E-08  0.10566000000E+00  0.10566000000E+00 0. -1.
     999900   -1    0    0    0    0 -0.00000000000E+00 -0.00000000000E+00 -0.74505805969E-08  0.93827000000E+00  0.93827000000E+00 0.  1.
     999902    2    1    2    0    0 -0.11968495079E-01  0.19906878789E-01 -0.65825650822E-02  0.10197875299E+01  0.10195017152E+01 0.  0.
     999903    2    3    3    0    0  0.36860839287E-01 -0.79137834872E-01 -0.92365851365E-01  0.12874716531E+00  0.20563649845E-01 0.  0.
         14    1    1    2    0    0  0.11968495079E-01 -0.19906878789E-01  0.65825650822E-02  0.24142470061E-01  0.00000000000E+00 0. -1.
     999901    1    3    3    0    0 -0.48829334366E-01  0.99044713661E-01  0.85783286283E-01  0.89104036463E+00  0.88000000000E+00 0. -1.
        -11    1    4    4    0    0  0.26978243449E-01 -0.59570131156E-01 -0.80824254281E-01  0.10396753025E+00  0.51100000000E-03 0. -1.
         11    1    4    4    0    0  0.98825958386E-02 -0.19567703716E-01 -0.11541597085E-01  0.24779635056E-01  0.51100000000E-03 0.  1.
</event>
<event>
 8    1  0.1123450E+005  0.1043930E+01  0.7957747E-01            NaN
         13   -1    0    0    0    0  0.00000000000E+00  0.00000000000E+00  0.74505805969E-08  0.10566000000E+00  0.10566000000E+00 0. -1.
     999900   -1    0    0    0    0 -0.00000000000E+00 -0.00000000000E+00 -0.74505805969E-08  0.93827000000E+00  0.93827000000E+00 0.  1.
     999902    2    1    2    0    0  0.24139884296E-02 -0.76730774531E-02  0.20711014667E-01  0.10217117736E+01  0.10214701653E+01 0.  0.
     999903    2    3    3    0    0  0.77914932938E-01  0.10379053801E+00 -0.72282170963E-02  0.13103499107E+00  0.16574353865E-01 0.  0.
         14    1    1    2    0    0 -0.24139884296E-02  0.76730774531E-02 -0.20711014667E-01  0.22218226443E-01  0.00000000000E+00 0.  1.
     999901    1    3    3    0    0 -0.75500944509E-01 -0.11146361546E+00  0.27939231764E-01  0.89067678249E+00  0.88000000000E+00 0.  1.
        -11    1    4    4    0    0  0.46355790883E-01  0.48048908963E-01 -0.45395420915E-02  0.66921039773E-01  0.51100000000E-03 0.  1.
         11    1    4    4    0    0  0.31559142056E-01  0.55741629048E-01 -0.26886750048E-02  0.64113951294E-01  0.51100000000E-03 0. -1.
</event>
<event>
 8    1  0.1123450E+005  0.1043930E+01  0.7957747E-01            NaN
         13   -1    0    0    0    0  0.00000000000E+00  0.00000000000E+00  0.74505805969E-08  0.10566000000E+00  0.10566000000E+00 0.  1.
     999900   -1    0    0    0    0 -0.00000000000E+00 -0.00000000000E+00 -0.74505805969E-08  0.93827000000E+00  0.93827000000E+00 0.  1.
     999902    2    1    2    0    0  0.15615736211E-01  0.43248853268E-02  0.17060046880E-01  0.10204012718E+01  0.10201299694E+01 0.  0.
     999903    2    3    3    0    0 -0.10339075404E+00  0.42255952524E-01 -0.59388104521E-01  0.12829946684E+00  0.21414777333E-01 0.  0.
         14    1    1    2    0    0 -0.15615736211E-01 -0.43248853268E-02 -0.17060046880E-01  0.23528728186E-01  0.00000000000E+00 0. -1.
     999901    1    3    3    0    0  0.11900649025E+00 -0.37931067197E-01  0.76448151401E-01  0.89210180497E+00  0.88000000000E+00 0. -1.
        -11    1    4    4    0    0 -0.62416143048E-01  0.26994344623E-01 -0.47606072643E-01  0.83012461884E-01  0.51100000000E-03 0. -1.
         11    1    4    4    0    0 -0.40974610995E-01  0.15261607901E-01 -0.11782031878E-01  0.45287004958E-01  0.51100000000E-03 0.  1.
</event>
<event>
 8    1  0.1123450E+005  0.1043930E+01  0.7957747E-01            NaN
         13   -1    0    0    0    0  0.00000000000E+00  0.00000000000E+00  0.74505805969E-08  0.10566000000E+00  0.10566000000E+00 0. -1.
     999900   -1    0    0    0    0 -0.00000000000E+00 -0.00000000000E+00 -0.74505805969E-08  0.93827000000E+00  0.93827000000E+00 0. -1.
     999902    2    1    2    0    0  0.16165232966E-02 -0.13283893336E-01 -0.19719629431E-01  0.10200985344E+01  0.10198201219E+01 0.  0.
     999903    2    3    3    0    0 -0.10262791879E+00  0.28470655157E-01 -0.74222254207E-01  0.13128984733E+00  0.19621750017E-01 0.  0.
         14    1    1    2    0    0 -0.16165232966E-02  0.13283893336E-01  0.19719629431E-01  0.23831465641E-01  0.00000000000E+00 0. -1.
     999901    1    3    3    0    0  0.10424444208E+00 -0.41754548493E-01  0.54502624777E-01  0.88880868703E+00  0.88000000000E+00 0. -1.
        -11    1    4    4    0    0 -0.82258235105E-01  0.15817925561E-01 -0.62976229463E-01  0.10479928726E+00  0.51100000000E-03 0. -1.
         11    1    4    4    0    0 -0.20369683681E-01  0.12652729595E-01 -0.11246024744E-01  0.26490560074E-01  0.51100000000E-03 0.  1.
</event>
<event>
 8    1  0.1123450E+005  0.1043930E+01  0.7957747E-01            NaN
         13   -1    0    0    0    0  0.00000000000E+00  0.00000000000E+00  0.74505805969E-08  0.10566000000E+00  0.10566000000E+00 0. -1.
     999900   -1    0    0    0    0 -0.00000000000E+00 -0.00000000000E+00 -0.74505805969E-08  0.93827000000E+00  0.93827000000E+00 0. -1.
     999902    2    1    2    0    0  0.16904772796E-01  0.94119151760E-02  0.89520193019E-02  0.10226111318E+01  0.10223888853E+01 0.  0.
     999903    2    3    3    0    0  0.11055762500E+00 -0.47187030055E-01  0.56673953080E-01  0.13455050310E+00  0.21030850582E-01 0.  0.
         14    1    1    2    0    0 -0.16904772796E-01 -0.94119151760E-02 -0.89520193019E-02  0.21318868172E-01  0.00000000000E+00 0. -1.
     999901    1    3    3    0    0 -0.93652852205E-01  0.56598945231E-01 -0.47721933778E-01  0.88806062872E+00  0.88000000000E+00 0.  1.
        -11    1    4    4    0    0  0.59027464955E-01 -0.14952401147E-01  0.33486165464E-01  0.69493886908E-01  0.51100000000E-03 0.  1.
         11    1    4    4    0    0  0.51530160046E-01 -0.32234628908E-01  0.23187787616E-01  0.65056616195E-01  0.51100000000E-03 0. -1.
</event>
<event>
 8    1  0.1123450E+005  0.1043930E+01  0.7957747E-01            NaN
         13   -1    0    0    0    0  0.00000000000E+00  0.00000000000E+00  0.74505805969E-08  0.10566000000E+00  0.10566000000E+00 0. -1.
     999900   -1    0    0    0    0 -0.00000000000E+00 -0.00000000000E+00 -0.74505805969E-08  0.93827000000E+00  0.93827000000E+00 0.  1.
     999902    2    1    2    0    0 -0.43676269776E-02  0.16474730147E-01  0.16933685777E-01  0.10199041262E+01  0.10196210982E+01 0.  0.
     999903    2    3    3    0    0  0.12841015540E-01 -0.10980250687E+00 -0.60218405321E-01  0.12738268491E+00  0.19457900211E-01 0.  0.
         14    1    1    2    0    0  0.43676269776E-02 -0.16474730147E-01 -0.16933685777E-01  0.24025873821E-01  0.00000000000E+00 0.  1.
     999901    1    3    3    0    0 -0.17208642518E-01  0.12627723702E+00  0.77152091098E-01  0.89252144127E+00  0.88000000000E+00 0.  1.
        -11    1    4    4    0    0  0.14297850597E-01 -0.10270742120E+00 -0.50752733204E-01  0.11545277801E+00  0.51100000000E-03 0. -1.
         11    1    4    4    0    0 -0.14568350573E-02 -0.70950856676E-02 -0.94656721170E-02  0.11929906900E-01  0.51100000000E-03 0.  1.
</event>
<event>
 7    1  0.1123450E+005  0.1043930E+01  0.7957747E-01            NaN
         13   -1    0    0    0    0  0.00000000000E+00  0.00000000000E+00  0.74505805969E-08  0.10566000000E+00  0.10566000000E+00 0. -1.
     999900   -1    0    0    0    0 -0.00000000000E+00 -0.00000000000E+00 -0.74505805969E-08  0.93827000000E+00  0.93827000000E+00 0.  1.
     999903    2    1    2    0    0  0.46056683326E-01  0.90543365474E-01  0.71754221579E-02  0.10395612475E+00  0.20882291036E-01 0.  0.
         14    1    1    2    0    0 -0.37142709244E-01  0.16563692353E-02  0.39033079977E-01  0.53906453617E-01  0.00000000000E+00 0. -1.
     999901    1    1    2    0    0 -0.89139740814E-02 -0.92199734710E-01 -0.46208502135E-01  0.88606742164E+00  0.88000000000E+00 0.  1.
        -11    1    3    3    0    0  0.11461733617E-01  0.26716816808E-01 -0.71800136493E-02  0.29949513433E-01  0.51100000000E-03 0. -1.
         11    1    3    3    0    0  0.34594949709E-01  0.63826548666E-01  0.14355435807E-01  0.74006611314E-01  0.51100000000E-03 0.  1.
</event>
<event>
 8    1  0.1123450E+005  0.1043930E+01  0.7957747E-01            NaN
         13   -1    0    0    0    0  0.00000000000E+00  0.00000000000E+00  0.74505805969E-08  0.10566000000E+00  0.10566000000E+00 0.  1.
     999900   -1    0    0    0    0 -0.00000000000E+00 -0.00000000000E+00 -0.74505805969E-08  0.93827000000E+00  0.93827000000E+00 0.  1.
     999902    2    1    2    0    0  0.87008720522E-02  0.85167263683E-02  0.21128242941E-01  0.10195447083E+01  0.10192530450E+01 0.  0.
     999903    2    3    3    0    0 -0.65522815431E-01 -0.10703569108E+00  0.21557656391E-01  0.12889230618E+00  0.19965358417E-01 0.  0.
         14    1    1    2    0    0 -0.87008720522E-02 -0.85167263683E-02 -0.21128242941E-01  0.24385291720E-01  0.00000000000E+00 0. -1.
     999901    1    3    3    0    0  0.74223687483E-01  0.11555241745E+00 -0.42941345027E-03  0.89065240210E+00  0.88000000000E+00 0. -1.
        -11    1    4    4    0    0 -0.29931451744E-01 -0.63486583521E-01  0.18381532285E-01  0.72557425126E-01  0.51100000000E-03 0. -1.
         11    1    4    4    0    0 -0.35591363687E-01 -0.43549107563E-01  0.31761241057E-02  0.56334881059E-01  0.51100000000E-03 0.  1.
</event>
<event>
 8    1  0.1123450E+005  0.1043930E+01  0.7957747E-01            NaN
         13   -1    0    0    0    0  0.00000000000E+00  0.00000000000E+00  0.74505805969E-08  0.10566000000E+00  0.10566000000E+00 0.  1.
     999900   -1    0    0    0    0 -0.00000000000E+00 -0.00000000000E+00 -0.74505805969E-08  0.93827000000E+00  0.93827000000E+00 0. -1.
     999902    2    1    2    0    0  0.96487052896E-02 -0.47285693802E-02 -0.21582200754E-01  0.10198209089E+01  0.10195358935E+01 0.  0.
     999903    2    3    3    0    0  0.53382288029E-01 -0.54438616637E-02  0.11472715823E+00  0.12825297589E+00  0.20179214171E-01 0.  0.
         14    1    1    2    0    0 -0.96487052896E-02  0.47285693802E-02  0.21582200754E-01  0.24109091056E-01  0.00000000000E+00 0.  1.
     999901    1    3    3    0    0 -0.43733582740E-01  0.71529228351E-03 -0.13630935898E+00  0.89156793305E+00  0.88000000000E+00 0. -1.
        -11    1    4    4    0    0  0.15317166557E-01  0.61375863595E-02  0.45531106535E-01  0.48431687364E-01  0.51100000000E-03 0. -1.
         11    1    4    4    0    0  0.38065121472E-01 -0.11581448023E-01  0.69196051694E-01  0.79821288527E-01  0.51100000000E-03 0.  1.
</event>
<event>
 8    1  0.1123450E+005  0.1043930E+01  0.7957747E-01            NaN
         13   -1    0    0    0    0  0.00000000000E+00  0.00000000000E+00  0.74505805969E-08  0.10566000000E+00  0.10566000000E+00 0.  1.
     999900   -1    0    0    0    0 -0.00000000000E+00 -0.00000000000E+00 -0.74505805969E-08  0.93827000000E+00  0.93827000000E+00 0.  1.
     999902    2    1    2    0    0  0.11284085253E-01 -0.33209123794E-02 -0.21713026910E-01  0.10192355760E+01  0.10189363792E+01 0.  0.
     999903    2    3    3    0    0 -0.73972746421E-01 -0.35278577275E-01 -0.10038425047E+00  0.13104686795E+00  0.19486883502E-01 0.  0.
         14    1    1    2    0    0 -0.11284085253E-01  0.33209123794E-02  0.21713026910E-01  0.24694423999E-01  0.00000000000E+00 0.  1.
     999901    1    3    3    0    0  0.85256831675E-01  0.31957664895E-01  0.78671223563E-01  0.88818870805E+00  0.88000000000E+00 0. -1.
        -11    1    4    4    0    0 -0.33385671798E-01 -0.63274730819E-02 -0.34527867061E-01  0.48446617238E-01  0.51100000000E-03 0. -1.
         11    1    4    4    0    0 -0.40587074623E-01 -0.28951104193E-01 -0.65856383412E-01  0.82600250711E-01  0.51100000000E-03 0.  1.
</event>
<event>
 8    1  0.1123450E+005  0.1043930E+01  0.7957747E-01            NaN
         13   -1    0    0    0    0  0.00000000000E+00  0.00000000000E+00  0.74505805969E-08  0.10566000000E+00  0.10566000000E+00 0. -1.
     999900   -1    0    0    0    0 -0.00000000000E+00 -0.00000000000E+00 -0.74505805969E-08  0.93827000000E+00  0.93827000000E+00 0. -1.
     999902    2    1    2    0    0 -0.10573621228E-01 -0.17946707146E-01  0.97875103811E-02  0.10209151977E+01  0.10206557499E+01 0.  0.
     999903    2    3    3    0    0  0.58359918522E-01  0.26593055014E-01  0.11259204898E+00  0.13113747468E+00  0.20174169304E-01 0.  0.
         14    1    1    2    0    0  0.10573621228E-01  0.17946707146E-01 -0.97875103811E-02  0.23014802253E-01  0.00000000000E+00 0. -1.
     999901    1    3    3    0    0 -0.68933539751E-01 -0.44539762160E-01 -0.10280453860E+00  0.88977772307E+00  0.88000000000E+00 0. -1.
        -11    1    4    4    0    0  0.41643940352E-01  0.15439362905E-01  0.93023763519E-01  0.10308381733E+00  0.51100000000E-03 0.  1.
         11    1    4    4    0    0  0.16715978170E-01  0.11153692109E-01  0.19568285458E-01  0.28053657348E-01  0.51100000000E-03 0. -1.
</event>
<event>
 8    1  0.1123450E+005  0.1043930E+01  0.7957747E-01            NaN
         13   -1    0    0    0    0  0.00000000000E+00  0.00000000000E+00  0.74505805969E-08  0.10566000000E+00  0.10566000000E+00 0.  1.
     999900   -1    0    0    0    0 -0.00000000000E+00 -0.00000000000E+00 -0.74505805969E-08  0.93827000000E+00  0.93827000000E+00 0.  1.
     999902    2    1    2    0    0 -0.16363526358E-01 -0.11521072968E-01 -0.13343005954E-01  0.10198772262E+01  0.10195935566E+01 0.  0.
     999903    2    3    3    0    0 -0.26536357880E-01 -0.12546513931E+00  0.22700490512E-01  0.13174104841E+00  0.19867362550E-01 0.  0.
         14    1    1    2    0    0  0.16363526358E-01  0.11521072968E-01  0.13343005954E-01  0.24052773751E-01  0.00000000000E+00 0.  1.
     999901    1    3    3    0    0  0.10172831522E-01  0.11394406634E+00 -0.36043496466E-01  0.88813617784E+00  0.88000000000E+00 0.  1.
        -11    1    4    4    0    0 -0.98320446072E-02 -0.63922288808E-01  0.20472930502E-02  0.64708427870E-01  0.51100000000E-03 0. -1.
         11    1    4    4    0    0 -0.16704313273E-01 -0.61542850500E-01  0.20653197462E-01  0.67032620536E-01  0.51100000000E-03 0.  1.
</event>
<event>
 8    1  0.1123450E+005  0.1043930E+01  0.7957747E-01            NaN
         13   -1    0    0    0    0  0.00000000000E+00  0.00000000000E+00  0.74505805969E-08  0.10566000000E+00  0.10566000000E+00 0.  1.
     999900   -1    0    0    0    0 -0.00000000000E+00 -0.00000000000E+00 -0.74505805969E-08  0.93827000000E+00  0.93827000000E+00 0.  1.
     999902    2    1    2    0    0 -0.19381877884E-01 -0.48574332154E-02  0.12658392129E-01  0.10202765280E+01  0.10200023072E+01 0.  0.
     999903    2    3    3    0    0 -0.41650992624E-01  0.91146586524E-01  0.83532582883E-01  0.13194334938E+00  0.19719270264E-01 0.  0.
         14    1    1    2    0    0  0.19381877884E-01  0.48574332154E-02 -0.12658392129E-01  0.23653472029E-01  0.00000000000E+00 0. -1.
     999901    1    3    3    0    0  0.22269114740E-01 -0.96004019740E-01 -0.70874190755E-01  0.88833317859E+00  0.88000000000E+00 0.  1.
        -11    1    4    4    0    0 -0.34554360647E-01  0.87538820785E-01  0.75943300071E-01  0.12093260491E+00  0.51100000000E-03 0.  1.
         11    1    4    4    0    0 -0.70966319765E-02  0.36077657396E-02  0.75892828122E-02  0.11010744464E-01  0.51100000000E-03 0. -1.
</event>
<event>
 8    1  0.1123450E+005  0.1043930E+01  0.7957747E-01            NaN
         13   -1    0    0    0    0  0.00000000000E+00  0.00000000000E+00  0.74505805969E-08  0.10566000000E+00  0.10566000000E+00 0.  1.
     999900   -1    0    0    0    0 -0.00000000000E+00 -0.00000000000E+00 -0.74505805969E-08  0.93827000000E+00  0.93827000000E+00 0.  1.
     999902    2    1    2    0    0  0.50758188608E-02  0.33308265577E-02  0.22223828879E-01  0.10208918379E+01  0.10206318571E+01 0.  0.
     999903    2    3    3    0    0 -0.10421553697E-01 -0.99186911675E-02 -0.12590704933E+00  0.12827855358E+00  0.19895050161E-01 0.  0.
         14    1    1    2    0    0 -0.50758188608E-02 -0.33308265577E-02 -0.22223828879E-01  0.23038162095E-01  0.00000000000E+00 0. -1.
     999901    1    3    3    0    0  0.15497372558E-01  0.13249517725E-01  0.14813087821E+00  0.89261328433E+00  0.88000000000E+00 0. -1.
        -11    1    4    4    0    0 -0.13012423673E-02  0.11140444152E-02 -0.83475558940E-01  0.83494696766E-01  0.51100000000E-03 0.  1.
         11    1    4    4    0    0 -0.91203113300E-02 -0.11032735583E-01 -0.42431490392E-01  0.44783856813E-01  0.51100000000E-03 0. -1.
</event>
<event>
 8    1  0.1123450E+005  0.1043930E+01  0.7957747E-01            NaN
         13   -1    0    0    0    0  0.00000000000E+00  0.00000000000E+00  0.74505805969E-08  0.10566000000E+00  0.10566000000E+00 0.  1.
     999900   -1    0    0    0    0 -0.00000000000E+00 -0.00000000000E+00 -0.74505805969E-08  0.93827000000E+00  0.93827000000E+00 0.  1.
     999902    2    1    2    0    0  0.15975310123E-01  0.14675167178E-01 -0.10955400639E-01  0.10196279040E+01  0.10193382514E+01 0.  0.
     999903    2    3    3    0    0 -0.72581459849E-01 -0.97264349042E-01 -0.35542580687E-01  0.12778863252E+00  0.18391238396E-01 0.  0.
         14    1    1    2    0    0 -0.15975310123E-01 -0.14675167178E-01  0.10955400639E-01  0.24302095967E-01  0.00000000000E+00 0. -1.
     999901    1    3    3    0    0  0.88556769972E-01  0.11193951622E+00  0.24587180049E-01  0.89183927152E+00  0.88000000000E+00 0.  1.
        -11    1    4    4    0    0 -0.71261258846E-01 -0.91659793698E-01 -0.30316750973E-01  0.11999604703E+00  0.51100000000E-03 0. -1.
         11    1    4    4    0    0 -0.13202010038E-02 -0.56045553440E-02 -0.52258297139E-02  0.77925854819E-02  0.51100000000E-03 0.  1.
</event>
<event>
 8    1  0.1123450E+005  0.1043930E+01  0.7957747E-01            NaN
         13   -1    0    0    0    0  0.00000000000E+00  0.00000000000E+00  0.74505805969E-08  0.10566000000E+00  0.10566000000E+00 0. -1.
     999900   -1    0    0    0    0 -0.00000000000E+00 -0.00000000000E+00 -0.74505805969E-08  0.93827000000E+00  0.93827000000E+00 0. -1.
     999902    2    1    2    0    0 -0.83384144685E-02 -0.53285168569E-02  0.23127042124E-01  0.10187748350E+01  0.10184642272E+01 0.  0.
     999903    2    3    3    0    0  0.60973994622E-01  0.75825367353E-01  0.84278472956E-01  0.13022001934E+00  0.19674299957E-01 0.  0.
         14    1    1    2    0    0  0.83384144685E-02  0.53285168569E-02 -0.23127042124E-01  0.25155164980E-01  0.00000000000E+00 0.  1.
     999901    1    3    3    0    0 -0.69312409091E-01 -0.81153884210E-01 -0.61151430831E-01  0.88855481568E+00  0.88000000000E+00 0.  1.
        -11    1    4    4    0    0  0.45346490666E-01  0.63212280117E-01  0.57480978481E-01  0.96728592367E-01  0.51100000000E-03 0.  1.
         11    1    4    4    0    0  0.15627503956E-01  0.12613087236E-01  0.26797494475E-01  0.33491426973E-01  0.51100000000E-03 0. -1.
</event>
<event>
 8    1  0.1123450E+005  0.1043930E+01  0.7957747E-01            NaN
         13   -1    0    0    0    0  0.00000000000E+00  0.00000000000E+00  0.74505805969E-08  0.10566000000E+00  0.10566000000E+00 0.  1.
     999900   -1    0    0    0    0 -0.00000000000E+00 -0.00000000000E+00 -0.74505805969E-08  0.93827000000E+00  0.93827000000E+00 0.  1.
     999902    2    1    2    0    0  0.16989428132E-01 -0.72086379099E-02  0.13827027347E-01  0.10208693883E+01  0.10206088948E+01 0.  0.
     999903    2    3    3    0    0  0.55364811912E-01  0.14642214423E-01  0.11894683407E+00  0.13351359513E+00  0.19946776891E-01 0.  0.
         14    1    1    2    0    0 -0.16989428132E-01  0.72086379099E-02 -0.13827027347E-01  0.23060611744E-01  0.00000000000E+00 0. -1.
     999901    1    3    3    0    0 -0.38375383781E-01 -0.21850852333E-01 -0.10511980672E+00  0.88735579313E+00  0.88000000000E+00 0.  1.
        -11    1    4    4    0    0  0.29401872074E-01  0.75797301509E-02  0.84564290910E-01  0.89851559857E-01  0.51100000000E-03 0.  1.
         11    1    4    4    0    0  0.25962939839E-01  0.70624842722E-02  0.34382543159E-01  0.43662035274E-01  0.51100000000E-03 0. -1.
</event>
<event>
 8    1  0.1123450E+005  0.1043930E+01  0.7957747E-01            NaN
         13   -1    0    0    0    0  0.00000000000E+00  0.00000000000E+00  0.74505805969E-08  0.10566000000E+00  0.10566000000E+00 0. -1.
     999900   -1    0    0    0    0 -0.00000000000E+00 -0.00000000000E+00 -0.74505805969E-08  0.93827000000E+00  0.93827000000E+00 0.  1.
     999902    2    1    2    0    0 -0.22185041690E-01 -0.82537804308E-02  0.26136413483E-02  0.10201154648E+01  0.10198374524E+01 0.  0.
     999903    2    3    3    0    0 -0.12159228965E+00  0.49274010609E-02  0.49679699430E-01  0.13317084515E+00  0.21387783369E-01 0.  0.
         14    1    1    2    0    0  0.22185041690E-01  0.82537804308E-02 -0.26136413483E-02  0.23814535210E-01  0.00000000000E+00 0.  1.
     999901    1    3    3    0    0  0.99407247962E-01 -0.13181181492E-01 -0.47066058082E-01  0.88694461964E+00  0.88000000000E+00 0.  1.
        -11    1    4    4    0    0 -0.31822681717E-01  0.76333970377E-03  0.23492814529E-01  0.39565631736E-01  0.51100000000E-03 0. -1.
         11    1    4    4    0    0 -0.89769607934E-01  0.41640613571E-02  0.26186884901E-01  0.93605213409E-01  0.51100000000E-03 0.  1.
</event>
<event>
 8    1  0.1123450E+005  0.1043930E+01  0.7957747E-01            NaN
         13   -1    0    0    0    0  0.00000000000E+00  0.00000000000E+00  0.74505805969E-08  0.10566000000E+00  0.10566000000E+00 0. -1.
     999900   -1    0    0    0    0 -0.00000000000E+00 -0.00000000000E+00 -0.74505805969E-08  0.93827000000E+00  0.93827000000E+00 0. -1.
     999902    2    1    2    0    0 -0.14092195064E-02 -0.24348865368E-01 -0.33275352244E-02  0.10193144432E+01  0.10190171777E+01 0.  0.
     999903    2    3    3    0    0  0.56683601873E-01  0.10227459877E+00 -0.46482926717E-01  0.12731070704E+00  0.19345009060E-01 0.  0.
         14    1    1    2    0    0  0.14092195064E-02  0.24348865368E-01  0.33275352244E-02  0.24615556768E-01  0.00000000000E+00 0.  1.
     999901    1    3    3    0    0 -0.58092821379E-01 -0.12662346414E+00  0.43155391493E-01  0.89200373619E+00  0.88000000000E+00 0.  1.
        -11    1    4    4    0    0  0.14652592299E-01  0.12353341557E-01 -0.93642172380E-02  0.21336663145E-01  0.51100000000E-03 0.  1.
         11    1    4    4    0    0  0.42031009574E-01  0.89921257215E-01 -0.37118709479E-01  0.10597404389E+00  0.51100000000E-03 0. -1.
</event>
<event>
 8    1  0.1123450E+005  0.1043930E+01  0.7957747E-01            NaN
         13   -1    0    0    0    0  0.00000000000E+00  0.00000000000E+00  0.74505805969E-08  0.10566000000E+00  0.10566000000E+00 0. -1.
     999900   -1    0    0    0    0 -0.00000000000E+00 -0.00000000000E+00 -0.74505805969E-08  0.93827000000E+00  0.93827000000E+00 0. -1.
     999902    2    1    2    0    0 -0.64569874760E-02  0.15420197912E-01 -0.16399134815E-01  0.10205119127E+01  0.10202431853E+01 0.  0.
     999903    2    3    3    0    0 -0.12855180277E+00 -0.15246912209E-01 -0.10468452732E-01  0.13153340419E+00  0.20818587558E-01 0.  0.
         14    1    1    2    0    0  0.64569874760E-02 -0.15420197912E-01  0.16399134815E-01  0.23418087317E-01  0.00000000000E+00 0.  1.
     999901    1    3    3    0    0  0.12209481530E+00  0.30667110121E-01 -0.59306820826E-02  0.88897850849E+00  0.88000000000E+00 0. -1.
        -11    1    4    4    0    0 -0.62479767757E-01 -0.12422522292E-01 -0.14293131931E-01  0.65288553212E-01  0.51100000000E-03 0. -1.
         11    1    4    4    0    0 -0.66072035017E-01 -0.28243899164E-02  0.38246791989E-02  0.66244850982E-01  0.51100000000E-03 0.  1.
</event>
<event>
 8    1  0.1123450E+005  0.1043930E+01  0.7957747E-01            NaN
         13   -1    0    0    0    0  0.00000000000E+00  0.00000000000E+00  0.74505805969E-08  0.10566000000E+00  0.10566000000E+00 0.  1.
     999900   -1    0    0    0    0 -0.00000000000E+00 -0.00000000000E+00 -0.74505805969E-08  0.93827000000E+00  0.93827000000E+00 0. -1.
     999902    2    1    2    0    0  0.18665205758E-01  0.78200074182E-02 -0.13054411197E-01  0.10198476398E+01  0.10195632635E+01 0.  0.
     999903    2    3    3    0    0 -0.10350390825E+00 -0.70631911357E-01  0.13679032774E-01  0.12755022692E+00  0.19494063812E-01 0.  0.
         14    1    1    2    0    0 -0.18665205758E-01 -0.78200074182E-02  0.13054411197E-01  0.24082360219E-01  0.00000000000E+00 0.  1.
     999901    1    3    3    0    0  0.12216911401E+00  0.78451918775E-01 -0.26733443971E-01  0.89229741286E+00  0.88000000000E+00 0.  1.
        -11    1    4    4    0    0 -0.69096339088E-01 -0.36492854280E-01  0.11909295047E-01  0.79045081558E-01  0.51100000000E-03 0. -1.
         11    1    4    4    0    0 -0.34407569162E-01 -0.34139057076E-01  0.17697377265E-02  0.48505145359E-01  0.51100000000E-03 0.  1.
</event>
<event>
 8    1  0.1123450E+005  0.1043930E+01  0.7957747E-01            NaN
         13   -1    0    0    0    0  0.00000000000E+00  0.00000000000E+00  0.74505805969E-08  0.10566000000E+00  0.10566000000E+00 0.  1.
     999900   -1    0    0    0    0 -0.00000000000E+00 -0.00000000000E+00 -0.74505805969E-08  0.93827000000E+00  0.93827000000E+00 0.  1.
     999902    2    1    2    0    0 -0.14784189858E-01  0.29353954574E-01 -0.13831892199E-01  0.10082712260E+01  0.10076404702E+01 0.  0.
     999903    2    3    3    0    0 -0.54665638302E-01 -0.38294365482E-02 -0.10687170470E+00  0.12184690660E+00  0.20545334923E-01 0.  0.
         14    1    1    2    0    0  0.14784189858E-01 -0.29353954574E-01  0.13831892199E-01  0.35658773965E-01  0.00000000000E+00 0. -1.
     999901    1    3    3    0    0  0.39881448443E-01  0.33183391122E-01  0.93039812501E-01  0.88642431944E+00  0.88000000000E+00 0. -1.
        -11    1    4    4    0    0 -0.33936209326E-01 -0.10528813344E-01 -0.53809434819E-01  0.64484405948E-01  0.51100000000E-03 0.  1.
         11    1    4    4    0    0 -0.20729428975E-01  0.66993767954E-02 -0.53062269881E-01  0.57362500652E-01  0.51100000000E-03 0. -1.
</event>
<event>
 8    1  0.1123450E+005  0.1043930E+01  0.7957747E-01            NaN
         13   -1    0    0    0    0  0.00000000000E+00  0.00000000000E+00  0.74505805969E-08  0.10566000000E+00  0.10566000000E+00 0.  1.
     999900   -1    0    0    0    0 -0.00000000000E+00 -0.00000000000E+00 -0.74505805969E-08  0.93827000000E+00  0.93827000000E+00 0. -1.
     999902    2    1    2    0    0  0.19564006678E-01  0.12929493471E-01  0.48389976374E-02  0.10199855214E+01  0.10197044306E+01 0.  0.
     999903    2    3    3    0    0  0.90536536961E-01 -0.52517753109E-01 -0.76167562531E-01  0.13100717240E+00  0.20159432607E-01 0.  0.
         14    1    1    2    0    0 -0.19564006678E-01 -0.12929493471E-01 -0.48389976374E-02  0.23944478630E-01  0.00000000000E+00 0. -1.
     999901    1    3    3    0    0 -0.70972530283E-01  0.65447246580E-01  0.81006560169E-01  0.88897834897E+00  0.88000000000E+00 0.  1.
        -11    1    4    4    0    0  0.32790396521E-01 -0.89445911082E-02 -0.20192778409E-01  0.39537643265E-01  0.51100000000E-03 0.  1.
         11    1    4    4    0    0  0.57746140440E-01 -0.43573162000E-01 -0.55974784123E-01  0.91469529139E-01  0.51100000000E-03 0. -1.
</event>
<event>
 8    1  0.1123450E+005  0.1043930E+01  0.7957747E-01            NaN
         13   -1    0    0    0    0  0.00000000000E+00  0.00000000000E+00  0.74505805969E-08  0.10566000000E+00  0.10566000000E+00 0.  1.
     999900   -1    0    0    0    0 -0.00000000000E+00 -0.00000000000E+00 -0.74505805969E-08  0.93827000000E+00  0.93827000000E+00 0.  1.
     999902    2    1    2    0    0  0.19303454718E-01 -0.26353713524E-02 -0.13128277394E-01  0.10204370178E+01  0.10201665487E+01 0.  0.
     999903    2    3    3    0    0  0.94285565779E-01  0.53347655050E-01 -0.75093653470E-01  0.13330899767E+00  0.19912103252E-01 0.  0.
         14    1    1    2    0    0 -0.19303454718E-01  0.26353713524E-02  0.13128277394E-01  0.23492982219E-01  0.00000000000E+00 0.  1.
     999901    1    3    3    0    0 -0.74982111061E-01 -0.55983026403E-01  0.61965376076E-01  0.88712802011E+00  0.88000000000E+00 0. -1.
        -11    1    4    4    0    0  0.69149523211E-01  0.45744279905E-01 -0.49123850715E-01  0.96372244626E-01  0.51100000000E-03 0.  1.
         11    1    4    4    0    0  0.25136042569E-01  0.76033751453E-02 -0.25969802755E-01  0.36936753049E-01  0.51100000000E-03 0. -1.
</event>
<event>
 8    1  0.1123450E+005  0.1043930E+01  0.7957747E-01            NaN
         13   -1    0    0    0    0  0.00000000000E+00  0.00000000000E+00  0.74505805969E-08  0.10566000000E+00  0.10566000000E+00 0.  1.
     999900   -1    0    0    0    0 -0.00000000000E+00 -0.00000000000E+00 -0.74505805969E-08  0.93827000000E+00  0.93827000000E+00 0.  1.
     999902    2    1    2    0    0 -0.91014824017E-02 -0.21103539716E-01  0.23240613433E-02  0.10208302677E+01  0.10205688795E+01 0.  0.
     999903    2    3    3    0    0 -0.51050165131E-01  0.95280827937E-02 -0.11860146101E+00  0.13104323126E+00  0.20226670131E-01 0.  0.
         14    1    1    2    0    0  0.91014824017E-02  0.21103539716E-01 -0.23240613433E-02  0.23099732284E-01  0.00000000000E+00 0. -1.
     999901    1    3    3    0    0  0.41948682729E-01 -0.30631622510E-01  0.12092552235E+00  0.88978703645E+00  0.88000000000E+00 0. -1.
        -11    1    4    4    0    0 -0.26735711354E-01  0.14784087496E-01 -0.58607926671E-01  0.66094762987E-01  0.51100000000E-03 0.  1.
         11    1    4    4    0    0 -0.24314453778E-01 -0.52560047021E-02 -0.59993534341E-01  0.64948468278E-01  0.51100000000E-03 0. -1.
</event>
<event>
 8    1  0.1123450E+005  0.1043930E+01  0.7957747E-01            NaN
         13   -1    0    0    0    0  0.00000000000E+00  0.00000000000E+00  0.74505805969E-08  0.10566000000E+00  0.10566000000E+00 0. -1.
     999900   -1    0    0    0    0 -0.00000000000E+00 -0.00000000000E+00 -0.74505805969E-08  0.93827000000E+00  0.93827000000E+00 0.  1.
     999902    2    1    2    0    0  0.15484480609E-01 -0.14992857062E-01 -0.10169950142E-01  0.10200976105E+01  0.10198191762E+01 0.  0.
     999903    2    3    3    0    0 -0.81450727522E-01  0.62408363463E-01  0.73053947136E-01  0.12750946328E+00  0.19818153017E-01 0.  0.
         14    1    1    2    0    0 -0.15484480609E-01  0.14992857062E-01  0.10169950142E-01  0.23832389483E-01  0.00000000000E+00 0. -1.
     999901    1    3    3    0    0  0.96935208131E-01 -0.77401220525E-01 -0.83223897278E-01  0.89258814724E+00  0.88000000000E+00 0.  1.
        -11    1    4    4    0    0 -0.65235543031E-01  0.40721164042E-01  0.48268715424E-01  0.90796581902E-01  0.51100000000E-03 0. -1.
         11    1    4    4    0    0 -0.16215184492E-01  0.21687199421E-01  0.24785231713E-01  0.36712881375E-01  0.51100000000E-03 0.  1.
</event>
<event>
 8    1  0.1123450E+005  0.1043930E+01  0.7957747E-01            NaN
         13   -1    0    0    0    0  0.00000000000E+00  0.00000000000E+00  0.74505805969E-08  0.10566000000E+00  0.10566000000E+00 0.  1.
     999900   -1    0    0    0    0 -0.00000000000E+00 -0.00000000000E+00 -0.74505805969E-08  0.93827000000E+00  0.93827000000E+00 0. -1.
     999902    2    1    2    0    0  0.50281442977E-02  0.14556928650E-01 -0.14862958750E-01  0.10225268706E+01  0.10223028451E+01 0.  0.
     999903    2    3    3    0    0 -0.19360381860E-01 -0.26691928941E-01  0.12435384923E+00  0.13029506880E+00  0.20631085217E-01 0.  0.
         14    1    1    2    0    0 -0.50281442977E-02 -0.14556928650E-01  0.14862958750E-01  0.21403129435E-01  0.00000000000E+00 0.  1.
     999901    1    3    3    0    0  0.24388526157E-01  0.41248857591E-01 -0.13921680798E+00  0.89223180177E+00  0.88000000000E+00 0. -1.
        -11    1    4    4    0    0 -0.23507493730E-01 -0.19497495215E-01  0.99817659759E-01  0.10438668929E+00  0.51100000000E-03 0. -1.
         11    1    4    4    0    0  0.41471118701E-02 -0.71944337266E-02  0.24536189475E-01  0.25908379502E-01  0.51100000000E-03 0.  1.
</event>
<event>
 8    1  0.1123450E+005  0.1043930E+01  0.7957747E-01            NaN
         13   -1    0    0    0    0  0.00000000000E+00  0.00000000000E+00  0.74505805969E-08  0.10566000000E+00  0.10566000000E+00 0. -1.
     999900   -1    0    0    0    0 -0.00000000000E+00 -0.00000000000E+00 -0.74505805969E-08  0.93827000000E+00  0.93827000000E+00 0.  1.
     999902    2    1    2    0    0  0.15439806297E-01 -0.17975407565E-01 -0.13034596574E-02  0.10201981248E+01  0.10199220617E+01 0.  0.
     999903    2    3    3    0    0 -0.39393994201E-01  0.24857326083E-01 -0.11947573738E+00  0.12957695053E+00  0.18600022788E-01 0.  0.
         14    1    1    2    0    0 -0.15439806297E-01  0.17975407565E-01  0.13034596574E-02  0.23731875246E-01  0.00000000000E+00 0.  1.
     999901    1    3    3    0    0  0.54833800498E-01 -0.42832733648E-01  0.11817227772E+00  0.89062117422E+00  0.88000000000E+00 0. -1.
        -11    1    4    4    0    0 -0.25759170508E-01  0.62964592264E-02 -0.53887817504E-01  0.60061121038E-01  0.51100000000E-03 0.  1.
         11    1    4    4    0    0 -0.13634823693E-01  0.18560866857E-01 -0.65587919876E-01  0.69515829495E-01  0.51100000000E-03 0. -1.
</event>
<event>
 8    1  0.1123450E+005  0.1043930E+01  0.7957747E-01            NaN
         13   -1    0    0    0    0  0.00000000000E+00  0.00000000000E+00  0.74505805969E-08  0.10566000000E+00  0.10566000000E+00 0. -1.
     999900   -1    0    0    0    0 -0.00000000000E+00 -0.00000000000E+00 -0.74505805969E-08  0.93827000000E+00  0.93827000000E+00 0.  1.
     999902    2    1    2    0    0  0.17576772769E-01 -0.15882976362E-01 -0.33460688879E-03  0.10202377261E+01  0.10199625944E+01 0.  0.
     999903    2    3    3    0    0 -0.11799514888E+00  0.20810668246E-01 -0.40236019652E-01  0.12820729379E+00  0.21499623947E-01 0.  0.
         14    1    1    2    0    0 -0.17576772769E-01  0.15882976362E-01  0.33460688879E-03  0.23692273865E-01  0.00000000000E+00 0. -1.
     999901    1    3    3    0    0  0.13557192165E+00 -0.36693644609E-01  0.39901412763E-01  0.89203043235E+00  0.88000000000E+00 0.  1.
        -11    1    4    4    0    0 -0.26807503790E-01  0.76901303273E-02 -0.18741716417E-01  0.33604961228E-01  0.51100000000E-03 0.  1.
         11    1    4    4    0    0 -0.91187645094E-01  0.13120537919E-01 -0.21494303235E-01  0.94602332559E-01  0.51100000000E-03 0. -1.
</event>
<event>
 8    1  0.1123450E+005  0.1043930E+01  0.7957747E-01            NaN
         13   -1    0    0    0    0  0.00000000000E+00  0.00000000000E+00  0.74505805969E-08  0.10566000000E+00  0.10566000000E+00 0.  1.
     999900   -1    0    0    0    0 -0.00000000000E+00 -0.00000000000E+00 -0.74505805969E-08  0.93827000000E+00  0.93827000000E+00 0. -1.
     999902    2    1    2    0    0 -0.39576073220E-02  0.13922694924E-01 -0.20490232265E-01  0.10188430770E+01  0.10185341731E+01 0.  0.
     999903    2    3    3    0    0  0.44077030010E-01  0.11448774169E+00 -0.43152916865E-01  0.13152450266E+00  0.19654337795E-01 0.  0.
         14    1    1    2    0    0  0.39576073220E-02 -0.13922694924E-01  0.20490232265E-01  0.25086923047E-01  0.00000000000E+00 0.  1.
     999901    1    3    3    0    0 -0.48034637332E-01 -0.10056504677E+00  0.22662684600E-01  0.88731857429E+00  0.88000000000E+00 0.  1.
        -11    1    4    4    0    0  0.24054784898E-01  0.85503865160E-01 -0.27604195700E-01  0.93015033060E-01  0.51100000000E-03 0. -1.
         11    1    4    4    0    0  0.20022245112E-01  0.28983876529E-01 -0.15548721165E-01  0.38509469599E-01  0.51100000000E-03 0.  1.
</event>
<event>
 7    1  0.1123450E+005  0.1043930E+01  0.7957747E-01            NaN
         13   -1    0    0    0    0  0.00000000000E+00  0.00000000000E+00  0.74505805969E-08  0.10566000000E+00  0.10566000000E+00 0.  1.
     999900   -1    0    0    0    0 -0.00000000000E+00 -0.00000000000E+00 -0.74505805969E-08  0.93827000000E+00  0.93827000000E+00 0. -1.
     999903    2    1    2    0    0  0.33689448912E-01 -0.57091091560E-01 -0.97802960960E-01  0.11977204122E+00  0.19635452191E-01 0.  0.
         14    1    1    2    0    0 -0.15632835421E-01  0.72653851112E-02  0.36582226620E-01  0.40440458313E-01  0.00000000000E+00 0.  1.
     999901    1    1    2    0    0 -0.18056613490E-01  0.49825706448E-01  0.61220734340E-01  0.88371750046E+00  0.88000000000E+00 0.  1.
        -11    1    3    3    0    0  0.16003199211E-01 -0.16849758651E-01 -0.48077165004E-01  0.53401232827E-01  0.51100000000E-03 0. -1.
         11    1    3    3    0    0  0.17686249700E-01 -0.40241332908E-01 -0.49725795956E-01  0.66370808396E-01  0.51100000000E-03 0.  1.
</event>
<event>
 8    1  0.1123450E+005  0.1043930E+01  0.7957747E-01            NaN
         13   -1    0    0    0    0  0.00000000000E+00  0.00000000000E+00  0.74505805969E-08  0.10566000000E+00  0.10566000000E+00 0. -1.
     999900   -1    0    0    0    0 -0.00000000000E+00 -0.00000000000E+00 -0.74505805969E-08  0.93827000000E+00  0.93827000000E+00 0.  1.
     999902    2    1    2    0    0  0.62119946557E-02  0.18758512568E-01 -0.14113443342E-01  0.10196470851E+01  0.10193578951E+01 0.  0.
     999903    2    3    3    0    0 -0.74697108479E-01  0.49012831599E-01 -0.94683591005E-01  0.13175454913E+00  0.20306726361E-01 0.  0.
         14    1    1    2    0    0 -0.62119946557E-02 -0.18758512568E-01  0.14113443342E-01  0.24282914865E-01  0.00000000000E+00 0.  1.
     999901    1    3    3    0    0  0.80909103135E-01 -0.30254319031E-01  0.80570147663E-01  0.88789253600E+00  0.88000000000E+00 0. -1.
        -11    1    4    4    0    0 -0.44913650909E-01  0.39318184391E-01 -0.69062557450E-01  0.91285560875E-01  0.51100000000E-03 0.  1.
         11    1    4    4    0    0 -0.29783457569E-01  0.96946472088E-02 -0.25621033556E-01  0.40468988260E-01  0.51100000000E-03 0. -1.
</event>
<event>
 8    1  0.1123450E+005  0.1043930E+01  0.7957747E-01            NaN
         13   -1    0    0    0    0  0.00000000000E+00  0.00000000000E+00  0.74505805969E-08  0.10566000000E+00  0.10566000000E+00 0.  1.
     999900   -1    0    0    0    0 -0.00000000000E+00 -0.00000000000E+00 -0.74505805969E-08  0.93827000000E+00  0.93827000000E+00 0. -1.
     999902    2    1    2    0    0 -0.23296092988E-01 -0.65393953512E-02 -0.25557765603E-02  0.10195988752E+01  0.10193085218E+01 0.  0.
     999903    2    3    3    0    0 -0.10069083755E+00 -0.17078766847E-01  0.81420241275E-01  0.13215704815E+00  0.20146976027E-01 0.  0.
         14    1    1    2    0    0  0.23296092988E-01  0.65393953512E-02  0.25557765603E-02  0.24331124797E-01  0.00000000000E+00 0.  1.
     999901    1    3    3    0    0  0.77394744559E-01  0.10539371496E-01 -0.83976017835E-01  0.88744182706E+00  0.88000000000E+00 0. -1.
        -11    1    4    4    0    0 -0.46001462495E-01 -0.78835765307E-02  0.24613206251E-01  0.52767000802E-01  0.51100000000E-03 0.  1.
         11    1    4    4    0    0 -0.54689375051E-01 -0.91951903165E-02  0.56807035024E-01  0.79390047346E-01  0.51100000000E-03 0. -1.
</event>
<event>
 8    1  0.1123450E+005  0.1043930E+01  0.7957747E-01            NaN
         13   -1    0    0    0    0  0.00000000000E+00  0.00000000000E+00  0.74505805969E-08  0.10566000000E+00  0.10566000000E+00 0. -1.
     999900   -1    0    0    0    0 -0.00000000000E+00 -0.00000000000E+00 -0.74505805969E-08  0.93827000000E+00  0.93827000000E+00 0. -1.
     999902    2    1    2    0    0 -0.13295135049E-01  0.15304672135E-01  0.87807152475E-02  0.10218371377E+01  0.10215982779E+01 0.  0.
     999903    2    3    3    0    0 -0.11971221360E+00  0.32087600646E-01  0.48200675932E-01  0.13439125505E+00  0.19418446769E-01 0.  0.
         14    1    1    2    0    0  0.13295135049E-01 -0.15304672135E-01 -0.87807152475E-02  0.22092862318E-01  0.00000000000E+00 0.  1.
     999901    1    3    3    0    0  0.10641707855E+00 -0.16782928511E-01 -0.39419960684E-01  0.88744588263E+00  0.88000000000E+00 0. -1.
        -11    1    4    4    0    0 -0.24334244482E-01  0.96649624222E-02  0.25911946523E-02  0.26316199647E-01  0.51100000000E-03 0. -1.
         11    1    4    4    0    0 -0.95377969115E-01  0.22422638224E-01  0.45609481279E-01  0.10807505541E+00  0.51100000000E-03 0.  1.
</event>
<event>
 8    1  0.1123450E+005  0.1043930E+01  0.7957747E-01            NaN
         13   -1    0    0    0    0  0.00000000000E+00  0.00000000000E+00  0.74505805969E-08  0.10566000000E+00  0.10566000000E+00 0.  1.
     999900   -1    0    0    0    0 -0.00000000000E+00 -0.00000000000E+00 -0.74505805969E-08  0.93827000000E+00  0.93827000000E+00 0.  1.
     999902    2    1    2    0    0 -0.20096740679E-01 -0.14493707510E-02 -0.55750936383E-03  0.10237733515E+01  0.10235749043E+01 0.  0.
     999903    2    3    3    0    0 -0.13887940097E-02 -0.85647101857E-01  0.10056501748E+00  0.13379300868E+00  0.21210648902E-01 0.  0.
         14    1    1    2    0    0  0.20096740679E-01  0.14493707510E-02  0.55750936383E-03  0.20156648486E-01  0.00000000000E+00 0.  1.
     999901    1    3    3    0    0 -0.18707946669E-01  0.84197731106E-01 -0.10112252684E+00  0.88998034283E+00  0.88000000000E+00 0.  1.
        -11    1    4    4    0    0 -0.73210214161E-02 -0.43767278356E-01  0.63988931210E-01  0.77871794943E-01  0.51100000000E-03 0. -1.
         11    1    4    4    0    0  0.59322274064E-02 -0.41879823501E-01  0.36576086268E-01  0.55921213740E-01  0.51100000000E-03 0.  1.
</event>
<event>
 8    1  0.1123450E+005  0.1043930E+01  0.7957747E-01            NaN
         13   -1    0    0    0    0  0.00000000000E+00  0.00000000000E+00  0.74505805969E-08  0.10566000000E+00  0.10566000000E+00 0. -1.
     999900   -1    0    0    0    0 -0.00000000000E+00 -0.00000000000E+00 -0.74505805969E-08  0.93827000000E+00  0.93827000000E+00 0.  1.
     999902    2    1    2    0    0  0.12811272770E-01  0.17567095587E-02  0.21146810301E-01  0.10191428597E+01  0.10188413842E+01 0.  0.
     999903    2    3    3    0    0 -0.11656183736E+00 -0.43949652107E-01  0.24070295207E-01  0.12850543634E+00  0.20396916625E-01 0.  0.
         14    1    1    2    0    0 -0.12811272770E-01 -0.17567095587E-02 -0.21146810301E-01  0.24787140302E-01  0.00000000000E+00 0.  1.
     999901    1    3    3    0    0  0.12937311013E+00  0.45706361666E-01 -0.29234849060E-02  0.89063742336E+00  0.88000000000E+00 0. -1.
        -11    1    4    4    0    0 -0.51055010208E-01 -0.20164012150E-01  0.20903226772E-01  0.58740169082E-01  0.51100000000E-03 0.  1.
         11    1    4    4    0    0 -0.65506827155E-01 -0.23785639958E-01  0.31670684348E-02  0.69765267258E-01  0.51100000000E-03 0. -1.
</event>
<event>
 8    1  0.1123450E+005  0.1043930E+01  0.7957747E-01            NaN
         13   -1    0    0    0    0  0.00000000000E+00  0.00000000000E+00  0.74505805969E-08  0.10566000000E+00  0.10566000000E+00 0. -1.
     999900   -1    0    0    0    0 -0.00000000000E+00 -0.00000000000E+00 -0.74505805969E-08  0.93827000000E+00  0.93827000000E+00 0. -1.
     999902    2    1    2    0    0  0.11428230879E-01 -0.18075825671E-01 -0.11088373259E-01  0.10198407502E+01  0.10195562092E+01 0.  0.
     999903    2    3    3    0    0 -0.41712261527E-01 -0.11781548660E+00  0.35408967507E-01  0.13139608979E+00  0.19767037900E-01 0.  0.
         14    1    1    2    0    0 -0.11428230879E-01  0.18075825671E-01  0.11088373259E-01  0.24089249807E-01  0.00000000000E+00 0. -1.
     999901    1    3    3    0    0  0.53140492406E-01  0.99739660933E-01 -0.46497340766E-01  0.88844466040E+00  0.88000000000E+00 0.  1.
        -11    1    4    4    0    0 -0.22449404525E-01 -0.35597742016E-01  0.11533013247E-01  0.43639964662E-01  0.51100000000E-03 0. -1.
         11    1    4    4    0    0 -0.19262857002E-01 -0.82217744588E-01  0.23875954260E-01  0.87756125130E-01  0.51100000000E-03 0.  1.
</event>
<event>
 8    1  0.1123450E+005  0.1043930E+01  0.7957747E-01            NaN
         13   -1    0    0    0    0  0.00000000000E+00  0.00000000000E+00  0.74505805969E-08  0.10566000000E+00  0.10566000000E+00 0.  1.
     999900   -1    0    0    0    0 -0.00000000000E+00 -0.00000000000E+00 -0.74505805969E-08  0.93827000000E+00  0.93827000000E+00 0.  1.
     999902    2    1    2    0    0  0.11343811057E-01 -0.98341559195E-02 -0.31218298194E-02  0.10285957738E+01  0.10284814667E+01 0.  0.
     999903    2    3    3    0    0 -0.66087063680E-01 -0.69525589029E-01  0.96950387259E-01  0.13754411638E+00  0.17824108540E-01 0.  0.
         14    1    1    2    0    0 -0.11343811057E-01  0.98341559195E-02  0.31218298194E-02  0.15334226207E-01  0.00000000000E+00 0. -1.
     999901    1    3    3    0    0  0.77430874737E-01  0.59691433109E-01 -0.10007221708E+00  0.89105165741E+00  0.88000000000E+00 0. -1.
        -11    1    4    4    0    0 -0.89798520524E-02 -0.11840928577E-01  0.24926381277E-01  0.29024660842E-01  0.51100000000E-03 0. -1.
         11    1    4    4    0    0 -0.57107211628E-01 -0.57684660452E-01  0.72024005982E-01  0.10851945554E+00  0.51100000000E-03 0.  1.
</event>
<event>
 8    1  0.1123450E+005  0.1043930E+01  0.7957747E-01            NaN
         13   -1    0    0    0    0  0.00000000000E+00  0.00000000000E+00  0.74505805969E-08  0.10566000000E+00  0.10566000000E+00 0. -1.
     999900   -1    0    0    0    0 -0.00000000000E+00 -0.00000000000E+00 -0.74505805969E-08  0.93827000000E+00  0.93827000000E+00 0. -1.
     999902    2    1    2    0    0 -0.21271203557E-01  0.47666774340E-02 -0.92019235537E-02  0.10202686241E+01  0.10199942179E+01 0.  0.
     999903    2    3    3    0    0  0.12531241024E+00  0.16289292219E-01 -0.16883861311E-01  0.12803628960E+00  0.11818861191E-01 0.  0.
         14    1    1    2    0    0  0.21271203557E-01 -0.47666774340E-02  0.92019235537E-02  0.23661375945E-01  0.00000000000E+00 0. -1.
     999901    1    3    3    0    0 -0.14658361380E+00 -0.11522614785E-01  0.76819377578E-02  0.89223233446E+00  0.88000000000E+00 0. -1.
        -11    1    4    4    0    0  0.53113613752E-02  0.16093613114E-02  0.14462438653E-02  0.57578942163E-02  0.51100000000E-03 0. -1.
         11    1    4    4    0    0  0.12000104886E+00  0.14679930907E-01 -0.18330105177E-01  0.12227839538E+00  0.51100000000E-03 0.  1.
</event>
<event>
 8    1  0.1123450E+005  0.1043930E+01  0.7957747E-01            NaN
         13   -1    0    0    0    0  0.00000000000E+00  0.00000000000E+00  0.74505805969E-08  0.10566000000E+00  0.10566000000E+00 0.  1.
     999900   -1    0    0    0    0 -0.00000000000E+00 -0.00000000000E+00 -0.74505805969E-08  0.93827000000E+00  0.93827000000E+00 0. -1.
     999902    2    1    2    0    0 -0.12948108558E-01  0.72938132476E-02  0.18106732647E-01  0.10205055044E+01  0.10202366282E+01 0.  0.
     999903    2    3    3    0    0  0.93373776406E-01 -0.35955409059E-01  0.82638867206E-01  0.13070820454E+00  0.15620460927E-01 0.  0.
         14    1    1    2    0    0  0.12948108558E-01 -0.72938132476E-02 -0.18106732647E-01  0.23424495599E-01  0.00000000000E+00 0. -1.
     999901    1    3    3    0    0 -0.10632188496E+00  0.43249222307E-01 -0.64532134559E-01  0.88979729986E+00  0.88000000000E+00 0. -1.
        -11    1    4    4    0    0  0.86960461472E-01 -0.29093977754E-01  0.77006249366E-01  0.11974474921E+00  0.51100000000E-03 0. -1.
         11    1    4    4    0    0  0.64133149333E-02 -0.68614313051E-02  0.56326178405E-02  0.10963455328E-01  0.51100000000E-03 0.  1.
</event>
<event>
 8    1  0.1123450E+005  0.1043930E+01  0.7957747E-01            NaN
         13   -1    0    0    0    0  0.00000000000E+00  0.00000000000E+00  0.74505805969E-08  0.10566000000E+00  0.10566000000E+00 0. -1.
     999900   -1    0    0    0    0 -0.00000000000E+00 -0.00000000000E+00 -0.74505805969E-08  0.93827000000E+00  0.93827000000E+00 0.  1.
     999902    2    1    2    0    0  0.21022690803E-02  0.77686353234E-02 -0.21600666670E-01  0.10208787521E+01  0.10206184725E+01 0.  0.
     999903    2    3    3    0    0  0.41160378594E-02  0.85944261965E-01  0.95091412908E-01  0.12973761550E+00  0.19649787149E-01 0.  0.
         14    1    1    2    0    0 -0.21022690803E-02 -0.77686353234E-02  0.21600666670E-01  0.23051247920E-01  0.00000000000E+00 0. -1.
     999901    1    3    3    0    0 -0.20137687791E-02 -0.78175626641E-01 -0.11669207958E+00  0.89114113658E+00  0.88000000000E+00 0.  1.
        -11    1    4    4    0    0  0.59801039925E-02  0.39266444202E-01  0.56911020824E-01  0.69402742715E-01  0.51100000000E-03 0. -1.
         11    1    4    4    0    0 -0.18640661331E-02  0.46677817762E-01  0.38180392084E-01  0.60334872787E-01  0.51100000000E-03 0.  1.
</event>
<event>
 8    1  0.1123450E+005  0.1043930E+01  0.7957747E-01            NaN
         13   -1    0    0    0    0  0.00000000000E+00  0.00000000000E+00  0.74505805969E-08  0.10566000000E+00  0.10566000000E+00 0. -1.
     999900   -1    0    0    0    0 -0.00000000000E+00 -0.00000000000E+00 -0.74505805969E-08  0.93827000000E+00  0.93827000000E+00 0. -1.
     999902    2    1    2    0    0 -0.53989785084E-02 -0.21178929924E-01 -0.81401610027E-02  0.10206070872E+01  0.10203405648E+01 0.  0.
     999903    2    3    3    0    0  0.15496286044E-01 -0.89846538543E-01  0.92983720204E-01  0.13191259979E+00  0.21033934266E-01 0.  0.
         14    1    1    2    0    0  0.53989785084E-02  0.21178929924E-01  0.81401610027E-02  0.23322912829E-01  0.00000000000E+00 0. -1.
     999901    1    3    3    0    0 -0.20895264552E-01  0.68667608619E-01 -0.10112388121E+00  0.88869448738E+00  0.88000000000E+00 0.  1.
        -11    1    4    4    0    0  0.17772210962E-01 -0.41294667026E-01  0.44898826057E-01  0.63539489371E-01  0.51100000000E-03 0. -1.
         11    1    4    4    0    0 -0.22759249178E-02 -0.48551871516E-01  0.48084894148E-01  0.68373110417E-01  0.51100000000E-03 0.  1.
</event>
<event>
 8    1  0.1123450E+005  0.1043930E+01  0.7957747E-01            NaN
         13   -1    0    0    0    0  0.00000000000E+00  0.00000000000E+00  0.74505805969E-08  0.10566000000E+00  0.10566000000E+00 0. -1.
     999900   -1    0    0    0    0 -0.00000000000E+00 -0.00000000000E+00 -0.74505805969E-08  0.93827000000E+00  0.93827000000E+00 0. -1.
     999902    2    1    2    0    0 -0.11186745522E-01 -0.14468410215E-01 -0.12908842584E-01  0.10215443710E+01  0.10212990676E+01 0.  0.
     999903    2    3    3    0    0 -0.40960878011E-01  0.11632944569E+00 -0.39275141680E-01  0.13098849974E+00  0.20127514736E-01 0.  0.
         14    1    1    2    0    0  0.11186745522E-01  0.14468410215E-01  0.12908842584E-01  0.22385629014E-01  0.00000000000E+00 0. -1.
     999901    1    3    3    0    0  0.29774132490E-01 -0.13079785590E+00  0.26366299096E-01  0.89055587124E+00  0.88000000000E+00 0.  1.
        -11    1    4    4    0    0 -0.32845286091E-01  0.74091354297E-01 -0.18092454888E-01  0.83041794567E-01  0.51100000000E-03 0.  1.
         11    1    4    4    0    0 -0.81155919207E-02  0.42238091392E-01 -0.21182686792E-01  0.47946705178E-01  0.51100000000E-03 0. -1.
</event>
<event>
 8    1  0.1123450E+005  0.1043930E+01  0.7957747E-01            NaN
         13   -1    0    0    0    0  0.00000000000E+00  0.00000000000E+00  0.74505805969E-08  0.10566000000E+00  0.10566000000E+00 0.  1.
     999900   -1    0    0    0    0 -0.00000000000E+00 -0.00000000000E+00 -0.74505805969E-08  0.93827000000E+00  0.93827000000E+00 0. -1.
     999902    2    1    2    0    0 -0.20944728839E-01 -0.89442623847E-02 -0.13764140429E-02  0.10211138651E+01  0.10208589273E+01 0.  0.
     999903    2    3    3    0    0  0.80698667010E-01 -0.16201152820E-02 -0.10072429945E+00  0.12967961325E+00  0.12510713912E-01 0.  0.
         14    1    1    2    0    0  0.20944728839E-01  0.89442623847E-02  0.13764140429E-02  0.22816134891E-01  0.00000000000E+00 0. -1.
     999901    1    3    3    0    0 -0.10164339585E+00 -0.73241471027E-02  0.99347885407E-01  0.89143425186E+00  0.88000000000E+00 0.  1.
        -11    1    4    4    0    0  0.40637223049E-01  0.49361923954E-02 -0.46750313654E-01  0.62141796243E-01  0.51100000000E-03 0.  1.
         11    1    4    4    0    0  0.40061443961E-01 -0.65563076774E-02 -0.53973985795E-01  0.67537817008E-01  0.51100000000E-03 0. -1.
</event>
<event>
 8    1  0.1123450E+005  0.1043930E+01  0.7957747E-01            NaN
         13   -1    0    0    0    0  0.00000000000E+00  0.00000000000E+00  0.74505805969E-08  0.10566000000E+00  0.10566000000E+00 0. -1.
     999900   -1    0    0    0    0 -0.00000000000E+00 -0.00000000000E+00 -0.74505805969E-08  0.93827000000E+00  0.93827000000E+00 0. -1.
     999902    2    1    2    0    0  0.14559028542E-01 -0.16823789945E-01  0.60623164172E-02  0.10208701453E+01  0.10206096691E+01 0.  0.
     999903    2    3    3    0    0  0.25756651586E-02 -0.37277275103E-01  0.12552567261E+00  0.13248203214E+00  0.19964094423E-01 0.  0.
         14    1    1    2    0    0 -0.14559028542E-01  0.16823789945E-01 -0.60623164172E-02  0.23059854739E-01  0.00000000000E+00 0. -1.
     999901    1    3    3    0    0  0.11983363384E-01  0.20453485157E-01 -0.11946335620E+00  0.88838811312E+00  0.88000000000E+00 0. -1.
        -11    1    4    4    0    0 -0.83490084143E-02 -0.10558405318E-01  0.37872804816E-01  0.40196969164E-01  0.51100000000E-03 0. -1.
         11    1    4    4    0    0  0.10924673573E-01 -0.26718869784E-01  0.87652867798E-01  0.92285062981E-01  0.51100000000E-03 0.  1.
</event>
<event>
 8    1  0.1123450E+005  0.1043930E+01  0.7957747E-01            NaN
         13   -1    0    0    0    0  0.00000000000E+00  0.00000000000E+00  0.74505805969E-08  0.10566000000E+00  0.10566000000E+00 0.  1.
     999900   -1    0    0    0    0 -0.00000000000E+00 -0.00000000000E+00 -0.74505805969E-08  0.93827000000E+00  0.93827000000E+00 0.  1.
     999902    2    1    2    0    0  0.20317796490E-01  0.11130799872E-01  0.35981505001E-02  0.10204852938E+01  0.10202159481E+01 0.  0.
     999903    2    3    3    0    0  0.48183878271E-01  0.11230080180E-01 -0.12002507321E+00  0.13140755269E+00  0.20350083014E-01 0.  0.
         14    1    1    2    0    0 -0.20317796490E-01 -0.11130799872E-01 -0.35981505001E-02  0.23444706162E-01  0.00000000000E+00 0. -1.
     999901    1    3    3    0    0 -0.27866081781E-01 -0.99280308300E-04  0.12362322371E+00  0.88907774115E+00  0.88000000000E+00 0. -1.
        -11    1    4    4    0    0  0.23897563840E-01  0.31921615076E-02 -0.34183112599E-01  0.41833357032E-01  0.51100000000E-03 0.  1.
         11    1    4    4    0    0  0.24286314431E-01  0.80379186729E-02 -0.85841960608E-01  0.89574195655E-01  0.51100000000E-03 0. -1.
</event>
<event>
 8    1  0.1123450E+005  0.1043930E+01  0.7957747E-01            NaN
         13   -1    0    0    0    0  0.00000000000E+00  0.00000000000E+00  0.74505805969E-08  0.10566000000E+00  0.10566000000E+00 0. -1.
     999900   -1    0    0    0    0 -0.00000000000E+00 -0.00000000000E+00 -0.74505805969E-08  0.93827000000E+00  0.93827000000E+00 0.  1.
     999902    2    1    2    0    0  0.35826412053E-02  0.20862483952E-01  0.10271830904E-01  0.10204015265E+01  0.10201302300E+01 0.  0.
     999903    2    3    3    0    0  0.12108522418E+00 -0.25062637972E-01 -0.35800832795E-01  0.13021128607E+00  0.19583463814E-01 0.  0.
         14    1    1    2    0    0 -0.35826412053E-02 -0.20862483952E-01 -0.10271830904E-01  0.23528473490E-01  0.00000000000E+00 0.  1.
     999901    1    3    3    0    0 -0.11750258298E+00  0.45925121924E-01  0.46072663699E-01  0.89019024044E+00  0.88000000000E+00 0. -1.
        -11    1    4    4    0    0  0.15545672341E-01  0.19436973102E-02 -0.46265528682E-03  0.15681870382E-01  0.51100000000E-03 0. -1.
         11    1    4    4    0    0  0.10553955184E+00 -0.27006335283E-01 -0.35338177508E-01  0.11452941569E+00  0.51100000000E-03 0.  1.
</event>
<event>
 8    1  0.1123450E+005  0.1043930E+01  0.7957747E-01            NaN
         13   -1    0    0    0    0  0.00000000000E+00  0.00000000000E+00  0.74505805969E-08  0.10566000000E+00  0.10566000000E+00 0. -1.
     999900   -1    0    0    0    0 -0.00000000000E+00 -0.00000000000E+00 -0.74505805969E-08  0.93827000000E+00  0.93827000000E+00 0. -1.
     999902    2    1    2    0    0  0.46932621236E-02 -0.56537792666E-02 -0.11934982255E-01  0.10299144468E+01  0.10298190773E+01 0.  0.
     999903    2    3    3    0    0 -0.93680982364E-02 -0.11963525314E+00  0.67101472659E-01  0.13893955411E+00  0.20030901278E-01 0.  0.
         14    1    1    2    0    0 -0.46932621236E-02  0.56537792666E-02  0.11934982255E-01  0.14015553174E-01  0.00000000000E+00 0. -1.
     999901    1    3    3    0    0  0.14061360360E-01  0.11398147387E+00 -0.79036454914E-01  0.89097489271E+00  0.88000000000E+00 0. -1.
        -11    1    4    4    0    0 -0.69166161731E-02 -0.19872243098E-01  0.18117505880E-01  0.27771401934E-01  0.51100000000E-03 0. -1.
         11    1    4    4    0    0 -0.24514820633E-02 -0.99763010039E-01  0.48983966779E-01  0.11116815218E+00  0.51100000000E-03 0.  1.
</event>
<event>
 8    1  0.1123450E+005  0.1043930E+01  0.7957747E-01            NaN
         13   -1    0    0    0    0  0.00000000000E+00  0.00000000000E+00  0.74505805969E-08  0.10566000000E+00  0.10566000000E+00 0.  1.
     999900   -1    0    0    0    0 -0.00000000000E+00 -0.00000000000E+00 -0.74505805969E-08  0.93827000000E+00  0.93827000000E+00 0. -1.
     999902    2    1    2    0    0 -0.41413770028E-02 -0.22744488726E-01 -0.54270051416E-02  0.10201831022E+01  0.10199066854E+01 0.  0.
     999903    2    3    3    0    0  0.10422960337E+00 -0.57185640753E-01 -0.52709011364E-01  0.13160780968E+00  0.20208116284E-01 0.  0.
         14    1    1    2    0    0  0.41413770028E-02  0.22744488726E-01  0.54270051416E-02  0.23746897812E-01  0.00000000000E+00 0. -1.
     999901    1    3    3    0    0 -0.10837098037E+00  0.34441152027E-01  0.47282006222E-01  0.88857529251E+00  0.88000000000E+00 0. -1.
        -11    1    4    4    0    0  0.27351960756E-01 -0.18470291730E-01 -0.24211397414E-01  0.40935734017E-01  0.51100000000E-03 0. -1.
         11    1    4    4    0    0  0.76877642612E-01 -0.38715349024E-01 -0.28497613950E-01  0.90672075665E-01  0.51100000000E-03 0.  1.
</event>
<event>
 8    1  0.1123450E+005  0.1043930E+01  0.7957747E-01            NaN
         13   -1    0    0    0    0  0.00000000000E+00  0.00000000000E+00  0.74505805969E-08  0.10566000000E+00  0.10566000000E+00 0. -1.
     999900   -1    0    0    0    0 -0.00000000000E+00 -0.00000000000E+00 -0.74505805969E-08  0.93827000000E+00  0.93827000000E+00 0. -1.
     999902    2    1    2    0    0 -0.73445535929E-03 -0.86088491023E-02 -0.22319553976E-01  0.10199964629E+01  0.10197156320E+01 0.  0.
     999903    2    3    3    0    0 -0.95091868606E-01 -0.66886903594E-01  0.54157698905E-01  0.12974457537E+00  0.19602988056E-01 0.  0.
         14    1    1    2    0    0  0.73445535929E-03  0.86088491023E-02  0.22319553976E-01  0.23933537081E-01  0.00000000000E+00 0. -1.
     999901    1    3    3    0    0  0.94357413247E-01  0.58278054492E-01 -0.76477252881E-01  0.89025188755E+00  0.88000000000E+00 0. -1.
        -11    1    4    4    0    0 -0.72428648819E-01 -0.43977291507E-01  0.31740004266E-01  0.90485359754E-01  0.51100000000E-03 0. -1.
         11    1    4    4    0    0 -0.22663219787E-01 -0.22909612087E-01  0.22417694639E-01  0.39259215619E-01  0.51100000000E-03 0.  1.
</event>
<event>
 8    1  0.1123450E+005  0.1043930E+01  0.7957747E-01            NaN
         13   -1    0    0    0    0  0.00000000000E+00  0.00000000000E+00  0.74505805969E-08  0.10566000000E+00  0.10566000000E+00 0.  1.
     999900   -1    0    0    0    0 -0.00000000000E+00 -0.00000000000E+00 -0.74505805969E-08  0.93827000000E+00  0.93827000000E+00 0.  1.
     999902    2    1    2    0    0 -0.52440079299E-02  0.17179868988E-02  0.17984551222E-01  0.10251178980E+01  0.10249452715E+01 0.  0.
     999903    2    3    3    0    0 -0.82471418770E-01 -0.40155908187E-01 -0.94627038482E-01  0.13360297038E+00  0.21941864232E-01 0.  0.
         14    1    1    2    0    0  0.52440079299E-02 -0.17179868988E-02 -0.17984551222E-01  0.18812101977E-01  0.00000000000E+00 0. -1.
     999901    1    3    3    0    0  0.77227410840E-01  0.41873895086E-01  0.11261158970E+00  0.89151492764E+00  0.88000000000E+00 0. -1.
        -11    1    4    4    0    0 -0.20619610706E-01 -0.20812418745E-01 -0.33630632958E-01  0.44604996512E-01  0.51100000000E-03 0. -1.
         11    1    4    4    0    0 -0.61851808064E-01 -0.19343489442E-01 -0.60996405524E-01  0.88997973867E-01  0.51100000000E-03 0.  1.
</event>
<event>
 8    1  0.1123450E+005  0.1043930E+01  0.7957747E-01            NaN
         13   -1    0    0    0    0  0.00000000000E+00  0.00000000000E+00  0.74505805969E-08  0.10566000000E+00  0.10566000000E+00 0. -1.
     999900   -1    0    0    0    0 -0.00000000000E+00 -0.00000000000E+00 -0.74505805969E-08  0.93827000000E+00  0.93827000000E+00 0.  1.
     999902    2    1    2    0    0  0.14819338640E-02  0.16279528202E-01 -0.16660425531E-01  0.10205892857E+01  0.10203223516E+01 0.  0.
     999903    2    3    3    0    0  0.92972763076E-01 -0.63717993783E-01  0.59321569093E-01  0.12899327914E+00  0.20403433498E-01 0.  0.
         14    1    1    2    0    0 -0.14819338640E-02 -0.16279528202E-01  0.16660425531E-01  0.23340714328E-01  0.00000000000E+00 0. -1.
     999901    1    3    3    0    0 -0.91490829212E-01  0.79997521984E-01 -0.75981994624E-01  0.89159600653E+00  0.88000000000E+00 0.  1.
        -11    1    4    4    0    0  0.20114357730E-01 -0.60220251028E-02  0.16274879571E-01  0.26570378230E-01  0.51100000000E-03 0.  1.
         11    1    4    4    0    0  0.72858405346E-01 -0.57695968680E-01  0.43046689522E-01  0.10242290091E+00  0.51100000000E-03 0. -1.
</event>
<event>
 8    1  0.1123450E+005  0.1043930E+01  0.7957747E-01            NaN
         13   -1    0    0    0    0  0.00000000000E+00  0.00000000000E+00  0.74505805969E-08  0.10566000000E+00  0.10566000000E+00 0.  1.
     999900   -1    0    0    0    0 -0.00000000000E+00 -0.00000000000E+00 -0.74505805969E-08  0.93827000000E+00  0.93827000000E+00 0. -1.
     999902    2    1    2    0    0  0.29003649587E-02 -0.10306545719E-01  0.20624380145E-01  0.10206920556E+01  0.10204274939E+01 0.  0.
     999903    2    3    3    0    0  0.64386336212E-01 -0.10061143809E+00  0.55629096159E-01  0.13324581593E+00  0.19788616871E-01 0.  0.
         14    1    1    2    0    0 -0.29003649587E-02  0.10306545719E-01 -0.20624380145E-01  0.23237944357E-01  0.00000000000E+00 0. -1.
     999901    1    3    3    0    0 -0.61485971253E-01  0.90304892366E-01 -0.35004716014E-01  0.88744623972E+00  0.88000000000E+00 0.  1.
        -11    1    4    4    0    0  0.19660805069E-02 -0.14778685681E-01  0.59047031351E-02  0.16043742180E-01  0.51100000000E-03 0. -1.
         11    1    4    4    0    0  0.62420255705E-01 -0.85832752405E-01  0.49724393024E-01  0.11720207375E+00  0.51100000000E-03 0.  1.
</event>
<event>
 8    1  0.1123450E+005  0.1043930E+01  0.7957747E-01            NaN
         13   -1    0    0    0    0  0.00000000000E+00  0.00000000000E+00  0.74505805969E-08  0.10566000000E+00  0.10566000000E+00 0. -1.
     999900   -1    0    0    0    0 -0.00000000000E+00 -0.00000000000E+00 -0.74505805969E-08  0.93827000000E+00  0.93827000000E+00 0.  1.
     999902    2    1    2    0    0 -0.14821090201E-01  0.16523868654E-01 -0.88617248644E-02  0.10200295164E+01  0.10197494698E+01 0.  0.
     999903    2    3    3    0    0 -0.55289407966E-01  0.11838080979E+00  0.15743414913E-01  0.13288920385E+00  0.18459431923E-01 0.  0.
         14    1    1    2    0    0  0.14821090201E-01 -0.16523868654E-01  0.88617248644E-02  0.23900483627E-01  0.00000000000E+00 0. -1.
     999901    1    3    3    0    0  0.40468317765E-01 -0.10185694114E+00 -0.24605139777E-01  0.88714031252E+00  0.88000000000E+00 0. -1.
        -11    1    4    4    0    0 -0.22104768785E-01  0.50865062543E-01 -0.23475508879E-02  0.55512588723E-01  0.51100000000E-03 0. -1.
         11    1    4    4    0    0 -0.33184639181E-01  0.67515747247E-01  0.18090965801E-01  0.77376615127E-01  0.51100000000E-03 0.  1.
</event>
<event>
 8    1  0.1123450E+005  0.1043930E+01  0.7957747E-01            NaN
         13   -1    0    0    0    0  0.00000000000E+00  0.00000000000E+00  0.74505805969E-08  0.10566000000E+00  0.10566000000E+00 0. -1.
     999900   -1    0    0    0    0 -0.00000000000E+00 -0.00000000000E+00 -0.74505805969E-08  0.93827000000E+00  0.93827000000E+00 0.  1.
     999902    2    1    2    0    0  0.49773461768E-03  0.13196905106E-01 -0.21295041595E-01  0.10188723696E+01  0.10185641957E+01 0.  0.
     999903    2    3    3    0    0  0.33765306001E-01 -0.80654904804E-02 -0.12558041190E+00  0.13183558389E+00  0.20125439090E-01 0.  0.
         14    1    1    2    0    0 -0.49773461768E-03 -0.13196905106E-01  0.21295041595E-01  0.25057630388E-01  0.00000000000E+00 0. -1.
     999901    1    3    3    0    0 -0.33267571383E-01  0.21262395586E-01  0.10428537031E+00  0.88703678573E+00  0.88000000000E+00 0. -1.
        -11    1    4    4    0    0  0.31514542113E-02  0.46787411031E-02 -0.33262662534E-01  0.33741489621E-01  0.51100000000E-03 0.  1.
         11    1    4    4    0    0  0.30613851790E-01 -0.12744231583E-01 -0.92317749369E-01  0.98094094265E-01  0.51100000000E-03 0. -1.
</event>
<event>
 8    1  0.1123450E+005  0.1043930E+01  0.7957747E-01            NaN
         13   -1    0    0    0    0  0.00000000000E+00  0.00000000000E+00  0.74505805969E-08  0.10566000000E+00  0.10566000000E+00 0. -1.
     999900   -1    0    0    0    0 -0.00000000000E+00 -0.00000000000E+00 -0.74505805969E-08  0.93827000000E+00  0.93827000000E+00 0.  1.
     999902    2    1    2    0    0  0.10944604604E-01  0.22422523706E-02 -0.20307054926E-01  0.10207526717E+01  0.10204895043E+01 0.  0.
     999903    2    3    3    0    0 -0.12780397810E-01 -0.57435778472E-01  0.11246745383E+00  0.12847837911E+00  0.19888652853E-01 0.  0.
         14    1    1    2    0    0 -0.10944604604E-01 -0.22422523706E-02  0.20307054926E-01  0.23177328263E-01  0.00000000000E+00 0. -1.
     999901    1    3    3    0    0  0.23725002414E-01  0.59678030843E-01 -0.13277450875E+00  0.89227429262E+00  0.88000000000E+00 0. -1.
        -11    1    4    4    0    0  0.19863716033E-02 -0.85424050578E-02  0.67855603118E-02  0.11100599356E-01  0.51100000000E-03 0.  1.
         11    1    4    4    0    0 -0.14766769413E-01 -0.48893373414E-01  0.10568189351E+00  0.11737777976E+00  0.51100000000E-03 0. -1.
</event>
<event>
 8    1  0.1123450E+005  0.1043930E+01  0.7957747E-01            NaN
         13   -1    0    0    0    0  0.00000000000E+00  0.00000000000E+00  0.74505805969E-08  0.10566000000E+00  0.10566000000E+00 0.  1.
     999900   -1    0    0    0    0 -0.00000000000E+00 -0.00000000000E+00 -0.74505805969E-08  0.93827000000E+00  0.93827000000E+00 0.  1.
     999902    2    1    2    0    0  0.36346744783E-02 -0.14022629585E-01  0.18833419812E-01  0.10201698927E+01  0.10198931646E+01 0.  0.
     999903    2    3    3    0    0 -0.21712389577E-01 -0.98455319511E-01  0.84495518472E-01  0.13333120159E+00  0.21744858546E-01 0.  0.
         14    1    1    2    0    0 -0.36346744783E-02  0.14022629585E-01 -0.18833419812E-01  0.23760107341E-01  0.00000000000E+00 0. -1.
     999901    1    3    3    0    0  0.25347064055E-01  0.84432689926E-01 -0.65662098660E-01  0.88683869107E+00  0.88000000000E+00 0.  1.
        -11    1    4    4    0    0 -0.17497410965E-01 -0.33791017799E-01  0.36060823536E-01  0.52427439280E-01  0.51100000000E-03 0. -1.
         11    1    4    4    0    0 -0.42149786118E-02 -0.64664301713E-01  0.48434694936E-01  0.80903762306E-01  0.51100000000E-03 0.  1.
</event>
<event>
 8    1  0.1123450E+005  0.1043930E+01  0.7957747E-01            NaN
         13   -1    0    0    0    0  0.00000000000E+00  0.00000000000E+00  0.74505805969E-08  0.10566000000E+00  0.10566000000E+00 0.  1.
     999900   -1    0    0    0    0 -0.00000000000E+00 -0.00000000000E+00 -0.74505805969E-08  0.93827000000E+00  0.93827000000E+00 0. -1.
     999902    2    1    2    0    0 -0.34082958673E-02  0.30213611638E-02 -0.22998935021E-01  0.10204844009E+01  0.10202150344E+01 0.  0.
     999903    2    3    3    0    0 -0.99745609707E-03  0.12015228600E+00  0.46315766487E-01  0.13001823450E+00  0.17945036309E-01 0.  0.
         14    1    1    2    0    0  0.34082958673E-02 -0.30213611638E-02  0.22998935021E-01  0.23445599078E-01  0.00000000000E+00 0.  1.
     999901    1    3    3    0    0 -0.24108397702E-02 -0.11713092483E+00 -0.69314701508E-01  0.89046616642E+00  0.88000000000E+00 0. -1.
        -11    1    4    4    0    0  0.82550479362E-02  0.43684972188E-01  0.16663714937E-01  0.47481187096E-01  0.51100000000E-03 0.  1.
         11    1    4    4    0    0 -0.92525040333E-02  0.76467313808E-01  0.29652051550E-01  0.82537047403E-01  0.51100000000E-03 0. -1.
</event>
<event>
 8    1  0.1123450E+005  0.1043930E+01  0.7957747E-01            NaN
         13   -1    0    0    0    0  0.00000000000E+00  0.00000000000E+00  0.74505805969E-08  0.10566000000E+00  0.10566000000E+00 0. -1.
     999900   -1    0    0    0    0 -0.00000000000E+00 -0.00000000000E+00 -0.74505805969E-08  0.93827000000E+00  0.93827000000E+00 0.  1.
     999902    2    1    2    0    0 -0.13468159031E-01  0.14140423291E-01  0.16021711933E-01  0.10186705833E+01  0.10183573632E+01 0.  0.
     999903    2    3    3    0    0 -0.93838992701E-01 -0.38691293535E-01  0.80405763395E-01  0.13109187283E+00  0.20425953785E-01 0.  0.
         14    1    1    2    0    0  0.13468159031E-01 -0.14140423291E-01 -0.16021711933E-01  0.25259416695E-01  0.00000000000E+00 0.  1.
     999901    1    3    3    0    0  0.80370833670E-01  0.52831716826E-01 -0.64384051462E-01  0.88757871048E+00  0.88000000000E+00 0.  1.
        -11    1    4    4    0    0 -0.58678806857E-01 -0.13568676916E-01  0.49525078589E-01  0.77976316261E-01  0.51100000000E-03 0. -1.
         11    1    4    4    0    0 -0.35160185844E-01 -0.25122616619E-01  0.30880684806E-01  0.53115556568E-01  0.51100000000E-03 0.  1.
</event>
<event>
 8    1  0.1123450E+005  0.1043930E+01  0.7957747E-01            NaN
         13   -1    0    0    0    0  0.00000000000E+00  0.00000000000E+00  0.74505805969E-08  0.10566000000E+00  0.10566000000E+00 0. -1.
     999900   -1    0    0    0    0 -0.00000000000E+00 -0.00000000000E+00 -0.74505805969E-08  0.93827000000E+00  0.93827000000E+00 0.  1.
     999902    2    1    2    0    0  0.15174625878E-01 -0.82191195688E-02 -0.16305965569E-01  0.10201874704E+01  0.10199111565E+01 0.  0.
     999903    2    3    3    0    0  0.98698049731E-01 -0.86252056417E-01 -0.85971731961E-02  0.13276157097E+00  0.19261388368E-01 0.  0.
         14    1    1    2    0    0 -0.15174625878E-01  0.82191195688E-02  0.16305965569E-01  0.23742529565E-01  0.00000000000E+00 0.  1.
     999901    1    3    3    0    0 -0.83523423853E-01  0.78032936848E-01 -0.77087923727E-02  0.88742589947E+00  0.88000000000E+00 0. -1.
        -11    1    4    4    0    0  0.24328523087E-01 -0.32459006159E-01  0.60272489059E-04  0.40567583982E-01  0.51100000000E-03 0. -1.
         11    1    4    4    0    0  0.74369526645E-01 -0.53793050259E-01 -0.86574456851E-02  0.92193986985E-01  0.51100000000E-03 0.  1.
</event>
<event>
 8    1  0.1123450E+005  0.1043930E+01  0.7957747E-01            NaN
         13   -1    0    0    0    0  0.00000000000E+00  0.00000000000E+00  0.74505805969E-08  0.10566000000E+00  0.10566000000E+00 0. -1.
     999900   -1    0    0    0    0 -0.00000000000E+00 -0.00000000000E+00 -0.74505805969E-08  0.93827000000E+00  0.93827000000E+00 0.  1.
     999902    2    1    2    0    0  0.19521048437E-02  0.41266537074E-02 -0.23213033180E-01  0.10202723396E+01  0.10199980207E+01 0.  0.
     999903    2    3    3    0    0 -0.19633515633E-01  0.57163049385E-01  0.11125480409E+00  0.12821830679E+00  0.20229028913E-01 0.  0.
         14    1    1    2    0    0 -0.19521048437E-02 -0.41266537074E-02  0.23213033180E-01  0.23657660356E-01  0.00000000000E+00 0. -1.
     999901    1    3    3    0    0  0.21585620476E-01 -0.53036395678E-01 -0.13446783727E+00  0.89205403286E+00  0.88000000000E+00 0.  1.
        -11    1    4    4    0    0  0.18379432944E-02  0.18051072897E-01  0.42977617648E-01  0.46653574440E-01  0.51100000000E-03 0. -1.
         11    1    4    4    0    0 -0.21471458927E-01  0.39111976488E-01  0.68277186442E-01  0.81564732346E-01  0.51100000000E-03 0.  1.
</event>
<event>
 8    1  0.1123450E+005  0.1043930E+01  0.7957747E-01            NaN
         13   -1    0    0    0    0  0.00000000000E+00  0.00000000000E+00  0.74505805969E-08  0.10566000000E+00  0.10566000000E+00 0.  1.
     999900   -1    0    0    0    0 -0.00000000000E+00 -0.00000000000E+00 -0.74505805969E-08  0.93827000000E+00  0.93827000000E+00 0. -1.
     999902    2    1    2    0    0  0.17211122374E-01  0.75624224585E-02  0.15017846090E-01  0.10198686478E+01  0.10195847734E+01 0.  0.
     999903    2    3    3    0    0  0.26795631477E-01  0.10206114148E+00 -0.73684453186E-01  0.13032383805E+00  0.20504186328E-01 0.  0.
         14    1    1    2    0    0 -0.17211122374E-01 -0.75624224585E-02 -0.15017846090E-01  0.24061352165E-01  0.00000000000E+00 0.  1.
     999901    1    3    3    0    0 -0.95845091021E-02 -0.94498719023E-01  0.88702299276E-01  0.88954480978E+00  0.88000000000E+00 0. -1.
        -11    1    4    4    0    0  0.62655072623E-02  0.62793060761E-01 -0.45639982175E-01  0.77881282443E-01  0.51100000000E-03 0.  1.
         11    1    4    4    0    0  0.20530124214E-01  0.39268080721E-01 -0.28044471011E-01  0.52442555611E-01  0.51100000000E-03 0. -1.
</event>
<event>
 8    1  0.1123450E+005  0.1043930E+01  0.7957747E-01            NaN
         13   -1    0    0    0    0  0.00000000000E+00  0.00000000000E+00  0.74505805969E-08  0.10566000000E+00  0.10566000000E+00 0. -1.
     999900   -1    0    0    0    0 -0.00000000000E+00 -0.00000000000E+00 -0.74505805969E-08  0.93827000000E+00  0.93827000000E+00 0.  1.
     999902    2    1    2    0    0 -0.24099464506E-01  0.94630803487E-02 -0.12999910506E-01  0.10149587772E+01  0.10145452122E+01 0.  0.
     999903    2    3    3    0    0  0.11012198753E+00 -0.48574593419E-01  0.80588370720E-02  0.12264311519E+00  0.22136973234E-01 0.  0.
         14    1    1    2    0    0  0.24099464506E-01 -0.94630803487E-02  0.12999910506E-01  0.28971222831E-01  0.00000000000E+00 0. -1.
     999901    1    3    3    0    0 -0.13422145204E+00  0.58037673767E-01 -0.21058747578E-01  0.89231566198E+00  0.88000000000E+00 0.  1.
        -11    1    4    4    0    0  0.55377254586E-01 -0.26260841781E-01  0.15050251268E-01  0.63111356512E-01  0.51100000000E-03 0.  1.
         11    1    4    4    0    0  0.54744732949E-01 -0.22313751637E-01 -0.69914141958E-02  0.59531758677E-01  0.51100000000E-03 0. -1.
</event>
<event>
 8    1  0.1123450E+005  0.1043930E+01  0.7957747E-01            NaN
         13   -1    0    0    0    0  0.00000000000E+00  0.00000000000E+00  0.74505805969E-08  0.10566000000E+00  0.10566000000E+00 0.  1.
     999900   -1    0    0    0    0 -0.00000000000E+00 -0.00000000000E+00 -0.74505805969E-08  0.93827000000E+00  0.93827000000E+00 0.  1.
     999902    2    1    2    0    0  0.15028569170E-01 -0.70346859573E-03 -0.51293333816E-02  0.10280346290E+01  0.10279117353E+01 0.  0.
     999903    2    3    3    0    0 -0.11562716257E+00  0.37476854458E-01  0.56369775590E-01  0.13544805182E+00  0.19861213358E-01 0.  0.
         14    1    1    2    0    0 -0.15028569170E-01  0.70346859573E-03  0.51293333816E-02  0.15895371034E-01  0.00000000000E+00 0.  1.
     999901    1    3    3    0    0  0.13065573174E+00 -0.38180323054E-01 -0.61499108972E-01  0.89258657715E+00  0.88000000000E+00 0.  1.
        -11    1    4    4    0    0 -0.99974915992E-01  0.24789494253E-01  0.46839225944E-01  0.11315333429E+00  0.51100000000E-03 0.  1.
         11    1    4    4    0    0 -0.15652246579E-01  0.12687360206E-01  0.95305496466E-02  0.22294717525E-01  0.51100000000E-03 0. -1.
</event>
<event>
 8    1  0.1123450E+005  0.1043930E+01  0.7957747E-01            NaN
         13   -1    0    0    0    0  0.00000000000E+00  0.00000000000E+00  0.74505805969E-08  0.10566000000E+00  0.10566000000E+00 0.  1.
     999900   -1    0    0    0    0 -0.00000000000E+00 -0.00000000000E+00 -0.74505805969E-08  0.93827000000E+00  0.93827000000E+00 0. -1.
     999902    2    1    2    0    0  0.30462712012E-02  0.11783342815E-01 -0.20437738577E-01  0.10201428586E+01  0.10198654931E+01 0.  0.
     999903    2    3    3    0    0 -0.55156570942E-01  0.36431377945E-02  0.11362842236E+00  0.12805117653E+00  0.20740435667E-01 0.  0.
         14    1    1    2    0    0 -0.30462712012E-02 -0.11783342815E-01  0.20437738577E-01  0.23787141364E-01  0.00000000000E+00 0.  1.
     999901    1    3    3    0    0  0.58202842144E-01  0.81402050205E-02 -0.13406616094E+00  0.89209168210E+00  0.88000000000E+00 0. -1.
        -11    1    4    4    0    0 -0.35739658063E-01  0.12138510796E-01  0.69297818063E-01  0.78912073298E-01  0.51100000000E-03 0.  1.
         11    1    4    4    0    0 -0.19416912880E-01 -0.84953730010E-02  0.44330604298E-01  0.49139103234E-01  0.51100000000E-03 0. -1.
</event>
<event>
 8    1  0.1123450E+005  0.1043930E+01  0.7957747E-01            NaN
         13   -1    0    0    0    0  0.00000000000E+00  0.00000000000E+00  0.74505805969E-08  0.10566000000E+00  0.10566000000E+00 0. -1.
     999900   -1    0    0    0    0 -0.00000000000E+00 -0.00000000000E+00 -0.74505805969E-08  0.93827000000E+00  0.93827000000E+00 0. -1.
     999902    2    1    2    0    0 -0.12365085730E-01 -0.19488827598E-01  0.43930721085E-02  0.10204351319E+01  0.10201646188E+01 0.  0.
     999903    2    3    3    0    0  0.35874997538E-01 -0.74003015024E-02 -0.12297286051E+00  0.12987613949E+00  0.20092468185E-01 0.  0.
         14    1    1    2    0    0  0.12365085730E-01  0.19488827598E-01 -0.43930721085E-02  0.23494868138E-01  0.00000000000E+00 0. -1.
     999901    1    3    3    0    0 -0.48240083269E-01 -0.12088526096E-01  0.12736593262E+00  0.89055899237E+00  0.88000000000E+00 0.  1.
        -11    1    4    4    0    0  0.30452555090E-01 -0.12890996491E-01 -0.86833631995E-01  0.92918656191E-01  0.51100000000E-03 0.  1.
         11    1    4    4    0    0  0.54224424484E-02  0.54906949885E-02 -0.36139228513E-01  0.36957483303E-01  0.51100000000E-03 0. -1.
</event>
<event>
 8    1  0.1123450E+005  0.1043930E+01  0.7957747E-01            NaN
         13   -1    0    0    0    0  0.00000000000E+00  0.00000000000E+00  0.74505805969E-08  0.10566000000E+00  0.10566000000E+00 0. -1.
     999900   -1    0    0    0    0 -0.00000000000E+00 -0.00000000000E+00 -0.74505805969E-08  0.93827000000E+00  0.93827000000E+00 0. -1.
     999902    2    1    2    0    0  0.12672411847E-01  0.19679949942E-01 -0.70374305051E-02  0.10194879076E+01  0.10191948675E+01 0.  0.
     999903    2    3    3    0    0 -0.62944994020E-01 -0.89316106223E-01 -0.63203340631E-01  0.12777453339E+00  0.19804797709E-01 0.  0.
         14    1    1    2    0    0 -0.12672411847E-01 -0.19679949942E-01  0.70374305051E-02  0.24442092378E-01  0.00000000000E+00 0. -1.
     999901    1    3    3    0    0  0.75617405867E-01  0.10899605616E+00  0.56165910126E-01  0.89171337424E+00  0.88000000000E+00 0.  1.
        -11    1    4    4    0    0 -0.51793683072E-01 -0.60539215660E-01 -0.39942023681E-01  0.89124680172E-01  0.51100000000E-03 0. -1.
         11    1    4    4    0    0 -0.11151310948E-01 -0.28776890562E-01 -0.23261316950E-01  0.38649853215E-01  0.51100000000E-03 0.  1.
</event>
<event>
 8    1  0.1123450E+005  0.1043930E+01  0.7957747E-01            NaN
         13   -1    0    0    0    0  0.00000000000E+00  0.00000000000E+00  0.74505805969E-08  0.10566000000E+00  0.10566000000E+00 0. -1.
     999900   -1    0    0    0    0 -0.00000000000E+00 -0.00000000000E+00 -0.74505805969E-08  0.93827000000E+00  0.93827000000E+00 0.  1.
     999902    2    1    2    0    0 -0.15202397493E-01  0.17693399461E-02  0.16753660103E-01  0.10212379622E+01  0.10209858211E+01 0.  0.
     999903    2    3    3    0    0  0.22328968661E-01 -0.12547083849E+00  0.23969500768E-01  0.13126563969E+00  0.20362147325E-01 0.  0.
         14    1    1    2    0    0  0.15202397493E-01 -0.17693399461E-02 -0.16753660103E-01  0.22692037815E-01  0.00000000000E+00 0.  1.
     999901    1    3    3    0    0 -0.37531366154E-01  0.12724017843E+00 -0.72158406652E-02  0.88997232250E+00  0.88000000000E+00 0. -1.
        -11    1    4    4    0    0  0.79504050737E-02 -0.60299676353E-01  0.14927574844E-02  0.60842003213E-01  0.51100000000E-03 0.  1.
         11    1    4    4    0    0  0.14378563588E-01 -0.65171162134E-01  0.22476743284E-01  0.70423636475E-01  0.51100000000E-03 0. -1.
</event>
<event>
 8    1  0.1123450E+005  0.1043930E+01  0.7957747E-01            NaN
         13   -1    0    0    0    0  0.00000000000E+00  0.00000000000E+00  0.74505805969E-08  0.10566000000E+00  0.10566000000E+00 0.  1.
     999900   -1    0    0    0    0 -0.00000000000E+00 -0.00000000000E+00 -0.74505805969E-08  0.93827000000E+00  0.93827000000E+00 0. -1.
     999902    2    1    2    0    0 -0.16197377099E-01  0.17680608809E-01  0.41176689987E-02  0.10196007141E+01  0.10193104052E+01 0.  0.
     999903    2    3    3    0    0  0.32216286963E-01 -0.92092049104E-01  0.80727706141E-01  0.12816197979E+00  0.19740716092E-01 0.  0.
         14    1    1    2    0    0  0.16197377099E-01 -0.17680608809E-01 -0.41176689987E-02  0.24329285865E-01  0.00000000000E+00 0. -1.
     999901    1    3    3    0    0 -0.48413664062E-01  0.10977265791E+00 -0.76610037143E-01  0.89143873434E+00  0.88000000000E+00 0. -1.
        -11    1    4    4    0    0  0.24599332893E-01 -0.46597589492E-01  0.35348568901E-01  0.63452698679E-01  0.51100000000E-03 0. -1.
         11    1    4    4    0    0  0.76169540697E-02 -0.45494459612E-01  0.45379137240E-01  0.64709281115E-01  0.51100000000E-03 0.  1.
</event>
<event>
 8    1  0.1123450E+005  0.1043930E+01  0.7957747E-01            NaN
         13   -1    0    0    0    0  0.00000000000E+00  0.00000000000E+00  0.74505805969E-08  0.10566000000E+00  0.10566000000E+00 0. -1.
     999900   -1    0    0    0    0 -0.00000000000E+00 -0.00000000000E+00 -0.74505805969E-08  0.93827000000E+00  0.93827000000E+00 0. -1.
     999902    2    1    2    0    0  0.20744876285E-01  0.52939414953E-02 -0.47051377400E-02  0.10220093698E+01  0.10217742597E+01 0.  0.
     999903    2    3    3    0    0 -0.10942590162E-01 -0.99924460540E-01 -0.82979775923E-01  0.13172743317E+00  0.19021969998E-01 0.  0.
         14    1    1    2    0    0 -0.20744876285E-01 -0.52939414953E-02  0.47051377400E-02  0.21920630232E-01  0.00000000000E+00 0.  1.
     999901    1    3    3    0    0  0.31687466447E-01  0.10521840204E+00  0.78274638183E-01  0.89028193660E+00  0.88000000000E+00 0.  1.
        -11    1    4    4    0    0 -0.11612989486E-01 -0.33837537962E-01 -0.35043130906E-01  0.50081160578E-01  0.51100000000E-03 0.  1.
         11    1    4    4    0    0  0.67039932320E-03 -0.66086922578E-01 -0.47936645018E-01  0.81646272589E-01  0.51100000000E-03 0. -1.
</event>
<event>
 8    1  0.1123450E+005  0.1043930E+01  0.7957747E-01            NaN
         13   -1    0    0    0    0  0.00000000000E+00  0.00000000000E+00  0.74505805969E-08  0.10566000000E+00  0.10566000000E+00 0.  1.
     999900   -1    0    0    0    0 -0.00000000000E+00 -0.00000000000E+00 -0.74505805969E-08  0.93827000000E+00  0.93827000000E+00 0.  1.
     999902    2    1    2    0    0 -0.92939051066E-02 -0.19691323554E-01 -0.79428455470E-02  0.10207521293E+01  0.10204889494E+01 0.  0.
     999903    2    3    3    0    0 -0.49333584189E-01 -0.12032927560E+00  0.23195824193E-01  0.13356511966E+00  0.19714406763E-01 0.  0.
         14    1    1    2    0    0  0.92939051066E-02  0.19691323554E-01  0.79428455470E-02  0.23177870714E-01  0.00000000000E+00 0.  1.
     999901    1    3    3    0    0  0.40039679082E-01  0.10063795205E+00 -0.31138669740E-01  0.88718700962E+00  0.88000000000E+00 0.  1.
        -11    1    4    4    0    0 -0.24596028026E-01 -0.75655285113E-01  0.64257985090E-02  0.79813775551E-01  0.51100000000E-03 0.  1.
         11    1    4    4    0    0 -0.24737556163E-01 -0.44673990491E-01  0.16770025684E-01  0.53751344111E-01  0.51100000000E-03 0. -1.
</event>
<event>
 8    1  0.1123450E+005  0.1043930E+01  0.7957747E-01            NaN
         13   -1    0    0    0    0  0.00000000000E+00  0.00000000000E+00  0.74505805969E-08  0.10566000000E+00  0.10566000000E+00 0. -1.
     999900   -1    0    0    0    0 -0.00000000000E+00 -0.00000000000E+00 -0.74505805969E-08  0.93827000000E+00  0.93827000000E+00 0.  1.
     999902    2    1    2    0    0 -0.95241822328E-02 -0.23390483055E-01 -0.73543380727E-02  0.10176257982E+01  0.10172857780E+01 0.  0.
     999903    2    3    3    0    0 -0.29030662417E-01 -0.96497672867E-01  0.79711152560E-01  0.13009801629E+00  0.20421698538E-01 0.  0.
         14    1    1    2    0    0  0.95241822328E-02  0.23390483055E-01  0.73543380727E-02  0.26304201817E-01  0.00000000000E+00 0. -1.
     999901    1    3    3    0    0  0.19506480184E-01  0.73107189811E-01 -0.87065490633E-01  0.88752778189E+00  0.88000000000E+00 0.  1.
        -11    1    4    4    0    0 -0.24019924163E-01 -0.44590660434E-01  0.38112762798E-01  0.63388702178E-01  0.51100000000E-03 0. -1.
         11    1    4    4    0    0 -0.50107382544E-02 -0.51907012432E-01  0.41598389762E-01  0.66709314112E-01  0.51100000000E-03 0.  1.
</event>
<event>
 8    1  0.1123450E+005  0.1043930E+01  0.7957747E-01            NaN
         13   -1    0    0    0    0  0.00000000000E+00  0.00000000000E+00  0.74505805969E-08  0.10566000000E+00  0.10566000000E+00 0.  1.
     999900   -1    0    0    0    0 -0.00000000000E+00 -0.00000000000E+00 -0.74505805969E-08  0.93827000000E+00  0.93827000000E+00 0.  1.
     999902    2    1    2    0    0  0.21715612056E-03 -0.22569288241E-01 -0.76030901869E-02  0.10201134740E+01  0.10198354147E+01 0.  0.
     999903    2    3    3    0    0  0.50220632509E-01 -0.88171558836E-01 -0.83735755377E-01  0.13298316328E+00  0.19403846783E-01 0.  0.
         14    1    1    2    0    0 -0.21715612056E-03  0.22569288241E-01  0.76030901869E-02  0.23816525962E-01  0.00000000000E+00 0.  1.
     999901    1    3    3    0    0 -0.50003476389E-01  0.65602270595E-01  0.76132665190E-01  0.88713031076E+00  0.88000000000E+00 0.  1.
        -11    1    4    4    0    0  0.38722832024E-01 -0.77556102184E-01 -0.63800993469E-01  0.10763472764E+00  0.51100000000E-03 0. -1.
         11    1    4    4    0    0  0.11497800485E-01 -0.10615456652E-01 -0.19934761908E-01  0.25348435637E-01  0.51100000000E-03 0.  1.
</event>
<event>
 8    1  0.1123450E+005  0.1043930E+01  0.7957747E-01            NaN
         13   -1    0    0    0    0  0.00000000000E+00  0.00000000000E+00  0.74505805969E-08  0.10566000000E+00  0.10566000000E+00 0. -1.
     999900   -1    0    0    0    0 -0.00000000000E+00 -0.00000000000E+00 -0.74505805969E-08  0.93827000000E+00  0.93827000000E+00 0.  1.
     999902    2    1    2    0    0  0.46150974460E-02  0.92394548482E-02  0.20981885022E-01  0.10205439753E+01  0.10202759918E+01 0.  0.
     999903    2    3    3    0    0 -0.45993773943E-01 -0.84057812846E-01  0.87618267401E-01  0.13166488037E+00  0.21852615354E-01 0.  0.
         14    1    1    2    0    0 -0.46150974460E-02 -0.92394548482E-02 -0.20981885022E-01  0.23386024660E-01  0.00000000000E+00 0.  1.
     999901    1    3    3    0    0  0.50608871389E-01  0.93297267694E-01 -0.66636382379E-01  0.88887909497E+00  0.88000000000E+00 0. -1.
        -11    1    4    4    0    0 -0.16873357398E-01 -0.52192204972E-01  0.53699811691E-01  0.76763711130E-01  0.51100000000E-03 0.  1.
         11    1    4    4    0    0 -0.29120416545E-01 -0.31865607874E-01  0.33918455710E-01  0.54901169238E-01  0.51100000000E-03 0. -1.
</event>
<event>
 8    1  0.1123450E+005  0.1043930E+01  0.7957747E-01            NaN
         13   -1    0    0    0    0  0.00000000000E+00  0.00000000000E+00  0.74505805969E-08  0.10566000000E+00  0.10566000000E+00 0.  1.
     999900   -1    0    0    0    0 -0.00000000000E+00 -0.00000000000E+00 -0.74505805969E-08  0.93827000000E+00  0.93827000000E+00 0. -1.
     999902    2    1    2    0    0 -0.51624777862E-03  0.20996001339E-01  0.94527220144E-02  0.10208984447E+01  0.10206386148E+01 0.  0.
     999903    2    3    3    0    0 -0.93075495063E-01  0.71681430054E-01  0.59474938585E-01  0.13318314743E+00  0.19980171247E-01 0.  0.
         14    1    1    2    0    0  0.51624777862E-03 -0.20996001339E-01 -0.94527220144E-02  0.23031555255E-01  0.00000000000E+00 0. -1.
     999901    1    3    3    0    0  0.92559247284E-01 -0.50685428715E-01 -0.50022216571E-01  0.88771529732E+00  0.88000000000E+00 0. -1.
        -11    1    4    4    0    0 -0.23625181437E-01  0.15090714216E-01  0.54415776853E-02  0.28561350497E-01  0.51100000000E-03 0. -1.
         11    1    4    4    0    0 -0.69450313625E-01  0.56590715838E-01  0.54033360900E-01  0.10462179693E+00  0.51100000000E-03 0.  1.
</event>
<event>
 8    1  0.1123450E+005  0.1043930E+01  0.7957747E-01            NaN
         13   -1    0    0    0    0  0.00000000000E+00  0.00000000000E+00  0.74505805969E-08  0.10566000000E+00  0.10566000000E+00 0. -1.
     999900   -1    0    0    0    0 -0.00000000000E+00 -0.00000000000E+00 -0.74505805969E-08  0.93827000000E+00  0.93827000000E+00 0.  1.
     999902    2    1    2    0    0 -0.20400880211E-01  0.62229517803E-02 -0.32212690755E-02  0.10223592416E+01  0.10221316556E+01 0.  0.
     999903    2    3    3    0    0 -0.65582912077E-01  0.60739327773E-01 -0.98287357355E-01  0.13441160106E+00  0.20388467044E-01 0.  0.
         14    1    1    2    0    0  0.20400880211E-01 -0.62229517803E-02  0.32212690755E-02  0.21570758371E-01  0.00000000000E+00 0. -1.
     999901    1    3    3    0    0  0.45182031867E-01 -0.54516375993E-01  0.95066088279E-01  0.88794764057E+00  0.88000000000E+00 0. -1.
        -11    1    4    4    0    0 -0.39157625926E-01  0.25828658956E-01 -0.60623956708E-01  0.76654840288E-01  0.51100000000E-03 0.  1.
         11    1    4    4    0    0 -0.26425286152E-01  0.34910668817E-01 -0.37663400647E-01  0.57756760771E-01  0.51100000000E-03 0. -1.
</event>
<event>
 8    1  0.1123450E+005  0.1043930E+01  0.7957747E-01            NaN
         13   -1    0    0    0    0  0.00000000000E+00  0.00000000000E+00  0.74505805969E-08  0.10566000000E+00  0.10566000000E+00 0. -1.
     999900   -1    0    0    0    0 -0.00000000000E+00 -0.00000000000E+00 -0.74505805969E-08  0.93827000000E+00  0.93827000000E+00 0.  1.
     999902    2    1    2    0    0  0.14481522108E-01 -0.68595088441E-02 -0.14183025384E-01  0.10225308048E+01  0.10223068626E+01 0.  0.
     999903    2    3    3    0    0  0.10927302545E+00  0.73592211823E-01  0.83279552069E-02  0.13350625360E+00  0.19953876337E-01 0.  0.
         14    1    1    2    0    0 -0.14481522108E-01  0.68595088441E-02  0.14183025384E-01  0.21399195152E-01  0.00000000000E+00 0.  1.
     999901    1    3    3    0    0 -0.94791503346E-01 -0.80451720668E-01 -0.22510980591E-01  0.88902455124E+00  0.88000000000E+00 0.  1.
        -11    1    4    4    0    0  0.17586378600E-01  0.47536611868E-02 -0.22624474447E-02  0.18364579940E-01  0.51100000000E-03 0. -1.
         11    1    4    4    0    0  0.91686646853E-01  0.68838550637E-01  0.10590402652E-01  0.11514167366E+00  0.51100000000E-03 0.  1.
</event>
<event>
 8    1  0.1123450E+005  0.1043930E+01  0.7957747E-01            NaN
         13   -1    0    0    0    0  0.00000000000E+00  0.00000000000E+00  0.74505805969E-08  0.10566000000E+00  0.10566000000E+00 0.  1.
     999900   -1    0    0    0    0 -0.00000000000E+00 -0.00000000000E+00 -0.74505805969E-08  0.93827000000E+00  0.93827000000E+00 0. -1.
     999902    2    1    2    0    0 -0.15675489913E-01 -0.19171771670E-01  0.22041143446E-02  0.10190676603E+01  0.10187643302E+01 0.  0.
     999903    2    3    3    0    0  0.72606788635E-01  0.86169441291E-01 -0.54272340581E-01  0.12661031021E+00  0.19691757946E-01 0.  0.
         14    1    1    2    0    0  0.15675489913E-01  0.19171771670E-01 -0.22041143446E-02  0.24862339653E-01  0.00000000000E+00 0. -1.
     999901    1    3    3    0    0 -0.88282278548E-01 -0.10534121296E+00  0.56476454926E-01  0.89245735014E+00  0.88000000000E+00 0. -1.
        -11    1    4    4    0    0  0.28102281173E-01  0.44719297025E-01 -0.18031019176E-01  0.55811580402E-01  0.51100000000E-03 0.  1.
         11    1    4    4    0    0  0.44504507462E-01  0.41450144266E-01 -0.36241321405E-01  0.70798729807E-01  0.51100000000E-03 0. -1.
</event>
<event>
 8    1  0.1123450E+005  0.1043930E+01  0.7957747E-01            NaN
         13   -1    0    0    0    0  0.00000000000E+00  0.00000000000E+00  0.74505805969E-08  0.10566000000E+00  0.10566000000E+00 0. -1.
     999900   -1    0    0    0    0 -0.00000000000E+00 -0.00000000000E+00 -0.74505805969E-08  0.93827000000E+00  0.93827000000E+00 0. -1.
     999902    2    1    2    0    0  0.22593545440E-01  0.56884498107E-02 -0.33532103594E-02  0.10203912920E+01  0.10201197567E+01 0.  0.
     999903    2    3    3    0    0 -0.67165433221E-01  0.10564124480E+00 -0.28347722899E-01  0.12984541378E+00  0.19620654015E-01 0.  0.
         14    1    1    2    0    0 -0.22593545440E-01 -0.56884498107E-02  0.33532103594E-02  0.23538708047E-01  0.00000000000E+00 0.  1.
     999901    1    3    3    0    0  0.89758978661E-01 -0.99952794986E-01  0.24994512539E-01  0.89054587817E+00  0.88000000000E+00 0.  1.
        -11    1    4    4    0    0 -0.34504670563E-01  0.52362268962E-01 -0.24181883636E-01  0.67211636781E-01  0.51100000000E-03 0.  1.
         11    1    4    4    0    0 -0.32660762658E-01  0.53278975834E-01 -0.41658392632E-02  0.62633776999E-01  0.51100000000E-03 0. -1.
</event>
<event>
 8    1  0.1123450E+005  0.1043930E+01  0.7957747E-01            NaN
         13   -1    0    0    0    0  0.00000000000E+00  0.00000000000E+00  0.74505805969E-08  0.10566000000E+00  0.10566000000E+00 0.  1.
     999900   -1    0    0    0    0 -0.00000000000E+00 -0.00000000000E+00 -0.74505805969E-08  0.93827000000E+00  0.93827000000E+00 0.  1.
     999902    2    1    2    0    0  0.40366896184E-03  0.16094736757E-01  0.20622455374E-01  0.10177672562E+01  0.10174309306E+01 0.  0.
     999903    2    3    3    0    0 -0.56694761260E-01  0.10084732486E+00  0.58241245713E-01  0.13105512400E+00  0.19973080355E-01 0.  0.
         14    1    1    2    0    0 -0.40366896184E-03 -0.16094736757E-01 -0.20622455374E-01  0.26162743846E-01  0.00000000000E+00 0. -1.
     999901    1    3    3    0    0  0.57098430222E-01 -0.84752588101E-01 -0.37618790339E-01  0.88671213215E+00  0.88000000000E+00 0. -1.
        -11    1    4    4    0    0 -0.48366992943E-01  0.75004900520E-01  0.37155614266E-01  0.96674204941E-01  0.51100000000E-03 0.  1.
         11    1    4    4    0    0 -0.83277683172E-02  0.25842424338E-01  0.21085631447E-01  0.34380919059E-01  0.51100000000E-03 0. -1.
</event>
<event>
 8    1  0.1123450E+005  0.1043930E+01  0.7957747E-01            NaN
         13   -1    0    0    0    0  0.00000000000E+00  0.00000000000E+00  0.74505805969E-08  0.10566000000E+00  0.10566000000E+00 0. -1.
     999900   -1    0    0    0    0 -0.00000000000E+00 -0.00000000000E+00 -0.74505805969E-08  0.93827000000E+00  0.93827000000E+00 0. -1.
     999902    2    1    2    0    0  0.17662862063E-01  0.15334590339E-01 -0.28650971355E-02  0.10203644502E+01  0.10200922880E+01 0.  0.
     999903    2    3    3    0    0  0.42677607228E-01 -0.93622837246E-01  0.75778063636E-01  0.12981282043E+00  0.22856937819E-01 0.  0.
         14    1    1    2    0    0 -0.17662862063E-01 -0.15334590339E-01  0.28650971355E-02  0.23565549828E-01  0.00000000000E+00 0.  1.
     999901    1    3    3    0    0 -0.25014745165E-01  0.10895742758E+00 -0.78643160772E-01  0.89055162974E+00  0.88000000000E+00 0. -1.
        -11    1    4    4    0    0  0.17724778387E-01 -0.49203559425E-01  0.25330143456E-01  0.58112264776E-01  0.51100000000E-03 0.  1.
         11    1    4    4    0    0  0.24952828841E-01 -0.44419277822E-01  0.50447920180E-01  0.71700555653E-01  0.51100000000E-03 0. -1.
</event>
<event>
 8    1  0.1853799E+005  0.1043930E+01  0.7957747E-01            NaN
         13   -1    0    0    0    0  0.00000000000E+00  0.00000000000E+00  0.74505805969E-08  0.10566000000E+00  0.10566000000E+00 0.  1.
     999900   -1    0    0    0    0 -0.00000000000E+00 -0.00000000000E+00 -0.74505805969E-08  0.93827000000E+00  0.93827000000E+00 0.  1.
     999902    2    1    2    0    0 -0.75513044916E-03 -0.13433939020E-01  0.18870107322E-01  0.10207541097E+01  0.10204909753E+01 0.  0.
     999903    2    3    3    0    0  0.12187322683E-01  0.26346520733E-01  0.12819376764E+00  0.13300321292E+00  0.20335746779E-01 0.  0.
         14    1    1    2    0    0  0.75513044916E-03  0.13433939020E-01 -0.18870107322E-01  0.23175890273E-01  0.00000000000E+00 0. -1.
     999901    1    3    3    0    0 -0.12942453132E-01 -0.39780459754E-01 -0.10932366032E+00  0.88775089680E+00  0.88000000000E+00 0.  1.
        -11    1    4    4    0    0  0.20819106529E-02  0.23746855656E-01  0.71961426255E-01  0.75808676912E-01  0.51100000000E-03 0.  1.
         11    1    4    4    0    0  0.10105412030E-01  0.25996650773E-02  0.56232341385E-01  0.57194536011E-01  0.51100000000E-03 0. -1.
</event>
<event>
 8    1  0.1123450E+005  0.1043930E+01  0.7957747E-01            NaN
         13   -1    0    0    0    0  0.00000000000E+00  0.00000000000E+00  0.74505805969E-08  0.10566000000E+00  0.10566000000E+00 0. -1.
     999900   -1    0    0    0    0 -0.00000000000E+00 -0.00000000000E+00 -0.74505805969E-08  0.93827000000E+00  0.93827000000E+00 0. -1.
     999902    2    1    2    0    0  0.15362924483E-01  0.43086370690E-02 -0.17654399497E-01  0.10201337477E+01  0.10198561671E+01 0.  0.
     999903    2    3    3    0    0  0.46276266698E-01  0.10966838139E+00 -0.54885539837E-01  0.13252884220E+00  0.19565909012E-01 0.  0.
         14    1    1    2    0    0 -0.15362924483E-01 -0.43086370690E-02  0.17654399497E-01  0.23796252303E-01  0.00000000000E+00 0. -1.
     999901    1    3    3    0    0 -0.30913342215E-01 -0.10535974432E+00  0.37231140340E-01  0.88760490550E+00  0.88000000000E+00 0.  1.
        -11    1    4    4    0    0  0.17276798263E-01  0.32002102627E-01 -0.26105238326E-01  0.44770156576E-01  0.51100000000E-03 0.  1.
         11    1    4    4    0    0  0.28999468435E-01  0.77666278763E-01 -0.28780301511E-01  0.87758685624E-01  0.51100000000E-03 0. -1.
</event>
<event>
 8    1  0.1123450E+005  0.1043930E+01  0.7957747E-01            NaN
         13   -1    0    0    0    0  0.00000000000E+00  0.00000000000E+00  0.74505805969E-08  0.10566000000E+00  0.10566000000E+00 0. -1.
     999900   -1    0    0    0    0 -0.00000000000E+00 -0.00000000000E+00 -0.74505805969E-08  0.93827000000E+00  0.93827000000E+00 0. -1.
     999902    2    1    2    0    0 -0.23756144956E-03 -0.19834833930E-01  0.13276491241E-01  0.10200607249E+01  0.10197814179E+01 0.  0.
     999903    2    3    3    0    0 -0.54478753733E-01  0.10185226362E+00 -0.49225720897E-01  0.12784080632E+00  0.24047493612E-01 0.  0.
         14    1    1    2    0    0  0.23756144956E-03  0.19834833930E-01 -0.13276491241E-01  0.23869275066E-01  0.00000000000E+00 0.  1.
     999901    1    3    3    0    0  0.54241192283E-01 -0.12168709755E+00  0.62502212138E-01  0.89221991862E+00  0.88000000000E+00 0. -1.
        -11    1    4    4    0    0 -0.33168142370E-01  0.58130904014E-01 -0.15645099328E-01  0.68733964848E-01  0.51100000000E-03 0. -1.
         11    1    4    4    0    0 -0.21310611363E-01  0.43721359610E-01 -0.33580621568E-01  0.59106841471E-01  0.51100000000E-03 0.  1.
</event>
<event>
 8    1  0.1123450E+005  0.1043930E+01  0.7957747E-01            NaN
         13   -1    0    0    0    0  0.00000000000E+00  0.00000000000E+00  0.74505805969E-08  0.10566000000E+00  0.10566000000E+00 0. -1.
     999900   -1    0    0    0    0 -0.00000000000E+00 -0.00000000000E+00 -0.74505805969E-08  0.93827000000E+00  0.93827000000E+00 0.  1.
     999902    2    1    2    0    0 -0.42767053827E-02 -0.23705707179E-01  0.70980293198E-03  0.10198311498E+01  0.10195463793E+01 0.  0.
     999903    2    3    3    0    0  0.41556469295E-01 -0.12169693267E+00 -0.26137624368E-01  0.13280029094E+00  0.20387699832E-01 0.  0.
         14    1    1    2    0    0  0.42767053827E-02  0.23705707179E-01 -0.70980293198E-03  0.24098850221E-01  0.00000000000E+00 0. -1.
     999901    1    3    3    0    0 -0.45833174678E-01  0.97991225495E-01  0.26847427300E-01  0.88703085884E+00  0.88000000000E+00 0.  1.
        -11    1    4    4    0    0 -0.23220328279E-02 -0.70890572441E-02 -0.12559137070E-02  0.75818869224E-02  0.51100000000E-03 0. -1.
         11    1    4    4    0    0  0.43878502123E-01 -0.11460787543E+00 -0.24881710661E-01  0.12521840402E+00  0.51100000000E-03 0.  1.
</event>
<event>
 8    1  0.1123450E+005  0.1043930E+01  0.7957747E-01            NaN
         13   -1    0    0    0    0  0.00000000000E+00  0.00000000000E+00  0.74505805969E-08  0.10566000000E+00  0.10566000000E+00 0.  1.
     999900   -1    0    0    0    0 -0.00000000000E+00 -0.00000000000E+00 -0.74505805969E-08  0.93827000000E+00  0.93827000000E+00 0. -1.
     999902    2    1    2    0    0 -0.41825388766E-02  0.21581870615E-01 -0.10896029831E-01  0.10193944292E+01  0.10190991159E+01 0.  0.
     999903    2    3    3    0    0 -0.97363891972E-01  0.86300613703E-01 -0.10669498149E-01  0.13211131110E+00  0.20298693144E-01 0.  0.
         14    1    1    2    0    0  0.41825388766E-02 -0.21581870615E-01  0.10896029831E-01  0.24535570847E-01  0.00000000000E+00 0.  1.
     999901    1    3    3    0    0  0.93181353095E-01 -0.64718743088E-01 -0.22653168194E-03  0.88728311806E+00  0.88000000000E+00 0.  1.
        -11    1    4    4    0    0 -0.59348785446E-01  0.49629071952E-01  0.34198789331E-02  0.77442106180E-01  0.51100000000E-03 0. -1.
         11    1    4    4    0    0 -0.38015106526E-01  0.36671541752E-01 -0.14089377082E-01  0.54669204916E-01  0.51100000000E-03 0.  1.
</event>
<event>
 8    1  0.1123450E+005  0.1043930E+01  0.7957747E-01            NaN
         13   -1    0    0    0    0  0.00000000000E+00  0.00000000000E+00  0.74505805969E-08  0.10566000000E+00  0.10566000000E+00 0. -1.
     999900   -1    0    0    0    0 -0.00000000000E+00 -0.00000000000E+00 -0.74505805969E-08  0.93827000000E+00  0.93827000000E+00 0. -1.
     999902    2    1    2    0    0  0.31102247888E-02 -0.16646504193E-01  0.18246197553E-01  0.10190361589E+01  0.10187320501E+01 0.  0.
     999903    2    3    3    0    0 -0.46679126410E-03  0.52089983908E-01  0.11818753807E+00  0.13070864531E+00  0.20071658805E-01 0.  0.
         14    1    1    2    0    0 -0.31102247888E-02  0.16646504193E-01 -0.18246197553E-01  0.24893841110E-01  0.00000000000E+00 0.  1.
     999901    1    3    3    0    0  0.35770160529E-02 -0.68736488101E-01 -0.99941340513E-01  0.88832751358E+00  0.88000000000E+00 0. -1.
        -11    1    4    4    0    0 -0.14862983982E-02  0.22120919718E-01  0.74402622432E-01  0.77637333274E-01  0.51100000000E-03 0.  1.
         11    1    4    4    0    0  0.10195071341E-02  0.29969064190E-01  0.43784915633E-01  0.53071312036E-01  0.51100000000E-03 0. -1.
</event>
<event>
 8    1  0.1123450E+005  0.1043930E+01  0.7957747E-01            NaN
         13   -1    0    0    0    0  0.00000000000E+00  0.00000000000E+00  0.74505805969E-08  0.10566000000E+00  0.10566000000E+00 0.  1.
     999900   -1    0    0    0    0 -0.00000000000E+00 -0.00000000000E+00 -0.74505805969E-08  0.93827000000E+00  0.93827000000E+00 0. -1.
     999902    2    1    2    0    0 -0.16820989558E-01  0.11784882566E-01 -0.89441556755E-02  0.10215285030E+01  0.10212828479E+01 0.  0.
     999903    2    3    3    0    0  0.50451554919E-01  0.10084811639E+00 -0.66792459781E-01  0.13259415158E+00  0.20106575460E-01 0.  0.
         14    1    1    2    0    0  0.16820989558E-01 -0.11784882566E-01  0.89441556755E-02  0.22401496994E-01  0.00000000000E+00 0.  1.
     999901    1    3    3    0    0 -0.67272544477E-01 -0.89063233821E-01  0.57848304105E-01  0.88893435143E+00  0.88000000000E+00 0.  1.
        -11    1    4    4    0    0  0.46969169756E-02  0.28601025456E-01 -0.18354295050E-01  0.34310653652E-01  0.51100000000E-03 0. -1.
         11    1    4    4    0    0  0.45754637943E-01  0.72247090932E-01 -0.48438164731E-01  0.98283497927E-01  0.51100000000E-03 0.  1.
</event>
<event>
 8    1  0.1123450E+005  0.1043930E+01  0.7957747E-01            NaN
         13   -1    0    0    0    0  0.00000000000E+00  0.00000000000E+00  0.74505805969E-08  0.10566000000E+00  0.10566000000E+00 0.  1.
     999900   -1    0    0    0    0 -0.00000000000E+00 -0.00000000000E+00 -0.74505805969E-08  0.93827000000E+00  0.93827000000E+00 0.  1.
     999902    2    1    2    0    0 -0.13140736196E-01 -0.10719106649E-02  0.27808715561E-01  0.10131541556E+01  0.10126866200E+01 0.  0.
     999903    2    3    3    0    0  0.95040885262E-01  0.68141509868E-01  0.35579124898E-01  0.12379813007E+00  0.19597643779E-01 0.  0.
         14    1    1    2    0    0  0.13140736196E-01  0.10719106649E-02 -0.27808715561E-01  0.30775844447E-01  0.00000000000E+00 0. -1.
     999901    1    3    3    0    0 -0.10818162146E+00 -0.69213420533E-01 -0.77704093369E-02  0.88935602548E+00  0.88000000000E+00 0. -1.
        -11    1    4    4    0    0  0.86943668491E-01  0.57444093160E-01  0.36308697921E-01  0.11035219978E+00  0.51100000000E-03 0.  1.
         11    1    4    4    0    0  0.80972167714E-02  0.10697416708E-01 -0.72957302293E-03  0.13445930294E-01  0.51100000000E-03 0. -1.
</event>
<event>
 8    1  0.1123450E+005  0.1043930E+01  0.7957747E-01            NaN
         13   -1    0    0    0    0  0.00000000000E+00  0.00000000000E+00  0.74505805969E-08  0.10566000000E+00  0.10566000000E+00 0.  1.
     999900   -1    0    0    0    0 -0.00000000000E+00 -0.00000000000E+00 -0.74505805969E-08  0.93827000000E+00  0.93827000000E+00 0.  1.
     999902    2    1    2    0    0 -0.14290553553E-01  0.29953260669E-02  0.17869019120E-01  0.10208541740E+01  0.10205933328E+01 0.  0.
     999903    2    3    3    0    0 -0.97936663413E-01 -0.85715834449E-01 -0.11124707815E-01  0.13197455458E+00  0.18834267124E-01 0.  0.
         14    1    1    2    0    0  0.14290553553E-01 -0.29953260669E-02 -0.17869019120E-01  0.23075825953E-01  0.00000000000E+00 0. -1.
     999901    1    3    3    0    0  0.83646109860E-01  0.88711160516E-01  0.28993726936E-01  0.88887961946E+00  0.88000000000E+00 0. -1.
        -11    1    4    4    0    0 -0.22622197788E-01 -0.27086785078E-01 -0.93503224785E-02  0.36512291219E-01  0.51100000000E-03 0. -1.
         11    1    4    4    0    0 -0.75314465625E-01 -0.58629049370E-01 -0.17743853367E-02  0.95462263365E-01  0.51100000000E-03 0.  1.
</event>
<event>
 8    1  0.1123450E+005  0.1043930E+01  0.7957747E-01            NaN
         13   -1    0    0    0    0  0.00000000000E+00  0.00000000000E+00  0.74505805969E-08  0.10566000000E+00  0.10566000000E+00 0.  1.
     999900   -1    0    0    0    0 -0.00000000000E+00 -0.00000000000E+00 -0.74505805969E-08  0.93827000000E+00  0.93827000000E+00 0.  1.
     999902    2    1    2    0    0  0.11789895455E-01  0.19813314184E-01  0.62926705494E-02  0.10200309047E+01  0.10197508910E+01 0.  0.
     999903    2    3    3    0    0  0.45946286983E-01  0.13737116343E-01  0.12140332621E+00  0.13185634848E+00  0.18642944163E-01 0.  0.
         14    1    1    2    0    0 -0.11789895455E-01 -0.19813314184E-01 -0.62926705494E-02  0.23899095306E-01  0.00000000000E+00 0.  1.
     999901    1    3    3    0    0 -0.34156391527E-01  0.60761978411E-02 -0.11511065566E+00  0.88817455622E+00  0.88000000000E+00 0.  1.
        -11    1    4    4    0    0  0.12729400522E-01 -0.24254993692E-02  0.47426710718E-01  0.49167821747E-01  0.51100000000E-03 0. -1.
         11    1    4    4    0    0  0.33216886461E-01  0.16162615712E-01  0.73976615490E-01  0.82688526732E-01  0.51100000000E-03 0.  1.
</event>
<event>
 8    1  0.1123450E+005  0.1043930E+01  0.7957747E-01            NaN
         13   -1    0    0    0    0  0.00000000000E+00  0.00000000000E+00  0.74505805969E-08  0.10566000000E+00  0.10566000000E+00 0.  1.
     999900   -1    0    0    0    0 -0.00000000000E+00 -0.00000000000E+00 -0.74505805969E-08  0.93827000000E+00  0.93827000000E+00 0. -1.
     999902    2    1    2    0    0 -0.16451985419E-01 -0.14644858804E-01  0.53114337586E-02  0.10212727486E+01  0.10210213886E+01 0.  0.
     999903    2    3    3    0    0 -0.10032016867E+00  0.44492785468E-01 -0.70603710819E-01  0.13206285080E+00  0.20297004161E-01 0.  0.
         14    1    1    2    0    0  0.16451985419E-01  0.14644858804E-01 -0.53114337586E-02  0.22657251426E-01  0.00000000000E+00 0.  1.
     999901    1    3    3    0    0  0.83868183252E-01 -0.59137644272E-01  0.75915144578E-01  0.88920989778E+00  0.88000000000E+00 0.  1.
        -11    1    4    4    0    0 -0.28760482403E-01  0.22350167321E-01 -0.18859545662E-01  0.41019981849E-01  0.51100000000E-03 0.  1.
         11    1    4    4    0    0 -0.71559686268E-01  0.22142618147E-01 -0.51744165157E-01  0.91042868946E-01  0.51100000000E-03 0. -1.
</event>
<event>
 8    1  0.1123450E+005  0.1043930E+01  0.7957747E-01            NaN
         13   -1    0    0    0    0  0.00000000000E+00  0.00000000000E+00  0.74505805969E-08  0.10566000000E+00  0.10566000000E+00 0. -1.
     999900   -1    0    0    0    0 -0.00000000000E+00 -0.00000000000E+00 -0.74505805969E-08  0.93827000000E+00  0.93827000000E+00 0. -1.
     999902    2    1    2    0    0 -0.13789078812E-01  0.95668814869E-02  0.15929795584E-01  0.10207908059E+01  0.10205285136E+01 0.  0.
     999903    2    3    3    0    0 -0.37174272270E-01  0.11979308663E+00  0.36708437011E-01  0.13336281699E+00  0.26567301035E-01 0.  0.
         14    1    1    2    0    0  0.13789078812E-01 -0.95668814869E-02 -0.15929795584E-01  0.23139194091E-01  0.00000000000E+00 0.  1.
     999901    1    3    3    0    0  0.23385193458E-01 -0.11022620515E+00 -0.20778641428E-01  0.88742798892E+00  0.88000000000E+00 0.  1.
        -11    1    4    4    0    0 -0.70232594860E-02  0.67032243577E-01  0.17646251803E-01  0.69672800837E-01  0.51100000000E-03 0. -1.
         11    1    4    4    0    0 -0.30151012784E-01  0.52760843056E-01  0.19062185209E-01  0.63690016155E-01  0.51100000000E-03 0.  1.
</event>
<event>
 8    1  0.1123450E+005  0.1043930E+01  0.7957747E-01            NaN
         13   -1    0    0    0    0  0.00000000000E+00  0.00000000000E+00  0.74505805969E-08  0.10566000000E+00  0.10566000000E+00 0. -1.
     999900   -1    0    0    0    0 -0.00000000000E+00 -0.00000000000E+00 -0.74505805969E-08  0.93827000000E+00  0.93827000000E+00 0. -1.
     999902    2    1    2    0    0 -0.81918730505E-02  0.61711046514E-02 -0.23741234675E-01  0.10180681451E+01  0.10177396094E+01 0.  0.
     999903    2    3    3    0    0  0.94152865623E-02 -0.12468660619E+00  0.15657613861E-01  0.12734595391E+00  0.18342129664E-01 0.  0.
         14    1    1    2    0    0  0.81918730505E-02 -0.61711046514E-02  0.23741234675E-01  0.25861854933E-01  0.00000000000E+00 0. -1.
     999901    1    3    3    0    0 -0.17607159613E-01  0.13085771084E+00 -0.39398848536E-01  0.89072219116E+00  0.88000000000E+00 0. -1.
        -11    1    4    4    0    0  0.12506243642E-01 -0.71253621117E-01  0.33373444437E-02  0.72421568895E-01  0.51100000000E-03 0.  1.
         11    1    4    4    0    0 -0.30909570797E-02 -0.53432985074E-01  0.12320269417E-01  0.54924385013E-01  0.51100000000E-03 0. -1.
</event>
<event>
 8    1  0.1123450E+005  0.1043930E+01  0.7957747E-01            NaN
         13   -1    0    0    0    0  0.00000000000E+00  0.00000000000E+00  0.74505805969E-08  0.10566000000E+00  0.10566000000E+00 0. -1.
     999900   -1    0    0    0    0 -0.00000000000E+00 -0.00000000000E+00 -0.74505805969E-08  0.93827000000E+00  0.93827000000E+00 0. -1.
     999902    2    1    2    0    0  0.66912479895E-02  0.19148866684E-01  0.12373394484E-01  0.10201696804E+01  0.10198929474E+01 0.  0.
     999903    2    3    3    0    0 -0.11174187038E+00 -0.22063577628E-01  0.59639264955E-01  0.13002422512E+00  0.19401292272E-01 0.  0.
         14    1    1    2    0    0 -0.66912479895E-02 -0.19148866684E-01 -0.12373394484E-01  0.23760319569E-01  0.00000000000E+00 0.  1.
     999901    1    3    3    0    0  0.11843311837E+00  0.41212444313E-01 -0.47265870471E-01  0.89014545531E+00  0.88000000000E+00 0. -1.
        -11    1    4    4    0    0 -0.95062601910E-01 -0.11718858305E-01  0.51706289542E-01  0.10884866293E+00  0.51100000000E-03 0. -1.
         11    1    4    4    0    0 -0.16679268466E-01 -0.10344719324E-01  0.79329754134E-02  0.21175562197E-01  0.51100000000E-03 0.  1.
</event>
<event>
 8    1  0.1123450E+005  0.1043930E+01  0.7957747E-01            NaN
         13   -1    0    0    0    0  0.00000000000E+00  0.00000000000E+00  0.74505805969E-08  0.10566000000E+00  0.10566000000E+00 0. -1.
     999900   -1    0    0    0    0 -0.00000000000E+00 -0.00000000000E+00 -0.74505805969E-08  0.93827000000E+00  0.93827000000E+00 0. -1.
     999902    2    1    2    0    0  0.10641287253E-01  0.18524440289E-02  0.41109940124E-02  0.10323728025E+01  0.10323081102E+01 0.  0.
     999903    2    3    3    0    0 -0.12453521318E+00  0.20522848793E-01  0.58435181586E-01  0.14019995618E+00  0.17639462073E-01 0.  0.
         14    1    1    2    0    0 -0.10641287253E-01 -0.18524440289E-02 -0.41109940124E-02  0.11557197543E-01  0.00000000000E+00 0. -1.
     999901    1    3    3    0    0  0.13517650043E+00 -0.18670404764E-01 -0.54324187574E-01  0.89217284628E+00  0.88000000000E+00 0.  1.
        -11    1    4    4    0    0 -0.16932718171E-01 -0.23242555888E-02  0.11477762404E-01  0.20594155955E-01  0.51100000000E-03 0. -1.
         11    1    4    4    0    0 -0.10760249500E+00  0.22847104382E-01  0.46957419182E-01  0.11960580022E+00  0.51100000000E-03 0.  1.
</event>
<event>
 8    1  0.1123450E+005  0.1043930E+01  0.7957747E-01            NaN
         13   -1    0    0    0    0  0.00000000000E+00  0.00000000000E+00  0.74505805969E-08  0.10566000000E+00  0.10566000000E+00 0. -1.
     999900   -1    0    0    0    0 -0.00000000000E+00 -0.00000000000E+00 -0.74505805969E-08  0.93827000000E+00  0.93827000000E+00 0. -1.
     999902    2    1    2    0    0 -0.69311514074E-02 -0.10896515600E-01  0.19833814942E-01  0.10202624034E+01  0.10199878513E+01 0.  0.
     999903    2    3    3    0    0  0.96994160985E-01  0.18374854415E-01 -0.79262215692E-01  0.12814284477E+00  0.19813815635E-01 0.  0.
         14    1    1    2    0    0  0.69311514074E-02  0.10896515600E-01 -0.19833814942E-01  0.23667596566E-01  0.00000000000E+00 0.  1.
     999901    1    3    3    0    0 -0.10392531239E+00 -0.29271370015E-01  0.99096030635E-01  0.89211955866E+00  0.88000000000E+00 0.  1.
        -11    1    4    4    0    0  0.41367981700E-01  0.16699257796E-01 -0.29493140327E-01  0.53481600277E-01  0.51100000000E-03 0. -1.
         11    1    4    4    0    0  0.55626179285E-01  0.16755966186E-02 -0.49769075365E-01  0.74661244495E-01  0.51100000000E-03 0.  1.
</event>
<event>
 8    1  0.1123450E+005  0.1043930E+01  0.7957747E-01            NaN
         13   -1    0    0    0    0  0.00000000000E+00  0.00000000000E+00  0.74505805969E-08  0.10566000000E+00  0.10566000000E+00 0.  1.
     999900   -1    0    0    0    0 -0.00000000000E+00 -0.00000000000E+00 -0.74505805969E-08  0.93827000000E+00  0.93827000000E+00 0.  1.
     999902    2    1    2    0    0  0.15296011898E-01  0.67650820770E-04 -0.18024310196E-01  0.10202900272E+01  0.10200161230E+01 0.  0.
     999903    2    3    3    0    0  0.10953933931E+00 -0.26245329490E-01  0.64527313165E-01  0.13102687816E+00  0.17792821013E-01 0.  0.
         14    1    1    2    0    0 -0.15296011898E-01 -0.67650820770E-04  0.18024310196E-01  0.23639972814E-01  0.00000000000E+00 0. -1.
     999901    1    3    3    0    0 -0.94243327413E-01  0.26312980311E-01 -0.82551623361E-01  0.88926314903E+00  0.88000000000E+00 0.  1.
        -11    1    4    4    0    0  0.75808807965E-01 -0.25605655165E-01  0.41148273893E-01  0.89978144607E-01  0.51100000000E-03 0. -1.
         11    1    4    4    0    0  0.33730531345E-01 -0.63967432536E-03  0.23379039272E-01  0.41048733554E-01  0.51100000000E-03 0.  1.
</event>
<event>
 8    1  0.1123450E+005  0.1043930E+01  0.7957747E-01            NaN
         13   -1    0    0    0    0  0.00000000000E+00  0.00000000000E+00  0.74505805969E-08  0.10566000000E+00  0.10566000000E+00 0.  1.
     999900   -1    0    0    0    0 -0.00000000000E+00 -0.00000000000E+00 -0.74505805969E-08  0.93827000000E+00  0.93827000000E+00 0.  1.
     999902    2    1    2    0    0 -0.50738264720E-03  0.23369983932E-01 -0.29827617675E-02  0.10203649739E+01  0.10200928240E+01 0.  0.
     999903    2    3    3    0    0  0.79398314636E-01 -0.19631226569E-01  0.98947140323E-01  0.12984617598E+00  0.19493984037E-01 0.  0.
         14    1    1    2    0    0  0.50738264720E-03 -0.23369983932E-01  0.29827617675E-02  0.23565026074E-01  0.00000000000E+00 0.  1.
     999901    1    3    3    0    0 -0.79905697284E-01  0.43001210501E-01 -0.10192990209E+00  0.89051879795E+00  0.88000000000E+00 0.  1.
        -11    1    4    4    0    0  0.33699698373E-01  0.14139030137E-02  0.37942613718E-01  0.50769792681E-01  0.51100000000E-03 0. -1.
         11    1    4    4    0    0  0.45698616263E-01 -0.21045129583E-01  0.61004526605E-01  0.79076383294E-01  0.51100000000E-03 0.  1.
</event>
<event>
 8    1  0.1123450E+005  0.1043930E+01  0.7957747E-01            NaN
         13   -1    0    0    0    0  0.00000000000E+00  0.00000000000E+00  0.74505805969E-08  0.10566000000E+00  0.10566000000E+00 0.  1.
     999900   -1    0    0    0    0 -0.00000000000E+00 -0.00000000000E+00 -0.74505805969E-08  0.93827000000E+00  0.93827000000E+00 0. -1.
     999902    2    1    2    0    0 -0.46594103594E-02  0.11216760478E-01  0.20051388911E-01  0.10204867916E+01  0.10202174807E+01 0.  0.
     999903    2    3    3    0    0  0.43949074771E-01 -0.11901006215E+00  0.11280714438E-01  0.12953295733E+00  0.23592720263E-01 0.  0.
         14    1    1    2    0    0  0.46594103594E-02 -0.11216760478E-01 -0.20051388911E-01  0.23443208350E-01  0.00000000000E+00 0. -1.
     999901    1    3    3    0    0 -0.48608485130E-01  0.13022682263E+00  0.87706744725E-02  0.89095383432E+00  0.88000000000E+00 0. -1.
        -11    1    4    4    0    0  0.23370173332E-01 -0.66019815971E-01 -0.55224858034E-02  0.70253399013E-01  0.51100000000E-03 0. -1.
         11    1    4    4    0    0  0.20578901439E-01 -0.52990246182E-01  0.16803200242E-01  0.59279558317E-01  0.51100000000E-03 0.  1.
</event>
<event>
 8    1  0.1123450E+005  0.1043930E+01  0.7957747E-01            NaN
         13   -1    0    0    0    0  0.00000000000E+00  0.00000000000E+00  0.74505805969E-08  0.10566000000E+00  0.10566000000E+00 0. -1.
     999900   -1    0    0    0    0 -0.00000000000E+00 -0.00000000000E+00 -0.74505805969E-08  0.93827000000E+00  0.93827000000E+00 0. -1.
     999902    2    1    2    0    0  0.18931031656E-01 -0.10691731501E-01  0.95547779604E-02  0.10201815082E+01  0.10199050538E+01 0.  0.
     999903    2    3    3    0    0 -0.84329866574E-01 -0.91555746066E-01 -0.29966117988E-01  0.12958412261E+00  0.20002389156E-01 0.  0.
         14    1    1    2    0    0 -0.18931031656E-01  0.10691731501E-01 -0.95547779604E-02  0.23748491824E-01  0.00000000000E+00 0.  1.
     999901    1    3    3    0    0  0.10326089823E+00  0.80864014566E-01  0.39520895949E-01  0.89059738556E+00  0.88000000000E+00 0.  1.
        -11    1    4    4    0    0 -0.57179105083E-01 -0.71105477181E-01 -0.28362162908E-01  0.95551621384E-01  0.51100000000E-03 0.  1.
         11    1    4    4    0    0 -0.27150761491E-01 -0.20450268886E-01 -0.16039550800E-02  0.34032501229E-01  0.51100000000E-03 0. -1.
</event>
<event>
 8    1  0.1123450E+005  0.1043930E+01  0.7957747E-01            NaN
         13   -1    0    0    0    0  0.00000000000E+00  0.00000000000E+00  0.74505805969E-08  0.10566000000E+00  0.10566000000E+00 0.  1.
     999900   -1    0    0    0    0 -0.00000000000E+00 -0.00000000000E+00 -0.74505805969E-08  0.93827000000E+00  0.93827000000E+00 0. -1.
     999902    2    1    2    0    0 -0.34795032057E-02 -0.18020429456E-01  0.71515608863E-02  0.10242325981E+01  0.10240431765E+01 0.  0.
     999903    2    3    3    0    0 -0.16558529985E-01 -0.13186664924E+00  0.24629105834E-01  0.13663049842E+00  0.19957508540E-01 0.  0.
         14    1    1    2    0    0  0.34795032057E-02  0.18020429456E-01 -0.71515608863E-02  0.19697401947E-01  0.00000000000E+00 0. -1.
     999901    1    3    3    0    0  0.13079026779E-01  0.11384621978E+00 -0.17477544948E-01  0.88760209964E+00  0.88000000000E+00 0. -1.
        -11    1    4    4    0    0 -0.19761093408E-02 -0.81795782775E-01  0.20272355936E-01  0.84295223021E-01  0.51100000000E-03 0.  1.
         11    1    4    4    0    0 -0.14582420644E-01 -0.50070866463E-01  0.43567498982E-02  0.52335275397E-01  0.51100000000E-03 0. -1.
</event>
<event>
 8    1  0.1123450E+005  0.1043930E+01  0.7957747E-01            NaN
         13   -1    0    0    0    0  0.00000000000E+00  0.00000000000E+00  0.74505805969E-08  0.10566000000E+00  0.10566000000E+00 0.  1.
     999900   -1    0    0    0    0 -0.00000000000E+00 -0.00000000000E+00 -0.74505805969E-08  0.93827000000E+00  0.93827000000E+00 0.  1.
     999902    2    1    2    0    0 -0.36254588286E-02  0.12604149272E-01  0.29243223202E-01  0.10118804347E+01  0.10113727501E+01 0.  0.
     999903    2    3    3    0    0 -0.11370128514E+00  0.39704282348E-01  0.24954473881E-01  0.12459834987E+00  0.19940179110E-01 0.  0.
         14    1    1    2    0    0  0.36254588286E-02 -0.12604149272E-01 -0.29243223202E-01  0.32049565268E-01  0.00000000000E+00 0. -1.
     999901    1    3    3    0    0  0.11007582631E+00 -0.27100133077E-01  0.42887493213E-02  0.88728208487E+00  0.88000000000E+00 0. -1.
        -11    1    4    4    0    0 -0.18337074802E-01  0.11294440077E-01 -0.16212470765E-02  0.21603292620E-01  0.51100000000E-03 0.  1.
         11    1    4    4    0    0 -0.95364210342E-01  0.28409842271E-01  0.26575720957E-01  0.10299505725E+00  0.51100000000E-03 0. -1.
</event>
<event>
 8    1  0.1123450E+005  0.1043930E+01  0.7957747E-01            NaN
         13   -1    0    0    0    0  0.00000000000E+00  0.00000000000E+00  0.74505805969E-08  0.10566000000E+00  0.10566000000E+00 0. -1.
     999900   -1    0    0    0    0 -0.00000000000E+00 -0.00000000000E+00 -0.74505805969E-08  0.93827000000E+00  0.93827000000E+00 0. -1.
     999902    2    1    2    0    0  0.20285593772E-01  0.44379809920E-02 -0.56704619564E-03  0.10231568796E+01  0.10229459799E+01 0.  0.
     999903    2    3    3    0    0  0.79097267597E-01 -0.74494402051E-01  0.76361221766E-01  0.13433344804E+00  0.20214979455E-01 0.  0.
         14    1    1    2    0    0 -0.20285593772E-01 -0.44379809920E-02  0.56704619564E-03  0.20773120404E-01  0.00000000000E+00 0. -1.
     999901    1    3    3    0    0 -0.58811673826E-01  0.78932383043E-01 -0.76928267962E-01  0.88882343156E+00  0.88000000000E+00 0.  1.
        -11    1    4    4    0    0  0.50948100658E-01 -0.60418948411E-01  0.55356497874E-01  0.96492286042E-01  0.51100000000E-03 0.  1.
         11    1    4    4    0    0  0.28149166940E-01 -0.14075453640E-01  0.21004723892E-01  0.37841161998E-01  0.51100000000E-03 0. -1.
</event>
<event>
 8    1  0.1123450E+005  0.1043930E+01  0.7957747E-01            NaN
         13   -1    0    0    0    0  0.00000000000E+00  0.00000000000E+00  0.74505805969E-08  0.10566000000E+00  0.10566000000E+00 0.  1.
     999900   -1    0    0    0    0 -0.00000000000E+00 -0.00000000000E+00 -0.74505805969E-08  0.93827000000E+00  0.93827000000E+00 0. -1.
     999902    2    1    2    0    0  0.26628578956E-02 -0.10963379405E-01  0.21476064382E-01  0.10196708194E+01  0.10193822012E+01 0.  0.
     999903    2    3    3    0    0  0.12460776065E+00  0.28931583455E-01 -0.12616304524E-01  0.12971326035E+00  0.17384712626E-01 0.  0.
         14    1    1    2    0    0 -0.26628578956E-02  0.10963379405E-01 -0.21476064382E-01  0.24259180561E-01  0.00000000000E+00 0. -1.
     999901    1    3    3    0    0 -0.12194490276E+00 -0.39894962860E-01  0.34092368906E-01  0.88995755909E+00  0.88000000000E+00 0.  1.
        -11    1    4    4    0    0  0.47356486232E-01  0.17962291212E-01 -0.10078501035E-01  0.51644147761E-01  0.51100000000E-03 0. -1.
         11    1    4    4    0    0  0.77251274422E-01  0.10969292243E-01 -0.25378034887E-02  0.78069112585E-01  0.51100000000E-03 0.  1.
</event>
<event>
 8    1  0.1123450E+005  0.1043930E+01  0.7957747E-01            NaN
         13   -1    0    0    0    0  0.00000000000E+00  0.00000000000E+00  0.74505805969E-08  0.10566000000E+00  0.10566000000E+00 0.  1.
     999900   -1    0    0    0    0 -0.00000000000E+00 -0.00000000000E+00 -0.74505805969E-08  0.93827000000E+00  0.93827000000E+00 0.  1.
     999902    2    1    2    0    0  0.16279863202E-01  0.16960200820E-01 -0.18537146758E-02  0.10203478327E+01  0.10200752820E+01 0.  0.
     999903    2    3    3    0    0 -0.19184379185E-01  0.12699943414E+00  0.25161559435E-01  0.13237476417E+00  0.19826180630E-01 0.  0.
         14    1    1    2    0    0 -0.16279863202E-01 -0.16960200820E-01  0.18537146758E-02  0.23582167326E-01  0.00000000000E+00 0.  1.
     999901    1    3    3    0    0  0.35464242386E-01 -0.11003923332E+00 -0.27015274111E-01  0.88797306851E+00  0.88000000000E+00 0.  1.
        -11    1    4    4    0    0 -0.16827704957E-01  0.56618227649E-01  0.58790946529E-02  0.59360089548E-01  0.51100000000E-03 0. -1.
         11    1    4    4    0    0 -0.23566742276E-02  0.70381206491E-01  0.19282464782E-01  0.73014674619E-01  0.51100000000E-03 0.  1.
</event>
<event>
 8    1  0.1123450E+005  0.1043930E+01  0.7957747E-01            NaN
         13   -1    0    0    0    0  0.00000000000E+00  0.00000000000E+00  0.74505805969E-08  0.10566000000E+00  0.10566000000E+00 0.  1.
     999900   -1    0    0    0    0 -0.00000000000E+00 -0.00000000000E+00 -0.74505805969E-08  0.93827000000E+00  0.93827000000E+00 0.  1.
     999902    2    1    2    0    0 -0.18502217719E-01 -0.11774214779E-02 -0.14561991327E-01  0.10203552259E+01  0.10200828481E+01 0.  0.
     999903    2    3    3    0    0 -0.88866995227E-01  0.91470579387E-02  0.93480957430E-01  0.13089973205E+00  0.20372504480E-01 0.  0.
         14    1    1    2    0    0  0.18502217719E-01  0.11774214779E-02  0.14561991327E-01  0.23574774087E-01  0.00000000000E+00 0. -1.
     999901    1    3    3    0    0  0.70364777508E-01 -0.10324479417E-01 -0.10804294876E+00  0.88945549386E+00  0.88000000000E+00 0.  1.
        -11    1    4    4    0    0 -0.12585850607E-01  0.45466513328E-02  0.24639642962E-01  0.28043694480E-01  0.51100000000E-03 0.  1.
         11    1    4    4    0    0 -0.76281144620E-01  0.46004066059E-02  0.68841314469E-01  0.10285603757E+00  0.51100000000E-03 0. -1.
</event>
<event>
 8    1  0.1123450E+005  0.1043930E+01  0.7957747E-01            NaN
         13   -1    0    0    0    0  0.00000000000E+00  0.00000000000E+00  0.74505805969E-08  0.10566000000E+00  0.10566000000E+00 0.  1.
     999900   -1    0    0    0    0 -0.00000000000E+00 -0.00000000000E+00 -0.74505805969E-08  0.93827000000E+00  0.93827000000E+00 0.  1.
     999902    2    1    2    0    0 -0.18551419394E-01 -0.96040159460E-02 -0.80317088111E-02  0.10215491906E+01  0.10213039940E+01 0.  0.
     999903    2    3    3    0    0  0.12432715605E+00 -0.27414616398E-01 -0.15158130578E-01  0.12981924789E+00  0.20358420296E-01 0.  0.
         14    1    1    2    0    0  0.18551419394E-01  0.96040159460E-02  0.80317088111E-02  0.22380809419E-01  0.00000000000E+00 0.  1.
     999901    1    3    3    0    0 -0.14287857544E+00  0.17810600452E-01  0.71264217665E-02  0.89172994269E+00  0.88000000000E+00 0.  1.
        -11    1    4    4    0    0  0.16846565621E-01 -0.47343560799E-02 -0.92782159018E-02  0.19813311486E-01  0.51100000000E-03 0.  1.
         11    1    4    4    0    0  0.10748059042E+00 -0.22680260318E-01 -0.58799146757E-02  0.11000593640E+00  0.51100000000E-03 0. -1.
</event>
<event>
 8    1  0.1123450E+005  0.1043930E+01  0.7957747E-01            NaN
         13   -1    0    0    0    0  0.00000000000E+00  0.00000000000E+00  0.74505805969E-08  0.10566000000E+00  0.10566000000E+00 0. -1.
     999900   -1    0    0    0    0 -0.00000000000E+00 -0.00000000000E+00 -0.74505805969E-08  0.93827000000E+00  0.93827000000E+00 0. -1.
     999902    2    1    2    0    0  0.56930842711E-02  0.20187242221E-01  0.90170809840E-02  0.10210992377E+01  0.10208439693E+01 0.  0.
     999903    2    3    3    0    0 -0.27067336798E-01 -0.12442017803E+00  0.59759442817E-03  0.12865571629E+00  0.18409638559E-01 0.  0.
         14    1    1    2    0    0 -0.56930842711E-02 -0.20187242221E-01 -0.90170809840E-02  0.22830762284E-01  0.00000000000E+00 0.  1.
     999901    1    3    3    0    0  0.32760421069E-01  0.14460742025E+00  0.84194865559E-02  0.89244352143E+00  0.88000000000E+00 0. -1.
        -11    1    4    4    0    0 -0.80297375422E-02 -0.78905386949E-01  0.89499538480E-04  0.79314600836E-01  0.51100000000E-03 0. -1.
         11    1    4    4    0    0 -0.19037599256E-01 -0.45514791084E-01  0.50809488969E-03  0.49341115454E-01  0.51100000000E-03 0.  1.
</event>
<event>
 8    1  0.1123450E+005  0.1043930E+01  0.7957747E-01            NaN
         13   -1    0    0    0    0  0.00000000000E+00  0.00000000000E+00  0.74505805969E-08  0.10566000000E+00  0.10566000000E+00 0.  1.
     999900   -1    0    0    0    0 -0.00000000000E+00 -0.00000000000E+00 -0.74505805969E-08  0.93827000000E+00  0.93827000000E+00 0. -1.
     999902    2    1    2    0    0  0.29296437500E-02 -0.21710410572E-01  0.89083836245E-02  0.10202808132E+01  0.10200066929E+01 0.  0.
     999903    2    3    3    0    0  0.11113710384E+00 -0.48087878210E-01 -0.47344358789E-01  0.13147881257E+00  0.19526647572E-01 0.  0.
         14    1    1    2    0    0 -0.29296437500E-02  0.21710410572E-01 -0.89083836245E-02  0.23649186846E-01  0.00000000000E+00 0. -1.
     999901    1    3    3    0    0 -0.10820746009E+00  0.26377467639E-01  0.56252742413E-01  0.88880200059E+00  0.88000000000E+00 0.  1.
        -11    1    4    4    0    0  0.79053227973E-01 -0.24960538855E-01 -0.35562347452E-01  0.90207444428E-01  0.51100000000E-03 0. -1.
         11    1    4    4    0    0  0.32083875862E-01 -0.23127339355E-01 -0.11782011337E-01  0.41271368140E-01  0.51100000000E-03 0.  1.
</event>
<event>
 8    1  0.1123450E+005  0.1043930E+01  0.7957747E-01            NaN
         13   -1    0    0    0    0  0.00000000000E+00  0.00000000000E+00  0.74505805969E-08  0.10566000000E+00  0.10566000000E+00 0. -1.
     999900   -1    0    0    0    0 -0.00000000000E+00 -0.00000000000E+00 -0.74505805969E-08  0.93827000000E+00  0.93827000000E+00 0.  1.
     999902    2    1    2    0    0  0.87867875220E-02  0.21545303430E-01 -0.35961938791E-02  0.10203855666E+01  0.10201138976E+01 0.  0.
     999903    2    3    3    0    0  0.98388930063E-01  0.76622000858E-01  0.41654925729E-01  0.13296816176E+00  0.19851615286E-01 0.  0.
         14    1    1    2    0    0 -0.87867875220E-02 -0.21545303430E-01  0.35961938791E-02  0.23544433424E-01  0.00000000000E+00 0. -1.
     999901    1    3    3    0    0 -0.89602142541E-01 -0.55076697428E-01 -0.45251119608E-01  0.88741740482E+00  0.88000000000E+00 0.  1.
        -11    1    4    4    0    0  0.85670106817E-02  0.15076813586E-01  0.69052353385E-02  0.18672101542E-01  0.51100000000E-03 0. -1.
         11    1    4    4    0    0  0.89821919381E-01  0.61545187272E-01  0.34749690391E-01  0.11429606022E+00  0.51100000000E-03 0.  1.
</event>
<event>
 8    1  0.1123450E+005  0.1043930E+01  0.7957747E-01            NaN
         13   -1    0    0    0    0  0.00000000000E+00  0.00000000000E+00  0.74505805969E-08  0.10566000000E+00  0.10566000000E+00 0. -1.
     999900   -1    0    0    0    0 -0.00000000000E+00 -0.00000000000E+00 -0.74505805969E-08  0.93827000000E+00  0.93827000000E+00 0. -1.
     999902    2    1    2    0    0  0.10485420655E-01  0.55584637398E-02 -0.18693397663E-01  0.10217876496E+01  0.10215477068E+01 0.  0.
     999903    2    3    3    0    0  0.57710566973E-01 -0.31098144912E-01 -0.11564818556E+00  0.13444659211E+00  0.20094256575E-01 0.  0.
         14    1    1    2    0    0 -0.10485420655E-01 -0.55584637398E-02  0.18693397663E-01  0.22142350409E-01  0.00000000000E+00 0. -1.
     999901    1    3    3    0    0 -0.47225146319E-01  0.36656608652E-01  0.96954787901E-01  0.88734105749E+00  0.88000000000E+00 0.  1.
        -11    1    4    4    0    0  0.97548782294E-02  0.24104853790E-02 -0.16820548012E-01  0.19600001159E-01  0.51100000000E-03 0. -1.
         11    1    4    4    0    0  0.47955688744E-01 -0.33508630291E-01 -0.98827637552E-01  0.11484659095E+00  0.51100000000E-03 0.  1.
</event>
<event>
 8    1  0.1123450E+005  0.1043930E+01  0.7957747E-01            NaN
         13   -1    0    0    0    0  0.00000000000E+00  0.00000000000E+00  0.74505805969E-08  0.10566000000E+00  0.10566000000E+00 0. -1.
     999900   -1    0    0    0    0 -0.00000000000E+00 -0.00000000000E+00 -0.74505805969E-08  0.93827000000E+00  0.93827000000E+00 0. -1.
     999902    2    1    2    0    0 -0.56239644115E-02  0.22208728851E-01 -0.60426990077E-02  0.10202367346E+01  0.10199615796E+01 0.  0.
     999903    2    3    3    0    0 -0.72279244909E-01 -0.99977283673E-01 -0.32060642108E-01  0.12891789075E+00  0.19292259811E-01 0.  0.
         14    1    1    2    0    0  0.56239644115E-02 -0.22208728851E-01  0.60426990077E-02  0.23693265376E-01  0.00000000000E+00 0. -1.
     999901    1    3    3    0    0  0.66655280498E-01  0.12218601252E+00  0.26017943100E-01  0.89131884387E+00  0.88000000000E+00 0.  1.
        -11    1    4    4    0    0 -0.42576116675E-01 -0.45816677379E-01 -0.10100211144E-01  0.63357470147E-01  0.51100000000E-03 0. -1.
         11    1    4    4    0    0 -0.29703128234E-01 -0.54160606294E-01 -0.21960430964E-01  0.65560420607E-01  0.51100000000E-03 0.  1.
</event>
<event>
 8    1  0.1123450E+005  0.1043930E+01  0.7957747E-01            NaN
         13   -1    0    0    0    0  0.00000000000E+00  0.00000000000E+00  0.74505805969E-08  0.10566000000E+00  0.10566000000E+00 0.  1.
     999900   -1    0    0    0    0 -0.00000000000E+00 -0.00000000000E+00 -0.74505805969E-08  0.93827000000E+00  0.93827000000E+00 0. -1.
     999902    2    1    2    0    0  0.21889515443E-01  0.11848718179E-01  0.57787938821E-02  0.10183773589E+01  0.10180567311E+01 0.  0.
     999903    2    3    3    0    0 -0.73509373847E-01 -0.63082517834E-01  0.79411045789E-01  0.12700911472E+00  0.21027813197E-01 0.  0.
         14    1    1    2    0    0 -0.21889515443E-01 -0.11848718179E-01 -0.57787938821E-02  0.25552641107E-01  0.00000000000E+00 0. -1.
     999901    1    3    3    0    0  0.95398889290E-01  0.74931236013E-01 -0.73632251907E-01  0.89136824418E+00  0.88000000000E+00 0. -1.
        -11    1    4    4    0    0 -0.42037532353E-02 -0.10359666761E-01  0.14900725178E-01  0.18635637056E-01  0.51100000000E-03 0. -1.
         11    1    4    4    0    0 -0.69305620612E-01 -0.52722851073E-01  0.64510320611E-01  0.10837347766E+00  0.51100000000E-03 0.  1.
</event>
<event>
 8    1  0.1123450E+005  0.1043930E+01  0.7957747E-01            NaN
         13   -1    0    0    0    0  0.00000000000E+00  0.00000000000E+00  0.74505805969E-08  0.10566000000E+00  0.10566000000E+00 0.  1.
     999900   -1    0    0    0    0 -0.00000000000E+00 -0.00000000000E+00 -0.74505805969E-08  0.93827000000E+00  0.93827000000E+00 0.  1.
     999902    2    1    2    0    0 -0.41944129619E-02 -0.30776898357E-01 -0.24347588732E-02  0.10127733214E+01  0.10122939602E+01 0.  0.
     999903    2    3    3    0    0  0.32628223833E-01  0.42006432184E-01 -0.10876399029E+00  0.12262770112E+00  0.19462943338E-01 0.  0.
         14    1    1    2    0    0  0.41944129619E-02  0.30776898357E-01  0.24347588732E-02  0.31156678632E-01  0.00000000000E+00 0.  1.
     999901    1    3    3    0    0 -0.36822636795E-01 -0.72783330541E-01  0.10632923142E+00  0.89014562024E+00  0.88000000000E+00 0. -1.
        -11    1    4    4    0    0  0.55805145166E-02  0.10188925188E-01 -0.44431025346E-01  0.45927480587E-01  0.51100000000E-03 0.  1.
         11    1    4    4    0    0  0.27047709316E-01  0.31817506996E-01 -0.64332964947E-01  0.76700220537E-01  0.51100000000E-03 0. -1.
</event>
<event>
 7    1  0.1123450E+005  0.1043930E+01  0.7957747E-01            NaN
         13   -1    0    0    0    0  0.00000000000E+00  0.00000000000E+00  0.74505805969E-08  0.10566000000E+00  0.10566000000E+00 0.  1.
     999900   -1    0    0    0    0 -0.00000000000E+00 -0.00000000000E+00 -0.74505805969E-08  0.93827000000E+00  0.93827000000E+00 0. -1.
     999903    2    1    2    0    0 -0.10051675091E+00 -0.13208226031E-01 -0.27781338890E-01  0.10633858674E+00  0.16062932176E-01 0.  0.
         14    1    1    2    0    0  0.21783786881E-01 -0.42514642385E-01 -0.18218143583E-01  0.51126597223E-01  0.00000000000E+00 0.  1.
     999901    1    1    2    0    0  0.78732964030E-01  0.55722868416E-01  0.45999482473E-01  0.88646481604E+00  0.88000000000E+00 0.  1.
        -11    1    3    3    0    0 -0.59156661121E-01 -0.13431939596E-01 -0.22204274109E-01  0.64600452522E-01  0.51100000000E-03 0. -1.
         11    1    3    3    0    0 -0.41360089790E-01  0.22371356505E-03 -0.55770647805E-02  0.41738134215E-01  0.51100000000E-03 0.  1.
</event>
<event>
 7    1  0.1123450E+005  0.1043930E+01  0.7957747E-01            NaN
         13   -1    0    0    0    0  0.00000000000E+00  0.00000000000E+00  0.74505805969E-08  0.10566000000E+00  0.10566000000E+00 0. -1.
     999900   -1    0    0    0    0 -0.00000000000E+00 -0.00000000000E+00 -0.74505805969E-08  0.93827000000E+00  0.93827000000E+00 0. -1.
     999903    2    1    2    0    0  0.28583297026E-01 -0.55638455748E-01  0.95008516191E-01  0.11543313496E+00  0.19635372975E-01 0.  0.
         14    1    1    2    0    0  0.36782571256E-01  0.23289947001E-02  0.10157578173E-01  0.38230330352E-01  0.00000000000E+00 0.  1.
     999901    1    1    2    0    0 -0.65365868283E-01  0.53309461048E-01 -0.10516609436E+00  0.89026653468E+00  0.88000000000E+00 0. -1.
        -11    1    3    3    0    0  0.38566711877E-02 -0.28288117732E-01  0.45118848966E-01  0.53395347836E-01  0.51100000000E-03 0. -1.
         11    1    3    3    0    0  0.24726625839E-01 -0.27350338015E-01  0.49889667226E-01  0.62037787129E-01  0.51100000000E-03 0.  1.
</event>
<event>
 8    1  0.1123450E+005  0.1043930E+01  0.7957747E-01            NaN
         13   -1    0    0    0    0  0.00000000000E+00  0.00000000000E+00  0.74505805969E-08  0.10566000000E+00  0.10566000000E+00 0.  1.
     999900   -1    0    0    0    0 -0.00000000000E+00 -0.00000000000E+00 -0.74505805969E-08  0.93827000000E+00  0.93827000000E+00 0.  1.
     999902    2    1    2    0    0 -0.15885909244E-01  0.11845319528E-01  0.12428589951E-01  0.10205389001E+01  0.10202707989E+01 0.  0.
     999903    2    3    3    0    0 -0.10310968943E+00 -0.79163179403E-01  0.15524751282E-02  0.13148950630E+00  0.19714539308E-01 0.  0.
         14    1    1    2    0    0  0.15885909244E-01 -0.11845319528E-01 -0.12428589951E-01  0.23391099919E-01  0.00000000000E+00 0. -1.
     999901    1    3    3    0    0  0.87223780188E-01  0.91008498931E-01  0.10876114823E-01  0.88904939378E+00  0.88000000000E+00 0.  1.
        -11    1    4    4    0    0 -0.24736890073E-01 -0.17856337316E-01  0.87005147216E-02  0.31728892042E-01  0.51100000000E-03 0.  1.
         11    1    4    4    0    0 -0.78372799360E-01 -0.61306842087E-01 -0.71480395934E-02  0.99760614258E-01  0.51100000000E-03 0. -1.
</event>
<event>
 8    1  0.1123450E+005  0.1043930E+01  0.7957747E-01            NaN
         13   -1    0    0    0    0  0.00000000000E+00  0.00000000000E+00  0.74505805969E-08  0.10566000000E+00  0.10566000000E+00 0. -1.
     999900   -1    0    0    0    0 -0.00000000000E+00 -0.00000000000E+00 -0.74505805969E-08  0.93827000000E+00  0.93827000000E+00 0. -1.
     999902    2    1    2    0    0  0.87369479803E-02  0.23292497959E-01  0.10652484259E-01  0.10168680314E+01  0.10165078668E+01 0.  0.
     999903    2    3    3    0    0 -0.60775116431E-01  0.81219743405E-01 -0.75264671959E-01  0.12806588777E+00  0.21114906347E-01 0.  0.
         14    1    1    2    0    0 -0.87369479803E-02 -0.23292497959E-01 -0.10652484259E-01  0.27061968555E-01  0.00000000000E+00 0.  1.
     999901    1    3    3    0    0  0.69512064412E-01 -0.57927245446E-01  0.85917156218E-01  0.88880214367E+00  0.88000000000E+00 0.  1.
        -11    1    4    4    0    0 -0.31153753097E-01  0.26788996733E-01 -0.36562288612E-01  0.55002443105E-01  0.51100000000E-03 0. -1.
         11    1    4    4    0    0 -0.29621363335E-01  0.54430746671E-01 -0.38702383347E-01  0.73063444668E-01  0.51100000000E-03 0.  1.
</event>
<event>
 7    1  0.1123450E+005  0.1043930E+01  0.7957747E-01            NaN
         13   -1    0    0    0    0  0.00000000000E+00  0.00000000000E+00  0.74505805969E-08  0.10566000000E+00  0.10566000000E+00 0.  1.
     999900   -1    0    0    0    0 -0.00000000000E+00 -0.00000000000E+00 -0.74505805969E-08  0.93827000000E+00  0.93827000000E+00 0.  1.
     999902    2    1    2    0    0 -0.10780638759E-01  0.21077435237E-01 -0.38956084761E-02  0.10199371633E+01  0.10196549224E+01 0.  0.
         14    1    1    2    0    0  0.10780638759E-01 -0.21077435237E-01  0.38956084761E-02  0.23992836714E-01  0.00000000000E+00 0. -1.
     999901    1    3    3    0    0  0.40321420430E-01  0.12858243148E+00  0.11832044690E-01  0.89033659697E+00  0.88000000000E+00 0.  1.
        -11    1    3    3    0    0  0.44692440737E-03 -0.17290274655E-02  0.91443927060E-02  0.93311476445E-02  0.51100000000E-03 0. -1.
         11    1    3    3    0    0 -0.51548983596E-01 -0.10577596877E+00 -0.24872045872E-01  0.12026941867E+00  0.51100000000E-03 0.  1.
</event>
<event>
 8    1  0.1123450E+005  0.1043930E+01  0.7957747E-01            NaN
         13   -1    0    0    0    0  0.00000000000E+00  0.00000000000E+00  0.74505805969E-08  0.10566000000E+00  0.10566000000E+00 0. -1.
     999900   -1    0    0    0    0 -0.00000000000E+00 -0.00000000000E+00 -0.74505805969E-08  0.93827000000E+00  0.93827000000E+00 0.  1.
     999902    2    1    2    0    0 -0.31891424661E-02  0.18316067135E-01 -0.12849325613E-02  0.10252940134E+01  0.10251246334E+01 0.  0.
     999903    2    3    3    0    0  0.79645379203E-01  0.34706596509E-01 -0.10208786280E+00  0.13552357212E+00  0.19919151565E-01 0.  0.
         14    1    1    2    0    0  0.31891424661E-02 -0.18316067135E-01  0.12849325613E-02  0.18635986602E-01  0.00000000000E+00 0.  1.
     999901    1    3    3    0    0 -0.82834521669E-01 -0.16390529375E-01  0.10080293024E+00  0.88977044128E+00  0.88000000000E+00 0.  1.
        -11    1    4    4    0    0  0.21820503042E-01  0.55614470682E-02 -0.15258146284E-01  0.27205444226E-01  0.51100000000E-03 0. -1.
         11    1    4    4    0    0  0.57824876160E-01  0.29145149441E-01 -0.86829716513E-01  0.10831812789E+00  0.51100000000E-03 0.  1.
</event>
<event>
 8    1  0.1123450E+005  0.1043930E+01  0.7957747E-01            NaN
         13   -1    0    0    0    0  0.00000000000E+00  0.00000000000E+00  0.74505805969E-08  0.10566000000E+00  0.10566000000E+00 0.  1.
     999900   -1    0    0    0    0 -0.00000000000E+00 -0.00000000000E+00 -0.74505805969E-08  0.93827000000E+00  0.93827000000E+00 0.  1.
     999902    2    1    2    0    0 -0.88463832453E-02 -0.12252574373E-01  0.16704807821E-01  0.10214036892E+01  0.10211552583E+01 0.  0.
     999903    2    3    3    0    0 -0.11162620805E+00  0.56565107539E-01  0.38534349458E-01  0.13248519200E+00  0.20184357673E-01 0.  0.
         14    1    1    2    0    0  0.88463832453E-02  0.12252574373E-01 -0.16704807821E-01  0.22526310830E-01  0.00000000000E+00 0. -1.
     999901    1    3    3    0    0  0.10277982481E+00 -0.68817681911E-01 -0.21829541637E-01  0.88891849717E+00  0.88000000000E+00 0. -1.
        -11    1    4    4    0    0 -0.46518309682E-01  0.20932222781E-01  0.57226711948E-02  0.51333431337E-01  0.51100000000E-03 0.  1.
         11    1    4    4    0    0 -0.65107898371E-01  0.35632884758E-01  0.32811678264E-01  0.81151760658E-01  0.51100000000E-03 0. -1.
</event>
<event>
 8    1  0.1123450E+005  0.1043930E+01  0.7957747E-01            NaN
         13   -1    0    0    0    0  0.00000000000E+00  0.00000000000E+00  0.74505805969E-08  0.10566000000E+00  0.10566000000E+00 0.  1.
     999900   -1    0    0    0    0 -0.00000000000E+00 -0.00000000000E+00 -0.74505805969E-08  0.93827000000E+00  0.93827000000E+00 0.  1.
     999902    2    1    2    0    0  0.54973398888E-02 -0.14151311632E-01 -0.17876149220E-01  0.10204771307E+01  0.10202075952E+01 0.  0.
     999903    2    3    3    0    0 -0.10231850469E+00  0.68816208658E-01  0.30770757369E-01  0.12869555023E+00  0.20272103123E-01 0.  0.
         14    1    1    2    0    0 -0.54973398888E-02  0.14151311632E-01  0.17876149220E-01  0.23452869285E-01  0.00000000000E+00 0.  1.
     999901    1    3    3    0    0  0.10781584458E+00 -0.82967520290E-01 -0.48646906590E-01  0.89178158048E+00  0.88000000000E+00 0.  1.
        -11    1    4    4    0    0 -0.51282907793E-01  0.36021559956E-01  0.25970946073E-01  0.67839815554E-01  0.51100000000E-03 0. -1.
         11    1    4    4    0    0 -0.51035596895E-01  0.32794648702E-01  0.47998112962E-02  0.60855734680E-01  0.51100000000E-03 0.  1.
</event>
<event>
 8    1  0.1123450E+005  0.1043930E+01  0.7957747E-01            NaN
         13   -1    0    0    0    0  0.00000000000E+00  0.00000000000E+00  0.74505805969E-08  0.10566000000E+00  0.10566000000E+00 0. -1.
     999900   -1    0    0    0    0 -0.00000000000E+00 -0.00000000000E+00 -0.74505805969E-08  0.93827000000E+00  0.93827000000E+00 0. -1.
     999902    2    1    2    0    0  0.22375951875E-01  0.78459758277E-02  0.30659558172E-03  0.10202163634E+01  0.10199407295E+01 0.  0.
     999903    2    3    3    0    0  0.94503025696E-01  0.43671739625E-01 -0.80204454391E-01  0.13287886883E+00  0.19646795439E-01 0.  0.
         14    1    1    2    0    0 -0.22375951875E-01 -0.78459758277E-02 -0.30659558172E-03  0.23713636580E-01  0.00000000000E+00 0.  1.
     999901    1    3    3    0    0 -0.72127073821E-01 -0.35825763797E-01  0.80511049972E-01  0.88733749459E+00  0.88000000000E+00 0. -1.
        -11    1    4    4    0    0  0.36858811620E-01  0.27070467838E-01 -0.30479407865E-01  0.54960327945E-01  0.51100000000E-03 0. -1.
         11    1    4    4    0    0  0.57644214076E-01  0.16601271787E-01 -0.49725046526E-01  0.77918540890E-01  0.51100000000E-03 0.  1.
</event>
<event>
 8    1  0.1123450E+005  0.1043930E+01  0.7957747E-01            NaN
         13   -1    0    0    0    0  0.00000000000E+00  0.00000000000E+00  0.74505805969E-08  0.10566000000E+00  0.10566000000E+00 0. -1.
     999900   -1    0    0    0    0 -0.00000000000E+00 -0.00000000000E+00 -0.74505805969E-08  0.93827000000E+00  0.93827000000E+00 0.  1.
     999902    2    1    2    0    0  0.30563661933E-02  0.85605882582E-02  0.21223602375E-01  0.10208417705E+01  0.10205806455E+01 0.  0.
     999903    2    3    3    0    0 -0.58876642071E-01 -0.10901546904E+00 -0.30946298430E-01  0.12933656839E+00  0.20480309187E-01 0.  0.
         14    1    1    2    0    0 -0.30563661933E-02 -0.85605882582E-02 -0.21223602375E-01  0.23088229543E-01  0.00000000000E+00 0.  1.
     999901    1    3    3    0    0  0.61933008265E-01  0.11757605730E+00  0.52169900805E-01  0.89150520207E+00  0.88000000000E+00 0. -1.
        -11    1    4    4    0    0 -0.69793014056E-02 -0.14221341091E-01 -0.11369297778E-01  0.19505877152E-01  0.51100000000E-03 0.  1.
         11    1    4    4    0    0 -0.51897340666E-01 -0.94794127951E-01 -0.19577000652E-01  0.10983069124E+00  0.51100000000E-03 0. -1.
</event>
<event>
 8    1  0.1123450E+005  0.1043930E+01  0.7957747E-01            NaN
         13   -1    0    0    0    0  0.00000000000E+00  0.00000000000E+00  0.74505805969E-08  0.10566000000E+00  0.10566000000E+00 0.  1.
     999900   -1    0    0    0    0 -0.00000000000E+00 -0.00000000000E+00 -0.74505805969E-08  0.93827000000E+00  0.93827000000E+00 0. -1.
     999902    2    1    2    0    0  0.19256226413E-01  0.29778841260E-02  0.94493926228E-02  0.10222744910E+01  0.10220450938E+01 0.  0.
     999903    2    3    3    0    0  0.55513948679E-01  0.26791484598E-01 -0.11529648347E+00  0.13241874785E+00  0.21020550341E-01 0.  0.
         14    1    1    2    0    0 -0.19256226413E-01 -0.29778841260E-02 -0.94493926228E-02  0.21655509010E-01  0.00000000000E+00 0.  1.
     999901    1    3    3    0    0 -0.36257722266E-01 -0.23813600472E-01  0.12474587610E+00  0.88985574314E+00  0.88000000000E+00 0.  1.
        -11    1    4    4    0    0  0.89536089521E-02  0.48427965336E-02 -0.39506194191E-01  0.40799758480E-01  0.51100000000E-03 0.  1.
         11    1    4    4    0    0  0.46560339727E-01  0.21948688064E-01 -0.75790289282E-01  0.91618989373E-01  0.51100000000E-03 0. -1.
</event>
<event>
 8    1  0.1123450E+005  0.1043930E+01  0.7957747E-01            NaN
         13   -1    0    0    0    0  0.00000000000E+00  0.00000000000E+00  0.74505805969E-08  0.10566000000E+00  0.10566000000E+00 0.  1.
     999900   -1    0    0    0    0 -0.00000000000E+00 -0.00000000000E+00 -0.74505805969E-08  0.93827000000E+00  0.93827000000E+00 0.  1.
     999902    2    1    2    0    0  0.54568982769E-03 -0.69357249417E-02 -0.22025124017E-01  0.10208322047E+01  0.10205708609E+01 0.  0.
     999903    2    3    3    0    0 -0.88541817029E-01  0.84566638235E-01 -0.43686849854E-01  0.13135005387E+00  0.18791650737E-01 0.  0.
         14    1    1    2    0    0 -0.54568982769E-03  0.69357249417E-02  0.22025124017E-01  0.23097795258E-01  0.00000000000E+00 0.  1.
     999901    1    3    3    0    0  0.89087506857E-01 -0.91502363177E-01  0.21661725837E-01  0.88948215087E+00  0.88000000000E+00 0.  1.
        -11    1    4    4    0    0 -0.36821473600E-01  0.38454786403E-01 -0.28580411773E-01  0.60429236082E-01  0.51100000000E-03 0. -1.
         11    1    4    4    0    0 -0.51720343429E-01  0.46111851832E-01 -0.15106438081E-01  0.70920817792E-01  0.51100000000E-03 0.  1.
</event>
<event>
 8    1  0.1123450E+005  0.1043930E+01  0.7957747E-01            NaN
         13   -1    0    0    0    0  0.00000000000E+00  0.00000000000E+00  0.74505805969E-08  0.10566000000E+00  0.10566000000E+00 0. -1.
     999900   -1    0    0    0    0 -0.00000000000E+00 -0.00000000000E+00 -0.74505805969E-08  0.93827000000E+00  0.93827000000E+00 0.  1.
     999902    2    1    2    0    0  0.23019530381E-01 -0.83359811529E-02 -0.87422855199E-02  0.10179335595E+01  0.10176015511E+01 0.  0.
     999903    2    3    3    0    0  0.46622578566E-01 -0.10678162259E+00 -0.55997318985E-01  0.13087004073E+00  0.20378618004E-01 0.  0.
         14    1    1    2    0    0 -0.23019530381E-01  0.83359811529E-02  0.87422855199E-02  0.25996440465E-01  0.00000000000E+00 0. -1.
     999901    1    3    3    0    0 -0.23603048184E-01  0.98445641441E-01  0.47255033465E-01  0.88706351880E+00  0.88000000000E+00 0. -1.
        -11    1    4    4    0    0  0.26011861496E-01 -0.80561873129E-01 -0.44105534627E-01  0.95458847921E-01  0.51100000000E-03 0.  1.
         11    1    4    4    0    0  0.20610717069E-01 -0.26219749465E-01 -0.11891784358E-01  0.35411192811E-01  0.51100000000E-03 0. -1.
</event>
<event>
 8    1  0.1123450E+005  0.1043930E+01  0.7957747E-01            NaN
         13   -1    0    0    0    0  0.00000000000E+00  0.00000000000E+00  0.74505805969E-08  0.10566000000E+00  0.10566000000E+00 0.  1.
     999900   -1    0    0    0    0 -0.00000000000E+00 -0.00000000000E+00 -0.74505805969E-08  0.93827000000E+00  0.93827000000E+00 0. -1.
     999902    2    1    2    0    0  0.11774531564E-01  0.12944969160E-01  0.14171789929E-01  0.10214121970E+01  0.10211639559E+01 0.  0.
     999903    2    3    3    0    0  0.81948604538E-03 -0.82875731036E-01 -0.96978241093E-01  0.12919252174E+00  0.20417396396E-01 0.  0.
         14    1    1    2    0    0 -0.11774531564E-01 -0.12944969160E-01 -0.14171789929E-01  0.22517802955E-01  0.00000000000E+00 0. -1.
     999901    1    3    3    0    0  0.10955045518E-01  0.95820700196E-01  0.11115003102E+00  0.89221967531E+00  0.88000000000E+00 0.  1.
        -11    1    4    4    0    0 -0.89184773480E-02 -0.47077795899E-01 -0.48916390675E-01  0.68475780409E-01  0.51100000000E-03 0. -1.
         11    1    4    4    0    0  0.97379633934E-02 -0.35797935136E-01 -0.48061850419E-01  0.60716741330E-01  0.51100000000E-03 0.  1.
</event>
<event>
 8    1  0.1123450E+005  0.1043930E+01  0.7957747E-01            NaN
         13   -1    0    0    0    0  0.00000000000E+00  0.00000000000E+00  0.74505805969E-08  0.10566000000E+00  0.10566000000E+00 0. -1.
     999900   -1    0    0    0    0 -0.00000000000E+00 -0.00000000000E+00 -0.74505805969E-08  0.93827000000E+00  0.93827000000E+00 0.  1.
     999902    2    1    2    0    0  0.20077708967E-01  0.79466491026E-02 -0.11265603685E-01  0.10195747653E+01  0.10192838293E+01 0.  0.
     999903    2    3    3    0    0 -0.27692062015E-01 -0.46066615943E-01  0.11437275059E+00  0.12773151684E+00  0.18580390586E-01 0.  0.
         14    1    1    2    0    0 -0.20077708967E-01 -0.79466491026E-02  0.11265603685E-01  0.24355234667E-01  0.00000000000E+00 0.  1.
     999901    1    3    3    0    0  0.47769770982E-01  0.54013265045E-01 -0.12563835427E+00  0.89184324849E+00  0.88000000000E+00 0.  1.
        -11    1    4    4    0    0 -0.54259845737E-02 -0.21488852645E-01  0.31973532256E-01  0.38907325564E-01  0.51100000000E-03 0.  1.
         11    1    4    4    0    0 -0.22266077442E-01 -0.24577763298E-01  0.82399218329E-01  0.88824191275E-01  0.51100000000E-03 0. -1.
</event>
<event>
 8    1  0.1123450E+005  0.1043930E+01  0.7957747E-01            NaN
         13   -1    0    0    0    0  0.00000000000E+00  0.00000000000E+00  0.74505805969E-08  0.10566000000E+00  0.10566000000E+00 0.  1.
     999900   -1    0    0    0    0 -0.00000000000E+00 -0.00000000000E+00 -0.74505805969E-08  0.93827000000E+00  0.93827000000E+00 0.  1.
     999902    2    1    2    0    0  0.20102908638E-01 -0.78818359672E-02  0.11088364661E-01  0.10196565144E+01  0.10193675516E+01 0.  0.
     999903    2    3    3    0    0  0.35184945669E-01  0.28253679051E-01  0.12227432612E+00  0.13179641204E+00  0.19571219086E-01 0.  0.
         14    1    1    2    0    0 -0.20102908638E-01  0.78818359672E-02 -0.11088364661E-01  0.24273485633E-01  0.00000000000E+00 0. -1.
     999901    1    3    3    0    0 -0.15082037031E-01 -0.36135515019E-01 -0.11118596146E+00  0.88786010233E+00  0.88000000000E+00 0.  1.
        -11    1    4    4    0    0  0.13303292644E-01  0.22980959473E-01  0.70617690615E-01  0.75446812009E-01  0.51100000000E-03 0.  1.
         11    1    4    4    0    0  0.21881653025E-01  0.52727195785E-02  0.51656635502E-01  0.56349600027E-01  0.51100000000E-03 0. -1.
</event>
<event>
 8    1  0.1123450E+005  0.1043930E+01  0.7957747E-01            NaN
         13   -1    0    0    0    0  0.00000000000E+00  0.00000000000E+00  0.74505805969E-08  0.10566000000E+00  0.10566000000E+00 0. -1.
     999900   -1    0    0    0    0 -0.00000000000E+00 -0.00000000000E+00 -0.74505805969E-08  0.93827000000E+00  0.93827000000E+00 0.  1.
     999902    2    1    2    0    0 -0.56566065071E-02  0.71796517008E-02  0.22414727956E-01  0.10197232938E+01  0.10194359378E+01 0.  0.
     999903    2    3    3    0    0 -0.38783963767E-02  0.13321471992E-01 -0.12470967002E+00  0.12748651330E+00  0.22534544678E-01 0.  0.
         14    1    1    2    0    0  0.56566065071E-02 -0.71796517008E-02 -0.22414727956E-01  0.24206706201E-01  0.00000000000E+00 0.  1.
     999901    1    3    3    0    0 -0.17782101304E-02 -0.61418202911E-02  0.14712439798E+00  0.89223678049E+00  0.88000000000E+00 0. -1.
        -11    1    4    4    0    0 -0.11557214166E-01  0.14631354170E-01 -0.88991752393E-01  0.90925457596E-01  0.51100000000E-03 0. -1.
         11    1    4    4    0    0  0.76788177898E-02 -0.13098821782E-02 -0.35717917626E-01  0.36561055709E-01  0.51100000000E-03 0.  1.
</event>
<event>
 8    1  0.1123450E+005  0.1043930E+01  0.7957747E-01            NaN
         13   -1    0    0    0    0  0.00000000000E+00  0.00000000000E+00  0.74505805969E-08  0.10566000000E+00  0.10566000000E+00 0.  1.
     999900   -1    0    0    0    0 -0.00000000000E+00 -0.00000000000E+00 -0.74505805969E-08  0.93827000000E+00  0.93827000000E+00 0.  1.
     999902    2    1    2    0    0 -0.14065433966E-01 -0.14812568166E-01  0.12079490691E-01  0.10201989506E+01  0.10199229070E+01 0.  0.
     999903    2    3    3    0    0 -0.10396893703E+00 -0.15369245575E-01 -0.75960988714E-01  0.13124784076E+00  0.20252662059E-01 0.  0.
         14    1    1    2    0    0  0.14065433966E-01  0.14812568166E-01 -0.12079490691E-01  0.23731049359E-01  0.00000000000E+00 0. -1.
     999901    1    3    3    0    0  0.89903503060E-01  0.55667740875E-03  0.88040479405E-01  0.88895110989E+00  0.88000000000E+00 0. -1.
        -11    1    4    4    0    0 -0.85290070391E-01 -0.13719293735E-01 -0.52049934139E-01  0.10085668988E+00  0.51100000000E-03 0. -1.
         11    1    4    4    0    0 -0.18678866635E-01 -0.16499518397E-02 -0.23911054575E-01  0.30391150879E-01  0.51100000000E-03 0.  1.
</event>
<event>
 7    1  0.1123450E+005  0.1043930E+01  0.7957747E-01            NaN
         13   -1    0    0    0    0  0.00000000000E+00  0.00000000000E+00  0.74505805969E-08  0.10566000000E+00  0.10566000000E+00 0. -1.
     999900   -1    0    0    0    0 -0.00000000000E+00 -0.00000000000E+00 -0.74505805969E-08  0.93827000000E+00  0.93827000000E+00 0.  1.
     999902    2    1    2    0    0  0.22470004526E-01 -0.11166651792E-01 -0.94312693110E-02  0.10171243279E+01  0.10167710432E+01 0.  0.
         14    1    1    2    0    0 -0.22470004526E-01  0.11166651792E-01  0.94312693110E-02  0.26805672095E-01  0.00000000000E+00 0. -1.
     999901    1    3    3    0    0  0.94170478027E-01 -0.27506682188E-01 -0.11021774747E+00  0.89228507124E+00  0.88000000000E+00 0.  1.
        -11    1    3    3    0    0 -0.16681860664E-01  0.48962128017E-02  0.21463908422E-01  0.27626397897E-01  0.51100000000E-03 0. -1.
         11    1    3    3    0    0 -0.55018612836E-01  0.11443817594E-01  0.79322569737E-01  0.97212858770E-01  0.51100000000E-03 0.  1.
</event>
<event>
 8    1  0.1123450E+005  0.1043930E+01  0.7957747E-01            NaN
         13   -1    0    0    0    0  0.00000000000E+00  0.00000000000E+00  0.74505805969E-08  0.10566000000E+00  0.10566000000E+00 0.  1.
     999900   -1    0    0    0    0 -0.00000000000E+00 -0.00000000000E+00 -0.74505805969E-08  0.93827000000E+00  0.93827000000E+00 0.  1.
     999902    2    1    2    0    0 -0.15919673560E-01  0.16060242336E-01  0.10288472225E-01  0.10190860862E+01  0.10187832111E+01 0.  0.
     999903    2    3    3    0    0 -0.11342122974E+00  0.53796277212E-01  0.36843925963E-01  0.13249951184E+00  0.20981681507E-01 0.  0.
         14    1    1    2    0    0  0.15919673560E-01 -0.16060242336E-01 -0.10288472225E-01  0.24843913759E-01  0.00000000000E+00 0. -1.
     999901    1    3    3    0    0  0.97501556184E-01 -0.37736034876E-01 -0.26555453737E-01  0.88658657440E+00  0.88000000000E+00 0.  1.
        -11    1    4    4    0    0 -0.89183607549E-01  0.51004090010E-01  0.32118896626E-01  0.10764301043E+00  0.51100000000E-03 0.  1.
         11    1    4    4    0    0 -0.24237622194E-01  0.27921872021E-02  0.47250293364E-02  0.24856501408E-01  0.51100000000E-03 0. -1.
</event>
<event>
 8    1  0.1123450E+005  0.1043930E+01  0.7957747E-01            NaN
         13   -1    0    0    0    0  0.00000000000E+00  0.00000000000E+00  0.74505805969E-08  0.10566000000E+00  0.10566000000E+00 0. -1.
     999900   -1    0    0    0    0 -0.00000000000E+00 -0.00000000000E+00 -0.74505805969E-08  0.93827000000E+00  0.93827000000E+00 0. -1.
     999902    2    1    2    0    0  0.18829203146E-01 -0.93966892982E-02  0.12780842587E-01  0.10193091430E+01  0.10190117479E+01 0.  0.
     999903    2    3    3    0    0 -0.44271625863E-01  0.10276951217E+00  0.60436808440E-01  0.12867225717E+00  0.19554857770E-01 0.  0.
         14    1    1    2    0    0 -0.18829203146E-01  0.93966892982E-02 -0.12780842587E-01  0.24620856974E-01  0.00000000000E+00 0.  1.
     999901    1    3    3    0    0  0.63100829009E-01 -0.11216620147E+00 -0.47655965852E-01  0.89063688586E+00  0.88000000000E+00 0.  1.
        -11    1    4    4    0    0 -0.30025453956E-01  0.59360484187E-01  0.45527229887E-01  0.80611318997E-01  0.51100000000E-03 0.  1.
         11    1    4    4    0    0 -0.14246171907E-01  0.43409027980E-01  0.14909578552E-01  0.48060938170E-01  0.51100000000E-03 0. -1.
</event>
<event>
 8    1  0.1123450E+005  0.1043930E+01  0.7957747E-01            NaN
         13   -1    0    0    0    0  0.00000000000E+00  0.00000000000E+00  0.74505805969E-08  0.10566000000E+00  0.10566000000E+00 0. -1.
     999900   -1    0    0    0    0 -0.00000000000E+00 -0.00000000000E+00 -0.74505805969E-08  0.93827000000E+00  0.93827000000E+00 0.  1.
     999902    2    1    2    0    0  0.12694650893E-01 -0.78406715190E-02  0.15009110274E-01  0.10227662649E+01  0.10225472747E+01 0.  0.
     999903    2    3    3    0    0 -0.14376709852E-01  0.72112614488E-01 -0.10589887769E+00  0.13049717543E+00  0.20199543178E-01 0.  0.
         14    1    1    2    0    0 -0.12694650893E-01  0.78406715190E-02 -0.15009110274E-01  0.21163735077E-01  0.00000000000E+00 0.  1.
     999901    1    3    3    0    0  0.27071360745E-01 -0.79953286007E-01  0.12090798796E+00  0.89226908950E+00  0.88000000000E+00 0. -1.
        -11    1    4    4    0    0 -0.12577720533E-01  0.60634612857E-01 -0.73706781077E-01  0.96268925556E-01  0.51100000000E-03 0. -1.
         11    1    4    4    0    0 -0.17989893191E-02  0.11478001631E-01 -0.32192096612E-01  0.34228249872E-01  0.51100000000E-03 0.  1.
</event>
<event>
 8    1  0.1123450E+005  0.1043930E+01  0.7957747E-01            NaN
         13   -1    0    0    0    0  0.00000000000E+00  0.00000000000E+00  0.74505805969E-08  0.10566000000E+00  0.10566000000E+00 0.  1.
     999900   -1    0    0    0    0 -0.00000000000E+00 -0.00000000000E+00 -0.74505805969E-08  0.93827000000E+00  0.93827000000E+00 0.  1.
     999902    2    1    2    0    0 -0.15777391865E-01  0.17741612961E-01  0.38614670711E-02  0.10198758558E+01  0.10195921535E+01 0.  0.
     999903    2    3    3    0    0 -0.41724879807E-01 -0.11604529190E+00  0.31923597604E-01  0.12894393293E+00  0.19998659685E-01 0.  0.
         14    1    1    2    0    0  0.15777391865E-01 -0.17741612961E-01 -0.38614670711E-02  0.24054144185E-01  0.00000000000E+00 0. -1.
     999901    1    3    3    0    0  0.25947487942E-01  0.13378690486E+00 -0.28062130533E-01  0.89093192288E+00  0.88000000000E+00 0.  1.
        -11    1    4    4    0    0 -0.36743769395E-01 -0.11093403253E+00  0.26155424937E-01  0.11975321097E+00  0.51100000000E-03 0. -1.
         11    1    4    4    0    0 -0.49811104118E-02 -0.51112593658E-02  0.57681726665E-02  0.91907219602E-02  0.51100000000E-03 0.  1.
</event>
<event>
 8    1  0.1123450E+005  0.1043930E+01  0.7957747E-01            NaN
         13   -1    0    0    0    0  0.00000000000E+00  0.00000000000E+00  0.74505805969E-08  0.10566000000E+00  0.10566000000E+00 0. -1.
     999900   -1    0    0    0    0 -0.00000000000E+00 -0.00000000000E+00 -0.74505805969E-08  0.93827000000E+00  0.93827000000E+00 0.  1.
     999902    2    1    2    0    0  0.13688170788E-02 -0.21306298395E-01 -0.99937997335E-02  0.10203565394E+01  0.10200841923E+01 0.  0.
     999903    2    3    3    0    0 -0.22678148079E-01  0.12411778648E+00  0.14929140934E-01  0.12774936154E+00  0.13322792624E-01 0.  0.
         14    1    1    2    0    0 -0.13688170788E-02  0.21306298395E-01  0.99937997335E-02  0.23573460599E-01  0.00000000000E+00 0.  1.
     999901    1    3    3    0    0  0.24046965158E-01 -0.14542408488E+00 -0.24922940668E-01  0.89260717786E+00  0.88000000000E+00 0.  1.
        -11    1    4    4    0    0 -0.16054707524E-01  0.62217926200E-01  0.12394948037E-01  0.65442492557E-01  0.51100000000E-03 0. -1.
         11    1    4    4    0    0 -0.66234405545E-02  0.61899860283E-01  0.25341928977E-02  0.62306868983E-01  0.51100000000E-03 0.  1.
</event>
<event>
 8    1  0.1123450E+005  0.1043930E+01  0.7957747E-01            NaN
         13   -1    0    0    0    0  0.00000000000E+00  0.00000000000E+00  0.74505805969E-08  0.10566000000E+00  0.10566000000E+00 0. -1.
     999900   -1    0    0    0    0 -0.00000000000E+00 -0.00000000000E+00 -0.74505805969E-08  0.93827000000E+00  0.93827000000E+00 0.  1.
     999902    2    1    2    0    0  0.13534235369E-01 -0.19855985884E-01 -0.23997721285E-02  0.10197805775E+01  0.10194945961E+01 0.  0.
     999903    2    3    3    0    0 -0.11767272140E+00  0.24708926812E-01  0.39064586685E-01  0.12797309264E+00  0.19841120938E-01 0.  0.
         14    1    1    2    0    0 -0.13534235369E-01  0.19855985884E-01  0.23997721285E-02  0.24149422534E-01  0.00000000000E+00 0.  1.
     999901    1    3    3    0    0  0.13120695677E+00 -0.44564912696E-01 -0.41464358814E-01  0.89180748483E+00  0.88000000000E+00 0.  1.
        -11    1    4    4    0    0 -0.38279317708E-01  0.64308197399E-03  0.18379329133E-01  0.42470938052E-01  0.51100000000E-03 0.  1.
         11    1    4    4    0    0 -0.79393403691E-01  0.24065844839E-01  0.20685257552E-01  0.85502154584E-01  0.51100000000E-03 0. -1.
</event>
<event>
 8    1  0.1123450E+005  0.1043930E+01  0.7957747E-01            NaN
         13   -1    0    0    0    0  0.00000000000E+00  0.00000000000E+00  0.74505805969E-08  0.10566000000E+00  0.10566000000E+00 0.  1.
     999900   -1    0    0    0    0 -0.00000000000E+00 -0.00000000000E+00 -0.74505805969E-08  0.93827000000E+00  0.93827000000E+00 0. -1.
     999902    2    1    2    0    0 -0.58063668005E-03 -0.23267143815E-01  0.61727012317E-02  0.10198509767E+01  0.10195666802E+01 0.  0.
     999903    2    3    3    0    0 -0.59379851577E-02 -0.49378155130E-01  0.12066514908E+00  0.13203398733E+00  0.19985838360E-01 0.  0.
         14    1    1    2    0    0  0.58063668005E-03  0.23267143815E-01 -0.61727012317E-02  0.24079023251E-01  0.00000000000E+00 0. -1.
     999901    1    3    3    0    0  0.53573484777E-02  0.26111011315E-01 -0.11449244785E+00  0.88781698942E+00  0.88000000000E+00 0. -1.
        -11    1    4    4    0    0 -0.11231685941E-01 -0.43318470172E-01  0.92833378681E-01  0.10305793490E+00  0.51100000000E-03 0. -1.
         11    1    4    4    0    0  0.52937007832E-02 -0.60596849579E-02  0.27831770398E-01  0.28976052427E-01  0.51100000000E-03 0.  1.
</event>
<event>
 8    1  0.1123450E+005  0.1043930E+01  0.7957747E-01            NaN
         13   -1    0    0    0    0  0.00000000000E+00  0.00000000000E+00  0.74505805969E-08  0.10566000000E+00  0.10566000000E+00 0. -1.
     999900   -1    0    0    0    0 -0.00000000000E+00 -0.00000000000E+00 -0.74505805969E-08  0.93827000000E+00  0.93827000000E+00 0.  1.
     999902    2    1    2    0    0  0.17887445554E-01  0.15775598147E-02  0.16232671227E-01  0.10197236162E+01  0.10194362679E+01 0.  0.
     999903    2    3    3    0    0  0.23637119908E-01  0.12200780383E+00 -0.32584529341E-01  0.13016213908E+00  0.20876141068E-01 0.  0.
         14    1    1    2    0    0 -0.17887445554E-01 -0.15775598147E-02 -0.16232671227E-01  0.24206383840E-01  0.00000000000E+00 0.  1.
     999901    1    3    3    0    0 -0.57496743541E-02 -0.12043024401E+00  0.48817200568E-01  0.88956147708E+00  0.88000000000E+00 0. -1.
        -11    1    4    4    0    0  0.54173643346E-02  0.69020484617E-01 -0.10945665024E-01  0.70094535001E-01  0.51100000000E-03 0.  1.
         11    1    4    4    0    0  0.18219755574E-01  0.52987319210E-01 -0.21638864317E-01  0.60067604082E-01  0.51100000000E-03 0. -1.
</event>
<event>
 8    1  0.1123450E+005  0.1043930E+01  0.7957747E-01            NaN
         13   -1    0    0    0    0  0.00000000000E+00  0.00000000000E+00  0.74505805969E-08  0.10566000000E+00  0.10566000000E+00 0.  1.
     999900   -1    0    0    0    0 -0.00000000000E+00 -0.00000000000E+00 -0.74505805969E-08  0.93827000000E+00  0.93827000000E+00 0.  1.
     999902    2    1    2    0    0  0.29933804867E-02 -0.18655199785E-01 -0.14225389505E-01  0.10202796615E+01  0.10200055143E+01 0.  0.
     999903    2    3    3    0    0 -0.71589157426E-02  0.32295245963E-01 -0.12571311265E+00  0.13172548223E+00  0.21297487910E-01 0.  0.
         14    1    1    2    0    0 -0.29933804867E-02  0.18655199785E-01  0.14225389505E-01  0.23650338525E-01  0.00000000000E+00 0. -1.
     999901    1    3    3    0    0  0.10152296229E-01 -0.50950445748E-01  0.11148772314E+00  0.88855417924E+00  0.88000000000E+00 0. -1.
        -11    1    4    4    0    0 -0.15315451927E-02  0.74052180883E-02 -0.70409758672E-01  0.70816510242E-01  0.51100000000E-03 0.  1.
         11    1    4    4    0    0 -0.56273705499E-02  0.24890027874E-01 -0.55303353975E-01  0.60908971989E-01  0.51100000000E-03 0. -1.
</event>
<event>
 8    1  0.1123450E+005  0.1043930E+01  0.7957747E-01            NaN
         13   -1    0    0    0    0  0.00000000000E+00  0.00000000000E+00  0.74505805969E-08  0.10566000000E+00  0.10566000000E+00 0. -1.
     999900   -1    0    0    0    0 -0.00000000000E+00 -0.00000000000E+00 -0.74505805969E-08  0.93827000000E+00  0.93827000000E+00 0. -1.
     999902    2    1    2    0    0 -0.15808890012E-01 -0.28098565951E-02 -0.17568961758E-01  0.10201290606E+01  0.10198513694E+01 0.  0.
     999903    2    3    3    0    0  0.49867296523E-01 -0.52202932390E-01  0.10328106940E+00  0.12807650195E+00  0.22906716112E-01 0.  0.
         14    1    1    2    0    0  0.15808890012E-01  0.28098565951E-02  0.17568961758E-01  0.23800939367E-01  0.00000000000E+00 0. -1.
     999901    1    3    3    0    0 -0.65676186535E-01  0.49393075795E-01 -0.12085003116E+00  0.89205255868E+00  0.88000000000E+00 0. -1.
        -11    1    4    4    0    0  0.41103645248E-02  0.18324447803E-02  0.34980939955E-02  0.57228256134E-02  0.51100000000E-03 0. -1.
         11    1    4    4    0    0  0.45756931998E-01 -0.54035377170E-01  0.99782975407E-01  0.12235367634E+00  0.51100000000E-03 0.  1.
</event>
<event>
 8    1  0.1123450E+005  0.1043930E+01  0.7957747E-01            NaN
         13   -1    0    0    0    0  0.00000000000E+00  0.00000000000E+00  0.74505805969E-08  0.10566000000E+00  0.10566000000E+00 0.  1.
     999900   -1    0    0    0    0 -0.00000000000E+00 -0.00000000000E+00 -0.74505805969E-08  0.93827000000E+00  0.93827000000E+00 0. -1.
     999902    2    1    2    0    0 -0.55062376286E-02  0.96008139283E-02  0.21422831150E-01  0.10198170994E+01  0.10195319928E+01 0.  0.
     999903    2    3    3    0    0  0.16747412736E-01  0.40715502403E-01 -0.11839512588E+00  0.12795813639E+00  0.20436508192E-01 0.  0.
         14    1    1    2    0    0  0.55062376286E-02 -0.96008139283E-02 -0.21422831150E-01  0.24112900601E-01  0.00000000000E+00 0. -1.
     999901    1    3    3    0    0 -0.22253650365E-01 -0.31114688475E-01  0.13981795703E+00  0.89185896301E+00  0.88000000000E+00 0.  1.
        -11    1    4    4    0    0  0.20756695790E-01  0.32520947684E-01 -0.85218165505E-01  0.93545974320E-01  0.51100000000E-03 0.  1.
         11    1    4    4    0    0 -0.40092830541E-02  0.81945547190E-02 -0.33176960374E-01  0.34412162070E-01  0.51100000000E-03 0. -1.
</event>
<event>
 7    1  0.1123450E+005  0.1043930E+01  0.7957747E-01            NaN
         13   -1    0    0    0    0  0.00000000000E+00  0.00000000000E+00  0.74505805969E-08  0.10566000000E+00  0.10566000000E+00 0.  1.
     999900   -1    0    0    0    0 -0.00000000000E+00 -0.00000000000E+00 -0.74505805969E-08  0.93827000000E+00  0.93827000000E+00 0. -1.
     999903    2    1    2    0    0  0.33795753332E-01  0.89617069672E-02 -0.71389778917E-01  0.82300281540E-01  0.21315972246E-01 0.  0.
         14    1    1    2    0    0  0.30643156972E-01  0.46464808369E-01 -0.42769994340E-01  0.70194400787E-01  0.00000000000E+00 0. -1.
     999901    1    1    2    0    0 -0.64438910304E-01 -0.55426515337E-01  0.11415977326E+00  0.89143531767E+00  0.88000000000E+00 0.  1.
        -11    1    3    3    0    0  0.20913997457E-01 -0.35105615652E-02 -0.50448161099E-01  0.54726569520E-01  0.51100000000E-03 0.  1.
         11    1    3    3    0    0  0.12881755875E-01  0.12472268532E-01 -0.20941617818E-01  0.27573712021E-01  0.51100000000E-03 0. -1.
</event>
<event>
 8    1  0.1123450E+005  0.1043930E+01  0.7957747E-01            NaN
         13   -1    0    0    0    0  0.00000000000E+00  0.00000000000E+00  0.74505805969E-08  0.10566000000E+00  0.10566000000E+00 0.  1.
     999900   -1    0    0    0    0 -0.00000000000E+00 -0.00000000000E+00 -0.74505805969E-08  0.93827000000E+00  0.93827000000E+00 0.  1.
     999902    2    1    2    0    0 -0.15730668638E-01 -0.15959698638E-01  0.73149301702E-02  0.10203572590E+01  0.10200849287E+01 0.  0.
     999903    2    3    3    0    0 -0.10658083777E+00  0.73578356471E-01  0.74162758514E-02  0.13116052775E+00  0.19360613874E-01 0.  0.
         14    1    1    2    0    0  0.15730668638E-01  0.15959698638E-01 -0.73149301702E-02  0.23572741033E-01  0.00000000000E+00 0. -1.
     999901    1    3    3    0    0  0.90850169135E-01 -0.89538055109E-01 -0.10134568121E-03  0.88919673122E+00  0.88000000000E+00 0.  1.
        -11    1    4    4    0    0 -0.13566151098E-01  0.13323317924E-01 -0.49242213804E-02  0.19648418087E-01  0.51100000000E-03 0. -1.
         11    1    4    4    0    0 -0.93014686674E-01  0.60255038547E-01  0.12340497232E-01  0.11151210966E+00  0.51100000000E-03 0.  1.
</event>
<event>
 8    1  0.1123450E+005  0.1043930E+01  0.7957747E-01            NaN
         13   -1    0    0    0    0  0.00000000000E+00  0.00000000000E+00  0.74505805969E-08  0.10566000000E+00  0.10566000000E+00 0.  1.
     999900   -1    0    0    0    0 -0.00000000000E+00 -0.00000000000E+00 -0.74505805969E-08  0.93827000000E+00  0.93827000000E+00 0.  1.
     999902    2    1    2    0    0  0.18956098481E-01  0.70072108404E-02  0.84746756507E-03  0.10237024724E+01  0.10235026131E+01 0.  0.
     999903    2    3    3    0    0 -0.11851277691E+00  0.39846717739E-01  0.36219992289E-01  0.13172302168E+00  0.20150121473E-01 0.  0.
         14    1    1    2    0    0 -0.18956098481E-01 -0.70072108404E-02 -0.84746756507E-03  0.20227527646E-01  0.00000000000E+00 0.  1.
     999901    1    3    3    0    0  0.13746887539E+00 -0.32839506899E-01 -0.35372524724E-01  0.89197945067E+00  0.88000000000E+00 0.  1.
        -11    1    4    4    0    0 -0.26251889934E-01  0.16242955656E-01  0.37286674542E-02  0.31099186734E-01  0.51100000000E-03 0. -1.
         11    1    4    4    0    0 -0.92260886972E-01  0.23603762084E-01  0.32491324835E-01  0.10062383495E+00  0.51100000000E-03 0.  1.
</event>
<event>
 8    1  0.1123450E+005  0.1043930E+01  0.7957747E-01            NaN
         13   -1    0    0    0    0  0.00000000000E+00  0.00000000000E+00  0.74505805969E-08  0.10566000000E+00  0.10566000000E+00 0.  1.
     999900   -1    0    0    0    0 -0.00000000000E+00 -0.00000000000E+00 -0.74505805969E-08  0.93827000000E+00  0.93827000000E+00 0. -1.
     999902    2    1    2    0    0 -0.22748680434E-02  0.21715982722E-01  0.10041660256E-01  0.10198968173E+01  0.10196136151E+01 0.  0.
     999903    2    3    3    0    0 -0.80469902314E-01 -0.76227070443E-01 -0.61241907373E-01  0.12816330774E+00  0.19730453255E-01 0.  0.
         14    1    1    2    0    0  0.22748680434E-02 -0.21715982722E-01 -0.10041660256E-01  0.24033182704E-01  0.00000000000E+00 0.  1.
     999901    1    3    3    0    0  0.78195034271E-01  0.97943053165E-01  0.71283567630E-01  0.89173350955E+00  0.88000000000E+00 0. -1.
        -11    1    4    4    0    0 -0.56255681620E-01 -0.56716645571E-01 -0.34005077393E-01  0.86822151602E-01  0.51100000000E-03 0. -1.
         11    1    4    4    0    0 -0.24214220694E-01 -0.19510424872E-01 -0.27236829980E-01  0.41341156139E-01  0.51100000000E-03 0.  1.
</event>
<event>
 8    1  0.1123450E+005  0.1043930E+01  0.7957747E-01            NaN
         13   -1    0    0    0    0  0.00000000000E+00  0.00000000000E+00  0.74505805969E-08  0.10566000000E+00  0.10566000000E+00 0.  1.
     999900   -1    0    0    0    0 -0.00000000000E+00 -0.00000000000E+00 -0.74505805969E-08  0.93827000000E+00  0.93827000000E+00 0.  1.
     999902    2    1    2    0    0  0.23895671201E-02 -0.16070061319E-01  0.16970810435E-01  0.10204360580E+01  0.10201655666E+01 0.  0.
     999903    2    3    3    0    0 -0.25827677110E-01 -0.12802063909E+00  0.10747641008E-01  0.13287317431E+00  0.21986717065E-01 0.  0.
         14    1    1    2    0    0 -0.23895671201E-02  0.16070061319E-01 -0.16970810435E-01  0.23493941956E-01  0.00000000000E+00 0. -1.
     999901    1    3    3    0    0  0.28217244230E-01  0.11195057777E+00  0.62231694271E-02  0.88756288373E+00  0.88000000000E+00 0.  1.
        -11    1    4    4    0    0 -0.23884745115E-03 -0.32980889149E-01  0.99163859176E-02  0.34444040527E-01  0.51100000000E-03 0.  1.
         11    1    4    4    0    0 -0.25588829659E-01 -0.95039749941E-01  0.83125509051E-03  0.98429133788E-01  0.51100000000E-03 0. -1.
</event>
<event>
 8    1  0.1123450E+005  0.1043930E+01  0.7957747E-01            NaN
         13   -1    0    0    0    0  0.00000000000E+00  0.00000000000E+00  0.74505805969E-08  0.10566000000E+00  0.10566000000E+00 0. -1.
     999900   -1    0    0    0    0 -0.00000000000E+00 -0.00000000000E+00 -0.74505805969E-08  0.93827000000E+00  0.93827000000E+00 0.  1.
     999902    2    1    2    0    0  0.23400463882E-01  0.12595862631E-02 -0.55506290037E-02  0.10198472728E+01  0.10195628877E+01 0.  0.
     999903    2    3    3    0    0 -0.67013669813E-01 -0.73086382858E-01 -0.79913959765E-01  0.12898704601E+00  0.20468653413E-01 0.  0.
         14    1    1    2    0    0 -0.23400463882E-01 -0.12595862631E-02  0.55506290037E-02  0.24082727208E-01  0.00000000000E+00 0. -1.
     999901    1    3    3    0    0  0.90414133695E-01  0.74345969121E-01  0.74363330761E-01  0.89086022678E+00  0.88000000000E+00 0. -1.
        -11    1    4    4    0    0 -0.55488130460E-01 -0.52643863629E-01 -0.51880415215E-01  0.92423739394E-01  0.51100000000E-03 0.  1.
         11    1    4    4    0    0 -0.11525539353E-01 -0.20442519230E-01 -0.28033544549E-01  0.36563306618E-01  0.51100000000E-03 0. -1.
</event>
<event>
 8    1  0.1123450E+005  0.1043930E+01  0.7957747E-01            NaN
         13   -1    0    0    0    0  0.00000000000E+00  0.00000000000E+00  0.74505805969E-08  0.10566000000E+00  0.10566000000E+00 0. -1.
     999900   -1    0    0    0    0 -0.00000000000E+00 -0.00000000000E+00 -0.74505805969E-08  0.93827000000E+00  0.93827000000E+00 0. -1.
     999902    2    1    2    0    0  0.85677321056E-02 -0.15205721938E-01 -0.15894781958E-01  0.10203235579E+01  0.10200504393E+01 0.  0.
     999903    2    3    3    0    0  0.10550794710E+00  0.74136776500E-01  0.33680794737E-02  0.13029516225E+00  0.18365642216E-01 0.  0.
         14    1    1    2    0    0 -0.85677321056E-02  0.15205721938E-01  0.15894781958E-01  0.23606442057E-01  0.00000000000E+00 0. -1.
     999901    1    3    3    0    0 -0.96940214999E-01 -0.89342498438E-01 -0.19262861432E-01  0.89002839569E+00  0.88000000000E+00 0. -1.
        -11    1    4    4    0    0  0.25350228356E-01  0.24154073503E-01 -0.53615795993E-02  0.35426840126E-01  0.51100000000E-03 0.  1.
         11    1    4    4    0    0  0.80157718749E-01  0.49982702997E-01  0.87296590730E-02  0.94868322123E-01  0.51100000000E-03 0. -1.
</event>
<event>
 8    1  0.1123450E+005  0.1043930E+01  0.7957747E-01            NaN
         13   -1    0    0    0    0  0.00000000000E+00  0.00000000000E+00  0.74505805969E-08  0.10566000000E+00  0.10566000000E+00 0. -1.
     999900   -1    0    0    0    0 -0.00000000000E+00 -0.00000000000E+00 -0.74505805969E-08  0.93827000000E+00  0.93827000000E+00 0. -1.
     999902    2    1    2    0    0 -0.75998161869E-02 -0.17693390165E-03 -0.22609208434E-01  0.10200770166E+01  0.10197980952E+01 0.  0.
     999903    2    3    3    0    0  0.10509687774E+00  0.25422936124E-01 -0.71304026297E-01  0.13118608770E+00  0.20828971386E-01 0.  0.
         14    1    1    2    0    0  0.75998161869E-02  0.17693390165E-03  0.22609208434E-01  0.23852983413E-01  0.00000000000E+00 0. -1.
     999901    1    3    3    0    0 -0.11269669393E+00 -0.25599870026E-01  0.48694817863E-01  0.88889092888E+00  0.88000000000E+00 0.  1.
        -11    1    4    4    0    0  0.93958191212E-01  0.20063483688E-01 -0.54956586819E-01  0.11068501538E+00  0.51100000000E-03 0.  1.
         11    1    4    4    0    0  0.11138686526E-01  0.53594524357E-02 -0.16347439478E-01  0.20501072324E-01  0.51100000000E-03 0. -1.
</event>
<event>
 8    1  0.1123450E+005  0.1043930E+01  0.7957747E-01            NaN
         13   -1    0    0    0    0  0.00000000000E+00  0.00000000000E+00  0.74505805969E-08  0.10566000000E+00  0.10566000000E+00 0.  1.
     999900   -1    0    0    0    0 -0.00000000000E+00 -0.00000000000E+00 -0.74505805969E-08  0.93827000000E+00  0.93827000000E+00 0. -1.
     999902    2    1    2    0    0  0.10167580211E-01  0.20032020759E-01 -0.58421151365E-02  0.10207181097E+01  0.10204541477E+01 0.  0.
     999903    2    3    3    0    0  0.23719803711E-01 -0.19065672897E-01 -0.12638086339E+00  0.13153765429E+00  0.20097335484E-01 0.  0.
         14    1    1    2    0    0 -0.10167580211E-01 -0.20032020759E-01  0.58421151365E-02  0.23211890322E-01  0.00000000000E+00 0. -1.
     999901    1    3    3    0    0 -0.13552223499E-01  0.39097693656E-01  0.12053874826E+00  0.88918045539E+00  0.88000000000E+00 0.  1.
        -11    1    4    4    0    0  0.12529244555E-01 -0.10436030387E-01 -0.10245251235E+00  0.10374329428E+00  0.51100000000E-03 0.  1.
         11    1    4    4    0    0  0.11190559155E-01 -0.86296425093E-02 -0.23928351040E-01  0.27794360013E-01  0.51100000000E-03 0. -1.
</event>
<event>
 8    1  0.1123450E+005  0.1043930E+01  0.7957747E-01            NaN
         13   -1    0    0    0    0  0.00000000000E+00  0.00000000000E+00  0.74505805969E-08  0.10566000000E+00  0.10566000000E+00 0.  1.
     999900   -1    0    0    0    0 -0.00000000000E+00 -0.00000000000E+00 -0.74505805969E-08  0.93827000000E+00  0.93827000000E+00 0. -1.
     999902    2    1    2    0    0 -0.11633686940E-01 -0.18495900227E-01  0.69915874074E-02  0.10209882631E+01  0.10207304787E+01 0.  0.
     999903    2    3    3    0    0 -0.98329084736E-01  0.83812964036E-01  0.95281960191E-02  0.13082556445E+00  0.18202196253E-01 0.  0.
         14    1    1    2    0    0  0.11633686940E-01  0.18495900227E-01 -0.69915874074E-02  0.22941736889E-01  0.00000000000E+00 0. -1.
     999901    1    3    3    0    0  0.86695397796E-01 -0.10230886426E+00 -0.25366086117E-02  0.89016269866E+00  0.88000000000E+00 0.  1.
        -11    1    4    4    0    0 -0.32098369902E-01  0.22111822819E-01 -0.44466551102E-02  0.39233556064E-01  0.51100000000E-03 0.  1.
         11    1    4    4    0    0 -0.66230714834E-01  0.61701141217E-01  0.13974851129E-01  0.91592008385E-01  0.51100000000E-03 0. -1.
</event>
<event>
 8    1  0.1123450E+005  0.1043930E+01  0.7957747E-01            NaN
         13   -1    0    0    0    0  0.00000000000E+00  0.00000000000E+00  0.74505805969E-08  0.10566000000E+00  0.10566000000E+00 0.  1.
     999900   -1    0    0    0    0 -0.00000000000E+00 -0.00000000000E+00 -0.74505805969E-08  0.93827000000E+00  0.93827000000E+00 0. -1.
     999902    2    1    2    0    0  0.20427249289E-01  0.71714749968E-02  0.79624042285E-02  0.10208626541E+01  0.10206020067E+01 0.  0.
     999903    2    3    3    0    0  0.83893381912E-01 -0.76230255137E-01 -0.63960060062E-01  0.13173013332E+00  0.20317170464E-01 0.  0.
         14    1    1    2    0    0 -0.20427249289E-01 -0.71714749968E-02 -0.79624042285E-02  0.23067345929E-01  0.00000000000E+00 0.  1.
     999901    1    3    3    0    0 -0.63466132623E-01  0.83401730134E-01  0.71922464290E-01  0.88913252075E+00  0.88000000000E+00 0. -1.
        -11    1    4    4    0    0  0.42965372675E-01 -0.25534580844E-01 -0.26530403925E-01  0.56587644600E-01  0.51100000000E-03 0. -1.
         11    1    4    4    0    0  0.40928009237E-01 -0.50695674293E-01 -0.37429656137E-01  0.75142488724E-01  0.51100000000E-03 0.  1.
</event>
<event>
 8    1  0.1123450E+005  0.1043930E+01  0.7957747E-01            NaN
         13   -1    0    0    0    0  0.00000000000E+00  0.00000000000E+00  0.74505805969E-08  0.10566000000E+00  0.10566000000E+00 0.  1.
     999900   -1    0    0    0    0 -0.00000000000E+00 -0.00000000000E+00 -0.74505805969E-08  0.93827000000E+00  0.93827000000E+00 0.  1.
     999902    2    1    2    0    0  0.12826411140E-01 -0.36599848493E-02  0.20278358226E-01  0.10196581207E+01  0.10193691966E+01 0.  0.
     999903    2    3    3    0    0 -0.93503139081E-01 -0.79663176344E-01 -0.32099119851E-01  0.12846461839E+00  0.19589435933E-01 0.  0.
         14    1    1    2    0    0 -0.12826411140E-01  0.36599848493E-02 -0.20278358226E-01  0.24271879288E-01  0.00000000000E+00 0. -1.
     999901    1    3    3    0    0  0.10632955022E+00  0.76003191495E-01  0.52377478077E-01  0.89119350232E+00  0.88000000000E+00 0. -1.
        -11    1    4    4    0    0 -0.81445925027E-01 -0.70013547275E-01 -0.20994454172E-01  0.10943657402E+00  0.51100000000E-03 0. -1.
         11    1    4    4    0    0 -0.12057214054E-01 -0.96496290697E-02 -0.11104665679E-01  0.19028044376E-01  0.51100000000E-03 0.  1.
</event>
<event>
 8    1  0.1123450E+005  0.1043930E+01  0.7957747E-01            NaN
         13   -1    0    0    0    0  0.00000000000E+00  0.00000000000E+00  0.74505805969E-08  0.10566000000E+00  0.10566000000E+00 0. -1.
     999900   -1    0    0    0    0 -0.00000000000E+00 -0.00000000000E+00 -0.74505805969E-08  0.93827000000E+00  0.93827000000E+00 0. -1.
     999902    2    1    2    0    0  0.18555185482E-01  0.15407027612E-01  0.52765996120E-02  0.10192416645E+01  0.10189426170E+01 0.  0.
     999903    2    3    3    0    0  0.91662975508E-01  0.29325816277E-01  0.88382854284E-01  0.13219875050E+00  0.20071774316E-01 0.  0.
         14    1    1    2    0    0 -0.18555185482E-01 -0.15407027612E-01 -0.52765996120E-02  0.24688335537E-01  0.00000000000E+00 0.  1.
     999901    1    3    3    0    0 -0.73107790026E-01 -0.13918788664E-01 -0.83106254672E-01  0.88704291396E+00  0.88000000000E+00 0. -1.
        -11    1    4    4    0    0  0.22308309033E-01 -0.10021686462E-02  0.16112448536E-01  0.27541552475E-01  0.51100000000E-03 0.  1.
         11    1    4    4    0    0  0.69354666475E-01  0.30327984923E-01  0.72270405748E-01  0.10465719803E+00  0.51100000000E-03 0. -1.
</event>
<event>
 8    1  0.1123450E+005  0.1043930E+01  0.7957747E-01            NaN
         13   -1    0    0    0    0  0.00000000000E+00  0.00000000000E+00  0.74505805969E-08  0.10566000000E+00  0.10566000000E+00 0. -1.
     999900   -1    0    0    0    0 -0.00000000000E+00 -0.00000000000E+00 -0.74505805969E-08  0.93827000000E+00  0.93827000000E+00 0.  1.
     999902    2    1    2    0    0 -0.78231033791E-02 -0.12041311175E-01  0.19483241900E-01  0.10197268837E+01  0.10194396140E+01 0.  0.
     999903    2    3    3    0    0  0.37018409895E-02 -0.56598964368E-01 -0.11357456367E+00  0.12853521614E+00  0.20123962845E-01 0.  0.
         14    1    1    2    0    0  0.78231033791E-02  0.12041311175E-01 -0.19483241900E-01  0.24203116250E-01  0.00000000000E+00 0.  1.
     999901    1    3    3    0    0 -0.11524944369E-01  0.44557653193E-01  0.13305780557E+00  0.89119166761E+00  0.88000000000E+00 0. -1.
        -11    1    4    4    0    0  0.94152950388E-02 -0.50362716003E-01 -0.10247961929E+00  0.11457479843E+00  0.51100000000E-03 0.  1.
         11    1    4    4    0    0 -0.57134540492E-02 -0.62362483650E-02 -0.11094944374E-01  0.13960417705E-01  0.51100000000E-03 0. -1.
</event>
<event>
 8    1  0.1123450E+005  0.1043930E+01  0.7957747E-01            NaN
         13   -1    0    0    0    0  0.00000000000E+00  0.00000000000E+00  0.74505805969E-08  0.10566000000E+00  0.10566000000E+00 0.  1.
     999900   -1    0    0    0    0 -0.00000000000E+00 -0.00000000000E+00 -0.74505805969E-08  0.93827000000E+00  0.93827000000E+00 0. -1.
     999902    2    1    2    0    0 -0.15579368842E-01 -0.23337284158E-02 -0.17815916062E-01  0.10201482867E+01  0.10198710492E+01 0.  0.
     999903    2    3    3    0    0  0.32415187969E-01  0.11782865991E+00  0.35993833085E-01  0.12906020680E+00  0.20655349210E-01 0.  0.
         14    1    1    2    0    0  0.15579368842E-01  0.23337284158E-02  0.17815916062E-01  0.23781713289E-01  0.00000000000E+00 0.  1.
     999901    1    3    3    0    0 -0.47994556812E-01 -0.12016238833E+00 -0.53809749148E-01  0.89108807991E+00  0.88000000000E+00 0. -1.
        -11    1    4    4    0    0 -0.98277007920E-03  0.24777538635E-01  0.38363221541E-02  0.25097225873E-01  0.51100000000E-03 0. -1.
         11    1    4    4    0    0  0.33397958049E-01  0.93051121280E-01  0.32157510931E-01  0.10396298093E+00  0.51100000000E-03 0.  1.
</event>
<event>
 8    1  0.1123450E+005  0.1043930E+01  0.7957747E-01            NaN
         13   -1    0    0    0    0  0.00000000000E+00  0.00000000000E+00  0.74505805969E-08  0.10566000000E+00  0.10566000000E+00 0. -1.
     999900   -1    0    0    0    0 -0.00000000000E+00 -0.00000000000E+00 -0.74505805969E-08  0.93827000000E+00  0.93827000000E+00 0. -1.
     999902    2    1    2    0    0 -0.17455043186E-01  0.80514368070E-02 -0.14293916750E-01  0.10199754551E+01  0.10196941251E+01 0.  0.
     999903    2    3    3    0    0 -0.49505512297E-01  0.12086757122E+00 -0.34237168898E-02  0.13212812922E+00  0.19655919542E-01 0.  0.
         14    1    1    2    0    0  0.17455043186E-01 -0.80514368070E-02  0.14293916750E-01  0.23954544941E-01  0.00000000000E+00 0. -1.
     999901    1    3    3    0    0  0.32050469111E-01 -0.11281613441E+00 -0.10870199860E-01  0.88784732584E+00  0.88000000000E+00 0.  1.
        -11    1    4    4    0    0 -0.14189327692E-01  0.58535408489E-01  0.21230398167E-02  0.60270220560E-01  0.51100000000E-03 0. -1.
         11    1    4    4    0    0 -0.35316184605E-01  0.62332162732E-01 -0.55467567065E-02  0.71857908659E-01  0.51100000000E-03 0.  1.
</event>
<event>
 8    1  0.1123450E+005  0.1043930E+01  0.7957747E-01            NaN
         13   -1    0    0    0    0  0.00000000000E+00  0.00000000000E+00  0.74505805969E-08  0.10566000000E+00  0.10566000000E+00 0. -1.
     999900   -1    0    0    0    0 -0.00000000000E+00 -0.00000000000E+00 -0.74505805969E-08  0.93827000000E+00  0.93827000000E+00 0.  1.
     999902    2    1    2    0    0  0.18785520555E-01 -0.12182055034E-01 -0.82975957862E-02  0.10200522207E+01  0.10197727123E+01 0.  0.
     999903    2    3    3    0    0 -0.16641286086E-01  0.84498562699E-01  0.92645084196E-01  0.12831704416E+00  0.21568789859E-01 0.  0.
         14    1    1    2    0    0 -0.18785520555E-01  0.12182055034E-01  0.82975957862E-02  0.23877779277E-01  0.00000000000E+00 0.  1.
     999901    1    3    3    0    0  0.35426806642E-01 -0.96680617732E-01 -0.10094267998E+00  0.89173517656E+00  0.88000000000E+00 0.  1.
        -11    1    4    4    0    0 -0.19612459962E-02  0.54901058111E-01  0.49310941048E-01  0.73822778975E-01  0.51100000000E-03 0.  1.
         11    1    4    4    0    0 -0.14680040090E-01  0.29597504588E-01  0.43334143148E-01  0.54494265187E-01  0.51100000000E-03 0. -1.
</event>
<event>
 8    1  0.1123450E+005  0.1043930E+01  0.7957747E-01            NaN
         13   -1    0    0    0    0  0.00000000000E+00  0.00000000000E+00  0.74505805969E-08  0.10566000000E+00  0.10566000000E+00 0.  1.
     999900   -1    0    0    0    0 -0.00000000000E+00 -0.00000000000E+00 -0.74505805969E-08  0.93827000000E+00  0.93827000000E+00 0. -1.
     999902    2    1    2    0    0 -0.33570702018E-02  0.21860877975E-02  0.23067134228E-01  0.10205175763E+01  0.10202489804E+01 0.  0.
     999903    2    3    3    0    0 -0.61048579011E-01 -0.68876919439E-01 -0.87741904402E-01  0.12885794160E+00  0.20851098142E-01 0.  0.
         14    1    1    2    0    0  0.33570702018E-02 -0.21860877975E-02 -0.23067134228E-01  0.23412423661E-01  0.00000000000E+00 0. -1.
     999901    1    3    3    0    0  0.57691508809E-01  0.71063007237E-01  0.11080903863E+00  0.89165963474E+00  0.88000000000E+00 0.  1.
        -11    1    4    4    0    0 -0.22204924236E-01 -0.37403143823E-01 -0.32158670400E-01  0.54097088933E-01  0.51100000000E-03 0. -1.
         11    1    4    4    0    0 -0.38843654775E-01 -0.31473775616E-01 -0.55583234002E-01  0.74760852663E-01  0.51100000000E-03 0.  1.
</event>
<event>
 8    1  0.1123450E+005  0.1043930E+01  0.7957747E-01            NaN
         13   -1    0    0    0    0  0.00000000000E+00  0.00000000000E+00  0.74505805969E-08  0.10566000000E+00  0.10566000000E+00 0.  1.
     999900   -1    0    0    0    0 -0.00000000000E+00 -0.00000000000E+00 -0.74505805969E-08  0.93827000000E+00  0.93827000000E+00 0.  1.
     999902    2    1    2    0    0 -0.13815479900E-01  0.19963406932E-01  0.10925339192E-02  0.10196277628E+01  0.10193381068E+01 0.  0.
     999903    2    3    3    0    0 -0.12919262426E+00  0.20657546679E-01 -0.40557784712E-02  0.13208121622E+00  0.17650210830E-01 0.  0.
         14    1    1    2    0    0  0.13815479900E-01 -0.19963406932E-01 -0.10925339192E-02  0.24302237172E-01  0.00000000000E+00 0. -1.
     999901    1    3    3    0    0  0.11537714436E+00 -0.69413974723E-03  0.51483123904E-02  0.88754654661E+00  0.88000000000E+00 0. -1.
        -11    1    4    4    0    0 -0.76218424683E-01  0.20904212691E-01 -0.30909679952E-02  0.79095193113E-01  0.51100000000E-03 0. -1.
         11    1    4    4    0    0 -0.52974199575E-01 -0.24666601185E-03 -0.96481047599E-03  0.52986023110E-01  0.51100000000E-03 0.  1.
</event>
<event>
 8    1  0.1123450E+005  0.1043930E+01  0.7957747E-01            NaN
         13   -1    0    0    0    0  0.00000000000E+00  0.00000000000E+00  0.74505805969E-08  0.10566000000E+00  0.10566000000E+00 0. -1.
     999900   -1    0    0    0    0 -0.00000000000E+00 -0.00000000000E+00 -0.74505805969E-08  0.93827000000E+00  0.93827000000E+00 0. -1.
     999902    2    1    2    0    0  0.58621306544E-02 -0.23614191138E-01  0.43874486812E-03  0.10195951054E+01  0.10193046609E+01 0.  0.
     999903    2    3    3    0    0 -0.61525862327E-02  0.12492641267E+00 -0.59146933336E-02  0.12704312898E+00  0.21459499626E-01 0.  0.
         14    1    1    2    0    0 -0.58621306544E-02  0.23614191138E-01 -0.43874486812E-03  0.24334894616E-01  0.00000000000E+00 0. -1.
     999901    1    3    3    0    0  0.12014716887E-01 -0.14854060381E+00  0.63534382017E-02  0.89255197640E+00  0.88000000000E+00 0. -1.
        -11    1    4    4    0    0 -0.83868427706E-02  0.80077937550E-01 -0.13064339297E-01  0.81570541841E-01  0.51100000000E-03 0. -1.
         11    1    4    4    0    0  0.22342565379E-02  0.44848475121E-01  0.71496459633E-02  0.45472587141E-01  0.51100000000E-03 0.  1.
</event>
<event>
 8    1  0.1123450E+005  0.1043930E+01  0.7957747E-01            NaN
         13   -1    0    0    0    0  0.00000000000E+00  0.00000000000E+00  0.74505805969E-08  0.10566000000E+00  0.10566000000E+00 0.  1.
     999900   -1    0    0    0    0 -0.00000000000E+00 -0.00000000000E+00 -0.74505805969E-08  0.93827000000E+00  0.93827000000E+00 0.  1.
     999902    2    1    2    0    0 -0.14285514265E-02  0.23591830968E-01 -0.62581588019E-02  0.10194804642E+01  0.10191872434E+01 0.  0.
     999903    2    3    3    0    0  0.18620427617E-01 -0.80140937936E-01 -0.96910460476E-01  0.12853698191E+00  0.18995476032E-01 0.  0.
         14    1    1    2    0    0  0.14285514265E-02 -0.23591830968E-01  0.62581588019E-02  0.24449535766E-01  0.00000000000E+00 0.  1.
     999901    1    3    3    0    0 -0.20048979044E-01  0.10373276890E+00  0.90652301674E-01  0.89094348233E+00  0.88000000000E+00 0. -1.
        -11    1    4    4    0    0  0.18542291740E-01 -0.43352721005E-01 -0.47479114454E-01  0.66916383882E-01  0.51100000000E-03 0. -1.
         11    1    4    4    0    0  0.78135877391E-04 -0.36788216931E-01 -0.49431346023E-01  0.61620598023E-01  0.51100000000E-03 0.  1.
</event>
<event>
 8    1  0.1123450E+005  0.1043930E+01  0.7957747E-01            NaN
         13   -1    0    0    0    0  0.00000000000E+00  0.00000000000E+00  0.74505805969E-08  0.10566000000E+00  0.10566000000E+00 0.  1.
     999900   -1    0    0    0    0 -0.00000000000E+00 -0.00000000000E+00 -0.74505805969E-08  0.93827000000E+00  0.93827000000E+00 0. -1.
     999902    2    1    2    0    0  0.15642450112E-01 -0.17968106576E-01 -0.64440130587E-03  0.10200982071E+01  0.10198197869E+01 0.  0.
     999903    2    3    3    0    0  0.46432174353E-01 -0.67638883457E-01  0.10199573841E+00  0.13220734023E+00  0.18565688431E-01 0.  0.
         14    1    1    2    0    0 -0.15642450112E-01  0.17968106576E-01  0.64440130587E-03  0.23831792893E-01  0.00000000000E+00 0.  1.
     999901    1    3    3    0    0 -0.30789724241E-01  0.49670776881E-01 -0.10264013972E+00  0.88789086687E+00  0.88000000000E+00 0. -1.
        -11    1    4    4    0    0  0.90902203525E-02 -0.10924772126E-01  0.30224570378E-01  0.33403121525E-01  0.51100000000E-03 0.  1.
         11    1    4    4    0    0  0.37341954001E-01 -0.56714111331E-01  0.71771168034E-01  0.98804218709E-01  0.51100000000E-03 0. -1.
</event>
<event>
 8    1  0.1123450E+005  0.1043930E+01  0.7957747E-01            NaN
         13   -1    0    0    0    0  0.00000000000E+00  0.00000000000E+00  0.74505805969E-08  0.10566000000E+00  0.10566000000E+00 0. -1.
     999900   -1    0    0    0    0 -0.00000000000E+00 -0.00000000000E+00 -0.74505805969E-08  0.93827000000E+00  0.93827000000E+00 0.  1.
     999902    2    1    2    0    0 -0.19408858832E-01  0.74543789026E-02 -0.12264310421E-01  0.10197911335E+01  0.10195054051E+01 0.  0.
     999903    2    3    3    0    0  0.76970147155E-01 -0.54965079807E-01  0.82752770920E-01  0.12725914675E+00  0.20032618029E-01 0.  0.
         14    1    1    2    0    0  0.19408858832E-01 -0.74543789026E-02  0.12264310421E-01  0.24138866504E-01  0.00000000000E+00 0.  1.
     999901    1    3    3    0    0 -0.96379005986E-01  0.62419458709E-01 -0.95017081342E-01  0.89253198675E+00  0.88000000000E+00 0.  1.
        -11    1    4    4    0    0  0.42013672456E-01 -0.38947837734E-01  0.40712174815E-01  0.70283888883E-01  0.51100000000E-03 0. -1.
         11    1    4    4    0    0  0.34956474699E-01 -0.16017242073E-01  0.42040596105E-01  0.56975257866E-01  0.51100000000E-03 0.  1.
</event>
<event>
 8    1  0.1123450E+005  0.1043930E+01  0.7957747E-01            NaN
         13   -1    0    0    0    0  0.00000000000E+00  0.00000000000E+00  0.74505805969E-08  0.10566000000E+00  0.10566000000E+00 0.  1.
     999900   -1    0    0    0    0 -0.00000000000E+00 -0.00000000000E+00 -0.74505805969E-08  0.93827000000E+00  0.93827000000E+00 0. -1.
     999902    2    1    2    0    0 -0.97729657034E-04 -0.25190672738E-02 -0.23340048326E-01  0.10204542017E+01  0.10201841327E+01 0.  0.
     999903    2    3    3    0    0  0.97788849611E-01 -0.80368188777E-01  0.23546588293E-01  0.13037520248E+00  0.20531603100E-01 0.  0.
         14    1    1    2    0    0  0.97729657034E-04  0.25190672738E-02  0.23340048326E-01  0.23475798322E-01  0.00000000000E+00 0.  1.
     999901    1    3    3    0    0 -0.97886579268E-01  0.77849121503E-01 -0.46886636619E-01  0.89007899920E+00  0.88000000000E+00 0.  1.
        -11    1    4    4    0    0  0.70561289959E-01 -0.47613354449E-01  0.10183079770E-01  0.85731460953E-01  0.51100000000E-03 0. -1.
         11    1    4    4    0    0  0.27227559652E-01 -0.32754834328E-01  0.13363508523E-01  0.44643741527E-01  0.51100000000E-03 0.  1.
</event>
<event>
 8    1  0.1123450E+005  0.1043930E+01  0.7957747E-01            NaN
         13   -1    0    0    0    0  0.00000000000E+00  0.00000000000E+00  0.74505805969E-08  0.10566000000E+00  0.10566000000E+00 0.  1.
     999900   -1    0    0    0    0 -0.00000000000E+00 -0.00000000000E+00 -0.74505805969E-08  0.93827000000E+00  0.93827000000E+00 0.  1.
     999902    2    1    2    0    0 -0.43717564867E-02  0.21938667759E-01 -0.80268089989E-02  0.10201634887E+01  0.10198866097E+01 0.  0.
     999903    2    3    3    0    0  0.35133417636E-01  0.12675107308E+00 -0.72813844932E-03  0.13303352656E+00  0.19929812914E-01 0.  0.
         14    1    1    2    0    0  0.43717564867E-02 -0.21938667759E-01  0.80268089989E-02  0.23766511324E-01  0.00000000000E+00 0.  1.
     999901    1    3    3    0    0 -0.39505174122E-01 -0.10481240532E+00 -0.72986705496E-02  0.88712996212E+00  0.88000000000E+00 0. -1.
        -11    1    4    4    0    0  0.15262470121E-01  0.29660875116E-01 -0.55144619902E-02  0.33813916053E-01  0.51100000000E-03 0. -1.
         11    1    4    4    0    0  0.19870947515E-01  0.97090197961E-01  0.47863235409E-02  0.99219610507E-01  0.51100000000E-03 0.  1.
</event>
<event>
 8    1  0.1123450E+005  0.1043930E+01  0.7957747E-01            NaN
         13   -1    0    0    0    0  0.00000000000E+00  0.00000000000E+00  0.74505805969E-08  0.10566000000E+00  0.10566000000E+00 0. -1.
     999900   -1    0    0    0    0 -0.00000000000E+00 -0.00000000000E+00 -0.74505805969E-08  0.93827000000E+00  0.93827000000E+00 0. -1.
     999902    2    1    2    0    0  0.18336109263E-01  0.14760257013E-01 -0.55305850936E-02  0.10197501435E+01  0.10194634322E+01 0.  0.
     999903    2    3    3    0    0  0.73668871775E-01  0.82913982528E-01  0.69083877209E-01  0.13224016444E+00  0.20323578254E-01 0.  0.
         14    1    1    2    0    0 -0.18336109263E-01 -0.14760257013E-01  0.55305850936E-02  0.24179856523E-01  0.00000000000E+00 0. -1.
     999901    1    3    3    0    0 -0.55332762512E-01 -0.68153725515E-01 -0.74614462303E-01  0.88750997904E+00  0.88000000000E+00 0. -1.
        -11    1    4    4    0    0  0.21860911275E-01  0.21884782620E-01  0.92342595839E-02  0.32285845554E-01  0.51100000000E-03 0. -1.
         11    1    4    4    0    0  0.51807960500E-01  0.61029199908E-01  0.59849617626E-01  0.99954318884E-01  0.51100000000E-03 0.  1.
</event>
<event>
 8    1  0.1123450E+005  0.1043930E+01  0.7957747E-01            NaN
         13   -1    0    0    0    0  0.00000000000E+00  0.00000000000E+00  0.74505805969E-08  0.10566000000E+00  0.10566000000E+00 0. -1.
     999900   -1    0    0    0    0 -0.00000000000E+00 -0.00000000000E+00 -0.74505805969E-08  0.93827000000E+00  0.93827000000E+00 0. -1.
     999902    2    1    2    0    0 -0.10397305379E-01  0.21410180602E-01  0.38178648091E-02  0.10198244844E+01  0.10195395544E+01 0.  0.
     999903    2    3    3    0    0  0.11682788696E+00  0.52597708009E-01 -0.97617996980E-02  0.13002488967E+00  0.19897365130E-01 0.  0.
         14    1    1    2    0    0  0.10397305379E-01 -0.21410180602E-01 -0.38178648091E-02  0.24105515639E-01  0.00000000000E+00 0. -1.
     999901    1    3    3    0    0 -0.12722519234E+00 -0.31187527408E-01  0.13579664507E-01  0.88979959470E+00  0.88000000000E+00 0.  1.
        -11    1    4    4    0    0  0.90073909204E-01  0.48100211570E-01 -0.34794552977E-02  0.10217292793E+00  0.51100000000E-03 0. -1.
         11    1    4    4    0    0  0.26753977758E-01  0.44974964392E-02 -0.62823444002E-02  0.27851961731E-01  0.51100000000E-03 0.  1.
</event>
<event>
 8    1  0.1123450E+005  0.1043930E+01  0.7957747E-01            NaN
         13   -1    0    0    0    0  0.00000000000E+00  0.00000000000E+00  0.74505805969E-08  0.10566000000E+00  0.10566000000E+00 0. -1.
     999900   -1    0    0    0    0 -0.00000000000E+00 -0.00000000000E+00 -0.74505805969E-08  0.93827000000E+00  0.93827000000E+00 0.  1.
     999902    2    1    2    0    0  0.80370087999E-02  0.13406092766E-01  0.18501933025E-01  0.10197093815E+01  0.10194216912E+01 0.  0.
     999903    2    3    3    0    0 -0.92223103498E-01  0.89997083535E-01 -0.55145253234E-02  0.13038657160E+00  0.19122557353E-01 0.  0.
         14    1    1    2    0    0 -0.80370087999E-02 -0.13406092766E-01 -0.18501933025E-01  0.24220618476E-01  0.00000000000E+00 0.  1.
     999901    1    3    3    0    0  0.10026011230E+00 -0.76590990769E-01  0.24016458349E-01  0.88932280993E+00  0.88000000000E+00 0.  1.
        -11    1    4    4    0    0 -0.40291327019E-01  0.26501754680E-01 -0.11908044110E-02  0.48243270725E-01  0.51100000000E-03 0.  1.
         11    1    4    4    0    0 -0.51931776478E-01  0.63495328855E-01 -0.43237209123E-02  0.82143300872E-01  0.51100000000E-03 0. -1.
</event>
<event>
 8    1  0.1123450E+005  0.1043930E+01  0.7957747E-01            NaN
         13   -1    0    0    0    0  0.00000000000E+00  0.00000000000E+00  0.74505805969E-08  0.10566000000E+00  0.10566000000E+00 0.  1.
     999900   -1    0    0    0    0 -0.00000000000E+00 -0.00000000000E+00 -0.74505805969E-08  0.93827000000E+00  0.93827000000E+00 0.  1.
     999902    2    1    2    0    0 -0.22914503146E-02 -0.20531424591E-01 -0.12937260041E-01  0.10195545444E+01  0.10192631192E+01 0.  0.
     999903    2    3    3    0    0 -0.10953692414E+00 -0.55598145589E-01 -0.43172280045E-01  0.13183531904E+00  0.20669156688E-01 0.  0.
         14    1    1    2    0    0  0.22914503146E-02  0.20531424591E-01  0.12937260041E-01  0.24375455640E-01  0.00000000000E+00 0.  1.
     999901    1    3    3    0    0  0.10724547382E+00  0.35066720999E-01  0.30235020004E-01  0.88771922533E+00  0.88000000000E+00 0. -1.
        -11    1    4    4    0    0 -0.38632232147E-01 -0.10646743819E-01 -0.19730948515E-01  0.44669608963E-01  0.51100000000E-03 0. -1.
         11    1    4    4    0    0 -0.70904691992E-01 -0.44951401770E-01 -0.23441331530E-01  0.87165710072E-01  0.51100000000E-03 0.  1.
</event>
<event>
 8    1  0.1123450E+005  0.1043930E+01  0.7957747E-01            NaN
         13   -1    0    0    0    0  0.00000000000E+00  0.00000000000E+00  0.74505805969E-08  0.10566000000E+00  0.10566000000E+00 0. -1.
     999900   -1    0    0    0    0 -0.00000000000E+00 -0.00000000000E+00 -0.74505805969E-08  0.93827000000E+00  0.93827000000E+00 0. -1.
     999902    2    1    2    0    0 -0.10541042887E-01  0.10636923254E-01  0.19584191706E-01  0.10192764346E+01  0.10189782392E+01 0.  0.
     999903    2    3    3    0    0 -0.32442877849E-03  0.10279077689E+00  0.80699180302E-01  0.13229743048E+00  0.20596197279E-01 0.  0.
         14    1    1    2    0    0  0.10541042887E-01 -0.10636923254E-01 -0.19584191706E-01  0.24653565386E-01  0.00000000000E+00 0.  1.
     999901    1    3    3    0    0 -0.10216614108E-01 -0.92153853637E-01 -0.61114988596E-01  0.88697900413E+00  0.88000000000E+00 0. -1.
        -11    1    4    4    0    0  0.98971079135E-02  0.54982681651E-01  0.45520565812E-01  0.72065463708E-01  0.51100000000E-03 0.  1.
         11    1    4    4    0    0 -0.10221536692E-01  0.47808095240E-01  0.35178614490E-01  0.60231966772E-01  0.51100000000E-03 0. -1.
</event>
<event>
 8    1  0.1123450E+005  0.1043930E+01  0.7957747E-01            NaN
         13   -1    0    0    0    0  0.00000000000E+00  0.00000000000E+00  0.74505805969E-08  0.10566000000E+00  0.10566000000E+00 0.  1.
     999900   -1    0    0    0    0 -0.00000000000E+00 -0.00000000000E+00 -0.74505805969E-08  0.93827000000E+00  0.93827000000E+00 0.  1.
     999902    2    1    2    0    0 -0.12972945294E-01 -0.18187827951E-01 -0.91826303238E-02  0.10197760129E+01  0.10194899221E+01 0.  0.
     999903    2    3    3    0    0 -0.10659284670E-01  0.10177640780E+00  0.73827742927E-01  0.12776284426E+00  0.20018771540E-01 0.  0.
         14    1    1    2    0    0  0.12972945294E-01  0.18187827951E-01  0.91826303238E-02  0.24153987142E-01  0.00000000000E+00 0.  1.
     999901    1    3    3    0    0 -0.23136606245E-02 -0.11996423575E+00 -0.83010373251E-01  0.89201316860E+00  0.88000000000E+00 0.  1.
        -11    1    4    4    0    0 -0.59384652503E-02  0.10466150922E-01  0.14126990718E-01  0.18564446461E-01  0.51100000000E-03 0.  1.
         11    1    4    4    0    0 -0.47208194195E-02  0.91310256876E-01  0.59700752209E-01  0.10919839780E+00  0.51100000000E-03 0. -1.
</event>
<event>
 8    1  0.1123450E+005  0.1043930E+01  0.7957747E-01            NaN
         13   -1    0    0    0    0  0.00000000000E+00  0.00000000000E+00  0.74505805969E-08  0.10566000000E+00  0.10566000000E+00 0. -1.
     999900   -1    0    0    0    0 -0.00000000000E+00 -0.00000000000E+00 -0.74505805969E-08  0.93827000000E+00  0.93827000000E+00 0.  1.
     999902    2    1    2    0    0  0.86479986458E-02  0.21836022886E-01  0.17526805932E-02  0.10203785316E+01  0.10201066983E+01 0.  0.
     999903    2    3    3    0    0  0.72125079595E-01  0.10735999873E+00 -0.26433415350E-01  0.13350867288E+00  0.19941009292E-01 0.  0.
         14    1    1    2    0    0 -0.86479986458E-02 -0.21836022886E-01 -0.17526805932E-02  0.23551468433E-01  0.00000000000E+00 0. -1.
     999901    1    3    3    0    0 -0.63477080950E-01 -0.85523975846E-01  0.28186095943E-01  0.88686985869E+00  0.88000000000E+00 0.  1.
        -11    1    4    4    0    0  0.60697638035E-01  0.87153751987E-01 -0.13875776404E-01  0.10711105471E+00  0.51100000000E-03 0. -1.
         11    1    4    4    0    0  0.11427441561E-01  0.20206246746E-01 -0.12557638946E-01  0.26397618171E-01  0.51100000000E-03 0.  1.
</event>
<event>
 8    1  0.1123450E+005  0.1043930E+01  0.7957747E-01            NaN
         13   -1    0    0    0    0  0.00000000000E+00  0.00000000000E+00  0.74505805969E-08  0.10566000000E+00  0.10566000000E+00 0.  1.
     999900   -1    0    0    0    0 -0.00000000000E+00 -0.00000000000E+00 -0.74505805969E-08  0.93827000000E+00  0.93827000000E+00 0. -1.
     999902    2    1    2    0    0 -0.17203161136E-01  0.16061340964E-01  0.54118492502E-02  0.10197803926E+01  0.10194944068E+01 0.  0.
     999903    2    3    3    0    0  0.83361578461E-01 -0.89983794529E-01 -0.28069244939E-01  0.12709913855E+00  0.17890569234E-01 0.  0.
         14    1    1    2    0    0  0.17203161136E-01 -0.16061340964E-01 -0.54118492502E-02  0.24149607429E-01  0.00000000000E+00 0. -1.
     999901    1    3    3    0    0 -0.10056473960E+00  0.10604513549E+00  0.33481094190E-01  0.89268125402E+00  0.88000000000E+00 0.  1.
        -11    1    4    4    0    0  0.32882419209E-01 -0.24904615380E-01 -0.13865048255E-01  0.43520041870E-01  0.51100000000E-03 0.  1.
         11    1    4    4    0    0  0.50479159252E-01 -0.65079179149E-01 -0.14204196685E-01  0.83579096680E-01  0.51100000000E-03 0. -1.
</event>
<event>
 8    1  0.1123450E+005  0.1043930E+01  0.7957747E-01            NaN
         13   -1    0    0    0    0  0.00000000000E+00  0.00000000000E+00  0.74505805969E-08  0.10566000000E+00  0.10566000000E+00 0. -1.
     999900   -1    0    0    0    0 -0.00000000000E+00 -0.00000000000E+00 -0.74505805969E-08  0.93827000000E+00  0.93827000000E+00 0.  1.
     999902    2    1    2    0    0  0.12523361756E-01 -0.19892816952E-01  0.19547655475E-02  0.10203422942E+01  0.10200696140E+01 0.  0.
     999903    2    3    3    0    0 -0.95958117307E-01  0.82009298942E-01  0.54864780142E-02  0.12783753483E+00  0.19464030434E-01 0.  0.
         14    1    1    2    0    0 -0.12523361756E-01  0.19892816952E-01 -0.19547655475E-02  0.23587705788E-01  0.00000000000E+00 0. -1.
     999901    1    3    3    0    0  0.10848147906E+00 -0.10190211589E+00 -0.35317124667E-02  0.89250475938E+00  0.88000000000E+00 0.  1.
        -11    1    4    4    0    0 -0.55001375091E-01  0.36291389927E-01  0.81347360358E-02  0.66397675382E-01  0.51100000000E-03 0. -1.
         11    1    4    4    0    0 -0.40956742216E-01  0.45717909015E-01 -0.26482580217E-02  0.61439859450E-01  0.51100000000E-03 0.  1.
</event>
<event>
 8    1  0.1123450E+005  0.1043930E+01  0.7957747E-01            NaN
         13   -1    0    0    0    0  0.00000000000E+00  0.00000000000E+00  0.74505805969E-08  0.10566000000E+00  0.10566000000E+00 0. -1.
     999900   -1    0    0    0    0 -0.00000000000E+00 -0.00000000000E+00 -0.74505805969E-08  0.93827000000E+00  0.93827000000E+00 0. -1.
     999902    2    1    2    0    0 -0.56473942143E-05  0.53161653588E-02 -0.22018191118E-01  0.10212791195E+01  0.10210279025E+01 0.  0.
     999903    2    3    3    0    0 -0.11045526140E+00 -0.44075094231E-01  0.49208171120E-01  0.13014960681E+00  0.19351933893E-01 0.  0.
         14    1    1    2    0    0  0.56473942143E-05 -0.53161653588E-02  0.22018191118E-01  0.22650880471E-01  0.00000000000E+00 0. -1.
     999901    1    3    3    0    0  0.11044961401E+00  0.49391259590E-01 -0.71226362237E-01  0.89112951272E+00  0.88000000000E+00 0. -1.
        -11    1    4    4    0    0 -0.12152361841E-01 -0.11399922623E-01  0.96450274327E-02  0.19259434294E-01  0.51100000000E-03 0. -1.
         11    1    4    4    0    0 -0.98302899561E-01 -0.32675171608E-01  0.39563143687E-01  0.11089017252E+00  0.51100000000E-03 0.  1.
</event>
<event>
 8    1  0.1123450E+005  0.1043930E+01  0.7957747E-01            NaN
         13   -1    0    0    0    0  0.00000000000E+00  0.00000000000E+00  0.74505805969E-08  0.10566000000E+00  0.10566000000E+00 0.  1.
     999900   -1    0    0    0    0 -0.00000000000E+00 -0.00000000000E+00 -0.74505805969E-08  0.93827000000E+00  0.93827000000E+00 0.  1.
     999902    2    1    2    0    0  0.86751313371E-02  0.66613657518E-02 -0.20583491424E-01  0.10206209499E+01  0.10203547479E+01 0.  0.
     999903    2    3    3    0    0 -0.16404822474E-01  0.12688209700E+00 -0.26951688600E-01  0.13207011723E+00  0.18653085714E-01 0.  0.
         14    1    1    2    0    0 -0.86751313371E-02 -0.66613657518E-02  0.20583491424E-01  0.23309050101E-01  0.00000000000E+00 0.  1.
     999901    1    3    3    0    0  0.25079953811E-01 -0.12022073125E+00  0.63681971753E-02  0.88855083267E+00  0.88000000000E+00 0.  1.
        -11    1    4    4    0    0 -0.21927977187E-02  0.69400815325E-01 -0.21073569538E-01  0.72564715831E-01  0.51100000000E-03 0. -1.
         11    1    4    4    0    0 -0.14212024755E-01  0.57481281675E-01 -0.58781190623E-02  0.59505401397E-01  0.51100000000E-03 0.  1.
</event>
<event>
 8    1  0.1123450E+005  0.1043930E+01  0.7957747E-01            NaN
         13   -1    0    0    0    0  0.00000000000E+00  0.00000000000E+00  0.74505805969E-08  0.10566000000E+00  0.10566000000E+00 0. -1.
     999900   -1    0    0    0    0 -0.00000000000E+00 -0.00000000000E+00 -0.74505805969E-08  0.93827000000E+00  0.93827000000E+00 0.  1.
     999902    2    1    2    0    0 -0.26514555025E-02  0.18639200015E-01  0.15291133269E-01  0.10196757478E+01  0.10193872482E+01 0.  0.
     999903    2    3    3    0    0  0.10337153151E+00  0.74333232220E-01  0.26318434075E-01  0.13149541680E+00  0.19679474818E-01 0.  0.
         14    1    1    2    0    0  0.26514555025E-02 -0.18639200015E-01 -0.15291133269E-01  0.24254252207E-01  0.00000000000E+00 0.  1.
     999901    1    3    3    0    0 -0.10602298701E+00 -0.55694032205E-01 -0.11027300807E-01  0.88818033099E+00  0.88000000000E+00 0.  1.
        -11    1    4    4    0    0  0.33715895119E-01  0.14349067729E-01  0.37279984500E-02  0.36834989097E-01  0.51100000000E-03 0.  1.
         11    1    4    4    0    0  0.69655636388E-01  0.59984164491E-01  0.22590435625E-01  0.94660427704E-01  0.51100000000E-03 0. -1.
</event>
<event>
 8    1  0.1123450E+005  0.1043930E+01  0.7957747E-01            NaN
         13   -1    0    0    0    0  0.00000000000E+00  0.00000000000E+00  0.74505805969E-08  0.10566000000E+00  0.10566000000E+00 0.  1.
     999900   -1    0    0    0    0 -0.00000000000E+00 -0.00000000000E+00 -0.74505805969E-08  0.93827000000E+00  0.93827000000E+00 0.  1.
     999902    2    1    2    0    0 -0.15274241347E-01 -0.54967173182E-02  0.17115728888E-01  0.10203404997E+01  0.10200677775E+01 0.  0.
     999903    2    3    3    0    0 -0.84492505287E-01 -0.28282417771E-01  0.97499793322E-01  0.13367711709E+00  0.20602993262E-01 0.  0.
         14    1    1    2    0    0  0.15274241347E-01  0.54967173182E-02 -0.17115728888E-01  0.23589500320E-01  0.00000000000E+00 0. -1.
     999901    1    3    3    0    0  0.69218263940E-01  0.22785700453E-01 -0.80384064434E-01  0.88666338259E+00  0.88000000000E+00 0.  1.
        -11    1    4    4    0    0 -0.48900089722E-01 -0.12548016956E-01  0.68724591326E-01  0.85276034607E-01  0.51100000000E-03 0.  1.
         11    1    4    4    0    0 -0.35592415565E-01 -0.15734400816E-01  0.28775201997E-01  0.48401082485E-01  0.51100000000E-03 0. -1.
</event>
<event>
 8    1  0.1123450E+005  0.1043930E+01  0.7957747E-01            NaN
         13   -1    0    0    0    0  0.00000000000E+00  0.00000000000E+00  0.74505805969E-08  0.10566000000E+00  0.10566000000E+00 0. -1.
     999900   -1    0    0    0    0 -0.00000000000E+00 -0.00000000000E+00 -0.74505805969E-08  0.93827000000E+00  0.93827000000E+00 0. -1.
     999902    2    1    2    0    0 -0.16231754855E-01 -0.48820432371E-02  0.23284581093E-01  0.10151293762E+01  0.10147207372E+01 0.  0.
     999903    2    3    3    0    0 -0.60011739944E-01  0.27229756011E-01 -0.10348150820E+00  0.12438951740E+00  0.20529514298E-01 0.  0.
         14    1    1    2    0    0  0.16231754855E-01  0.48820432371E-02 -0.23284581093E-01  0.28800623752E-01  0.00000000000E+00 0.  1.
     999901    1    3    3    0    0  0.43779985089E-01 -0.32111799248E-01  0.12676608929E+00  0.89073985885E+00  0.88000000000E+00 0.  1.
        -11    1    4    4    0    0 -0.33715422253E-02  0.24658415949E-02 -0.20413955844E-01  0.20843185599E-01  0.51100000000E-03 0. -1.
         11    1    4    4    0    0 -0.56640197719E-01  0.24763914416E-01 -0.83067552352E-01  0.10354633180E+00  0.51100000000E-03 0.  1.
</event>
<event>
 8    1  0.1123450E+005  0.1043930E+01  0.7957747E-01            NaN
         13   -1    0    0    0    0  0.00000000000E+00  0.00000000000E+00  0.74505805969E-08  0.10566000000E+00  0.10566000000E+00 0. -1.
     999900   -1    0    0    0    0 -0.00000000000E+00 -0.00000000000E+00 -0.74505805969E-08  0.93827000000E+00  0.93827000000E+00 0.  1.
     999902    2    1    2    0    0  0.23642016566E-01  0.55291300765E-02  0.11852911770E-02  0.10196211304E+01  0.10193313143E+01 0.  0.
     999903    2    3    3    0    0  0.12161376887E+00  0.24029824146E-01  0.43680504234E-01  0.13297205490E+00  0.20155389005E-01 0.  0.
         14    1    1    2    0    0 -0.23642016566E-01 -0.55291300765E-02 -0.11852911770E-02  0.24308869613E-01  0.00000000000E+00 0.  1.
     999901    1    3    3    0    0 -0.97971752307E-01 -0.18500694070E-01 -0.42495213057E-01  0.88664907549E+00  0.88000000000E+00 0.  1.
        -11    1    4    4    0    0  0.87404798168E-01  0.14802067734E-01  0.40283775427E-01  0.97374245238E-01  0.51100000000E-03 0.  1.
         11    1    4    4    0    0  0.34208970704E-01  0.92277564123E-02  0.33967288074E-02  0.35597809661E-01  0.51100000000E-03 0. -1.
</event>
<event>
 8    1  0.1123450E+005  0.1043930E+01  0.7957747E-01            NaN
         13   -1    0    0    0    0  0.00000000000E+00  0.00000000000E+00  0.74505805969E-08  0.10566000000E+00  0.10566000000E+00 0. -1.
     999900   -1    0    0    0    0 -0.00000000000E+00 -0.00000000000E+00 -0.74505805969E-08  0.93827000000E+00  0.93827000000E+00 0. -1.
     999902    2    1    2    0    0 -0.23534957567E-01  0.17545699541E-02 -0.63416721086E-03  0.10203212111E+01  0.10200480376E+01 0.  0.
     999903    2    3    3    0    0 -0.83954407220E-01  0.11188117846E-01 -0.10004448582E+00  0.13261522762E+00  0.20109276039E-01 0.  0.
         14    1    1    2    0    0  0.23534957567E-01 -0.17545699541E-02  0.63416721086E-03  0.23608788861E-01  0.00000000000E+00 0.  1.
     999901    1    3    3    0    0  0.60419449652E-01 -0.94335478921E-02  0.99410318607E-01  0.88770598351E+00  0.88000000000E+00 0. -1.
        -11    1    4    4    0    0 -0.10169204987E-01  0.54228921916E-02 -0.23285422615E-01  0.25986390999E-01  0.51100000000E-03 0. -1.
         11    1    4    4    0    0 -0.73785202233E-01  0.57652256545E-02 -0.76759063203E-01  0.10662883663E+00  0.51100000000E-03 0.  1.
</event>
<event>
 8    1  0.1123450E+005  0.1043930E+01  0.7957747E-01            NaN
         13   -1    0    0    0    0  0.00000000000E+00  0.00000000000E+00  0.74505805969E-08  0.10566000000E+00  0.10566000000E+00 0.  1.
     999900   -1    0    0    0    0 -0.00000000000E+00 -0.00000000000E+00 -0.74505805969E-08  0.93827000000E+00  0.93827000000E+00 0.  1.
     999902    2    1    2    0    0 -0.14176765578E-01 -0.94156418931E-02 -0.13630855127E-01  0.10221255233E+01  0.10218929250E+01 0.  0.
     999903    2    3    3    0    0  0.32972246301E-01 -0.61143054379E-01 -0.11269410388E+00  0.13380560241E+00  0.19450862760E-01 0.  0.
         14    1    1    2    0    0  0.14176765578E-01  0.94156418931E-02  0.13630855127E-01  0.21804476742E-01  0.00000000000E+00 0.  1.
     999901    1    3    3    0    0 -0.47149011879E-01  0.51727412486E-01  0.99063248751E-01  0.88831992085E+00  0.88000000000E+00 0. -1.
        -11    1    4    4    0    0  0.26709619542E-01 -0.59767676591E-01 -0.10543915781E+00  0.12410985481E+00  0.51100000000E-03 0. -1.
         11    1    4    4    0    0  0.62626267594E-02 -0.13753777886E-02 -0.72549460713E-02  0.96957475981E-02  0.51100000000E-03 0.  1.
</event>
<event>
 8    1  0.1123450E+005  0.1043930E+01  0.7957747E-01            NaN
         13   -1    0    0    0    0  0.00000000000E+00  0.00000000000E+00  0.74505805969E-08  0.10566000000E+00  0.10566000000E+00 0. -1.
     999900   -1    0    0    0    0 -0.00000000000E+00 -0.00000000000E+00 -0.74505805969E-08  0.93827000000E+00  0.93827000000E+00 0.  1.
     999902    2    1    2    0    0 -0.18555691298E-01  0.89136637197E-02 -0.11801826232E-01  0.10202013215E+01  0.10199253337E+01 0.  0.
     999903    2    3    3    0    0 -0.25658658339E-02 -0.54636902097E-01 -0.11775758929E+00  0.13142633724E+00  0.20353317869E-01 0.  0.
         14    1    1    2    0    0  0.18555691298E-01 -0.89136637197E-02  0.11801826232E-01  0.23728678490E-01  0.00000000000E+00 0. -1.
     999901    1    3    3    0    0 -0.15989825464E-01  0.63550565817E-01  0.10595576305E+00  0.88877498427E+00  0.88000000000E+00 0. -1.
        -11    1    4    4    0    0 -0.11178777623E-01 -0.33873407559E-01 -0.66811802988E-01  0.75739361948E-01  0.51100000000E-03 0. -1.
         11    1    4    4    0    0  0.86129117889E-02 -0.20763494538E-01 -0.50945786299E-01  0.55686975296E-01  0.51100000000E-03 0.  1.
</event>
<event>
 8    1  0.1123450E+005  0.1043930E+01  0.7957747E-01            NaN
         13   -1    0    0    0    0  0.00000000000E+00  0.00000000000E+00  0.74505805969E-08  0.10566000000E+00  0.10566000000E+00 0. -1.
     999900   -1    0    0    0    0 -0.00000000000E+00 -0.00000000000E+00 -0.74505805969E-08  0.93827000000E+00  0.93827000000E+00 0. -1.
     999902    2    1    2    0    0  0.24117387559E-01  0.30782422787E-02  0.13433004564E-02  0.10195798786E+01  0.10192890661E+01 0.  0.
     999903    2    3    3    0    0 -0.11563754005E+00  0.25317584252E-01 -0.42793750869E-01  0.12718192505E+00  0.18191102353E-01 0.  0.
         14    1    1    2    0    0 -0.24117387559E-01 -0.30782422787E-02 -0.13433004564E-02  0.24350121444E-01  0.00000000000E+00 0.  1.
     999901    1    3    3    0    0  0.13975492761E+00 -0.22239341973E-01  0.44137051325E-01  0.89239795351E+00  0.88000000000E+00 0.  1.
        -11    1    4    4    0    0 -0.44151315270E-01  0.42771959374E-02 -0.85802488325E-02  0.45183125569E-01  0.51100000000E-03 0. -1.
         11    1    4    4    0    0 -0.71486224779E-01  0.21040388315E-01 -0.34213502036E-01  0.81998799480E-01  0.51100000000E-03 0.  1.
</event>
<event>
 8    1  0.1123450E+005  0.1043930E+01  0.7957747E-01            NaN
         13   -1    0    0    0    0  0.00000000000E+00  0.00000000000E+00  0.74505805969E-08  0.10566000000E+00  0.10566000000E+00 0. -1.
     999900   -1    0    0    0    0 -0.00000000000E+00 -0.00000000000E+00 -0.74505805969E-08  0.93827000000E+00  0.93827000000E+00 0.  1.
     999902    2    1    2    0    0 -0.91340457875E-02 -0.19030707577E-01  0.21403016124E-02  0.10227125658E+01  0.10224924512E+01 0.  0.
     999903    2    3    3    0    0  0.42753050836E-01  0.42234857876E-01 -0.11579399678E+00  0.13122266734E+00  0.14125585267E-01 0.  0.
         14    1    1    2    0    0  0.91340457875E-02  0.19030707577E-01 -0.21403016124E-02  0.21217434207E-01  0.00000000000E+00 0.  1.
     999901    1    3    3    0    0 -0.51887096624E-01 -0.61265565453E-01  0.11793429839E+00  0.89148989845E+00  0.88000000000E+00 0. -1.
        -11    1    4    4    0    0  0.19057621512E-01  0.15704324115E-01 -0.61898261035E-01  0.66644388914E-01  0.51100000000E-03 0.  1.
         11    1    4    4    0    0  0.23695429324E-01  0.26530533761E-01 -0.53895735740E-01  0.64578278426E-01  0.51100000000E-03 0. -1.
</event>
<event>
 8    1  0.1123450E+005  0.1043930E+01  0.7957747E-01            NaN
         13   -1    0    0    0    0  0.00000000000E+00  0.00000000000E+00  0.74505805969E-08  0.10566000000E+00  0.10566000000E+00 0. -1.
     999900   -1    0    0    0    0 -0.00000000000E+00 -0.00000000000E+00 -0.74505805969E-08  0.93827000000E+00  0.93827000000E+00 0.  1.
     999902    2    1    2    0    0  0.20394148697E-01 -0.12379259182E-01 -0.86795286972E-02  0.10185429644E+01  0.10182265311E+01 0.  0.
     999903    2    3    3    0    0 -0.32787961577E-01 -0.10500004409E+00 -0.66769526020E-01  0.13018414361E+00  0.19740363741E-01 0.  0.
         14    1    1    2    0    0 -0.20394148697E-01  0.12379259182E-01  0.86795286972E-02  0.25387035616E-01  0.00000000000E+00 0. -1.
     999901    1    3    3    0    0  0.53182110274E-01  0.92620784907E-01  0.58089997323E-01  0.88835882077E+00  0.88000000000E+00 0. -1.
        -11    1    4    4    0    0 -0.11038578931E-01 -0.52809680930E-01 -0.42367508019E-01  0.68600141993E-01  0.51100000000E-03 0. -1.
         11    1    4    4    0    0 -0.21749382646E-01 -0.52190363159E-01 -0.24402018001E-01  0.61584001621E-01  0.51100000000E-03 0.  1.
</event>
<event>
 8    1  0.1123450E+005  0.1043930E+01  0.7957747E-01            NaN
         13   -1    0    0    0    0  0.00000000000E+00  0.00000000000E+00  0.74505805969E-08  0.10566000000E+00  0.10566000000E+00 0.  1.
     999900   -1    0    0    0    0 -0.00000000000E+00 -0.00000000000E+00 -0.74505805969E-08  0.93827000000E+00  0.93827000000E+00 0.  1.
     999902    2    1    2    0    0  0.20477988219E-01  0.95095640334E-02  0.48152349898E-02  0.10208439372E+01  0.10205828618E+01 0.  0.
     999903    2    3    3    0    0 -0.58281462997E-01  0.95233393245E-01 -0.64585523244E-01  0.13046868408E+00  0.19612740617E-01 0.  0.
         14    1    1    2    0    0 -0.20477988219E-01 -0.95095640334E-02 -0.48152349898E-02  0.23086062843E-01  0.00000000000E+00 0. -1.
     999901    1    3    3    0    0  0.78759451216E-01 -0.85723829211E-01  0.69400758234E-01  0.89037525308E+00  0.88000000000E+00 0.  1.
        -11    1    4    4    0    0 -0.31488804443E-01  0.68503814072E-01 -0.45758557799E-01  0.88195374485E-01  0.51100000000E-03 0. -1.
         11    1    4    4    0    0 -0.26792658554E-01  0.26729579172E-01 -0.18826965445E-01  0.42273309593E-01  0.51100000000E-03 0.  1.
</event>
<event>
 8    1  0.1123450E+005  0.1043930E+01  0.7957747E-01            NaN
         13   -1    0    0    0    0  0.00000000000E+00  0.00000000000E+00  0.74505805969E-08  0.10566000000E+00  0.10566000000E+00 0.  1.
     999900   -1    0    0    0    0 -0.00000000000E+00 -0.00000000000E+00 -0.74505805969E-08  0.93827000000E+00  0.93827000000E+00 0. -1.
     999902    2    1    2    0    0 -0.10642787255E-01 -0.90218785752E-02 -0.19103482114E-01  0.10202740020E+01  0.10199997220E+01 0.  0.
     999903    2    3    3    0    0 -0.73850326922E-01 -0.21970402373E-01  0.10233152197E+00  0.12959486920E+00  0.19660121270E-01 0.  0.
         14    1    1    2    0    0  0.10642787255E-01  0.90218785752E-02  0.19103482114E-01  0.23655998023E-01  0.00000000000E+00 0.  1.
     999901    1    3    3    0    0  0.63207539667E-01  0.12948523797E-01 -0.12143500409E+00  0.89067913277E+00  0.88000000000E+00 0.  1.
        -11    1    4    4    0    0 -0.40883183694E-03 -0.21502960419E-02  0.85476428436E-02  0.88382258242E-02  0.51100000000E-03 0.  1.
         11    1    4    4    0    0 -0.73441495085E-01 -0.19820106331E-01  0.93783879127E-01  0.12075664338E+00  0.51100000000E-03 0. -1.
</event>
<event>
 7    1  0.1123450E+005  0.1043930E+01  0.7957747E-01            NaN
         13   -1    0    0    0    0  0.00000000000E+00  0.00000000000E+00  0.74505805969E-08  0.10566000000E+00  0.10566000000E+00 0. -1.
     999900   -1    0    0    0    0 -0.00000000000E+00 -0.00000000000E+00 -0.74505805969E-08  0.93827000000E+00  0.93827000000E+00 0.  1.
     999903    2    1    2    0    0 -0.55585318441E-01  0.31601372195E-01 -0.64242542723E-01  0.91723843089E-01  0.14063596435E-01 0.  0.
         14    1    1    2    0    0  0.55615393737E-02  0.83027268681E-02  0.69150671548E-01  0.69869030115E-01  0.00000000000E+00 0. -1.
     999901    1    1    2    0    0  0.50023779068E-01 -0.39904099063E-01 -0.49081288253E-02  0.88233712680E+00  0.88000000000E+00 0. -1.
        -11    1    3    3    0    0 -0.27861785439E-01  0.16040185773E-01 -0.22469747601E-01  0.39226487553E-01  0.51100000000E-03 0.  1.
         11    1    3    3    0    0 -0.27723533002E-01  0.15561186422E-01 -0.41772795122E-01  0.52497355536E-01  0.51100000000E-03 0. -1.
</event>
<event>
 8    1  0.1222609E+005  0.1043930E+01  0.7957747E-01            NaN
         13   -1    0    0    0    0  0.00000000000E+00  0.00000000000E+00  0.74505805969E-08  0.10566000000E+00  0.10566000000E+00 0.  1.
     999900   -1    0    0    0    0 -0.00000000000E+00 -0.00000000000E+00 -0.74505805969E-08  0.93827000000E+00  0.93827000000E+00 0. -1.
     999902    2    1    2    0    0  0.21589874336E-01 -0.65849357156E-02  0.45873115868E-02  0.10208968179E+01  0.10206369507E+01 0.  0.
     999903    2    3    3    0    0  0.10742323652E+00  0.72306531658E-01  0.22458226130E-01  0.13302824691E+00  0.20595054990E-01 0.  0.
         14    1    1    2    0    0 -0.21589874336E-01  0.65849357156E-02 -0.45873115868E-02  0.23033182147E-01  0.00000000000E+00 0. -1.
     999901    1    3    3    0    0 -0.85833362181E-01 -0.78891467373E-01 -0.17870914544E-01  0.88786857095E+00  0.88000000000E+00 0.  1.
        -11    1    4    4    0    0  0.57432558020E-01  0.41147268767E-01  0.22402087368E-01  0.74119572902E-01  0.51100000000E-03 0. -1.
         11    1    4    4    0    0  0.49990678496E-01  0.31159262891E-01  0.56138762534E-04  0.58908674005E-01  0.51100000000E-03 0.  1.
</event>
<event>
 7    1  0.1123450E+005  0.1043930E+01  0.7957747E-01            NaN
         13   -1    0    0    0    0  0.00000000000E+00  0.00000000000E+00  0.74505805969E-08  0.10566000000E+00  0.10566000000E+00 0.  1.
     999900   -1    0    0    0    0 -0.00000000000E+00 -0.00000000000E+00 -0.74505805969E-08  0.93827000000E+00  0.93827000000E+00 0. -1.
     999903    2    1    2    0    0  0.85918148196E-01  0.75051376857E-01  0.12402668094E-01  0.11631731398E+00  0.19006682956E-01 0.  0.
         14    1    1    2    0    0 -0.82003949992E-02 -0.21162988887E-01  0.34508387122E-01  0.41303115603E-01  0.00000000000E+00 0.  1.
     999901    1    1    2    0    0 -0.77717753197E-01 -0.53888387971E-01 -0.46911055215E-01  0.88630957042E+00  0.88000000000E+00 0. -1.
        -11    1    3    3    0    0  0.26261606521E-01  0.24031127734E-01  0.12754260712E-01  0.37816654592E-01  0.51100000000E-03 0.  1.
         11    1    3    3    0    0  0.59656541675E-01  0.51020249124E-01 -0.35159261844E-03  0.78500659383E-01  0.51100000000E-03 0. -1.
</event>
<event>
 8    1  0.1123450E+005  0.1043930E+01  0.7957747E-01            NaN
         13   -1    0    0    0    0  0.00000000000E+00  0.00000000000E+00  0.74505805969E-08  0.10566000000E+00  0.10566000000E+00 0.  1.
     999900   -1    0    0    0    0 -0.00000000000E+00 -0.00000000000E+00 -0.74505805969E-08  0.93827000000E+00  0.93827000000E+00 0.  1.
     999902    2    1    2    0    0  0.12280140526E-01  0.17458118222E-01 -0.11431969107E-01  0.10197168288E+01  0.10194293174E+01 0.  0.
     999903    2    3    3    0    0  0.76916265324E-01 -0.23285003158E-01  0.99564649734E-01  0.12945951768E+00  0.19706445559E-01 0.  0.
         14    1    1    2    0    0 -0.12280140526E-01 -0.17458118222E-01  0.11431969107E-01  0.24213171227E-01  0.00000000000E+00 0.  1.
     999901    1    3    3    0    0 -0.64636124799E-01  0.40743121381E-01 -0.11099661884E+00  0.89025731110E+00  0.88000000000E+00 0.  1.
        -11    1    4    4    0    0  0.39056260736E-01 -0.26741729046E-02  0.40433641693E-01  0.56282174843E-01  0.51100000000E-03 0.  1.
         11    1    4    4    0    0  0.37860004588E-01 -0.20610830254E-01  0.59131008041E-01  0.73177342833E-01  0.51100000000E-03 0. -1.
</event>
<event>
 8    1  0.1123450E+005  0.1043930E+01  0.7957747E-01            NaN
         13   -1    0    0    0    0  0.00000000000E+00  0.00000000000E+00  0.74505805969E-08  0.10566000000E+00  0.10566000000E+00 0. -1.
     999900   -1    0    0    0    0 -0.00000000000E+00 -0.00000000000E+00 -0.74505805969E-08  0.93827000000E+00  0.93827000000E+00 0.  1.
     999902    2    1    2    0    0 -0.20616533919E-01  0.82477114407E-02 -0.70588278137E-02  0.10206299299E+01  0.10203639354E+01 0.  0.
     999903    2    3    3    0    0 -0.99542819434E-01 -0.78208597159E-01  0.32094202252E-01  0.13201470859E+00  0.19299945497E-01 0.  0.
         14    1    1    2    0    0  0.20616533919E-01 -0.82477114407E-02  0.70588278137E-02  0.23300070063E-01  0.00000000000E+00 0. -1.
     999901    1    3    3    0    0  0.78926285515E-01  0.86456308600E-01 -0.39153030065E-01  0.88861522134E+00  0.88000000000E+00 0.  1.
        -11    1    4    4    0    0 -0.33042974866E-01 -0.16320516865E-01  0.13740620365E-01  0.39335266972E-01  0.51100000000E-03 0. -1.
         11    1    4    4    0    0 -0.66499844567E-01 -0.61888080295E-01  0.18353581887E-01  0.92679441621E-01  0.51100000000E-03 0.  1.
</event>
<event>
 8    1  0.1123450E+005  0.1043930E+01  0.7957747E-01            NaN
         13   -1    0    0    0    0  0.00000000000E+00  0.00000000000E+00  0.74505805969E-08  0.10566000000E+00  0.10566000000E+00 0.  1.
     999900   -1    0    0    0    0 -0.00000000000E+00 -0.00000000000E+00 -0.74505805969E-08  0.93827000000E+00  0.93827000000E+00 0. -1.
     999902    2    1    2    0    0 -0.21533292703E-01  0.84233651920E-02 -0.68698140613E-02  0.10198088449E+01  0.10195235407E+01 0.  0.
     999903    2    3    3    0    0 -0.10195873056E+00  0.49918202635E-02  0.79735278822E-01  0.13190092818E+00  0.24892552242E-01 0.  0.
         14    1    1    2    0    0  0.21533292703E-01 -0.84233651920E-02  0.68698140613E-02  0.24121155052E-01  0.00000000000E+00 0.  1.
     999901    1    3    3    0    0  0.80425437859E-01  0.34315449285E-02 -0.86605092884E-01  0.88790791677E+00  0.88000000000E+00 0. -1.
        -11    1    4    4    0    0 -0.43820328944E-01  0.13704091559E-01  0.29539843726E-01  0.54597498501E-01  0.51100000000E-03 0.  1.
         11    1    4    4    0    0 -0.58138401618E-01 -0.87122712954E-02  0.50195435096E-01  0.77303429674E-01  0.51100000000E-03 0. -1.
</event>
<event>
 8    1  0.1123450E+005  0.1043930E+01  0.7957747E-01            NaN
         13   -1    0    0    0    0  0.00000000000E+00  0.00000000000E+00  0.74505805969E-08  0.10566000000E+00  0.10566000000E+00 0.  1.
     999900   -1    0    0    0    0 -0.00000000000E+00 -0.00000000000E+00 -0.74505805969E-08  0.93827000000E+00  0.93827000000E+00 0.  1.
     999902    2    1    2    0    0  0.37190821617E-02 -0.14382300562E-01 -0.18491735993E-01  0.10202102521E+01  0.10199344744E+01 0.  0.
     999903    2    3    3    0    0 -0.89089705590E-01 -0.66938992781E-01 -0.68442457029E-01  0.13236412154E+00  0.20447159931E-01 0.  0.
         14    1    1    2    0    0 -0.37190821617E-02  0.14382300562E-01  0.18491735993E-01  0.23719747925E-01  0.00000000000E+00 0.  1.
     999901    1    3    3    0    0  0.92808787752E-01  0.52556692219E-01  0.49950721037E-01  0.88784613054E+00  0.88000000000E+00 0. -1.
        -11    1    4    4    0    0 -0.51748210201E-01 -0.26427506142E-01 -0.37753385220E-01  0.69295523351E-01  0.51100000000E-03 0. -1.
         11    1    4    4    0    0 -0.37341495390E-01 -0.40511486639E-01 -0.30689071809E-01  0.63068598186E-01  0.51100000000E-03 0.  1.
</event>
<event>
 8    1  0.1123450E+005  0.1043930E+01  0.7957747E-01            NaN
         13   -1    0    0    0    0  0.00000000000E+00  0.00000000000E+00  0.74505805969E-08  0.10566000000E+00  0.10566000000E+00 0. -1.
     999900   -1    0    0    0    0 -0.00000000000E+00 -0.00000000000E+00 -0.74505805969E-08  0.93827000000E+00  0.93827000000E+00 0. -1.
     999902    2    1    2    0    0  0.15475100149E-01 -0.15578156756E-01  0.73935639144E-02  0.10207605701E+01  0.10204975841E+01 0.  0.
     999903    2    3    3    0    0  0.53583066662E-01  0.73939216968E-01  0.92158970183E-01  0.13135023098E+00  0.20529358359E-01 0.  0.
         14    1    1    2    0    0 -0.15475100149E-01  0.15578156756E-01 -0.73935639144E-02  0.23169429857E-01  0.00000000000E+00 0. -1.
     999901    1    3    3    0    0 -0.38107966513E-01 -0.89517373724E-01 -0.84765406268E-01  0.88941033916E+00  0.88000000000E+00 0. -1.
        -11    1    4    4    0    0  0.41781357688E-01  0.40933395208E-01  0.55680166193E-01  0.80757456137E-01  0.51100000000E-03 0. -1.
         11    1    4    4    0    0  0.11801708974E-01  0.33005821760E-01  0.36478803990E-01  0.50592774843E-01  0.51100000000E-03 0.  1.
</event>
<event>
 8    1  0.1123450E+005  0.1043930E+01  0.7957747E-01            NaN
         13   -1    0    0    0    0  0.00000000000E+00  0.00000000000E+00  0.74505805969E-08  0.10566000000E+00  0.10566000000E+00 0.  1.
     999900   -1    0    0    0    0 -0.00000000000E+00 -0.00000000000E+00 -0.74505805969E-08  0.93827000000E+00  0.93827000000E+00 0. -1.
     999902    2    1    2    0    0 -0.17064261899E-01 -0.99233316129E-02 -0.12762479712E-01  0.10204237788E+01  0.10201530013E+01 0.  0.
     999903    2    3    3    0    0 -0.12460042925E+00  0.10703175726E-01 -0.40624772376E-01  0.13320013881E+00  0.21262170798E-01 0.  0.
         14    1    1    2    0    0  0.17064261899E-01  0.99233316129E-02  0.12762479712E-01  0.23506221152E-01  0.00000000000E+00 0.  1.
     999901    1    3    3    0    0  0.10753616735E+00 -0.20626507339E-01  0.27862292663E-01  0.88722364004E+00  0.88000000000E+00 0.  1.
        -11    1    4    4    0    0 -0.92241350880E-01  0.13229369099E-01 -0.21900716018E-01  0.95725573919E-01  0.51100000000E-03 0. -1.
         11    1    4    4    0    0 -0.32359078373E-01 -0.25261933732E-02 -0.18724056358E-01  0.37474564889E-01  0.51100000000E-03 0.  1.
</event>
<event>
 8    1  0.1123450E+005  0.1043930E+01  0.7957747E-01            NaN
         13   -1    0    0    0    0  0.00000000000E+00  0.00000000000E+00  0.74505805969E-08  0.10566000000E+00  0.10566000000E+00 0. -1.
     999900   -1    0    0    0    0 -0.00000000000E+00 -0.00000000000E+00 -0.74505805969E-08  0.93827000000E+00  0.93827000000E+00 0.  1.
     999902    2    1    2    0    0  0.13226755606E-01 -0.45023918406E-02 -0.17704961557E-01  0.10213759702E+01  0.10211269207E+01 0.  0.
     999903    2    3    3    0    0  0.76764855797E-01 -0.95615314913E-01  0.45075819882E-01  0.13217403507E+00  0.20075220505E-01 0.  0.
         14    1    1    2    0    0 -0.13226755606E-01  0.45023918406E-02  0.17704961557E-01  0.22554029792E-01  0.00000000000E+00 0. -1.
     999901    1    3    3    0    0 -0.63538100192E-01  0.91112923072E-01 -0.62780781439E-01  0.88920193513E+00  0.88000000000E+00 0.  1.
        -11    1    4    4    0    0  0.50451251766E-01 -0.57062004285E-01  0.37442390454E-01  0.84873994025E-01  0.51100000000E-03 0.  1.
         11    1    4    4    0    0  0.26313604031E-01 -0.38553310627E-01  0.76334294282E-02  0.47300041049E-01  0.51100000000E-03 0. -1.
</event>
<event>
 8    1  0.1123450E+005  0.1043930E+01  0.7957747E-01            NaN
         13   -1    0    0    0    0  0.00000000000E+00  0.00000000000E+00  0.74505805969E-08  0.10566000000E+00  0.10566000000E+00 0.  1.
     999900   -1    0    0    0    0 -0.00000000000E+00 -0.00000000000E+00 -0.74505805969E-08  0.93827000000E+00  0.93827000000E+00 0. -1.
     999902    2    1    2    0    0 -0.21325567317E-01  0.70873322591E-02 -0.58071225255E-02  0.10207193823E+01  0.10204554497E+01 0.  0.
     999903    2    3    3    0    0  0.11614470107E+00 -0.25358837156E-01  0.43535538428E-01  0.12809094520E+00  0.19475238852E-01 0.  0.
         14    1    1    2    0    0  0.21325567317E-01 -0.70873322591E-02  0.58071225255E-02  0.23210617656E-01  0.00000000000E+00 0.  1.
     999901    1    3    3    0    0 -0.13747026839E+00  0.32446169415E-01 -0.49342660953E-01  0.89262843714E+00  0.88000000000E+00 0. -1.
        -11    1    4    4    0    0  0.49790356687E-01 -0.31110874960E-02  0.11917866902E-01  0.51293812072E-01  0.51100000000E-03 0.  1.
         11    1    4    4    0    0  0.66354344384E-01 -0.22247749660E-01  0.31617671526E-01  0.76797133132E-01  0.51100000000E-03 0. -1.
</event>
<event>
 8    1  0.1123450E+005  0.1043930E+01  0.7957747E-01            NaN
         13   -1    0    0    0    0  0.00000000000E+00  0.00000000000E+00  0.74505805969E-08  0.10566000000E+00  0.10566000000E+00 0. -1.
     999900   -1    0    0    0    0 -0.00000000000E+00 -0.00000000000E+00 -0.74505805969E-08  0.93827000000E+00  0.93827000000E+00 0. -1.
     999902    2    1    2    0    0  0.19668115203E-01 -0.13099029498E-02  0.14800216596E-01  0.10192805170E+01  0.10189824215E+01 0.  0.
     999903    2    3    3    0    0  0.50875882479E-01 -0.90621423899E-01 -0.74924245131E-01  0.12967332753E+00  0.20023273357E-01 0.  0.
         14    1    1    2    0    0 -0.19668115203E-01  0.13099029498E-02 -0.14800216596E-01  0.24649483010E-01  0.00000000000E+00 0.  1.
     999901    1    3    3    0    0 -0.31207767276E-01  0.89311520950E-01  0.89724461727E-01  0.88960718946E+00  0.88000000000E+00 0. -1.
        -11    1    4    4    0    0  0.64733211579E-02 -0.14917794416E-01 -0.21368764434E-01  0.26857581639E-01  0.51100000000E-03 0. -1.
         11    1    4    4    0    0  0.44402561321E-01 -0.75703629483E-01 -0.53555480696E-01  0.10281574589E+00  0.51100000000E-03 0.  1.
</event>
<event>
 8    1  0.1123450E+005  0.1043930E+01  0.7957747E-01            NaN
         13   -1    0    0    0    0  0.00000000000E+00  0.00000000000E+00  0.74505805969E-08  0.10566000000E+00  0.10566000000E+00 0.  1.
     999900   -1    0    0    0    0 -0.00000000000E+00 -0.00000000000E+00 -0.74505805969E-08  0.93827000000E+00  0.93827000000E+00 0. -1.
     999902    2    1    2    0    0 -0.83973926877E-02  0.62099247219E-02 -0.17169955715E-01  0.10238330662E+01  0.10236358047E+01 0.  0.
     999903    2    3    3    0    0 -0.11276649325E+00  0.53545932128E-02  0.67999228545E-01  0.13358173613E+00  0.21799804501E-01 0.  0.
         14    1    1    2    0    0  0.83973926877E-02 -0.62099247219E-02  0.17169955715E-01  0.20096933803E-01  0.00000000000E+00 0.  1.
     999901    1    3    3    0    0  0.10436910056E+00  0.85533150905E-03 -0.85169184261E-01  0.89025133007E+00  0.88000000000E+00 0. -1.
        -11    1    4    4    0    0 -0.10672883153E-01 -0.57457328696E-02  0.93594063719E-02  0.15322646300E-01  0.51100000000E-03 0.  1.
         11    1    4    4    0    0 -0.10209361009E+00  0.11100326082E-01  0.58639822174E-01  0.11825908983E+00  0.51100000000E-03 0. -1.
</event>
<event>
 8    1  0.1123450E+005  0.1043930E+01  0.7957747E-01            NaN
         13   -1    0    0    0    0  0.00000000000E+00  0.00000000000E+00  0.74505805969E-08  0.10566000000E+00  0.10566000000E+00 0.  1.
     999900   -1    0    0    0    0 -0.00000000000E+00 -0.00000000000E+00 -0.74505805969E-08  0.93827000000E+00  0.93827000000E+00 0. -1.
     999902    2    1    2    0    0 -0.19390452497E-01 -0.13804575572E-01  0.17164380988E-02  0.10200657566E+01  0.10197865687E+01 0.  0.
     999903    2    3    3    0    0 -0.12708154592E+00  0.73041845025E-02 -0.31293033465E-01  0.13263543448E+00  0.20244359986E-01 0.  0.
         14    1    1    2    0    0  0.19390452497E-01  0.13804575572E-01 -0.17164380988E-02  0.23864243430E-01  0.00000000000E+00 0.  1.
     999901    1    3    3    0    0  0.10769109342E+00 -0.21108760075E-01  0.33009471564E-01  0.88743032209E+00  0.88000000000E+00 0.  1.
        -11    1    4    4    0    0 -0.78429706430E-01  0.25013982524E-02 -0.29106957388E-01  0.83695590883E-01  0.51100000000E-03 0. -1.
         11    1    4    4    0    0 -0.48651839489E-01  0.48027862501E-02 -0.21860760769E-02  0.48939843595E-01  0.51100000000E-03 0.  1.
</event>
<event>
 8    1  0.1123450E+005  0.1043930E+01  0.7957747E-01            NaN
         13   -1    0    0    0    0  0.00000000000E+00  0.00000000000E+00  0.74505805969E-08  0.10566000000E+00  0.10566000000E+00 0.  1.
     999900   -1    0    0    0    0 -0.00000000000E+00 -0.00000000000E+00 -0.74505805969E-08  0.93827000000E+00  0.93827000000E+00 0.  1.
     999902    2    1    2    0    0 -0.11608294081E-01 -0.21431096610E-01 -0.30795800211E-02  0.10193631889E+01  0.10190671139E+01 0.  0.
     999903    2    3    3    0    0  0.94584088415E-01 -0.39806236186E-01 -0.76809006690E-01  0.12972815352E+00  0.19977089054E-01 0.  0.
         14    1    1    2    0    0  0.11608294081E-01  0.21431096610E-01  0.30795800211E-02  0.24566811077E-01  0.00000000000E+00 0. -1.
     999901    1    3    3    0    0 -0.10619238250E+00  0.18375139575E-01  0.73729426669E-01  0.88963503540E+00  0.88000000000E+00 0. -1.
        -11    1    4    4    0    0  0.35353913235E-01 -0.49540785508E-02 -0.23371795055E-01  0.42672520437E-01  0.51100000000E-03 0. -1.
         11    1    4    4    0    0  0.59230175180E-01 -0.34852157635E-01 -0.53437211635E-01  0.87055633086E-01  0.51100000000E-03 0.  1.
</event>
<event>
 8    1  0.1123450E+005  0.1043930E+01  0.7957747E-01            NaN
         13   -1    0    0    0    0  0.00000000000E+00  0.00000000000E+00  0.74505805969E-08  0.10566000000E+00  0.10566000000E+00 0. -1.
     999900   -1    0    0    0    0 -0.00000000000E+00 -0.00000000000E+00 -0.74505805969E-08  0.93827000000E+00  0.93827000000E+00 0.  1.
     999902    2    1    2    0    0 -0.10665719466E-01 -0.56610444947E-02 -0.11743115502E-01  0.10270864327E+01  0.10269483115E+01 0.  0.
     999903    2    3    3    0    0 -0.66857173044E-01  0.90287694963E-01  0.73934948113E-01  0.13596109327E+00  0.19932207116E-01 0.  0.
         14    1    1    2    0    0  0.10665719466E-01  0.56610444947E-02  0.11743115502E-01  0.16843567265E-01  0.00000000000E+00 0. -1.
     999901    1    3    3    0    0  0.56191453577E-01 -0.95948739458E-01 -0.85678063615E-01  0.89112533947E+00  0.88000000000E+00 0.  1.
        -11    1    4    4    0    0 -0.40621621957E-01  0.67217602163E-01  0.44472270031E-01  0.90257222058E-01  0.51100000000E-03 0. -1.
         11    1    4    4    0    0 -0.26235551087E-01  0.23070092801E-01  0.29462678082E-01  0.45703871208E-01  0.51100000000E-03 0.  1.
</event>
<event>
 8    1  0.1123450E+005  0.1043930E+01  0.7957747E-01            NaN
         13   -1    0    0    0    0  0.00000000000E+00  0.00000000000E+00  0.74505805969E-08  0.10566000000E+00  0.10566000000E+00 0. -1.
     999900   -1    0    0    0    0 -0.00000000000E+00 -0.00000000000E+00 -0.74505805969E-08  0.93827000000E+00  0.93827000000E+00 0.  1.
     999902    2    1    2    0    0 -0.16974538633E-01  0.13169097884E-01 -0.83427073379E-02  0.10208830725E+01  0.10206228916E+01 0.  0.
     999903    2    3    3    0    0  0.86399199825E-01 -0.45477118671E-01  0.80984932261E-01  0.12841182047E+00  0.19951098495E-01 0.  0.
         14    1    1    2    0    0  0.16974538633E-01 -0.13169097884E-01  0.83427073379E-02  0.23046927487E-01  0.00000000000E+00 0. -1.
     999901    1    3    3    0    0 -0.10337373846E+00  0.58646216554E-01 -0.89327639599E-01  0.89247125204E+00  0.88000000000E+00 0. -1.
        -11    1    4    4    0    0  0.52069137919E-01 -0.20102865607E-01  0.36145884525E-01  0.66498920430E-01  0.51100000000E-03 0. -1.
         11    1    4    4    0    0  0.34330061906E-01 -0.25374253063E-01  0.44839047736E-01  0.61912900044E-01  0.51100000000E-03 0.  1.
</event>
<event>
 8    1  0.1123450E+005  0.1043930E+01  0.7957747E-01            NaN
         13   -1    0    0    0    0  0.00000000000E+00  0.00000000000E+00  0.74505805969E-08  0.10566000000E+00  0.10566000000E+00 0. -1.
     999900   -1    0    0    0    0 -0.00000000000E+00 -0.00000000000E+00 -0.74505805969E-08  0.93827000000E+00  0.93827000000E+00 0. -1.
     999902    2    1    2    0    0  0.20133555536E-01  0.10466853275E-01  0.77132230246E-02  0.10199631711E+01  0.10196815491E+01 0.  0.
     999903    2    3    3    0    0 -0.19577723922E-01  0.55340845331E-01  0.11572931367E+00  0.13133606334E+00  0.20248235857E-01 0.  0.
         14    1    1    2    0    0 -0.20133555536E-01 -0.10466853275E-01 -0.77132230246E-02  0.23966828856E-01  0.00000000000E+00 0. -1.
     999901    1    3    3    0    0  0.39711279458E-01 -0.44873992056E-01 -0.10801609065E+00  0.88862710780E+00  0.88000000000E+00 0. -1.
        -11    1    4    4    0    0 -0.73834400219E-03  0.31302159137E-01  0.64286380742E-01  0.71507833057E-01  0.51100000000E-03 0.  1.
         11    1    4    4    0    0 -0.18839379920E-01  0.24038686194E-01  0.51442932931E-01  0.59828230286E-01  0.51100000000E-03 0. -1.
</event>
<event>
 8    1  0.1123450E+005  0.1043930E+01  0.7957747E-01            NaN
         13   -1    0    0    0    0  0.00000000000E+00  0.00000000000E+00  0.74505805969E-08  0.10566000000E+00  0.10566000000E+00 0.  1.
     999900   -1    0    0    0    0 -0.00000000000E+00 -0.00000000000E+00 -0.74505805969E-08  0.93827000000E+00  0.93827000000E+00 0.  1.
     999902    2    1    2    0    0  0.42056159881E-02  0.24647130127E-01  0.43309334748E-02  0.10185543185E+01  0.10182381718E+01 0.  0.
     999903    2    3    3    0    0  0.80892361111E-01  0.16085250323E-01 -0.95840669694E-01  0.12951634809E+00  0.28048905340E-01 0.  0.
         14    1    1    2    0    0 -0.42056159881E-02 -0.24647130127E-01 -0.43309334748E-02  0.25375681550E-01  0.00000000000E+00 0. -1.
     999901    1    3    3    0    0 -0.76686745123E-01  0.85618798045E-02  0.10017160317E+00  0.88903797036E+00  0.88000000000E+00 0. -1.
        -11    1    4    4    0    0  0.30153355254E-01 -0.50777167466E-02 -0.23046652328E-01  0.38293829071E-01  0.51100000000E-03 0.  1.
         11    1    4    4    0    0  0.50739005857E-01  0.21162967069E-01 -0.72794017366E-01  0.91222519017E-01  0.51100000000E-03 0. -1.
</event>
<event>
 8    1  0.1123450E+005  0.1043930E+01  0.7957747E-01            NaN
         13   -1    0    0    0    0  0.00000000000E+00  0.00000000000E+00  0.74505805969E-08  0.10566000000E+00  0.10566000000E+00 0. -1.
     999900   -1    0    0    0    0 -0.00000000000E+00 -0.00000000000E+00 -0.74505805969E-08  0.93827000000E+00  0.93827000000E+00 0. -1.
     999902    2    1    2    0    0  0.69238257627E-02 -0.11332077712E-01  0.19463508342E-01  0.10203676677E+01  0.10200955807E+01 0.  0.
     999903    2    3    3    0    0 -0.12077806149E+00  0.34674394757E-01  0.26352923691E-01  0.12993416000E+00  0.19968864695E-01 0.  0.
         14    1    1    2    0    0 -0.69238257627E-02  0.11332077712E-01 -0.19463508342E-01  0.23562332343E-01  0.00000000000E+00 0.  1.
     999901    1    3    3    0    0  0.12770188726E+00 -0.46006472469E-01 -0.68894153496E-02  0.89043350766E+00  0.88000000000E+00 0. -1.
        -11    1    4    4    0    0 -0.10222473178E+00  0.21911118222E-01  0.24154249377E-01  0.10730182558E+00  0.51100000000E-03 0. -1.
         11    1    4    4    0    0 -0.18553329716E-01  0.12763276535E-01  0.21986743147E-02  0.22632334418E-01  0.51100000000E-03 0.  1.
</event>
<event>
 8    1  0.1123450E+005  0.1043930E+01  0.7957747E-01            NaN
         13   -1    0    0    0    0  0.00000000000E+00  0.00000000000E+00  0.74505805969E-08  0.10566000000E+00  0.10566000000E+00 0. -1.
     999900   -1    0    0    0    0 -0.00000000000E+00 -0.00000000000E+00 -0.74505805969E-08  0.93827000000E+00  0.93827000000E+00 0.  1.
     999902    2    1    2    0    0  0.14698992840E-01  0.18190340300E-01 -0.46124535284E-02  0.10200925589E+01  0.10198140052E+01 0.  0.
     999903    2    3    3    0    0  0.11697046009E-01 -0.88425320897E-01  0.90333870470E-01  0.12858220263E+00  0.20428323895E-01 0.  0.
         14    1    1    2    0    0 -0.14698992840E-01 -0.18190340300E-01  0.46124535284E-02  0.23837441102E-01  0.00000000000E+00 0.  1.
     999901    1    3    3    0    0  0.30019468312E-02  0.10661566120E+00 -0.94946323999E-01  0.89151035627E+00  0.88000000000E+00 0.  1.
        -11    1    4    4    0    0 -0.12432604971E-02 -0.45132833138E-01  0.55372841499E-01  0.71448799993E-01  0.51100000000E-03 0. -1.
         11    1    4    4    0    0  0.12940306506E-01 -0.43292487759E-01  0.34961028972E-01  0.57133402634E-01  0.51100000000E-03 0.  1.
</event>
<event>
 8    1  0.1123450E+005  0.1043930E+01  0.7957747E-01            NaN
         13   -1    0    0    0    0  0.00000000000E+00  0.00000000000E+00  0.74505805969E-08  0.10566000000E+00  0.10566000000E+00 0. -1.
     999900   -1    0    0    0    0 -0.00000000000E+00 -0.00000000000E+00 -0.74505805969E-08  0.93827000000E+00  0.93827000000E+00 0.  1.
     999902    2    1    2    0    0 -0.13554491762E-01  0.69948885517E-02  0.17287535543E-01  0.10208754647E+01  0.10206151100E+01 0.  0.
     999903    2    3    3    0    0 -0.57913034251E-02  0.38867562874E-02 -0.12729278590E+00  0.12903837367E+00  0.19970039246E-01 0.  0.
         14    1    1    2    0    0  0.13554491762E-01 -0.69948885517E-02 -0.17287535543E-01  0.23054535301E-01  0.00000000000E+00 0.  1.
     999901    1    3    3    0    0 -0.77631883372E-02  0.31081322643E-02  0.14458032145E+00  0.89183709103E+00  0.88000000000E+00 0. -1.
        -11    1    4    4    0    0  0.46051865042E-02  0.69286726359E-03 -0.91649810560E-01  0.91769475886E-01  0.51100000000E-03 0.  1.
         11    1    4    4    0    0 -0.10396489929E-01  0.31938890238E-02 -0.35642975344E-01  0.37268897788E-01  0.51100000000E-03 0. -1.
</event>
<event>
 8    1  0.1123450E+005  0.1043930E+01  0.7957747E-01            NaN
         13   -1    0    0    0    0  0.00000000000E+00  0.00000000000E+00  0.74505805969E-08  0.10566000000E+00  0.10566000000E+00 0.  1.
     999900   -1    0    0    0    0 -0.00000000000E+00 -0.00000000000E+00 -0.74505805969E-08  0.93827000000E+00  0.93827000000E+00 0.  1.
     999902    2    1    2    0    0 -0.16326202424E-01 -0.15786787875E-01  0.14079359974E-05  0.10212194835E+01  0.10209669270E+01 0.  0.
     999903    2    3    3    0    0  0.11321473651E+00  0.51950965513E-01  0.26019137935E-01  0.12878114931E+00  0.19776488505E-01 0.  0.
         14    1    1    2    0    0  0.16326202424E-01  0.15786787875E-01 -0.14079359974E-05  0.22710516484E-01  0.00000000000E+00 0. -1.
     999901    1    3    3    0    0 -0.12954093893E+00 -0.67737753388E-01 -0.26017729999E-01  0.89243833421E+00  0.88000000000E+00 0.  1.
        -11    1    4    4    0    0  0.36974043795E-01  0.83040421024E-02  0.33172378854E-02  0.38043425424E-01  0.51100000000E-03 0.  1.
         11    1    4    4    0    0  0.76240692712E-01  0.43646923411E-01  0.22701900050E-01  0.90737723882E-01  0.51100000000E-03 0. -1.
</event>
<event>
 8    1  0.1123450E+005  0.1043930E+01  0.7957747E-01            NaN
         13   -1    0    0    0    0  0.00000000000E+00  0.00000000000E+00  0.74505805969E-08  0.10566000000E+00  0.10566000000E+00 0.  1.
     999900   -1    0    0    0    0 -0.00000000000E+00 -0.00000000000E+00 -0.74505805969E-08  0.93827000000E+00  0.93827000000E+00 0.  1.
     999902    2    1    2    0    0 -0.25179821989E-02 -0.60037425859E-02 -0.23570953099E-01  0.10194764729E+01  0.10191831551E+01 0.  0.
     999903    2    3    3    0    0 -0.34685624311E-01  0.11413237015E+00  0.41223426288E-01  0.12837280079E+00  0.23471571294E-01 0.  0.
         14    1    1    2    0    0  0.25179821989E-02  0.60037425859E-02  0.23570953099E-01  0.24453527136E-01  0.00000000000E+00 0.  1.
     999901    1    3    3    0    0  0.32167642112E-01 -0.12013611273E+00 -0.64794379388E-01  0.89110367207E+00  0.88000000000E+00 0.  1.
        -11    1    4    4    0    0 -0.21383334971E-01  0.33022385245E-01  0.14774934873E-01  0.42027190760E-01  0.51100000000E-03 0. -1.
         11    1    4    4    0    0 -0.13302289340E-01  0.81109984902E-01  0.26448491415E-01  0.86345610031E-01  0.51100000000E-03 0.  1.
</event>
<event>
 8    1  0.1123450E+005  0.1043930E+01  0.7957747E-01            NaN
         13   -1    0    0    0    0  0.00000000000E+00  0.00000000000E+00  0.74505805969E-08  0.10566000000E+00  0.10566000000E+00 0.  1.
     999900   -1    0    0    0    0 -0.00000000000E+00 -0.00000000000E+00 -0.74505805969E-08  0.93827000000E+00  0.93827000000E+00 0.  1.
     999902    2    1    2    0    0 -0.13282428858E-01  0.15475225832E-01  0.23204060962E-01  0.10130377036E+01  0.10125665682E+01 0.  0.
     999903    2    3    3    0    0 -0.87539061401E-01  0.79443403131E-01  0.43304147553E-01  0.12736847153E+00  0.19316748481E-01 0.  0.
         14    1    1    2    0    0  0.13282428858E-01 -0.15475225832E-01 -0.23204060962E-01  0.30892296386E-01  0.00000000000E+00 0. -1.
     999901    1    3    3    0    0  0.74256632543E-01 -0.63968177300E-01 -0.20100086591E-01  0.88566923209E+00  0.88000000000E+00 0.  1.
        -11    1    4    4    0    0 -0.76890786181E-01  0.74143510790E-01  0.33501188564E-01  0.11194661204E+00  0.51100000000E-03 0.  1.
         11    1    4    4    0    0 -0.10648275220E-01  0.52998923408E-02  0.98029589896E-02  0.15421859484E-01  0.51100000000E-03 0. -1.
</event>
<event>
 8    1  0.1123450E+005  0.1043930E+01  0.7957747E-01            NaN
         13   -1    0    0    0    0  0.00000000000E+00  0.00000000000E+00  0.74505805969E-08  0.10566000000E+00  0.10566000000E+00 0.  1.
     999900   -1    0    0    0    0 -0.00000000000E+00 -0.00000000000E+00 -0.74505805969E-08  0.93827000000E+00  0.93827000000E+00 0. -1.
     999902    2    1    2    0    0  0.10229494074E-01  0.20043329416E-01 -0.64143680706E-02  0.10205308179E+01  0.10202625293E+01 0.  0.
     999903    2    3    3    0    0 -0.94753816886E-01  0.82801514237E-01  0.31603183577E-01  0.13125840773E+00  0.19890495531E-01 0.  0.
         14    1    1    2    0    0 -0.10229494074E-01 -0.20043329416E-01  0.64143680706E-02  0.23399182055E-01  0.00000000000E+00 0. -1.
     999901    1    3    3    0    0  0.10498331096E+00 -0.62758184821E-01 -0.38017551647E-01  0.88927241022E+00  0.88000000000E+00 0. -1.
        -11    1    4    4    0    0 -0.44328236677E-01  0.51682305451E-01  0.15072786632E-01  0.69738821910E-01  0.51100000000E-03 0.  1.
         11    1    4    4    0    0 -0.50425580209E-01  0.31119208786E-01  0.16530396945E-01  0.61519585816E-01  0.51100000000E-03 0. -1.
</event>
<event>
 8    1  0.1123450E+005  0.1043930E+01  0.7957747E-01            NaN
         13   -1    0    0    0    0  0.00000000000E+00  0.00000000000E+00  0.74505805969E-08  0.10566000000E+00  0.10566000000E+00 0.  1.
     999900   -1    0    0    0    0 -0.00000000000E+00 -0.00000000000E+00 -0.74505805969E-08  0.93827000000E+00  0.93827000000E+00 0.  1.
     999902    2    1    2    0    0  0.16511514296E-01 -0.16632066287E-01 -0.78820884716E-03  0.10204805436E+01  0.10202110874E+01 0.  0.
     999903    2    3    3    0    0 -0.37580377478E-01 -0.10044497457E+00 -0.73865676070E-01  0.13183502788E+00  0.20563530516E-01 0.  0.
         14    1    1    2    0    0 -0.16511514296E-01  0.16632066287E-01  0.78820884716E-03  0.23449456423E-01  0.00000000000E+00 0. -1.
     999901    1    3    3    0    0  0.54091891774E-01  0.83812908283E-01  0.73077467223E-01  0.88864551570E+00  0.88000000000E+00 0. -1.
        -11    1    4    4    0    0 -0.25641642479E-01 -0.49663798388E-01 -0.28704691706E-01  0.62834760652E-01  0.51100000000E-03 0. -1.
         11    1    4    4    0    0 -0.11938734999E-01 -0.50781176183E-01 -0.45160984365E-01  0.69000267229E-01  0.51100000000E-03 0.  1.
</event>
<event>
 8    1  0.1123450E+005  0.1043930E+01  0.7957747E-01            NaN
         13   -1    0    0    0    0  0.00000000000E+00  0.00000000000E+00  0.74505805969E-08  0.10566000000E+00  0.10566000000E+00 0. -1.
     999900   -1    0    0    0    0 -0.00000000000E+00 -0.00000000000E+00 -0.74505805969E-08  0.93827000000E+00  0.93827000000E+00 0. -1.
     999902    2    1    2    0    0  0.23081435613E-01  0.19905640015E-02  0.52752619680E-02  0.10201698779E+01  0.10198931495E+01 0.  0.
     999903    2    3    3    0    0  0.69142175942E-01 -0.70677169954E-01  0.85659058008E-01  0.13232769255E+00  0.19930909423E-01 0.  0.
         14    1    1    2    0    0 -0.23081435613E-01 -0.19905640015E-02 -0.52752619680E-02  0.23760122134E-01  0.00000000000E+00 0. -1.
     999901    1    3    3    0    0 -0.46060740330E-01  0.72667733956E-01 -0.80383796040E-01  0.88784218531E+00  0.88000000000E+00 0. -1.
        -11    1    4    4    0    0  0.18894204380E-01 -0.25562123724E-01  0.17115849936E-01  0.36105769185E-01  0.51100000000E-03 0. -1.
         11    1    4    4    0    0  0.50247971562E-01 -0.45115046231E-01  0.68543208073E-01  0.96221923367E-01  0.51100000000E-03 0.  1.
</event>
<event>
 8    1  0.1123450E+005  0.1043930E+01  0.7957747E-01            NaN
         13   -1    0    0    0    0  0.00000000000E+00  0.00000000000E+00  0.74505805969E-08  0.10566000000E+00  0.10566000000E+00 0.  1.
     999900   -1    0    0    0    0 -0.00000000000E+00 -0.00000000000E+00 -0.74505805969E-08  0.93827000000E+00  0.93827000000E+00 0.  1.
     999902    2    1    2    0    0  0.20943038450E-01  0.69377447406E-02 -0.10411723921E-01  0.10195343619E+01  0.10192424481E+01 0.  0.
     999903    2    3    3    0    0  0.51094400057E-01  0.27186334978E-01  0.11470803677E+00  0.12994228433E+00  0.19424958978E-01 0.  0.
         14    1    1    2    0    0 -0.20943038450E-01 -0.69377447406E-02  0.10411723921E-01  0.24395638066E-01  0.00000000000E+00 0. -1.
     999901    1    3    3    0    0 -0.30151361607E-01 -0.20248590237E-01 -0.12511976069E+00  0.88959207760E+00  0.88000000000E+00 0.  1.
        -11    1    4    4    0    0  0.35199891642E-02  0.90723221172E-02  0.24390498235E-01  0.26265088568E-01  0.51100000000E-03 0. -1.
         11    1    4    4    0    0  0.47574410893E-01  0.18114012861E-01  0.90317538536E-01  0.10367719577E+00  0.51100000000E-03 0.  1.
</event>
<event>
 8    1  0.1123450E+005  0.1043930E+01  0.7957747E-01            NaN
         13   -1    0    0    0    0  0.00000000000E+00  0.00000000000E+00  0.74505805969E-08  0.10566000000E+00  0.10566000000E+00 0.  1.
     999900   -1    0    0    0    0 -0.00000000000E+00 -0.00000000000E+00 -0.74505805969E-08  0.93827000000E+00  0.93827000000E+00 0.  1.
     999902    2    1    2    0    0 -0.17388058758E-01  0.71132362080E-02  0.14324858475E-01  0.10203049225E+01  0.10200313675E+01 0.  0.
     999903    2    3    3    0    0  0.68402420187E-01 -0.52885207934E-01  0.95512091670E-01  0.13038852956E+00  0.20071688542E-01 0.  0.
         14    1    1    2    0    0  0.17388058758E-01 -0.71132362080E-02 -0.14324858475E-01  0.23625077503E-01  0.00000000000E+00 0. -1.
     999901    1    3    3    0    0 -0.85790478945E-01  0.59998444142E-01 -0.81187233195E-01  0.88991639293E+00  0.88000000000E+00 0.  1.
        -11    1    4    4    0    0  0.46787000526E-01 -0.23734544228E-01  0.55999415421E-01  0.76736872861E-01  0.51100000000E-03 0.  1.
         11    1    4    4    0    0  0.21615419661E-01 -0.29150663706E-01  0.39512676249E-01  0.53651656703E-01  0.51100000000E-03 0. -1.
</event>
<event>
 8    1  0.1123450E+005  0.1043930E+01  0.7957747E-01            NaN
         13   -1    0    0    0    0  0.00000000000E+00  0.00000000000E+00  0.74505805969E-08  0.10566000000E+00  0.10566000000E+00 0. -1.
     999900   -1    0    0    0    0 -0.00000000000E+00 -0.00000000000E+00 -0.74505805969E-08  0.93827000000E+00  0.93827000000E+00 0.  1.
     999902    2    1    2    0    0  0.18324048689E-01 -0.77604549319E-02  0.12959453692E-01  0.10201825188E+01  0.10199060883E+01 0.  0.
     999903    2    3    3    0    0 -0.86166244933E-01 -0.68606680030E-01 -0.63544630257E-01  0.12862581317E+00  0.19369601689E-01 0.  0.
         14    1    1    2    0    0 -0.18324048689E-01  0.77604549319E-02 -0.12959453692E-01  0.23747481153E-01  0.00000000000E+00 0.  1.
     999901    1    3    3    0    0  0.10449029362E+00  0.60846225098E-01  0.76504083949E-01  0.89155670567E+00  0.88000000000E+00 0. -1.
        -11    1    4    4    0    0 -0.46339702776E-01 -0.37915934349E-01 -0.23412976302E-01  0.64291637958E-01  0.51100000000E-03 0.  1.
         11    1    4    4    0    0 -0.39826542157E-01 -0.30690745681E-01 -0.40131653955E-01  0.64334175216E-01  0.51100000000E-03 0. -1.
</event>
<event>
 8    1  0.1123450E+005  0.1043930E+01  0.7957747E-01            NaN
         13   -1    0    0    0    0  0.00000000000E+00  0.00000000000E+00  0.74505805969E-08  0.10566000000E+00  0.10566000000E+00 0. -1.
     999900   -1    0    0    0    0 -0.00000000000E+00 -0.00000000000E+00 -0.74505805969E-08  0.93827000000E+00  0.93827000000E+00 0. -1.
     999902    2    1    2    0    0  0.14129429211E-01  0.13999409527E-01  0.83897362313E-02  0.10223426910E+01  0.10221147518E+01 0.  0.
     999903    2    3    3    0    0  0.12232472275E+00 -0.37918883316E-01  0.32644385322E-01  0.13386645681E+00  0.21293023678E-01 0.  0.
         14    1    1    2    0    0 -0.14129429211E-01 -0.13999409527E-01 -0.83897362313E-02  0.21587309025E-01  0.00000000000E+00 0. -1.
     999901    1    3    3    0    0 -0.10819529354E+00  0.51918292843E-01 -0.24254649091E-01  0.88847623417E+00  0.88000000000E+00 0. -1.
        -11    1    4    4    0    0  0.40289342597E-01 -0.22790372691E-02  0.89608477539E-02  0.41339848225E-01  0.51100000000E-03 0. -1.
         11    1    4    4    0    0  0.82035380154E-01 -0.35639846047E-01  0.23683537568E-01  0.92526608584E-01  0.51100000000E-03 0.  1.
</event>
<event>
 8    1  0.1123450E+005  0.1043930E+01  0.7957747E-01            NaN
         13   -1    0    0    0    0  0.00000000000E+00  0.00000000000E+00  0.74505805969E-08  0.10566000000E+00  0.10566000000E+00 0.  1.
     999900   -1    0    0    0    0 -0.00000000000E+00 -0.00000000000E+00 -0.74505805969E-08  0.93827000000E+00  0.93827000000E+00 0. -1.
     999902    2    1    2    0    0  0.21277162537E-01 -0.27624607798E-02 -0.16620635686E-01  0.10167897280E+01  0.10164274478E+01 0.  0.
     999903    2    3    3    0    0 -0.10565240333E+00 -0.10679612718E-01  0.60841849599E-01  0.12427965374E+00  0.21615207885E-01 0.  0.
         14    1    1    2    0    0 -0.21277162537E-01  0.27624607798E-02  0.16620635686E-01  0.27140272028E-01  0.00000000000E+00 0.  1.
     999901    1    3    3    0    0  0.12692956587E+00  0.79171519386E-02 -0.77462485284E-01  0.89251007424E+00  0.88000000000E+00 0. -1.
        -11    1    4    4    0    0 -0.29436409844E-01 -0.97610426116E-02  0.25991168780E-01  0.40467050213E-01  0.51100000000E-03 0.  1.
         11    1    4    4    0    0 -0.76215993490E-01 -0.91857010676E-03  0.34850680818E-01  0.83812603522E-01  0.51100000000E-03 0. -1.
</event>
<event>
 8    1  0.1123450E+005  0.1043930E+01  0.7957747E-01            NaN
         13   -1    0    0    0    0  0.00000000000E+00  0.00000000000E+00  0.74505805969E-08  0.10566000000E+00  0.10566000000E+00 0.  1.
     999900   -1    0    0    0    0 -0.00000000000E+00 -0.00000000000E+00 -0.74505805969E-08  0.93827000000E+00  0.93827000000E+00 0.  1.
     999902    2    1    2    0    0 -0.15400989238E-01 -0.14471308285E-01  0.10443181437E-01  0.10203573618E+01  0.10200850340E+01 0.  0.
     999903    2    3    3    0    0 -0.12744832601E+00  0.88164583921E-02  0.28979939353E-01  0.13275354413E+00  0.21514201214E-01 0.  0.
         14    1    1    2    0    0  0.15400989238E-01  0.14471308285E-01 -0.10443181437E-01  0.23572638196E-01  0.00000000000E+00 0. -1.
     999901    1    3    3    0    0  0.11204733677E+00 -0.23287766677E-01 -0.18536757916E-01  0.88760381767E+00  0.88000000000E+00 0.  1.
        -11    1    4    4    0    0 -0.44682367973E-01  0.12928884932E-01  0.72238450887E-02  0.47075632042E-01  0.51100000000E-03 0. -1.
         11    1    4    4    0    0 -0.82765958034E-01 -0.41124265402E-02  0.21756094264E-01  0.85677912089E-01  0.51100000000E-03 0.  1.
</event>
<event>
 8    1  0.1123450E+005  0.1043930E+01  0.7957747E-01            NaN
         13   -1    0    0    0    0  0.00000000000E+00  0.00000000000E+00  0.74505805969E-08  0.10566000000E+00  0.10566000000E+00 0. -1.
     999900   -1    0    0    0    0 -0.00000000000E+00 -0.00000000000E+00 -0.74505805969E-08  0.93827000000E+00  0.93827000000E+00 0. -1.
     999902    2    1    2    0    0  0.22095749454E-01  0.22947406079E-02  0.10112206133E-01  0.10195221183E+01  0.10192299078E+01 0.  0.
     999903    2    3    3    0    0  0.10232064796E+00 -0.61921675088E-02 -0.76825143894E-01  0.13156594548E+00  0.29993955026E-01 0.  0.
         14    1    1    2    0    0 -0.22095749454E-01 -0.22947406079E-02 -0.10112206133E-01  0.24407881745E-01  0.00000000000E+00 0. -1.
     999901    1    3    3    0    0 -0.80224898501E-01  0.84869081166E-02  0.86937350027E-01  0.88795617278E+00  0.88000000000E+00 0.  1.
        -11    1    4    4    0    0  0.46712591892E-01  0.11940526399E-01 -0.31935778765E-01  0.57834224282E-01  0.51100000000E-03 0.  1.
         11    1    4    4    0    0  0.55608056063E-01 -0.18132693908E-01 -0.44889365129E-01  0.73731721193E-01  0.51100000000E-03 0. -1.
</event>
<event>
 8    1  0.1123450E+005  0.1043930E+01  0.7957747E-01            NaN
         13   -1    0    0    0    0  0.00000000000E+00  0.00000000000E+00  0.74505805969E-08  0.10566000000E+00  0.10566000000E+00 0.  1.
     999900   -1    0    0    0    0 -0.00000000000E+00 -0.00000000000E+00 -0.74505805969E-08  0.93827000000E+00  0.93827000000E+00 0.  1.
     999902    2    1    2    0    0  0.22491867113E-01  0.50913425986E-03 -0.48192089671E-02  0.10209219997E+01  0.10206627069E+01 0.  0.
     999903    2    3    3    0    0 -0.17206672378E-02  0.93362186603E-01 -0.90413900339E-01  0.13157707933E+00  0.20454726789E-01 0.  0.
         14    1    1    2    0    0 -0.22491867113E-01 -0.50913425986E-03  0.48192089671E-02  0.23008000325E-01  0.00000000000E+00 0.  1.
     999901    1    3    3    0    0  0.24212534350E-01 -0.92853052343E-01  0.85594691372E-01  0.88934492034E+00  0.88000000000E+00 0. -1.
        -11    1    4    4    0    0 -0.56700924957E-02  0.70607554310E-01 -0.56831151070E-01  0.90816394596E-01  0.51100000000E-03 0.  1.
         11    1    4    4    0    0  0.39494252579E-02  0.22754632293E-01 -0.33582749269E-01  0.40760684735E-01  0.51100000000E-03 0. -1.
</event>
<event>
 8    1  0.1123450E+005  0.1043930E+01  0.7957747E-01            NaN
         13   -1    0    0    0    0  0.00000000000E+00  0.00000000000E+00  0.74505805969E-08  0.10566000000E+00  0.10566000000E+00 0. -1.
     999900   -1    0    0    0    0 -0.00000000000E+00 -0.00000000000E+00 -0.74505805969E-08  0.93827000000E+00  0.93827000000E+00 0.  1.
     999902    2    1    2    0    0 -0.15103291060E-01 -0.57802863807E-02  0.18585505040E-01  0.10192938049E+01  0.10189960346E+01 0.  0.
     999903    2    3    3    0    0 -0.12197696747E+00  0.35459989556E-01 -0.24131212787E-01  0.13084152084E+00  0.20034886900E-01 0.  0.
         14    1    1    2    0    0  0.15103291060E-01  0.57802863807E-02 -0.18585505040E-01  0.24636195102E-01  0.00000000000E+00 0.  1.
     999901    1    3    3    0    0  0.10687367641E+00 -0.41240275937E-01  0.42716717827E-01  0.88845228406E+00  0.88000000000E+00 0. -1.
        -11    1    4    4    0    0 -0.53480254641E-01  0.21043841465E-01 -0.23110956167E-02  0.57520284978E-01  0.51100000000E-03 0.  1.
         11    1    4    4    0    0 -0.68496712826E-01  0.14416148091E-01 -0.21820117170E-01  0.73321235861E-01  0.51100000000E-03 0. -1.
</event>
<event>
 8    1  0.1123450E+005  0.1043930E+01  0.7957747E-01            NaN
         13   -1    0    0    0    0  0.00000000000E+00  0.00000000000E+00  0.74505805969E-08  0.10566000000E+00  0.10566000000E+00 0. -1.
     999900   -1    0    0    0    0 -0.00000000000E+00 -0.00000000000E+00 -0.74505805969E-08  0.93827000000E+00  0.93827000000E+00 0. -1.
     999902    2    1    2    0    0  0.21317826727E-01  0.11334102620E-01 -0.23414653214E-02  0.10196731643E+01  0.10193846025E+01 0.  0.
     999903    2    3    3    0    0  0.12450997753E+00 -0.39676598534E-01 -0.58630870796E-02  0.13216929758E+00  0.18904508859E-01 0.  0.
         14    1    1    2    0    0 -0.21317826727E-01 -0.11334102620E-01  0.23414653214E-02  0.24256835705E-01  0.00000000000E+00 0.  1.
     999901    1    3    3    0    0 -0.10319215081E+00  0.51010701154E-01  0.35216217582E-02  0.88750386672E+00  0.88000000000E+00 0.  1.
        -11    1    4    4    0    0  0.37094762535E-01 -0.41206340636E-02  0.26162897591E-02  0.37418005368E-01  0.51100000000E-03 0.  1.
         11    1    4    4    0    0  0.87415214998E-01 -0.35555964471E-01 -0.84793768387E-02  0.94751292209E-01  0.51100000000E-03 0. -1.
</event>
<event>
 8    1  0.1123450E+005  0.1043930E+01  0.7957747E-01            NaN
         13   -1    0    0    0    0  0.00000000000E+00  0.00000000000E+00  0.74505805969E-08  0.10566000000E+00  0.10566000000E+00 0.  1.
     999900   -1    0    0    0    0 -0.00000000000E+00 -0.00000000000E+00 -0.74505805969E-08  0.93827000000E+00  0.93827000000E+00 0. -1.
     999902    2    1    2    0    0  0.46127275141E-02 -0.16163150379E-01 -0.16978354514E-01  0.10200388048E+01  0.10197589784E+01 0.  0.
     999903    2    3    3    0    0  0.19583208568E-01 -0.30680899722E-01  0.12189724653E+00  0.12890395929E+00  0.20795969403E-01 0.  0.
         14    1    1    2    0    0 -0.46127275141E-02  0.16163150379E-01  0.16978354514E-01  0.23891195184E-01  0.00000000000E+00 0.  1.
     999901    1    3    3    0    0 -0.14970481054E-01  0.14517749343E-01 -0.13887560104E+00  0.89113484553E+00  0.88000000000E+00 0. -1.
        -11    1    4    4    0    0  0.16912256144E-02 -0.91011847302E-02  0.62947178598E-01  0.63626254188E-01  0.51100000000E-03 0. -1.
         11    1    4    4    0    0  0.17891982954E-01 -0.21579714992E-01  0.58950067931E-01  0.65277705100E-01  0.51100000000E-03 0.  1.
</event>
<event>
 8    1  0.1123450E+005  0.1043930E+01  0.7957747E-01            NaN
         13   -1    0    0    0    0  0.00000000000E+00  0.00000000000E+00  0.74505805969E-08  0.10566000000E+00  0.10566000000E+00 0. -1.
     999900   -1    0    0    0    0 -0.00000000000E+00 -0.00000000000E+00 -0.74505805969E-08  0.93827000000E+00  0.93827000000E+00 0. -1.
     999902    2    1    2    0    0 -0.20784170506E-01  0.10811060287E-01  0.25235601198E-02  0.10203666996E+01  0.10200945900E+01 0.  0.
     999903    2    3    3    0    0  0.54028626909E-02 -0.86118856775E-02 -0.12822181933E+00  0.13010978965E+00  0.19605277590E-01 0.  0.
         14    1    1    2    0    0  0.20784170506E-01 -0.10811060287E-01 -0.25235601198E-02  0.23563300360E-01  0.00000000000E+00 0.  1.
     999901    1    3    3    0    0 -0.26187033197E-01  0.19422945965E-01  0.13074537945E+00  0.89025690999E+00  0.88000000000E+00 0.  1.
        -11    1    4    4    0    0 -0.65987233778E-02  0.29361125368E-03 -0.53310330783E-01  0.53720404382E-01  0.51100000000E-03 0.  1.
         11    1    4    4    0    0  0.12001586069E-01 -0.89054969311E-02 -0.74911488551E-01  0.76389385268E-01  0.51100000000E-03 0. -1.
</event>
<event>
 8    1  0.1123450E+005  0.1043930E+01  0.7957747E-01            NaN
         13   -1    0    0    0    0  0.00000000000E+00  0.00000000000E+00  0.74505805969E-08  0.10566000000E+00  0.10566000000E+00 0. -1.
     999900   -1    0    0    0    0 -0.00000000000E+00 -0.00000000000E+00 -0.74505805969E-08  0.93827000000E+00  0.93827000000E+00 0. -1.
     999902    2    1    2    0    0  0.12556909729E-01  0.92199057811E-02 -0.17487079690E-01  0.10205103373E+01  0.10202415733E+01 0.  0.
     999903    2    3    3    0    0  0.10265785172E-01 -0.74497817565E-01 -0.10657324479E+00  0.13205648298E+00  0.20633638208E-01 0.  0.
         14    1    1    2    0    0 -0.12556909729E-01 -0.92199057811E-02  0.17487079690E-01  0.23419662693E-01  0.00000000000E+00 0. -1.
     999901    1    3    3    0    0  0.22911245565E-02  0.83717723346E-01  0.89086165098E-01  0.88845385433E+00  0.88000000000E+00 0.  1.
        -11    1    4    4    0    0 -0.61421550965E-02 -0.21563717721E-01 -0.27289618553E-01  0.35322859354E-01  0.51100000000E-03 0.  1.
         11    1    4    4    0    0  0.16407940269E-01 -0.52934099844E-01 -0.79283626234E-01  0.96733623627E-01  0.51100000000E-03 0. -1.
</event>
<event>
 8    1  0.1123450E+005  0.1043930E+01  0.7957747E-01            NaN
         13   -1    0    0    0    0  0.00000000000E+00  0.00000000000E+00  0.74505805969E-08  0.10566000000E+00  0.10566000000E+00 0. -1.
     999900   -1    0    0    0    0 -0.00000000000E+00 -0.00000000000E+00 -0.74505805969E-08  0.93827000000E+00  0.93827000000E+00 0.  1.
     999902    2    1    2    0    0  0.98449259879E-02 -0.15859230362E-02 -0.21561540511E-01  0.10201742060E+01  0.10198975796E+01 0.  0.
     999903    2    3    3    0    0 -0.61388596231E-01 -0.94870170651E-01  0.58485735994E-01  0.12877994305E+00  0.19869156750E-01 0.  0.
         14    1    1    2    0    0 -0.98449259879E-02  0.15859230362E-02  0.21561540511E-01  0.23755794005E-01  0.00000000000E+00 0.  1.
     999901    1    3    3    0    0  0.71233522219E-01  0.93284247615E-01 -0.80047276505E-01  0.89139426295E+00  0.88000000000E+00 0.  1.
        -11    1    4    4    0    0 -0.94585850923E-02 -0.30951164181E-01  0.15808666602E-01  0.36022416033E-01  0.51100000000E-03 0. -1.
         11    1    4    4    0    0 -0.51930011138E-01 -0.63919006470E-01  0.42677069393E-01  0.92757527015E-01  0.51100000000E-03 0.  1.
</event>
<event>
 8    1  0.1123450E+005  0.1043930E+01  0.7957747E-01            NaN
         13   -1    0    0    0    0  0.00000000000E+00  0.00000000000E+00  0.74505805969E-08  0.10566000000E+00  0.10566000000E+00 0.  1.
     999900   -1    0    0    0    0 -0.00000000000E+00 -0.00000000000E+00 -0.74505805969E-08  0.93827000000E+00  0.93827000000E+00 0. -1.
     999902    2    1    2    0    0  0.12833459516E-01  0.84354100152E-02  0.17113430154E-01  0.10209360156E+01  0.10206770423E+01 0.  0.
     999903    2    3    3    0    0  0.71425940493E-01  0.86940448305E-01 -0.65268994582E-01  0.13167622021E+00  0.20451865127E-01 0.  0.
         14    1    1    2    0    0 -0.12833459516E-01 -0.84354100152E-02 -0.17113430154E-01  0.22993984364E-01  0.00000000000E+00 0. -1.
     999901    1    3    3    0    0 -0.58592480977E-01 -0.78505038290E-01  0.82382424736E-01  0.88925979543E+00  0.88000000000E+00 0.  1.
        -11    1    4    4    0    0  0.48624454708E-01  0.61458904611E-01 -0.55757387167E-01  0.96180465253E-01  0.51100000000E-03 0.  1.
         11    1    4    4    0    0  0.22801485786E-01  0.25481543694E-01 -0.95116074147E-02  0.35495754953E-01  0.51100000000E-03 0. -1.
</event>
<event>
 8    1  0.1123450E+005  0.1043930E+01  0.7957747E-01            NaN
         13   -1    0    0    0    0  0.00000000000E+00  0.00000000000E+00  0.74505805969E-08  0.10566000000E+00  0.10566000000E+00 0. -1.
     999900   -1    0    0    0    0 -0.00000000000E+00 -0.00000000000E+00 -0.74505805969E-08  0.93827000000E+00  0.93827000000E+00 0.  1.
     999902    2    1    2    0    0  0.11260008678E-01  0.19152694799E-01  0.98270390250E-02  0.10196362928E+01  0.10193468425E+01 0.  0.
     999903    2    3    3    0    0 -0.52336311574E-01 -0.11383192456E+00 -0.76701035290E-02  0.12720391389E+00  0.20620588299E-01 0.  0.
         14    1    1    2    0    0 -0.11260008678E-01 -0.19152694799E-01 -0.98270390250E-02  0.24293707199E-01  0.00000000000E+00 0.  1.
     999901    1    3    3    0    0  0.63596320252E-01  0.13298461936E+00  0.17497142554E-01  0.89243237891E+00  0.88000000000E+00 0.  1.
        -11    1    4    4    0    0  0.98018717321E-04 -0.66847742790E-02 -0.41024232926E-02  0.78604588099E-02  0.51100000000E-03 0. -1.
         11    1    4    4    0    0 -0.52434330291E-01 -0.10714715028E+00 -0.35676802364E-02  0.11934345508E+00  0.51100000000E-03 0.  1.
</event>
<event>
 8    1  0.1123450E+005  0.1043930E+01  0.7957747E-01            NaN
         13   -1    0    0    0    0  0.00000000000E+00  0.00000000000E+00  0.74505805969E-08  0.10566000000E+00  0.10566000000E+00 0.  1.
     999900   -1    0    0    0    0 -0.00000000000E+00 -0.00000000000E+00 -0.74505805969E-08  0.93827000000E+00  0.93827000000E+00 0. -1.
     999902    2    1    2    0    0  0.22716833342E-01 -0.39418418543E-02 -0.11135509068E-02  0.10208468323E+01  0.10205858232E+01 0.  0.
     999903    2    3    3    0    0 -0.20457111721E-02  0.11735119874E+00  0.53518191944E-01  0.13050430687E+00  0.19791120776E-01 0.  0.
         14    1    1    2    0    0 -0.22716833342E-01  0.39418418543E-02  0.11135509068E-02  0.23083167675E-01  0.00000000000E+00 0. -1.
     999901    1    3    3    0    0  0.24762544514E-01 -0.12129304060E+00 -0.54631742850E-01  0.89034252546E+00  0.88000000000E+00 0. -1.
        -11    1    4    4    0    0 -0.12001823733E-02  0.83632313173E-01  0.27994165487E-01  0.88202826864E-01  0.51100000000E-03 0.  1.
         11    1    4    4    0    0 -0.84552879886E-03  0.33718885571E-01  0.25524026456E-01  0.42301480005E-01  0.51100000000E-03 0. -1.
</event>
<event>
 8    1  0.1123450E+005  0.1043930E+01  0.7957747E-01            NaN
         13   -1    0    0    0    0  0.00000000000E+00  0.00000000000E+00  0.74505805969E-08  0.10566000000E+00  0.10566000000E+00 0.  1.
     999900   -1    0    0    0    0 -0.00000000000E+00 -0.00000000000E+00 -0.74505805969E-08  0.93827000000E+00  0.93827000000E+00 0. -1.
     999902    2    1    2    0    0  0.41274481824E-02  0.22741885128E-01 -0.25809873516E-02  0.10206729438E+01  0.10204079417E+01 0.  0.
     999903    2    3    3    0    0 -0.53345864135E-01 -0.80383167418E-01  0.82796597244E-01  0.12869352136E+00  0.19987773778E-01 0.  0.
         14    1    1    2    0    0 -0.41274481824E-02 -0.22741885128E-01  0.25809873516E-02  0.23257056206E-01  0.00000000000E+00 0.  1.
     999901    1    3    3    0    0  0.57473312317E-01  0.10312505255E+00 -0.85377584596E-01  0.89197942243E+00  0.88000000000E+00 0. -1.
        -11    1    4    4    0    0 -0.38371572470E-01 -0.44290887296E-01  0.41308714011E-01  0.71698892918E-01  0.51100000000E-03 0. -1.
         11    1    4    4    0    0 -0.14974291665E-01 -0.36092280122E-01  0.41487883233E-01  0.56994628444E-01  0.51100000000E-03 0.  1.
</event>
<event>
 8    1  0.1123450E+005  0.1043930E+01  0.7957747E-01            NaN
         13   -1    0    0    0    0  0.00000000000E+00  0.00000000000E+00  0.74505805969E-08  0.10566000000E+00  0.10566000000E+00 0.  1.
     999900   -1    0    0    0    0 -0.00000000000E+00 -0.00000000000E+00 -0.74505805969E-08  0.93827000000E+00  0.93827000000E+00 0.  1.
     999902    2    1    2    0    0 -0.27219309908E-02 -0.24038543921E-01  0.11742806892E-02  0.10197093593E+01  0.10194216684E+01 0.  0.
     999903    2    3    3    0    0 -0.28367918947E-01 -0.96735374724E-01  0.84053728589E-01  0.13245993054E+00  0.17836265292E-01 0.  0.
         14    1    1    2    0    0  0.27219309908E-02  0.24038543921E-01 -0.11742806892E-02  0.24220640729E-01  0.00000000000E+00 0. -1.
     999901    1    3    3    0    0  0.25645987956E-01  0.72696830802E-01 -0.82879447900E-01  0.88724942874E+00  0.88000000000E+00 0. -1.
        -11    1    4    4    0    0 -0.10948259762E-01 -0.56951436404E-01  0.39063947905E-01  0.69925557897E-01  0.51100000000E-03 0. -1.
         11    1    4    4    0    0 -0.17419659186E-01 -0.39783938320E-01  0.44989780683E-01  0.62534372639E-01  0.51100000000E-03 0.  1.
</event>
<event>
 8    1  0.1123450E+005  0.1043930E+01  0.7957747E-01            NaN
         13   -1    0    0    0    0  0.00000000000E+00  0.00000000000E+00  0.74505805969E-08  0.10566000000E+00  0.10566000000E+00 0. -1.
     999900   -1    0    0    0    0 -0.00000000000E+00 -0.00000000000E+00 -0.74505805969E-08  0.93827000000E+00  0.93827000000E+00 0. -1.
     999902    2    1    2    0    0 -0.17583372552E-01  0.55997471730E-03  0.15676725817E-01  0.10203662929E+01  0.10200941737E+01 0.  0.
     999903    2    3    3    0    0  0.50620498494E-02  0.93729267945E-01 -0.86485833876E-01  0.12928239055E+00  0.20575155547E-01 0.  0.
         14    1    1    2    0    0  0.17583372552E-01 -0.55997471730E-03 -0.15676725817E-01  0.23563707143E-01  0.00000000000E+00 0. -1.
     999901    1    3    3    0    0 -0.22645422401E-01 -0.93169293227E-01  0.10216255969E+00  0.89108390231E+00  0.88000000000E+00 0.  1.
        -11    1    4    4    0    0 -0.21573105285E-03  0.80490957338E-01 -0.64835381697E-01  0.10335728612E+00  0.51100000000E-03 0. -1.
         11    1    4    4    0    0  0.52777809022E-02  0.13238310606E-01 -0.21650452179E-01  0.25925104426E-01  0.51100000000E-03 0.  1.
</event>
<event>
 8    1  0.1123450E+005  0.1043930E+01  0.7957747E-01            NaN
         13   -1    0    0    0    0  0.00000000000E+00  0.00000000000E+00  0.74505805969E-08  0.10566000000E+00  0.10566000000E+00 0. -1.
     999900   -1    0    0    0    0 -0.00000000000E+00 -0.00000000000E+00 -0.74505805969E-08  0.93827000000E+00  0.93827000000E+00 0.  1.
     999902    2    1    2    0    0  0.22958509797E-01 -0.60472622137E-02 -0.74296125408E-02  0.10190530690E+01  0.10187493783E+01 0.  0.
     999903    2    3    3    0    0  0.81746009026E-02 -0.68495157923E-01  0.10746654320E+00  0.12926689794E+00  0.20061461514E-01 0.  0.
         14    1    1    2    0    0 -0.22958509797E-01  0.60472622137E-02  0.74296125408E-02  0.24876930978E-01  0.00000000000E+00 0. -1.
     999901    1    3    3    0    0  0.14783908894E-01  0.62447895710E-01 -0.11489615574E+00  0.88978617108E+00  0.88000000000E+00 0.  1.
        -11    1    4    4    0    0 -0.38127294705E-02 -0.44949509187E-01  0.73340622746E-01  0.86105187695E-01  0.51100000000E-03 0. -1.
         11    1    4    4    0    0  0.11987330373E-01 -0.23545648736E-01  0.34125920452E-01  0.43161710248E-01  0.51100000000E-03 0.  1.
</event>
<event>
 8    1  0.1123450E+005  0.1043930E+01  0.7957747E-01            NaN
         13   -1    0    0    0    0  0.00000000000E+00  0.00000000000E+00  0.74505805969E-08  0.10566000000E+00  0.10566000000E+00 0. -1.
     999900   -1    0    0    0    0 -0.00000000000E+00 -0.00000000000E+00 -0.74505805969E-08  0.93827000000E+00  0.93827000000E+00 0. -1.
     999902    2    1    2    0    0  0.19295648007E-01 -0.12450277559E-01 -0.37521832181E-02  0.10206617744E+01  0.10203965148E+01 0.  0.
     999903    2    3    3    0    0 -0.40092077888E-01 -0.24268420544E-02 -0.12249774230E+00  0.13064611216E+00  0.21200129320E-01 0.  0.
         14    1    1    2    0    0 -0.19295648007E-01  0.12450277559E-01  0.37521832181E-02  0.23268225593E-01  0.00000000000E+00 0. -1.
     999901    1    3    3    0    0  0.59387725895E-01 -0.10023435505E-01  0.11874555908E+00  0.89001566225E+00  0.88000000000E+00 0.  1.
        -11    1    4    4    0    0 -0.12648706716E-01 -0.10355591268E-01 -0.54186011349E-01  0.56600468187E-01  0.51100000000E-03 0.  1.
         11    1    4    4    0    0 -0.27443371172E-01  0.79287492137E-02 -0.68311730946E-01  0.74045643972E-01  0.51100000000E-03 0. -1.
</event>
<event>
 8    1  0.1123450E+005  0.1043930E+01  0.7957747E-01            NaN
         13   -1    0    0    0    0  0.00000000000E+00  0.00000000000E+00  0.74505805969E-08  0.10566000000E+00  0.10566000000E+00 0. -1.
     999900   -1    0    0    0    0 -0.00000000000E+00 -0.00000000000E+00 -0.74505805969E-08  0.93827000000E+00  0.93827000000E+00 0.  1.
     999902    2    1    2    0    0 -0.21838604609E-01 -0.34864837628E-02  0.85112629319E-02  0.10202335484E+01  0.10199583185E+01 0.  0.
     999903    2    3    3    0    0  0.10834177056E+00 -0.26715862627E-01 -0.58962097748E-01  0.12779913150E+00  0.20110009411E-01 0.  0.
         14    1    1    2    0    0  0.21838604609E-01  0.34864837628E-02 -0.85112629319E-02  0.23696451570E-01  0.00000000000E+00 0. -1.
     999901    1    3    3    0    0 -0.13018037516E+00  0.23229378864E-01  0.67473360679E-01  0.89243441693E+00  0.88000000000E+00 0.  1.
        -11    1    4    4    0    0  0.82049026770E-01 -0.28015903695E-01 -0.40863999937E-01  0.95849158920E-01  0.51100000000E-03 0.  1.
         11    1    4    4    0    0  0.26292743785E-01  0.13000410686E-02 -0.18098097811E-01  0.31949972581E-01  0.51100000000E-03 0. -1.
</event>
<event>
 8    1  0.1123450E+005  0.1043930E+01  0.7957747E-01            NaN
         13   -1    0    0    0    0  0.00000000000E+00  0.00000000000E+00  0.74505805969E-08  0.10566000000E+00  0.10566000000E+00 0.  1.
     999900   -1    0    0    0    0 -0.00000000000E+00 -0.00000000000E+00 -0.74505805969E-08  0.93827000000E+00  0.93827000000E+00 0. -1.
     999902    2    1    2    0    0  0.22671440060E-01 -0.66178835788E-02  0.17390373057E-02  0.10202484707E+01  0.10199735914E+01 0.  0.
     999903    2    3    3    0    0 -0.47052249313E-01  0.99835933930E-01  0.63225218843E-01  0.12897165704E+00  0.21333826469E-01 0.  0.
         14    1    1    2    0    0 -0.22671440060E-01  0.66178835788E-02 -0.17390373057E-02  0.23681529262E-01  0.00000000000E+00 0. -1.
     999901    1    3    3    0    0  0.69723689373E-01 -0.10645381751E+00 -0.61486181537E-01  0.89127681370E+00  0.88000000000E+00 0. -1.
        -11    1    4    4    0    0 -0.15535567535E-01  0.49555097299E-01  0.38655843176E-01  0.64742542888E-01  0.51100000000E-03 0.  1.
         11    1    4    4    0    0 -0.31516681777E-01  0.50280836632E-01  0.24569375666E-01  0.64229114148E-01  0.51100000000E-03 0. -1.
</event>
<event>
 8    1  0.1123450E+005  0.1043930E+01  0.7957747E-01            NaN
         13   -1    0    0    0    0  0.00000000000E+00  0.00000000000E+00  0.74505805969E-08  0.10566000000E+00  0.10566000000E+00 0.  1.
     999900   -1    0    0    0    0 -0.00000000000E+00 -0.00000000000E+00 -0.74505805969E-08  0.93827000000E+00  0.93827000000E+00 0.  1.
     999902    2    1    2    0    0  0.17770375438E-01  0.59824060766E-02  0.64867823930E-02  0.10240892900E+01  0.10238970750E+01 0.  0.
     999903    2    3    3    0    0 -0.43853065558E-01  0.12274482068E+00  0.24404746988E-01  0.13406009760E+00  0.19675765109E-01 0.  0.
         14    1    1    2    0    0 -0.17770375438E-01 -0.59824060766E-02 -0.64867823930E-02  0.19840709955E-01  0.00000000000E+00 0. -1.
     999901    1    3    3    0    0  0.61623440996E-01 -0.11676241460E+00 -0.17917964595E-01  0.89002919244E+00  0.88000000000E+00 0.  1.
        -11    1    4    4    0    0 -0.12055908423E-01  0.51565367455E-01  0.17586093771E-01  0.55802005912E-01  0.51100000000E-03 0.  1.
         11    1    4    4    0    0 -0.31797157135E-01  0.71179453220E-01  0.68186532174E-02  0.78258091692E-01  0.51100000000E-03 0. -1.
</event>
<event>
 8    1  0.1123450E+005  0.1043930E+01  0.7957747E-01            NaN
         13   -1    0    0    0    0  0.00000000000E+00  0.00000000000E+00  0.74505805969E-08  0.10566000000E+00  0.10566000000E+00 0.  1.
     999900   -1    0    0    0    0 -0.00000000000E+00 -0.00000000000E+00 -0.74505805969E-08  0.93827000000E+00  0.93827000000E+00 0. -1.
     999902    2    1    2    0    0  0.22535923723E-01 -0.73686415040E-02 -0.57244093029E-02  0.10195387393E+01  0.10192469315E+01 0.  0.
     999903    2    3    3    0    0 -0.58094870484E-01 -0.91837267629E-01 -0.67834065745E-01  0.12965454281E+00  0.19993556305E-01 0.  0.
         14    1    1    2    0    0 -0.22535923723E-01  0.73686415040E-02  0.57244093029E-02  0.24391260680E-01  0.00000000000E+00 0. -1.
     999901    1    3    3    0    0  0.80630794208E-01  0.84468626125E-01  0.62109656442E-01  0.88988419651E+00  0.88000000000E+00 0.  1.
        -11    1    4    4    0    0 -0.11562968217E-01 -0.31599740706E-01 -0.14135010629E-01  0.36500760172E-01  0.51100000000E-03 0.  1.
         11    1    4    4    0    0 -0.46531902268E-01 -0.60237526923E-01 -0.53699055116E-01  0.93153782638E-01  0.51100000000E-03 0. -1.
</event>
<event>
 8    1  0.1123450E+005  0.1043930E+01  0.7957747E-01            NaN
         13   -1    0    0    0    0  0.00000000000E+00  0.00000000000E+00  0.74505805969E-08  0.10566000000E+00  0.10566000000E+00 0.  1.
     999900   -1    0    0    0    0 -0.00000000000E+00 -0.00000000000E+00 -0.74505805969E-08  0.93827000000E+00  0.93827000000E+00 0.  1.
     999902    2    1    2    0    0 -0.10188809539E-01  0.21228859252E-01  0.25183499736E-02  0.10202483955E+01  0.10199735144E+01 0.  0.
     999903    2    3    3    0    0 -0.26899504023E-01  0.77176541704E-01 -0.10184499518E+00  0.13215994366E+00  0.20348114407E-01 0.  0.
         14    1    1    2    0    0  0.10188809539E-01 -0.21228859252E-01 -0.25183499736E-02  0.23681604497E-01  0.00000000000E+00 0.  1.
     999901    1    3    3    0    0  0.16710694484E-01 -0.55947682453E-01  0.10436334515E+00  0.88808845184E+00  0.88000000000E+00 0. -1.
        -11    1    4    4    0    0 -0.19231469833E-01  0.26765984886E-01 -0.34896918003E-01  0.48003368485E-01  0.51100000000E-03 0. -1.
         11    1    4    4    0    0 -0.76680341907E-02  0.50410556819E-01 -0.66948077175E-01  0.84156575177E-01  0.51100000000E-03 0.  1.
</event>
<event>
 8    1  0.1123450E+005  0.1043930E+01  0.7957747E-01            NaN
         13   -1    0    0    0    0  0.00000000000E+00  0.00000000000E+00  0.74505805969E-08  0.10566000000E+00  0.10566000000E+00 0.  1.
     999900   -1    0    0    0    0 -0.00000000000E+00 -0.00000000000E+00 -0.74505805969E-08  0.93827000000E+00  0.93827000000E+00 0. -1.
     999902    2    1    2    0    0 -0.11593105634E-01 -0.90952570015E-02 -0.18941800031E-01  0.10199317587E+01  0.10196493891E+01 0.  0.
     999903    2    3    3    0    0 -0.11283221498E-01 -0.70580357588E-01  0.10556340496E+00  0.12904340445E+00  0.19991743362E-01 0.  0.
         14    1    1    2    0    0  0.11593105634E-01  0.90952570015E-02  0.18941800031E-01  0.23998241323E-01  0.00000000000E+00 0.  1.
     999901    1    3    3    0    0 -0.30988413535E-03  0.61485100586E-01 -0.12450520499E+00  0.89088835422E+00  0.88000000000E+00 0. -1.
        -11    1    4    4    0    0 -0.15822441400E-01 -0.57202738379E-01  0.77458587641E-01  0.97583793994E-01  0.51100000000E-03 0.  1.
         11    1    4    4    0    0  0.45392199015E-02 -0.13377619209E-01  0.28104817315E-01  0.31459610460E-01  0.51100000000E-03 0. -1.
</event>
<event>
 8    1  0.1123450E+005  0.1043930E+01  0.7957747E-01            NaN
         13   -1    0    0    0    0  0.00000000000E+00  0.00000000000E+00  0.74505805969E-08  0.10566000000E+00  0.10566000000E+00 0.  1.
     999900   -1    0    0    0    0 -0.00000000000E+00 -0.00000000000E+00 -0.74505805969E-08  0.93827000000E+00  0.93827000000E+00 0.  1.
     999902    2    1    2    0    0 -0.68452965069E-02  0.13065824271E-01  0.18390576611E-01  0.10203548615E+01  0.10200824752E+01 0.  0.
     999903    2    3    3    0    0 -0.68923978844E-01  0.16578974041E-01 -0.10639640406E+00  0.12937905060E+00  0.19833474161E-01 0.  0.
         14    1    1    2    0    0  0.68452965069E-02 -0.13065824271E-01 -0.18390576611E-01  0.23575138520E-01  0.00000000000E+00 0. -1.
     999901    1    3    3    0    0  0.62078682337E-01 -0.35131497702E-02  0.12478698067E+00  0.89097581088E+00  0.88000000000E+00 0. -1.
        -11    1    4    4    0    0 -0.31186653602E-01 -0.17071610411E-02 -0.38546733682E-01  0.49614852214E-01  0.51100000000E-03 0. -1.
         11    1    4    4    0    0 -0.37737325242E-01  0.18286135083E-01 -0.67849670382E-01  0.79764198389E-01  0.51100000000E-03 0.  1.
</event>
<event>
 8    1  0.1123450E+005  0.1043930E+01  0.7957747E-01            NaN
         13   -1    0    0    0    0  0.00000000000E+00  0.00000000000E+00  0.74505805969E-08  0.10566000000E+00  0.10566000000E+00 0. -1.
     999900   -1    0    0    0    0 -0.00000000000E+00 -0.00000000000E+00 -0.74505805969E-08  0.93827000000E+00  0.93827000000E+00 0. -1.
     999902    2    1    2    0    0 -0.14365101662E-02 -0.75307145651E-02 -0.22902573895E-01  0.10197783310E+01  0.10194922959E+01 0.  0.
     999903    2    3    3    0    0  0.11651502741E+00 -0.51599339807E-01 -0.21664494648E-01  0.13081480996E+00  0.20122641343E-01 0.  0.
         14    1    1    2    0    0  0.14365101662E-02  0.75307145651E-02  0.22902573895E-01  0.24151668976E-01  0.00000000000E+00 0. -1.
     999901    1    3    3    0    0 -0.11795153758E+00  0.44068625242E-01 -0.12380792469E-02  0.88896352107E+00  0.88000000000E+00 0.  1.
        -11    1    4    4    0    0  0.33183567196E-01 -0.79014265020E-02 -0.12258415685E-01  0.36250676528E-01  0.51100000000E-03 0.  1.
         11    1    4    4    0    0  0.83331460214E-01 -0.43697913305E-01 -0.94060789637E-02  0.94564133429E-01  0.51100000000E-03 0. -1.
</event>
<event>
 8    1  0.1123450E+005  0.1043930E+01  0.7957747E-01            NaN
         13   -1    0    0    0    0  0.00000000000E+00  0.00000000000E+00  0.74505805969E-08  0.10566000000E+00  0.10566000000E+00 0. -1.
     999900   -1    0    0    0    0 -0.00000000000E+00 -0.00000000000E+00 -0.74505805969E-08  0.93827000000E+00  0.93827000000E+00 0. -1.
     999902    2    1    2    0    0  0.80875244335E-02 -0.14023798086E-01 -0.15716316237E-01  0.10213672528E+01  0.10211180086E+01 0.  0.
     999903    2    3    3    0    0  0.87565761582E-01 -0.60284483784E-01 -0.79971410064E-01  0.13424518777E+00  0.18010064539E-01 0.  0.
         14    1    1    2    0    0 -0.80875244335E-02  0.14023798086E-01  0.15716316237E-01  0.22562747179E-01  0.00000000000E+00 0.  1.
     999901    1    3    3    0    0 -0.79478237148E-01  0.46260685698E-01  0.64255093827E-01  0.88712206505E+00  0.88000000000E+00 0. -1.
        -11    1    4    4    0    0  0.23499586536E-01 -0.10849781538E-01 -0.27666826703E-01  0.37890140507E-01  0.51100000000E-03 0.  1.
         11    1    4    4    0    0  0.64066175046E-01 -0.49434702246E-01 -0.52304583360E-01  0.96355047261E-01  0.51100000000E-03 0. -1.
</event>
<event>
 8    1  0.1123450E+005  0.1043930E+01  0.7957747E-01            NaN
         13   -1    0    0    0    0  0.00000000000E+00  0.00000000000E+00  0.74505805969E-08  0.10566000000E+00  0.10566000000E+00 0. -1.
     999900   -1    0    0    0    0 -0.00000000000E+00 -0.00000000000E+00 -0.74505805969E-08  0.93827000000E+00  0.93827000000E+00 0. -1.
     999902    2    1    2    0    0  0.14626249618E-01 -0.14195896852E-02 -0.18976778642E-01  0.10199287388E+01  0.10196462973E+01 0.  0.
     999903    2    3    3    0    0 -0.78267070771E-01  0.20271984206E-01  0.96091670409E-01  0.12732555633E+00  0.21011912368E-01 0.  0.
         14    1    1    2    0    0 -0.14626249618E-01  0.14195896852E-02  0.18976778642E-01  0.24001261225E-01  0.00000000000E+00 0. -1.
     999901    1    3    3    0    0  0.92893320388E-01 -0.21691573891E-01 -0.11506844905E+00  0.89260318245E+00  0.88000000000E+00 0. -1.
        -11    1    4    4    0    0 -0.26367152886E-01  0.14109481699E-01  0.46416492468E-01  0.55218258929E-01  0.51100000000E-03 0. -1.
         11    1    4    4    0    0 -0.51899917885E-01  0.61625025069E-02  0.49675177941E-01  0.72107297398E-01  0.51100000000E-03 0.  1.
</event>
<event>
 8    1  0.1123450E+005  0.1043930E+01  0.7957747E-01            NaN
         13   -1    0    0    0    0  0.00000000000E+00  0.00000000000E+00  0.74505805969E-08  0.10566000000E+00  0.10566000000E+00 0. -1.
     999900   -1    0    0    0    0 -0.00000000000E+00 -0.00000000000E+00 -0.74505805969E-08  0.93827000000E+00  0.93827000000E+00 0.  1.
     999902    2    1    2    0    0 -0.84817436852E-02 -0.21071670856E-01  0.23902566314E-02  0.10210899340E+01  0.10208344551E+01 0.  0.
     999903    2    3    3    0    0 -0.54149824885E-01  0.36864638849E-01  0.11203770217E+00  0.13122210564E+00  0.19380123037E-01 0.  0.
         14    1    1    2    0    0  0.84817436852E-02  0.21071670856E-01 -0.23902566314E-02  0.22840066011E-01  0.00000000000E+00 0.  1.
     999901    1    3    3    0    0  0.45668081200E-01 -0.57936309705E-01 -0.10964744553E+00  0.88986782835E+00  0.88000000000E+00 0.  1.
        -11    1    4    4    0    0 -0.12923067570E-01  0.22241708405E-03  0.25636221135E-01  0.28714666981E-01  0.51100000000E-03 0.  1.
         11    1    4    4    0    0 -0.41226757314E-01  0.36642221765E-01  0.86401481031E-01  0.10250743866E+00  0.51100000000E-03 0. -1.
</event>
<event>
 8    1  0.1123450E+005  0.1043930E+01  0.7957747E-01            NaN
         13   -1    0    0    0    0  0.00000000000E+00  0.00000000000E+00  0.74505805969E-08  0.10566000000E+00  0.10566000000E+00 0.  1.
     999900   -1    0    0    0    0 -0.00000000000E+00 -0.00000000000E+00 -0.74505805969E-08  0.93827000000E+00  0.93827000000E+00 0.  1.
     999902    2    1    2    0    0  0.12408572089E-01  0.67117898036E-02 -0.27107966167E-01  0.10133708342E+01  0.10129099590E+01 0.  0.
     999903    2    3    3    0    0  0.70449128298E-01 -0.38085183446E-01 -0.96735239017E-01  0.12758111193E+00  0.22487169201E-01 0.  0.
         14    1    1    2    0    0 -0.12408572089E-01 -0.67117898036E-02  0.27107966167E-01  0.30559165783E-01  0.00000000000E+00 0.  1.
     999901    1    3    3    0    0 -0.58040556210E-01  0.44796973250E-01  0.69627272850E-01  0.88578972228E+00  0.88000000000E+00 0. -1.
        -11    1    4    4    0    0  0.31650132029E-01 -0.29737748590E-01 -0.52961650228E-01  0.68492788413E-01  0.51100000000E-03 0. -1.
         11    1    4    4    0    0  0.38798996269E-01 -0.83474348564E-02 -0.43773588788E-01  0.59088323521E-01  0.51100000000E-03 0.  1.
</event>
<event>
 8    1  0.1123450E+005  0.1043930E+01  0.7957747E-01            NaN
         13   -1    0    0    0    0  0.00000000000E+00  0.00000000000E+00  0.74505805969E-08  0.10566000000E+00  0.10566000000E+00 0. -1.
     999900   -1    0    0    0    0 -0.00000000000E+00 -0.00000000000E+00 -0.74505805969E-08  0.93827000000E+00  0.93827000000E+00 0.  1.
     999902    2    1    2    0    0  0.33162194834E-02  0.64472946189E-02  0.21780908603E-01  0.10209741097E+01  0.10207160035E+01 0.  0.
     999903    2    3    3    0    0  0.52606676421E-01  0.54544708460E-01  0.10865483062E+00  0.13401864933E+00  0.20311044434E-01 0.  0.
         14    1    1    2    0    0 -0.33162194834E-02 -0.64472946189E-02 -0.21780908603E-01  0.22955890293E-01  0.00000000000E+00 0.  1.
     999901    1    3    3    0    0 -0.49290456937E-01 -0.48097413841E-01 -0.86873922019E-01  0.88695546038E+00  0.88000000000E+00 0.  1.
        -11    1    4    4    0    0  0.28749506721E-02  0.68149191635E-02  0.22449007897E-01  0.23641648443E-01  0.51100000000E-03 0.  1.
         11    1    4    4    0    0  0.49731725749E-01  0.47729789296E-01  0.86205822726E-01  0.11037700089E+00  0.51100000000E-03 0. -1.
</event>
<event>
 8    1  0.1123450E+005  0.1043930E+01  0.7957747E-01            NaN
         13   -1    0    0    0    0  0.00000000000E+00  0.00000000000E+00  0.74505805969E-08  0.10566000000E+00  0.10566000000E+00 0.  1.
     999900   -1    0    0    0    0 -0.00000000000E+00 -0.00000000000E+00 -0.74505805969E-08  0.93827000000E+00  0.93827000000E+00 0. -1.
     999902    2    1    2    0    0 -0.19891896943E-02 -0.72461656330E-02  0.22861175244E-01  0.10198655631E+01  0.10195816150E+01 0.  0.
     999903    2    3    3    0    0 -0.73226556921E-01  0.29696105484E-01 -0.98626102721E-01  0.12790219352E+00  0.19694558875E-01 0.  0.
         14    1    1    2    0    0  0.19891896943E-02  0.72461656330E-02 -0.22861175244E-01  0.24064436947E-01  0.00000000000E+00 0. -1.
     999901    1    3    3    0    0  0.71237367227E-01 -0.36942271117E-01  0.12148727797E+00  0.89196336953E+00  0.88000000000E+00 0.  1.
        -11    1    4    4    0    0 -0.40418166767E-01  0.22677814620E-01 -0.69112399436E-01  0.83214760455E-01  0.51100000000E-03 0.  1.
         11    1    4    4    0    0 -0.32808390154E-01  0.70182908645E-02 -0.29513703285E-01  0.44687433063E-01  0.51100000000E-03 0. -1.
</event>
<event>
 8    1  0.1123450E+005  0.1043930E+01  0.7957747E-01            NaN
         13   -1    0    0    0    0  0.00000000000E+00  0.00000000000E+00  0.74505805969E-08  0.10566000000E+00  0.10566000000E+00 0.  1.
     999900   -1    0    0    0    0 -0.00000000000E+00 -0.00000000000E+00 -0.74505805969E-08  0.93827000000E+00  0.93827000000E+00 0. -1.
     999902    2    1    2    0    0  0.17837746513E-01  0.91350776437E-03 -0.15085573241E-01  0.10205506455E+01  0.10202828166E+01 0.  0.
     999903    2    3    3    0    0  0.11727631917E+00  0.56734582678E-01 -0.18034430665E-01  0.13318785729E+00  0.21005159613E-01 0.  0.
         14    1    1    2    0    0 -0.17837746513E-01 -0.91350776437E-03  0.15085573241E-01  0.23379354506E-01  0.00000000000E+00 0.  1.
     999901    1    3    3    0    0 -0.99438572653E-01 -0.55821074914E-01  0.29488574238E-02  0.88736278821E+00  0.88000000000E+00 0. -1.
        -11    1    4    4    0    0  0.15575543592E-01  0.14736950189E-01 -0.71942497310E-02  0.22622855904E-01  0.51100000000E-03 0. -1.
         11    1    4    4    0    0  0.10170077557E+00  0.41997632489E-01 -0.10840180934E-01  0.11056500138E+00  0.51100000000E-03 0.  1.
</event>
<event>
 8    1  0.1123450E+005  0.1043930E+01  0.7957747E-01            NaN
         13   -1    0    0    0    0  0.00000000000E+00  0.00000000000E+00  0.74505805969E-08  0.10566000000E+00  0.10566000000E+00 0. -1.
     999900   -1    0    0    0    0 -0.00000000000E+00 -0.00000000000E+00 -0.74505805969E-08  0.93827000000E+00  0.93827000000E+00 0. -1.
     999902    2    1    2    0    0 -0.19000744066E-01  0.86310684379E-02  0.12233835681E-01  0.10197392920E+01  0.10194523203E+01 0.  0.
     999903    2    3    3    0    0  0.99884575935E-01  0.78871090997E-01 -0.24124394791E-02  0.12885103109E+00  0.19979760837E-01 0.  0.
         14    1    1    2    0    0  0.19000744066E-01 -0.86310684379E-02 -0.12233835681E-01  0.24190707987E-01  0.00000000000E+00 0.  1.
     999901    1    3    3    0    0 -0.11888532000E+00 -0.70240022559E-01  0.14646275160E-01  0.89088826093E+00  0.88000000000E+00 0. -1.
        -11    1    4    4    0    0  0.90917727176E-01  0.63076168547E-01 -0.23148899460E-02  0.11068087454E+00  0.51100000000E-03 0.  1.
         11    1    4    4    0    0  0.89668487592E-02  0.15794922450E-01 -0.97549533101E-04  0.18170156543E-01  0.51100000000E-03 0. -1.
</event>
<event>
 8    1  0.1123450E+005  0.1043930E+01  0.7957747E-01            NaN
         13   -1    0    0    0    0  0.00000000000E+00  0.00000000000E+00  0.74505805969E-08  0.10566000000E+00  0.10566000000E+00 0.  1.
     999900   -1    0    0    0    0 -0.00000000000E+00 -0.00000000000E+00 -0.74505805969E-08  0.93827000000E+00  0.93827000000E+00 0.  1.
     999902    2    1    2    0    0 -0.12985045379E-01 -0.19922210772E-01 -0.32525530314E-02  0.10199282295E+01  0.10196457759E+01 0.  0.
     999903    2    3    3    0    0 -0.71626520886E-01 -0.70537160786E-01  0.83457216226E-01  0.13228005602E+00  0.20665351049E-01 0.  0.
         14    1    1    2    0    0  0.12985045379E-01  0.19922210772E-01  0.32525530314E-02  0.24001770493E-01  0.00000000000E+00 0.  1.
     999901    1    3    3    0    0  0.58641475507E-01  0.50614950014E-01 -0.86709769257E-01  0.88764817349E+00  0.88000000000E+00 0.  1.
        -11    1    4    4    0    0 -0.43433242340E-01 -0.43530261162E-01  0.63630479167E-01  0.88489712267E-01  0.51100000000E-03 0.  1.
         11    1    4    4    0    0 -0.28193278546E-01 -0.27006899624E-01  0.19826737059E-01  0.43790343751E-01  0.51100000000E-03 0. -1.
</event>
<event>
 8    1  0.1123450E+005  0.1043930E+01  0.7957747E-01            NaN
         13   -1    0    0    0    0  0.00000000000E+00  0.00000000000E+00  0.74505805969E-08  0.10566000000E+00  0.10566000000E+00 0.  1.
     999900   -1    0    0    0    0 -0.00000000000E+00 -0.00000000000E+00 -0.74505805969E-08  0.93827000000E+00  0.93827000000E+00 0. -1.
     999902    2    1    2    0    0 -0.41053733781E-03  0.27933314847E-02  0.22653014961E-01  0.10211017209E+01  0.10208465085E+01 0.  0.
     999903    2    3    3    0    0  0.92886112549E-01  0.90457639958E-01 -0.75146154801E-02  0.13132681574E+00  0.19489703804E-01 0.  0.
         14    1    1    2    0    0  0.41053733781E-03 -0.27933314847E-02 -0.22653014961E-01  0.22828279141E-01  0.00000000000E+00 0. -1.
     999901    1    3    3    0    0 -0.93296649886E-01 -0.87664308474E-01  0.30167630442E-01  0.88977490512E+00  0.88000000000E+00 0. -1.
        -11    1    4    4    0    0  0.21683523928E-01  0.27529996113E-01 -0.93845740745E-02  0.36282326930E-01  0.51100000000E-03 0. -1.
         11    1    4    4    0    0  0.71202588621E-01  0.62927643845E-01  0.18699585944E-02  0.95044488806E-01  0.51100000000E-03 0.  1.
</event>
<event>
 8    1  0.1123450E+005  0.1043930E+01  0.7957747E-01            NaN
         13   -1    0    0    0    0  0.00000000000E+00  0.00000000000E+00  0.74505805969E-08  0.10566000000E+00  0.10566000000E+00 0. -1.
     999900   -1    0    0    0    0 -0.00000000000E+00 -0.00000000000E+00 -0.74505805969E-08  0.93827000000E+00  0.93827000000E+00 0.  1.
     999902    2    1    2    0    0  0.10229946708E-01 -0.40183118053E-02 -0.21661351785E-01  0.10196398209E+01  0.10193504557E+01 0.  0.
     999903    2    3    3    0    0  0.11987476871E+00  0.48852334579E-01  0.14372342511E-02  0.13096055541E+00  0.19801279348E-01 0.  0.
         14    1    1    2    0    0 -0.10229946708E-01  0.40183118053E-02  0.21661351785E-01  0.24290179096E-01  0.00000000000E+00 0. -1.
     999901    1    3    3    0    0 -0.10964482200E+00 -0.52870646384E-01 -0.23098586036E-01  0.88867926549E+00  0.88000000000E+00 0.  1.
        -11    1    4    4    0    0  0.58274465658E-01  0.31561176368E-01 -0.60062208626E-02  0.66545901538E-01  0.51100000000E-03 0. -1.
         11    1    4    4    0    0  0.61600303052E-01  0.17291158211E-01  0.74434551137E-02  0.64414653872E-01  0.51100000000E-03 0.  1.
</event>
<event>
 8    1  0.1123450E+005  0.1043930E+01  0.7957747E-01            NaN
         13   -1    0    0    0    0  0.00000000000E+00  0.00000000000E+00  0.74505805969E-08  0.10566000000E+00  0.10566000000E+00 0. -1.
     999900   -1    0    0    0    0 -0.00000000000E+00 -0.00000000000E+00 -0.74505805969E-08  0.93827000000E+00  0.93827000000E+00 0.  1.
     999902    2    1    2    0    0  0.18649899813E-01  0.12666280863E-01  0.66240087477E-02  0.10204325336E+01  0.10201619601E+01 0.  0.
     999903    2    3    3    0    0  0.64108022451E-01 -0.91516560684E-01 -0.66158781024E-01  0.13014165988E+00  0.86456873053E-02 0.  0.
         14    1    1    2    0    0 -0.18649899813E-01 -0.12666280863E-01 -0.66240087477E-02  0.23497466370E-01  0.00000000000E+00 0. -1.
     999901    1    3    3    0    0 -0.45458122638E-01  0.10418284155E+00  0.72782789772E-01  0.89029087374E+00  0.88000000000E+00 0. -1.
        -11    1    4    4    0    0  0.29740433185E-01 -0.43381153476E-01 -0.36089889845E-01  0.63789960911E-01  0.51100000000E-03 0. -1.
         11    1    4    4    0    0  0.34367589266E-01 -0.48135407208E-01 -0.30068891179E-01  0.66351698974E-01  0.51100000000E-03 0.  1.
</event>
<event>
 8    1  0.1123450E+005  0.1043930E+01  0.7957747E-01            NaN
         13   -1    0    0    0    0  0.00000000000E+00  0.00000000000E+00  0.74505805969E-08  0.10566000000E+00  0.10566000000E+00 0.  1.
     999900   -1    0    0    0    0 -0.00000000000E+00 -0.00000000000E+00 -0.74505805969E-08  0.93827000000E+00  0.93827000000E+00 0. -1.
     999902    2    1    2    0    0  0.16093486408E-01 -0.74027740300E-02 -0.15043606086E-01  0.10206897020E+01  0.10204250861E+01 0.  0.
     999903    2    3    3    0    0 -0.11149944416E+00  0.42784374758E-02 -0.64482768417E-01  0.13003789717E+00  0.17360766223E-01 0.  0.
         14    1    1    2    0    0 -0.16093486408E-01  0.74027740300E-02  0.15043606086E-01  0.23240298022E-01  0.00000000000E+00 0.  1.
     999901    1    3    3    0    0  0.12759293056E+00 -0.11681211506E-01  0.49439162331E-01  0.89065180481E+00  0.88000000000E+00 0.  1.
        -11    1    4    4    0    0 -0.95716127344E-02  0.12052665029E-02 -0.11824128963E-01  0.15268909077E-01  0.51100000000E-03 0. -1.
         11    1    4    4    0    0 -0.10192783142E+00  0.30731709728E-02 -0.52658639454E-01  0.11476898809E+00  0.51100000000E-03 0.  1.
</event>
<event>
 8    1  0.1123450E+005  0.1043930E+01  0.7957747E-01            NaN
         13   -1    0    0    0    0  0.00000000000E+00  0.00000000000E+00  0.74505805969E-08  0.10566000000E+00  0.10566000000E+00 0.  1.
     999900   -1    0    0    0    0 -0.00000000000E+00 -0.00000000000E+00 -0.74505805969E-08  0.93827000000E+00  0.93827000000E+00 0. -1.
     999902    2    1    2    0    0  0.12119053737E-01 -0.85296124374E-02 -0.13071754660E-01  0.10241690152E+01  0.10239783568E+01 0.  0.
     999903    2    3    3    0    0  0.53784363511E-01 -0.11905738764E+00 -0.32306350940E-01  0.13606859470E+00  0.20088375800E-01 0.  0.
         14    1    1    2    0    0 -0.12119053737E-01  0.85296124374E-02  0.13071754660E-01  0.19760984836E-01  0.00000000000E+00 0.  1.
     999901    1    3    3    0    0 -0.41665309774E-01  0.11052777521E+00  0.19234596280E-01  0.88810042046E+00  0.88000000000E+00 0.  1.
        -11    1    4    4    0    0  0.12515409404E-01 -0.45920370561E-01 -0.17957854197E-01  0.50872994342E-01  0.51100000000E-03 0.  1.
         11    1    4    4    0    0  0.41268954107E-01 -0.73137017083E-01 -0.14348496743E-01  0.85195600360E-01  0.51100000000E-03 0. -1.
</event>
<event>
 8    1  0.1123450E+005  0.1043930E+01  0.7957747E-01            NaN
         13   -1    0    0    0    0  0.00000000000E+00  0.00000000000E+00  0.74505805969E-08  0.10566000000E+00  0.10566000000E+00 0. -1.
     999900   -1    0    0    0    0 -0.00000000000E+00 -0.00000000000E+00 -0.74505805969E-08  0.93827000000E+00  0.93827000000E+00 0.  1.
     999902    2    1    2    0    0 -0.95155164677E-02  0.21476673823E-01 -0.31447363824E-02  0.10202301701E+01  0.10199548607E+01 0.  0.
     999903    2    3    3    0    0  0.44017976423E-01  0.10409995668E+00 -0.66237912562E-01  0.13249530502E+00  0.19828302079E-01 0.  0.
         14    1    1    2    0    0  0.95155164677E-02 -0.21476673823E-01  0.31447363824E-02  0.23699829937E-01  0.00000000000E+00 0. -1.
     999901    1    3    3    0    0 -0.53533492891E-01 -0.82623282854E-01  0.63093176180E-01  0.88773486504E+00  0.88000000000E+00 0. -1.
        -11    1    4    4    0    0  0.38717115392E-01  0.87024248787E-01 -0.63309251374E-01  0.11437026419E+00  0.51100000000E-03 0.  1.
         11    1    4    4    0    0  0.53008610313E-02  0.17075707890E-01 -0.29286611883E-02  0.18125040827E-01  0.51100000000E-03 0. -1.
</event>
<event>
 8    1  0.1212019E+005  0.1043930E+01  0.7957747E-01            NaN
         13   -1    0    0    0    0  0.00000000000E+00  0.00000000000E+00  0.74505805969E-08  0.10566000000E+00  0.10566000000E+00 0.  1.
     999900   -1    0    0    0    0 -0.00000000000E+00 -0.00000000000E+00 -0.74505805969E-08  0.93827000000E+00  0.93827000000E+00 0.  1.
     999902    2    1    2    0    0 -0.45369530648E-02 -0.14618076178E-01  0.18016653644E-01  0.10202895283E+01  0.10200156124E+01 0.  0.
     999903    2    3    3    0    0 -0.22218174784E-01  0.37871489102E-02  0.12944387212E+00  0.13289592738E+00  0.19940453796E-01 0.  0.
         14    1    1    2    0    0  0.45369530648E-02  0.14618076178E-01 -0.18016653644E-01  0.23640471712E-01  0.00000000000E+00 0. -1.
     999901    1    3    3    0    0  0.17681221720E-01 -0.18405225088E-01 -0.11142721848E+00  0.88739360091E+00  0.88000000000E+00 0.  1.
        -11    1    4    4    0    0 -0.22846335623E-01  0.46622588496E-02  0.77380379297E-01  0.80818784513E-01  0.51100000000E-03 0. -1.
         11    1    4    4    0    0  0.62816083878E-03 -0.87510993937E-03  0.52063492823E-01  0.52077142869E-01  0.51100000000E-03 0.  1.
</event>
<event>
 8    1  0.1123450E+005  0.1043930E+01  0.7957747E-01            NaN
         13   -1    0    0    0    0  0.00000000000E+00  0.00000000000E+00  0.74505805969E-08  0.10566000000E+00  0.10566000000E+00 0. -1.
     999900   -1    0    0    0    0 -0.00000000000E+00 -0.00000000000E+00 -0.74505805969E-08  0.93827000000E+00  0.93827000000E+00 0.  1.
     999902    2    1    2    0    0 -0.21860315759E-01  0.13582103724E-02  0.85463304547E-02  0.10204191960E+01  0.10201483116E+01 0.  0.
     999903    2    3    3    0    0 -0.12665368219E+00 -0.36593561562E-01 -0.12399995156E-01  0.13314204922E+00  0.13885295465E-01 0.  0.
         14    1    1    2    0    0  0.21860315759E-01 -0.13582103724E-02 -0.85463304547E-02  0.23510804000E-01  0.00000000000E+00 0. -1.
     999901    1    3    3    0    0  0.10479336643E+00  0.37951771935E-01  0.20946325610E-01  0.88727714678E+00  0.88000000000E+00 0. -1.
        -11    1    4    4    0    0 -0.92550010346E-01 -0.20938800447E-01 -0.11679833868E-01  0.95606576235E-01  0.51100000000E-03 0. -1.
         11    1    4    4    0    0 -0.34103671845E-01 -0.15654761115E-01 -0.72016128775E-03  0.37535472985E-01  0.51100000000E-03 0.  1.
</event>
<event>
 8    1  0.1123450E+005  0.1043930E+01  0.7957747E-01            NaN
         13   -1    0    0    0    0  0.00000000000E+00  0.00000000000E+00  0.74505805969E-08  0.10566000000E+00  0.10566000000E+00 0. -1.
     999900   -1    0    0    0    0 -0.00000000000E+00 -0.00000000000E+00 -0.74505805969E-08  0.93827000000E+00  0.93827000000E+00 0. -1.
     999902    2    1    2    0    0 -0.61890089270E-03 -0.14451449988E-01  0.19498606414E-01  0.10196519627E+01  0.10193628902E+01 0.  0.
     999903    2    3    3    0    0 -0.74617123809E-02 -0.11492592857E+00  0.62911115501E-01  0.13284499896E+00  0.20647980197E-01 0.  0.
         14    1    1    2    0    0  0.61890089270E-03  0.14451449988E-01 -0.19498606414E-01  0.24278037342E-01  0.00000000000E+00 0.  1.
     999901    1    3    3    0    0  0.68428114882E-02  0.10047447858E+00 -0.43412509087E-01  0.88680696370E+00  0.88000000000E+00 0. -1.
        -11    1    4    4    0    0 -0.84454137643E-02 -0.46291102874E-01  0.35430623934E-01  0.58904850839E-01  0.51100000000E-03 0.  1.
         11    1    4    4    0    0  0.98370138341E-03 -0.68634825696E-01  0.27480491567E-01  0.73940148123E-01  0.51100000000E-03 0. -1.
</event>
<event>
 8    1  0.1123450E+005  0.1043930E+01  0.7957747E-01            NaN
         13   -1    0    0    0    0  0.00000000000E+00  0.00000000000E+00  0.74505805969E-08  0.10566000000E+00  0.10566000000E+00 0.  1.
     999900   -1    0    0    0    0 -0.00000000000E+00 -0.00000000000E+00 -0.74505805969E-08  0.93827000000E+00  0.93827000000E+00 0. -1.
     999902    2    1    2    0    0 -0.25433918686E-01 -0.75250609349E-02 -0.19413962515E-02  0.10173352678E+01  0.10169875945E+01 0.  0.
     999903    2    3    3    0    0 -0.71273816270E-01 -0.10019531149E+00  0.38448082130E-01  0.13036267435E+00  0.19927732291E-01 0.  0.
         14    1    1    2    0    0  0.25433918686E-01  0.75250609349E-02  0.19413962515E-02  0.26594732208E-01  0.00000000000E+00 0.  1.
     999901    1    3    3    0    0  0.45839897584E-01  0.92670250556E-01 -0.40389478382E-01  0.88697259344E+00  0.88000000000E+00 0. -1.
        -11    1    4    4    0    0 -0.25423899685E-01 -0.51633703705E-01  0.13943874377E-01  0.59220830686E-01  0.51100000000E-03 0. -1.
         11    1    4    4    0    0 -0.45849916585E-01 -0.48561607786E-01  0.24504207753E-01  0.71141843666E-01  0.51100000000E-03 0.  1.
</event>
<event>
 8    1  0.1123450E+005  0.1043930E+01  0.7957747E-01            NaN
         13   -1    0    0    0    0  0.00000000000E+00  0.00000000000E+00  0.74505805969E-08  0.10566000000E+00  0.10566000000E+00 0.  1.
     999900   -1    0    0    0    0 -0.00000000000E+00 -0.00000000000E+00 -0.74505805969E-08  0.93827000000E+00  0.93827000000E+00 0. -1.
     999902    2    1    2    0    0  0.95996819193E-02 -0.19418900487E-01 -0.98090068974E-02  0.10201505087E+01  0.10198733236E+01 0.  0.
     999903    2    3    3    0    0  0.79075689641E-01  0.83475030502E-01  0.54960393166E-01  0.12907859700E+00  0.20483993167E-01 0.  0.
         14    1    1    2    0    0 -0.95996819193E-02  0.19418900487E-01  0.98090068974E-02  0.23779491277E-01  0.00000000000E+00 0.  1.
     999901    1    3    3    0    0 -0.69476007722E-01 -0.10289393099E+00 -0.64769400064E-01  0.89107191173E+00  0.88000000000E+00 0. -1.
        -11    1    4    4    0    0  0.49875108903E-01  0.37853651034E-01  0.30270458021E-01  0.69548451704E-01  0.51100000000E-03 0. -1.
         11    1    4    4    0    0  0.29200580739E-01  0.45621379468E-01  0.24689935146E-01  0.59530145292E-01  0.51100000000E-03 0.  1.
</event>
<event>
 8    1  0.1123450E+005  0.1043930E+01  0.7957747E-01            NaN
         13   -1    0    0    0    0  0.00000000000E+00  0.00000000000E+00  0.74505805969E-08  0.10566000000E+00  0.10566000000E+00 0.  1.
     999900   -1    0    0    0    0 -0.00000000000E+00 -0.00000000000E+00 -0.74505805969E-08  0.93827000000E+00  0.93827000000E+00 0. -1.
     999902    2    1    2    0    0 -0.18861148251E-01 -0.11539767017E-01  0.86451732698E-02  0.10201887246E+01  0.10199124402E+01 0.  0.
     999903    2    3    3    0    0 -0.10675358333E+00  0.74183985642E-01 -0.54469698554E-02  0.13155368681E+00  0.19419365432E-01 0.  0.
         14    1    1    2    0    0  0.18861148251E-01  0.11539767017E-01 -0.86451732698E-02  0.23741275387E-01  0.00000000000E+00 0. -1.
     999901    1    3    3    0    0  0.87892435075E-01 -0.85723752659E-01  0.14092143125E-01  0.88863503780E+00  0.88000000000E+00 0. -1.
        -11    1    4    4    0    0 -0.72398000147E-02  0.49252205898E-03  0.18616222297E-02  0.75089307199E-02  0.51100000000E-03 0.  1.
         11    1    4    4    0    0 -0.99513783312E-01  0.73691463583E-01 -0.73085920851E-02  0.12404475609E+00  0.51100000000E-03 0. -1.
</event>
<event>
 8    1  0.1123450E+005  0.1043930E+01  0.7957747E-01            NaN
         13   -1    0    0    0    0  0.00000000000E+00  0.00000000000E+00  0.74505805969E-08  0.10566000000E+00  0.10566000000E+00 0.  1.
     999900   -1    0    0    0    0 -0.00000000000E+00 -0.00000000000E+00 -0.74505805969E-08  0.93827000000E+00  0.93827000000E+00 0.  1.
     999902    2    1    2    0    0 -0.18094974925E-01  0.37475282899E-02  0.14529312500E-01  0.10204231285E+01  0.10201523358E+01 0.  0.
     999903    2    3    3    0    0  0.27110359734E-01 -0.88349410266E-01  0.91177886800E-01  0.13115355615E+00  0.18634869201E-01 0.  0.
         14    1    1    2    0    0  0.18094974925E-01 -0.37475282899E-02 -0.14529312500E-01  0.23506871496E-01  0.00000000000E+00 0. -1.
     999901    1    3    3    0    0 -0.45205334659E-01  0.92096938556E-01 -0.76648574300E-01  0.88926957235E+00  0.88000000000E+00 0.  1.
        -11    1    4    4    0    0  0.15515593020E-01 -0.49307857493E-01  0.63630960967E-01  0.81982673486E-01  0.51100000000E-03 0. -1.
         11    1    4    4    0    0  0.11594766714E-01 -0.39041552773E-01  0.27546925833E-01  0.49170882664E-01  0.51100000000E-03 0.  1.
</event>
<event>
 8    1  0.1123450E+005  0.1043930E+01  0.7957747E-01            NaN
         13   -1    0    0    0    0  0.00000000000E+00  0.00000000000E+00  0.74505805969E-08  0.10566000000E+00  0.10566000000E+00 0. -1.
     999900   -1    0    0    0    0 -0.00000000000E+00 -0.00000000000E+00 -0.74505805969E-08  0.93827000000E+00  0.93827000000E+00 0. -1.
     999902    2    1    2    0    0  0.86927903164E-02  0.21081104592E-01  0.57000878760E-02  0.10204253499E+01  0.10201546089E+01 0.  0.
     999903    2    3    3    0    0  0.48022640420E-01 -0.27872465366E-01 -0.11578386867E+00  0.12986280813E+00  0.19375148315E-01 0.  0.
         14    1    1    2    0    0 -0.86927903164E-02 -0.21081104592E-01 -0.57000878760E-02  0.23504650095E-01  0.00000000000E+00 0. -1.
     999901    1    3    3    0    0 -0.39329850103E-01  0.48953569958E-01  0.12148395654E+00  0.89056254178E+00  0.88000000000E+00 0.  1.
        -11    1    4    4    0    0  0.23829470534E-01 -0.11721442041E-01 -0.76491916430E-01  0.80972280872E-01  0.51100000000E-03 0.  1.
         11    1    4    4    0    0  0.24193169885E-01 -0.16151023324E-01 -0.39291952239E-01  0.48890527255E-01  0.51100000000E-03 0. -1.
</event>
<event>
 8    1  0.1156368E+005  0.1043930E+01  0.7957747E-01            NaN
         13   -1    0    0    0    0  0.00000000000E+00  0.00000000000E+00  0.74505805969E-08  0.10566000000E+00  0.10566000000E+00 0.  1.
     999900   -1    0    0    0    0 -0.00000000000E+00 -0.00000000000E+00 -0.74505805969E-08  0.93827000000E+00  0.93827000000E+00 0.  1.
     999902    2    1    2    0    0  0.22056625642E-01 -0.55403640736E-02  0.49476679806E-02  0.10206561996E+01  0.10203908114E+01 0.  0.
     999903    2    3    3    0    0 -0.10500574115E-01  0.14661070370E-01  0.12841908741E+00  0.13121072027E+00  0.19989548771E-01 0.  0.
         14    1    1    2    0    0 -0.22056625642E-01  0.55403640736E-02 -0.49476679806E-02  0.23273800447E-01  0.00000000000E+00 0. -1.
     999901    1    3    3    0    0  0.32557199757E-01 -0.20201434443E-01 -0.12347141943E+00  0.88944547929E+00  0.88000000000E+00 0.  1.
        -11    1    4    4    0    0 -0.10923233682E-01  0.17246813946E-01  0.75163398394E-01  0.77888171146E-01  0.51100000000E-03 0. -1.
         11    1    4    4    0    0  0.42265956626E-03 -0.25857435763E-02  0.53255689017E-01  0.53322549119E-01  0.51100000000E-03 0.  1.
</event>
<event>
 8    1  0.1123450E+005  0.1043930E+01  0.7957747E-01            NaN
         13   -1    0    0    0    0  0.00000000000E+00  0.00000000000E+00  0.74505805969E-08  0.10566000000E+00  0.10566000000E+00 0.  1.
     999900   -1    0    0    0    0 -0.00000000000E+00 -0.00000000000E+00 -0.74505805969E-08  0.93827000000E+00  0.93827000000E+00 0.  1.
     999902    2    1    2    0    0  0.18304977768E-01 -0.15159429201E-01  0.13133156303E-02  0.10201265275E+01  0.10198487764E+01 0.  0.
     999903    2    3    3    0    0 -0.66427678577E-01 -0.81445198353E-01 -0.74900509980E-01  0.13030521204E+00  0.17983466678E-01 0.  0.
         14    1    1    2    0    0 -0.18304977768E-01  0.15159429201E-01 -0.13133156303E-02  0.23803472493E-01  0.00000000000E+00 0.  1.
     999901    1    3    3    0    0  0.84732656345E-01  0.66285769152E-01  0.76213825610E-01  0.88982131547E+00  0.88000000000E+00 0. -1.
        -11    1    4    4    0    0 -0.50462838569E-02 -0.70480265561E-02 -0.13223669099E-01  0.15819804188E-01  0.51100000000E-03 0.  1.
         11    1    4    4    0    0 -0.61381394720E-01 -0.74397171797E-01 -0.61676840881E-01  0.11448540785E+00  0.51100000000E-03 0. -1.
</event>
<event>
 8    1  0.1123450E+005  0.1043930E+01  0.7957747E-01            NaN
         13   -1    0    0    0    0  0.00000000000E+00  0.00000000000E+00  0.74505805969E-08  0.10566000000E+00  0.10566000000E+00 0. -1.
     999900   -1    0    0    0    0 -0.00000000000E+00 -0.00000000000E+00 -0.74505805969E-08  0.93827000000E+00  0.93827000000E+00 0.  1.
     999902    2    1    2    0    0 -0.16912194209E-01 -0.16991200554E-02 -0.15787148180E-01  0.10207320826E+01  0.10204684420E+01 0.  0.
     999903    2    3    3    0    0  0.11652173751E+00  0.51087044619E-01 -0.11111214497E-01  0.12909714744E+00  0.18852399049E-01 0.  0.
         14    1    1    2    0    0  0.16912194209E-01  0.16991200554E-02  0.15787148180E-01  0.23197917354E-01  0.00000000000E+00 0. -1.
     999901    1    3    3    0    0 -0.13343393172E+00 -0.52786164674E-01 -0.46759336832E-02  0.89163493520E+00  0.88000000000E+00 0. -1.
        -11    1    4    4    0    0  0.31914176679E-01  0.15249352096E-01  0.52636785925E-02  0.35763456849E-01  0.51100000000E-03 0.  1.
         11    1    4    4    0    0  0.84607560834E-01  0.35837692522E-01 -0.16374893089E-01  0.93333690596E-01  0.51100000000E-03 0. -1.
</event>
<event>
 8    1  0.1123450E+005  0.1043930E+01  0.7957747E-01            NaN
         13   -1    0    0    0    0  0.00000000000E+00  0.00000000000E+00  0.74505805969E-08  0.10566000000E+00  0.10566000000E+00 0.  1.
     999900   -1    0    0    0    0 -0.00000000000E+00 -0.00000000000E+00 -0.74505805969E-08  0.93827000000E+00  0.93827000000E+00 0.  1.
     999902    2    1    2    0    0 -0.24967471486E-01 -0.11776669064E-01 -0.15786349201E-02  0.10162793824E+01  0.10159031580E+01 0.  0.
     999903    2    3    3    0    0  0.75901542777E-01  0.89280653357E-01 -0.35481162338E-01  0.12412663659E+00  0.20406610945E-01 0.  0.
         14    1    1    2    0    0  0.24967471486E-01  0.11776669064E-01  0.15786349201E-02  0.27650617622E-01  0.00000000000E+00 0.  1.
     999901    1    3    3    0    0 -0.10086901426E+00 -0.10105732242E+00  0.33902527418E-01  0.89215274579E+00  0.88000000000E+00 0. -1.
        -11    1    4    4    0    0  0.12244811443E-01  0.28070475401E-01 -0.86092250064E-02  0.31816141701E-01  0.51100000000E-03 0.  1.
         11    1    4    4    0    0  0.63656731334E-01  0.61210177956E-01 -0.26871937332E-01  0.92310494889E-01  0.51100000000E-03 0. -1.
</event>
<event>
 8    1  0.1123450E+005  0.1043930E+01  0.7957747E-01            NaN
         13   -1    0    0    0    0  0.00000000000E+00  0.00000000000E+00  0.74505805969E-08  0.10566000000E+00  0.10566000000E+00 0. -1.
     999900   -1    0    0    0    0 -0.00000000000E+00 -0.00000000000E+00 -0.74505805969E-08  0.93827000000E+00  0.93827000000E+00 0.  1.
     999902    2    1    2    0    0 -0.14650871471E-01 -0.10979355614E-01  0.15247035923E-01  0.10201042495E+01  0.10198259721E+01 0.  0.
     999903    2    3    3    0    0  0.95686173952E-01 -0.51906683406E-01  0.64535475481E-01  0.13090311359E+00  0.33476109151E-01 0.  0.
         14    1    1    2    0    0  0.14650871471E-01  0.10979355614E-01 -0.15247035923E-01  0.23825750544E-01  0.00000000000E+00 0.  1.
     999901    1    3    3    0    0 -0.11033704542E+00  0.40927327791E-01 -0.49288439558E-01  0.88920113587E+00  0.88000000000E+00 0.  1.
        -11    1    4    4    0    0  0.56763406752E-01 -0.19257202914E-01  0.19570296995E-01  0.63056973093E-01  0.51100000000E-03 0. -1.
         11    1    4    4    0    0  0.38922767200E-01 -0.32649480492E-01  0.44965178486E-01  0.67846140496E-01  0.51100000000E-03 0.  1.
</event>
<event>
 8    1  0.1123450E+005  0.1043930E+01  0.7957747E-01            NaN
         13   -1    0    0    0    0  0.00000000000E+00  0.00000000000E+00  0.74505805969E-08  0.10566000000E+00  0.10566000000E+00 0.  1.
     999900   -1    0    0    0    0 -0.00000000000E+00 -0.00000000000E+00 -0.74505805969E-08  0.93827000000E+00  0.93827000000E+00 0.  1.
     999902    2    1    2    0    0 -0.46151742635E-02  0.23165739091E-01  0.45993079815E-03  0.10203045299E+01  0.10200309657E+01 0.  0.
     999903    2    3    3    0    0 -0.82716314412E-02  0.87251422669E-01 -0.97197984014E-01  0.13257855143E+00  0.21175305413E-01 0.  0.
         14    1    1    2    0    0  0.46151742635E-02 -0.23165739091E-01 -0.45993079815E-03  0.23625470101E-01  0.00000000000E+00 0.  1.
     999901    1    3    3    0    0  0.36564571778E-02 -0.64085683578E-01  0.97657914812E-01  0.88772597847E+00  0.88000000000E+00 0. -1.
        -11    1    4    4    0    0 -0.14896977696E-01  0.47731709975E-01 -0.56806325456E-01  0.75679956491E-01  0.51100000000E-03 0.  1.
         11    1    4    4    0    0  0.66253462544E-02  0.39519712694E-01 -0.40391658557E-01  0.56898594942E-01  0.51100000000E-03 0. -1.
</event>
<event>
 7    1  0.1123450E+005  0.1043930E+01  0.7957747E-01            NaN
         13   -1    0    0    0    0  0.00000000000E+00  0.00000000000E+00  0.74505805969E-08  0.10566000000E+00  0.10566000000E+00 0. -1.
     999900   -1    0    0    0    0 -0.00000000000E+00 -0.00000000000E+00 -0.74505805969E-08  0.93827000000E+00  0.93827000000E+00 0. -1.
     999902    2    1    2    0    0  0.15165492726E-01 -0.82489169540E-02  0.16926234766E-01  0.10197528574E+01  0.10194662113E+01 0.  0.
         14    1    1    2    0    0 -0.15165492726E-01  0.82489169540E-02 -0.16926234766E-01  0.24177142592E-01  0.00000000000E+00 0.  1.
     999901    1    3    3    0    0  0.18027887832E-01  0.11659694881E+00  0.16304960776E-02  0.88787527938E+00  0.88000000000E+00 0. -1.
        -11    1    3    3    0    0 -0.13900745018E-01 -0.90226256760E-01  0.24234239988E-01  0.94454050362E-01  0.51100000000E-03 0. -1.
         11    1    3    3    0    0  0.11038349912E-01 -0.34619609008E-01 -0.89385012990E-02  0.37423527669E-01  0.51100000000E-03 0.  1.
</event>
<event>
 8    1  0.1123450E+005  0.1043930E+01  0.7957747E-01            NaN
         13   -1    0    0    0    0  0.00000000000E+00  0.00000000000E+00  0.74505805969E-08  0.10566000000E+00  0.10566000000E+00 0. -1.
     999900   -1    0    0    0    0 -0.00000000000E+00 -0.00000000000E+00 -0.74505805969E-08  0.93827000000E+00  0.93827000000E+00 0. -1.
     999902    2    1    2    0    0 -0.83000384439E-02  0.21670534637E-01 -0.41110772263E-02  0.10203629963E+01  0.10200908001E+01 0.  0.
     999903    2    3    3    0    0  0.10877356583E-01  0.12939967471E+00  0.22066492172E-01  0.13319976142E+00  0.19815490524E-01 0.  0.
         14    1    1    2    0    0  0.83000384439E-02 -0.21670534637E-01  0.41110772263E-02  0.23567003747E-01  0.00000000000E+00 0. -1.
     999901    1    3    3    0    0 -0.19177395027E-01 -0.10772914007E+00 -0.26177569398E-01  0.88716323483E+00  0.88000000000E+00 0. -1.
        -11    1    4    4    0    0  0.49530161037E-02  0.76560358348E-01  0.22744921617E-01  0.80022580683E-01  0.51100000000E-03 0.  1.
         11    1    4    4    0    0  0.59243404792E-02  0.52839316361E-01 -0.67842944571E-03  0.53177180737E-01  0.51100000000E-03 0. -1.
</event>
<event>
 8    1  0.1123450E+005  0.1043930E+01  0.7957747E-01            NaN
         13   -1    0    0    0    0  0.00000000000E+00  0.00000000000E+00  0.74505805969E-08  0.10566000000E+00  0.10566000000E+00 0.  1.
     999900   -1    0    0    0    0 -0.00000000000E+00 -0.00000000000E+00 -0.74505805969E-08  0.93827000000E+00  0.93827000000E+00 0.  1.
     999902    2    1    2    0    0 -0.59807377965E-02  0.14973644622E-01  0.18607632053E-01  0.10193083991E+01  0.10190109859E+01 0.  0.
     999903    2    3    3    0    0  0.50667014869E-01 -0.27204715990E-01 -0.11119936771E+00  0.12698679839E+00  0.21286254256E-01 0.  0.
         14    1    1    2    0    0  0.59807377965E-02 -0.14973644622E-01 -0.18607632053E-01  0.24621600851E-01  0.00000000000E+00 0. -1.
     999901    1    3    3    0    0 -0.56647752665E-01  0.42178360612E-01  0.12980699976E+00  0.89232160075E+00  0.88000000000E+00 0.  1.
        -11    1    4    4    0    0  0.50308811704E-02 -0.43585541323E-04 -0.26761611056E-01  0.27235209057E-01  0.51100000000E-03 0. -1.
         11    1    4    4    0    0  0.45636133698E-01 -0.27161130449E-01 -0.84437756651E-01  0.99751589338E-01  0.51100000000E-03 0.  1.
</event>
<event>
 8    1  0.1123450E+005  0.1043930E+01  0.7957747E-01            NaN
         13   -1    0    0    0    0  0.00000000000E+00  0.00000000000E+00  0.74505805969E-08  0.10566000000E+00  0.10566000000E+00 0.  1.
     999900   -1    0    0    0    0 -0.00000000000E+00 -0.00000000000E+00 -0.74505805969E-08  0.93827000000E+00  0.93827000000E+00 0.  1.
     999902    2    1    2    0    0 -0.78392783879E-02  0.68912159965E-02 -0.21210837422E-01  0.10202901445E+01  0.10200162431E+01 0.  0.
     999903    2    3    3    0    0 -0.98468679988E-01  0.11287283223E-01 -0.86978793065E-01  0.13318336524E+00  0.18681933281E-01 0.  0.
         14    1    1    2    0    0  0.78392783879E-02 -0.68912159965E-02  0.21210837422E-01  0.23639855492E-01  0.00000000000E+00 0.  1.
     999901    1    3    3    0    0  0.90629401601E-01 -0.43960672266E-02  0.65767955643E-01  0.88710677927E+00  0.88000000000E+00 0. -1.
        -11    1    4    4    0    0 -0.29365572878E-01 -0.90906183626E-03 -0.35881812048E-01  0.46378107127E-01  0.51100000000E-03 0.  1.
         11    1    4    4    0    0 -0.69103107110E-01  0.12196345059E-01 -0.51096981017E-01  0.86805258108E-01  0.51100000000E-03 0. -1.
</event>
<event>
 8    1  0.1123450E+005  0.1043930E+01  0.7957747E-01            NaN
         13   -1    0    0    0    0  0.00000000000E+00  0.00000000000E+00  0.74505805969E-08  0.10566000000E+00  0.10566000000E+00 0.  1.
     999900   -1    0    0    0    0 -0.00000000000E+00 -0.00000000000E+00 -0.74505805969E-08  0.93827000000E+00  0.93827000000E+00 0. -1.
     999902    2    1    2    0    0 -0.11576114631E-02  0.92950963405E-02  0.22056649350E-01  0.10199668061E+01  0.10196852705E+01 0.  0.
     999903    2    3    3    0    0 -0.41724792637E-02  0.44984648584E-01 -0.11792195385E+00  0.12818384883E+00  0.22010990669E-01 0.  0.
         14    1    1    2    0    0  0.11576114631E-02 -0.92950963405E-02 -0.22056649350E-01  0.23963193878E-01  0.00000000000E+00 0. -1.
     999901    1    3    3    0    0  0.30148678007E-02 -0.35689552243E-01  0.13997860320E+00  0.89178295729E+00  0.88000000000E+00 0.  1.
        -11    1    4    4    0    0  0.72508508579E-02  0.10264947761E-01 -0.19621579300E-01  0.23306897819E-01  0.51100000000E-03 0.  1.
         11    1    4    4    0    0 -0.11423330122E-01  0.34719700823E-01 -0.98300374545E-01  0.10487695101E+00  0.51100000000E-03 0. -1.
</event>
<event>
 8    1  0.1123450E+005  0.1043930E+01  0.7957747E-01            NaN
         13   -1    0    0    0    0  0.00000000000E+00  0.00000000000E+00  0.74505805969E-08  0.10566000000E+00  0.10566000000E+00 0.  1.
     999900   -1    0    0    0    0 -0.00000000000E+00 -0.00000000000E+00 -0.74505805969E-08  0.93827000000E+00  0.93827000000E+00 0. -1.
     999902    2    1    2    0    0  0.22443611213E-01 -0.52907983880E-02 -0.80681159194E-02  0.10195004538E+01  0.10192077181E+01 0.  0.
     999903    2    3    3    0    0 -0.63991913142E-01  0.43073028551E-01 -0.10132774922E+00  0.12904690712E+00  0.20869612837E-01 0.  0.
         14    1    1    2    0    0 -0.22443611213E-01  0.52907983880E-02  0.80681159194E-02  0.24429546175E-01  0.00000000000E+00 0. -1.
     999901    1    3    3    0    0  0.86435524354E-01 -0.48363826939E-01  0.93259633303E-01  0.89045354670E+00  0.88000000000E+00 0. -1.
        -11    1    4    4    0    0 -0.36830603975E-01  0.30570696210E-01 -0.76195105917E-01  0.89983421487E-01  0.51100000000E-03 0. -1.
         11    1    4    4    0    0 -0.27161309167E-01  0.12502332341E-01 -0.25132643305E-01  0.39063485637E-01  0.51100000000E-03 0.  1.
</event>
<event>
 8    1  0.1123450E+005  0.1043930E+01  0.7957747E-01            NaN
         13   -1    0    0    0    0  0.00000000000E+00  0.00000000000E+00  0.74505805969E-08  0.10566000000E+00  0.10566000000E+00 0. -1.
     999900   -1    0    0    0    0 -0.00000000000E+00 -0.00000000000E+00 -0.74505805969E-08  0.93827000000E+00  0.93827000000E+00 0. -1.
     999902    2    1    2    0    0  0.10919245949E-01  0.18085769670E-01  0.10964967066E-01  0.10201275737E+01  0.10198498473E+01 0.  0.
     999903    2    3    3    0    0  0.12523389857E+00 -0.63605455595E-02 -0.33263257339E-01  0.13129598221E+00  0.20204077958E-01 0.  0.
         14    1    1    2    0    0 -0.10919245949E-01 -0.18085769670E-01 -0.10964967066E-01  0.23802426334E-01  0.00000000000E+00 0. -1.
     999901    1    3    3    0    0 -0.11431465262E+00  0.24446315229E-01  0.44228224405E-01  0.88883159145E+00  0.88000000000E+00 0. -1.
        -11    1    4    4    0    0  0.39396070925E-01  0.73105348110E-02 -0.94287423899E-02  0.41166207350E-01  0.51100000000E-03 0.  1.
         11    1    4    4    0    0  0.85837827642E-01 -0.13671080370E-01 -0.23834514949E-01  0.90129774862E-01  0.51100000000E-03 0. -1.
</event>
<event>
 8    1  0.1123450E+005  0.1043930E+01  0.7957747E-01            NaN
         13   -1    0    0    0    0  0.00000000000E+00  0.00000000000E+00  0.74505805969E-08  0.10566000000E+00  0.10566000000E+00 0. -1.
     999900   -1    0    0    0    0 -0.00000000000E+00 -0.00000000000E+00 -0.74505805969E-08  0.93827000000E+00  0.93827000000E+00 0. -1.
     999902    2    1    2    0    0 -0.50516742145E-02 -0.22131055224E-01  0.68387461710E-02  0.10202219535E+01  0.10199464511E+01 0.  0.
     999903    2    3    3    0    0  0.57318092587E-01  0.81754427660E-01 -0.77084322880E-01  0.12796343558E+00  0.21528999754E-01 0.  0.
         14    1    1    2    0    0  0.50516742145E-02  0.22131055224E-01 -0.68387461710E-02  0.23708046458E-01  0.00000000000E+00 0. -1.
     999901    1    3    3    0    0 -0.62369766802E-01 -0.10388548288E+00  0.83923069051E-01  0.89225851797E+00  0.88000000000E+00 0.  1.
        -11    1    4    4    0    0  0.50535757659E-01  0.59067598539E-01 -0.52367537143E-01  0.93730806391E-01  0.51100000000E-03 0.  1.
         11    1    4    4    0    0  0.67823349281E-02  0.22686829121E-01 -0.24716785737E-01  0.34232629184E-01  0.51100000000E-03 0. -1.
</event>
<event>
 8    1  0.1123450E+005  0.1043930E+01  0.7957747E-01            NaN
         13   -1    0    0    0    0  0.00000000000E+00  0.00000000000E+00  0.74505805969E-08  0.10566000000E+00  0.10566000000E+00 0. -1.
     999900   -1    0    0    0    0 -0.00000000000E+00 -0.00000000000E+00 -0.74505805969E-08  0.93827000000E+00  0.93827000000E+00 0. -1.
     999902    2    1    2    0    0  0.12089001441E-01 -0.17258942715E-01 -0.11269390365E-01  0.10200340962E+01  0.10197541582E+01 0.  0.
     999903    2    3    3    0    0 -0.67876209815E-01 -0.10992380749E+00 -0.13961036888E-01  0.13155874080E+00  0.20551603788E-01 0.  0.
         14    1    1    2    0    0 -0.12089001441E-01  0.17258942715E-01  0.11269390365E-01  0.23895903806E-01  0.00000000000E+00 0. -1.
     999901    1    3    3    0    0  0.79965211256E-01  0.92664864778E-01  0.26916465223E-02  0.88847535539E+00  0.88000000000E+00 0. -1.
        -11    1    4    4    0    0 -0.54801944959E-01 -0.10120883181E+00 -0.12173972266E-01  0.11573654362E+00  0.51100000000E-03 0. -1.
         11    1    4    4    0    0 -0.13074264856E-01 -0.87149756789E-02 -0.17870646214E-02  0.15822197179E-01  0.51100000000E-03 0.  1.
</event>
<event>
 8    1  0.1123450E+005  0.1043930E+01  0.7957747E-01            NaN
         13   -1    0    0    0    0  0.00000000000E+00  0.00000000000E+00  0.74505805969E-08  0.10566000000E+00  0.10566000000E+00 0. -1.
     999900   -1    0    0    0    0 -0.00000000000E+00 -0.00000000000E+00 -0.74505805969E-08  0.93827000000E+00  0.93827000000E+00 0.  1.
     999902    2    1    2    0    0  0.13206926041E-01  0.17313766706E-01  0.94687801613E-02  0.10201845328E+01  0.10199081497E+01 0.  0.
     999903    2    3    3    0    0  0.63931171319E-01 -0.97586726838E-01  0.54120728396E-01  0.13014584325E+00  0.19963049687E-01 0.  0.
         14    1    1    2    0    0 -0.13206926041E-01 -0.17313766706E-01 -0.94687801613E-02  0.23745467162E-01  0.00000000000E+00 0.  1.
     999901    1    3    3    0    0 -0.50724245278E-01  0.11490049354E+00 -0.44651948234E-01  0.89003868958E+00  0.88000000000E+00 0.  1.
        -11    1    4    4    0    0  0.91333707037E-02 -0.19183069303E-01  0.23605570948E-02  0.21383216762E-01  0.51100000000E-03 0. -1.
         11    1    4    4    0    0  0.54797800615E-01 -0.78403657536E-01  0.51760171301E-01  0.10876262649E+00  0.51100000000E-03 0.  1.
</event>
<event>
 8    1  0.1123450E+005  0.1043930E+01  0.7957747E-01            NaN
         13   -1    0    0    0    0  0.00000000000E+00  0.00000000000E+00  0.74505805969E-08  0.10566000000E+00  0.10566000000E+00 0.  1.
     999900   -1    0    0    0    0 -0.00000000000E+00 -0.00000000000E+00 -0.74505805969E-08  0.93827000000E+00  0.93827000000E+00 0.  1.
     999902    2    1    2    0    0 -0.76557398032E-02  0.22182869055E-01 -0.12172059279E-02  0.10204316677E+01  0.10201610739E+01 0.  0.
     999903    2    3    3    0    0 -0.11169736038E+00  0.60378526727E-01 -0.34984281674E-01  0.13283728820E+00  0.17319883581E-01 0.  0.
         14    1    1    2    0    0  0.76557398032E-02 -0.22182869055E-01  0.12172059279E-02  0.23498332317E-01  0.00000000000E+00 0.  1.
     999901    1    3    3    0    0  0.10404162058E+00 -0.38195657673E-01  0.33767075746E-01  0.88759437948E+00  0.88000000000E+00 0. -1.
        -11    1    4    4    0    0 -0.73456986603E-01  0.37656112857E-01 -0.30990468199E-01  0.88173589903E-01  0.51100000000E-03 0.  1.
         11    1    4    4    0    0 -0.38240373778E-01  0.22722413871E-01 -0.39938134748E-02  0.44663698301E-01  0.51100000000E-03 0. -1.
</event>
<event>
 8    1  0.1123450E+005  0.1043930E+01  0.7957747E-01            NaN
         13   -1    0    0    0    0  0.00000000000E+00  0.00000000000E+00  0.74505805969E-08  0.10566000000E+00  0.10566000000E+00 0. -1.
     999900   -1    0    0    0    0 -0.00000000000E+00 -0.00000000000E+00 -0.74505805969E-08  0.93827000000E+00  0.93827000000E+00 0. -1.
     999902    2    1    2    0    0  0.27031056522E-02  0.23129313566E-01 -0.55919284856E-02  0.10199812716E+01  0.10197000799E+01 0.  0.
     999903    2    3    3    0    0  0.74823383667E-01  0.10696567794E+00  0.13259273545E-01  0.13285938694E+00  0.20871352634E-01 0.  0.
         14    1    1    2    0    0 -0.27031056522E-02 -0.23129313566E-01  0.55919284856E-02  0.23948728366E-01  0.00000000000E+00 0.  1.
     999901    1    3    3    0    0 -0.72120278015E-01 -0.83836364377E-01 -0.18851202030E-01  0.88712188470E+00  0.88000000000E+00 0.  1.
        -11    1    4    4    0    0  0.28593572059E-01  0.34019432991E-01  0.13661197281E-01  0.46495199927E-01  0.51100000000E-03 0.  1.
         11    1    4    4    0    0  0.46229811608E-01  0.72946244952E-01 -0.40192373640E-03  0.86364187008E-01  0.51100000000E-03 0. -1.
</event>
<event>
 8    1  0.1123450E+005  0.1043930E+01  0.7957747E-01            NaN
         13   -1    0    0    0    0  0.00000000000E+00  0.00000000000E+00  0.74505805969E-08  0.10566000000E+00  0.10566000000E+00 0. -1.
     999900   -1    0    0    0    0 -0.00000000000E+00 -0.00000000000E+00 -0.74505805969E-08  0.93827000000E+00  0.93827000000E+00 0. -1.
     999902    2    1    2    0    0 -0.94419508678E-02  0.20219276235E-01 -0.90839303530E-02  0.10198366947E+01  0.10195520568E+01 0.  0.
     999903    2    3    3    0    0  0.63625547223E-01 -0.90334350685E-01 -0.62097565707E-01  0.12833716629E+00  0.20144860645E-01 0.  0.
         14    1    1    2    0    0  0.94419508678E-02 -0.20219276235E-01  0.90839303530E-02  0.24093305260E-01  0.00000000000E+00 0.  1.
     999901    1    3    3    0    0 -0.73067498091E-01  0.11055362692E+00  0.53013635354E-01  0.89149952846E+00  0.88000000000E+00 0.  1.
        -11    1    4    4    0    0  0.36209976925E-01 -0.54439600443E-01 -0.47678594367E-01  0.80921826519E-01  0.51100000000E-03 0. -1.
         11    1    4    4    0    0  0.27415570298E-01 -0.35894750242E-01 -0.14418971339E-01  0.47415339767E-01  0.51100000000E-03 0.  1.
</event>
<event>
 8    1  0.1123450E+005  0.1043930E+01  0.7957747E-01            NaN
         13   -1    0    0    0    0  0.00000000000E+00  0.00000000000E+00  0.74505805969E-08  0.10566000000E+00  0.10566000000E+00 0.  1.
     999900   -1    0    0    0    0 -0.00000000000E+00 -0.00000000000E+00 -0.74505805969E-08  0.93827000000E+00  0.93827000000E+00 0. -1.
     999902    2    1    2    0    0  0.13777223107E-01  0.32737171781E-02 -0.19991082815E-01  0.10194315818E+01  0.10191371731E+01 0.  0.
     999903    2    3    3    0    0  0.92842323206E-01 -0.86340820922E-01  0.22680624253E-01  0.13032926484E+00  0.19921652076E-01 0.  0.
         14    1    1    2    0    0 -0.13777223107E-01 -0.32737171781E-02  0.19991082815E-01  0.24498418170E-01  0.00000000000E+00 0.  1.
     999901    1    3    3    0    0 -0.79065100098E-01  0.89614538100E-01 -0.42671707068E-01  0.88910231699E+00  0.88000000000E+00 0. -1.
        -11    1    4    4    0    0  0.53566150234E-01 -0.61782218524E-01  0.18324676175E-01  0.83799939467E-01  0.51100000000E-03 0. -1.
         11    1    4    4    0    0  0.39276172971E-01 -0.24558602398E-01  0.43559480781E-02  0.46529325373E-01  0.51100000000E-03 0.  1.
</event>
<event>
 8    1  0.1123450E+005  0.1043930E+01  0.7957747E-01            NaN
         13   -1    0    0    0    0  0.00000000000E+00  0.00000000000E+00  0.74505805969E-08  0.10566000000E+00  0.10566000000E+00 0. -1.
     999900   -1    0    0    0    0 -0.00000000000E+00 -0.00000000000E+00 -0.74505805969E-08  0.93827000000E+00  0.93827000000E+00 0. -1.
     999902    2    1    2    0    0 -0.60663017581E-02 -0.56789419227E-02  0.22189701873E-01  0.10202354169E+01  0.10199602309E+01 0.  0.
     999903    2    3    3    0    0  0.90128564206E-01  0.80952180956E-01  0.43864267460E-01  0.13050051792E+00  0.20733970462E-01 0.  0.
         14    1    1    2    0    0  0.60663017581E-02  0.56789419227E-02 -0.22189701873E-01  0.23694583086E-01  0.00000000000E+00 0.  1.
     999901    1    3    3    0    0 -0.96194865964E-01 -0.86631122878E-01 -0.21674565587E-01  0.88973489899E+00  0.88000000000E+00 0.  1.
        -11    1    4    4    0    0  0.21033779084E-01  0.31041631168E-01  0.16588310902E-01  0.41005315603E-01  0.51100000000E-03 0.  1.
         11    1    4    4    0    0  0.69094785122E-01  0.49910549787E-01  0.27275956558E-01  0.89495202320E-01  0.51100000000E-03 0. -1.
</event>
<event>
 8    1  0.1123450E+005  0.1043930E+01  0.7957747E-01            NaN
         13   -1    0    0    0    0  0.00000000000E+00  0.00000000000E+00  0.74505805969E-08  0.10566000000E+00  0.10566000000E+00 0.  1.
     999900   -1    0    0    0    0 -0.00000000000E+00 -0.00000000000E+00 -0.74505805969E-08  0.93827000000E+00  0.93827000000E+00 0.  1.
     999902    2    1    2    0    0  0.48750854640E-02 -0.76774891071E-03  0.22382973923E-01  0.10210094106E+01  0.10207521066E+01 0.  0.
     999903    2    3    3    0    0  0.11037740913E+00  0.42337976529E-01  0.57660903016E-01  0.13295908762E+00  0.19433541697E-01 0.  0.
         14    1    1    2    0    0 -0.48750854640E-02  0.76774891071E-03 -0.22382973923E-01  0.22920589397E-01  0.00000000000E+00 0. -1.
     999901    1    3    3    0    0 -0.10550232366E+00 -0.43105725440E-01 -0.35277929093E-01  0.88805032298E+00  0.88000000000E+00 0.  1.
        -11    1    4    4    0    0  0.10210380756E+00  0.39183672808E-01  0.58538362488E-01  0.12404655874E+00  0.51100000000E-03 0. -1.
         11    1    4    4    0    0  0.82736015701E-02  0.31543037216E-02 -0.87745947260E-03  0.89125288799E-02  0.51100000000E-03 0.  1.
</event>
<event>
 8    1  0.1123450E+005  0.1043930E+01  0.7957747E-01            NaN
         13   -1    0    0    0    0  0.00000000000E+00  0.00000000000E+00  0.74505805969E-08  0.10566000000E+00  0.10566000000E+00 0.  1.
     999900   -1    0    0    0    0 -0.00000000000E+00 -0.00000000000E+00 -0.74505805969E-08  0.93827000000E+00  0.93827000000E+00 0. -1.
     999902    2    1    2    0    0  0.10344177290E-01  0.84141679786E-02 -0.19392001679E-01  0.10203959830E+01  0.10201245572E+01 0.  0.
     999903    2    3    3    0    0  0.64004623455E-02 -0.73534610207E-01  0.10256411941E+00  0.12820516788E+00  0.21653213718E-01 0.  0.
         14    1    1    2    0    0 -0.10344177290E-01 -0.84141679786E-02  0.19392001679E-01  0.23534016990E-01  0.00000000000E+00 0.  1.
     999901    1    3    3    0    0  0.39437149442E-02  0.81948778186E-01 -0.12195612109E+00  0.89219081513E+00  0.88000000000E+00 0. -1.
        -11    1    4    4    0    0 -0.13826412247E-02 -0.43803327562E-01  0.44222760417E-01  0.62262001752E-01  0.51100000000E-03 0.  1.
         11    1    4    4    0    0  0.77831035702E-02 -0.29731282645E-01  0.58341358991E-01  0.65943166127E-01  0.51100000000E-03 0. -1.
</event>
<event>
 8    1  0.1123450E+005  0.1043930E+01  0.7957747E-01            NaN
         13   -1    0    0    0    0  0.00000000000E+00  0.00000000000E+00  0.74505805969E-08  0.10566000000E+00  0.10566000000E+00 0.  1.
     999900   -1    0    0    0    0 -0.00000000000E+00 -0.00000000000E+00 -0.74505805969E-08  0.93827000000E+00  0.93827000000E+00 0.  1.
     999902    2    1    2    0    0  0.41884391967E-04  0.22070500581E-01 -0.44326126897E-03  0.10218550089E+01  0.10216165396E+01 0.  0.
     999903    2    3    3    0    0  0.45360278264E-01  0.11369758944E+00 -0.52021179830E-01  0.13443765395E+00  0.19559728017E-01 0.  0.
         14    1    1    2    0    0 -0.41884391967E-04 -0.22070500581E-01  0.44326126897E-03  0.22074991070E-01  0.00000000000E+00 0. -1.
     999901    1    3    3    0    0 -0.45318393872E-01 -0.91627088859E-01  0.51577918561E-01  0.88741735498E+00  0.88000000000E+00 0. -1.
        -11    1    4    4    0    0  0.11735280120E-01  0.53894431394E-01 -0.19443737580E-01  0.58486294009E-01  0.51100000000E-03 0.  1.
         11    1    4    4    0    0  0.33624998143E-01  0.59803158046E-01 -0.32577442250E-01  0.75951359941E-01  0.51100000000E-03 0. -1.
</event>
<event>
 8    1  0.1123450E+005  0.1043930E+01  0.7957747E-01            NaN
         13   -1    0    0    0    0  0.00000000000E+00  0.00000000000E+00  0.74505805969E-08  0.10566000000E+00  0.10566000000E+00 0. -1.
     999900   -1    0    0    0    0 -0.00000000000E+00 -0.00000000000E+00 -0.74505805969E-08  0.93827000000E+00  0.93827000000E+00 0.  1.
     999902    2    1    2    0    0  0.67978265563E-02 -0.14786675557E-01 -0.17692387689E-01  0.10198909318E+01  0.10196075892E+01 0.  0.
     999903    2    3    3    0    0  0.16556974490E-01 -0.38862763906E-01  0.12000158695E+00  0.12880478011E+00  0.20145537607E-01 0.  0.
         14    1    1    2    0    0 -0.67978265563E-02  0.14786675557E-01  0.17692387689E-01  0.24039068244E-01  0.00000000000E+00 0. -1.
     999901    1    3    3    0    0 -0.97591479333E-02  0.24076088350E-01 -0.13769397464E+00  0.89108615164E+00  0.88000000000E+00 0.  1.
        -11    1    4    4    0    0  0.77466771947E-02 -0.36663257827E-01  0.10127116946E+00  0.10798294479E+00  0.51100000000E-03 0.  1.
         11    1    4    4    0    0  0.88102972949E-02 -0.21995060790E-02  0.18730417499E-01  0.20821835320E-01  0.51100000000E-03 0. -1.
</event>
<event>
 8    1  0.1123450E+005  0.1043930E+01  0.7957747E-01            NaN
         13   -1    0    0    0    0  0.00000000000E+00  0.00000000000E+00  0.74505805969E-08  0.10566000000E+00  0.10566000000E+00 0.  1.
     999900   -1    0    0    0    0 -0.00000000000E+00 -0.00000000000E+00 -0.74505805969E-08  0.93827000000E+00  0.93827000000E+00 0.  1.
     999902    2    1    2    0    0 -0.14793815743E-01  0.16898310660E-01 -0.97634860895E-02  0.10194405013E+01  0.10191463095E+01 0.  0.
     999903    2    3    3    0    0  0.93108048154E-01 -0.48238675762E-01  0.67753257472E-01  0.12708716051E+00  0.23760555515E-01 0.  0.
         14    1    1    2    0    0  0.14793815743E-01 -0.16898310660E-01  0.97634860895E-02  0.24489498729E-01  0.00000000000E+00 0.  1.
     999901    1    3    3    0    0 -0.10790186390E+00  0.65136986422E-01 -0.77516743561E-01  0.89235334076E+00  0.88000000000E+00 0.  1.
        -11    1    4    4    0    0  0.52902727019E-01 -0.15288485708E-01  0.40748200350E-01  0.68506300981E-01  0.51100000000E-03 0.  1.
         11    1    4    4    0    0  0.40205321135E-01 -0.32950190054E-01  0.27005057122E-01  0.58580859530E-01  0.51100000000E-03 0. -1.
</event>
<event>
 8    1  0.1123450E+005  0.1043930E+01  0.7957747E-01            NaN
         13   -1    0    0    0    0  0.00000000000E+00  0.00000000000E+00  0.74505805969E-08  0.10566000000E+00  0.10566000000E+00 0.  1.
     999900   -1    0    0    0    0 -0.00000000000E+00 -0.00000000000E+00 -0.74505805969E-08  0.93827000000E+00  0.93827000000E+00 0. -1.
     999902    2    1    2    0    0  0.64525753085E-02  0.22201810310E-01 -0.14422412896E-01  0.10166800073E+01  0.10163147520E+01 0.  0.
     999903    2    3    3    0    0 -0.42430435557E-01  0.11422812326E+00  0.37403897921E-01  0.12901770803E+00  0.19952729139E-01 0.  0.
         14    1    1    2    0    0 -0.64525753085E-02 -0.22201810310E-01  0.14422412896E-01  0.27249992713E-01  0.00000000000E+00 0.  1.
     999901    1    3    3    0    0  0.48883010865E-01 -0.92026312953E-01 -0.51826310817E-01  0.88766229926E+00  0.88000000000E+00 0. -1.
        -11    1    4    4    0    0 -0.17675651010E-01  0.49222614674E-01  0.26412709666E-01  0.58593402247E-01  0.51100000000E-03 0. -1.
         11    1    4    4    0    0 -0.24754784547E-01  0.65005508589E-01  0.10991188255E-01  0.70424305784E-01  0.51100000000E-03 0.  1.
</event>
<event>
 8    1  0.1123450E+005  0.1043930E+01  0.7957747E-01            NaN
         13   -1    0    0    0    0  0.00000000000E+00  0.00000000000E+00  0.74505805969E-08  0.10566000000E+00  0.10566000000E+00 0. -1.
     999900   -1    0    0    0    0 -0.00000000000E+00 -0.00000000000E+00 -0.74505805969E-08  0.93827000000E+00  0.93827000000E+00 0.  1.
     999902    2    1    2    0    0 -0.19165395663E-01  0.73956024821E-02 -0.13613275739E-01  0.10192859621E+01  0.10189879999E+01 0.  0.
     999903    2    3    3    0    0 -0.96932700072E-01 -0.86262037291E-01 -0.97164707998E-02  0.13089714397E+00  0.14232535704E-01 0.  0.
         14    1    1    2    0    0  0.19165395663E-01 -0.73956024821E-02  0.13613275739E-01  0.24644037886E-01  0.00000000000E+00 0. -1.
     999901    1    3    3    0    0  0.77767304409E-01  0.93657639774E-01 -0.38968049392E-02  0.88838881815E+00  0.88000000000E+00 0.  1.
        -11    1    4    4    0    0 -0.83763209647E-01 -0.69383959491E-01 -0.45264716661E-02  0.10886302950E+00  0.51100000000E-03 0. -1.
         11    1    4    4    0    0 -0.13169490425E-01 -0.16878077801E-01 -0.51899991336E-02  0.22034114466E-01  0.51100000000E-03 0.  1.
</event>
<event>
 8    1  0.1123450E+005  0.1043930E+01  0.7957747E-01            NaN
         13   -1    0    0    0    0  0.00000000000E+00  0.00000000000E+00  0.74505805969E-08  0.10566000000E+00  0.10566000000E+00 0. -1.
     999900   -1    0    0    0    0 -0.00000000000E+00 -0.00000000000E+00 -0.74505805969E-08  0.93827000000E+00  0.93827000000E+00 0.  1.
     999902    2    1    2    0    0  0.53484415630E-03 -0.23060464973E-01 -0.95199738381E-03  0.10208436967E+01  0.10205826158E+01 0.  0.
     999903    2    3    3    0    0 -0.61301619406E-01  0.11861021430E-01 -0.11360100497E+00  0.13082512531E+00  0.17648022847E-01 0.  0.
         14    1    1    2    0    0 -0.53484415630E-03  0.23060464973E-01  0.95199738381E-03  0.23086303343E-01  0.00000000000E+00 0. -1.
     999901    1    3    3    0    0  0.61836463563E-01 -0.34921486403E-01  0.11264900758E+00  0.89001857135E+00  0.88000000000E+00 0. -1.
        -11    1    4    4    0    0 -0.46896343987E-01  0.17569625233E-02 -0.76287284386E-01  0.89567655304E-01  0.51100000000E-03 0.  1.
         11    1    4    4    0    0 -0.14405275420E-01  0.10104058907E-01 -0.37313720582E-01  0.41257470002E-01  0.51100000000E-03 0. -1.
</event>
<event>
 8    1  0.1123450E+005  0.1043930E+01  0.7957747E-01            NaN
         13   -1    0    0    0    0  0.00000000000E+00  0.00000000000E+00  0.74505805969E-08  0.10566000000E+00  0.10566000000E+00 0.  1.
     999900   -1    0    0    0    0 -0.00000000000E+00 -0.00000000000E+00 -0.74505805969E-08  0.93827000000E+00  0.93827000000E+00 0.  1.
     999902    2    1    2    0    0 -0.20548816586E-01 -0.63838404532E-02  0.92538981511E-02  0.10205068936E+01  0.10202380497E+01 0.  0.
     999903    2    3    3    0    0  0.97833120139E-01 -0.81553645727E-01 -0.83290127899E-02  0.12923031402E+00  0.20218434163E-01 0.  0.
         14    1    1    2    0    0  0.20548816586E-01  0.63838404532E-02 -0.92538981511E-02  0.23423106391E-01  0.00000000000E+00 0.  1.
     999901    1    3    3    0    0 -0.11838193672E+00  0.75169805274E-01  0.17582910941E-01  0.89127657959E+00  0.88000000000E+00 0.  1.
        -11    1    4    4    0    0  0.80274588909E-01 -0.68876403064E-01  0.66022002126E-03  0.10577648857E+00  0.51100000000E-03 0.  1.
         11    1    4    4    0    0  0.17558531230E-01 -0.12677242663E-01 -0.89892328112E-02  0.23453825445E-01  0.51100000000E-03 0. -1.
</event>
<event>
 8    1  0.1123450E+005  0.1043930E+01  0.7957747E-01            NaN
         13   -1    0    0    0    0  0.00000000000E+00  0.00000000000E+00  0.74505805969E-08  0.10566000000E+00  0.10566000000E+00 0. -1.
     999900   -1    0    0    0    0 -0.00000000000E+00 -0.00000000000E+00 -0.74505805969E-08  0.93827000000E+00  0.93827000000E+00 0.  1.
     999902    2    1    2    0    0 -0.86519667030E-02 -0.11310059967E-01 -0.18767074547E-01  0.10203720487E+01  0.10201000640E+01 0.  0.
     999903    2    3    3    0    0 -0.78351234901E-01 -0.66969494709E-01 -0.82131019913E-01  0.13359645685E+00  0.21878748091E-01 0.  0.
         14    1    1    2    0    0  0.86519667030E-02  0.11310059967E-01  0.18767074547E-01  0.23557951341E-01  0.00000000000E+00 0.  1.
     999901    1    3    3    0    0  0.69699268198E-01  0.55659434741E-01  0.63363945365E-01  0.88677559181E+00  0.88000000000E+00 0. -1.
        -11    1    4    4    0    0 -0.28145741038E-01 -0.27555028606E-01 -0.44781472683E-01  0.59641460048E-01  0.51100000000E-03 0.  1.
         11    1    4    4    0    0 -0.50205493862E-01 -0.39414466103E-01 -0.37349547230E-01  0.73954996798E-01  0.51100000000E-03 0. -1.
</event>
<event>
 8    1  0.1123450E+005  0.1043930E+01  0.7957747E-01            NaN
         13   -1    0    0    0    0  0.00000000000E+00  0.00000000000E+00  0.74505805969E-08  0.10566000000E+00  0.10566000000E+00 0.  1.
     999900   -1    0    0    0    0 -0.00000000000E+00 -0.00000000000E+00 -0.74505805969E-08  0.93827000000E+00  0.93827000000E+00 0.  1.
     999902    2    1    2    0    0 -0.86592260085E-02 -0.18739164409E-01 -0.48181628662E-02  0.10227320479E+01  0.10225123416E+01 0.  0.
     999903    2    3    3    0    0  0.83852482493E-01  0.86351430070E-01 -0.46485345367E-01  0.13069023090E+00  0.20766338730E-01 0.  0.
         14    1    1    2    0    0  0.86592260085E-02  0.18739164409E-01  0.48181628662E-02  0.21197952053E-01  0.00000000000E+00 0.  1.
     999901    1    3    3    0    0 -0.92511708501E-01 -0.10509059448E+00  0.41667182501E-01  0.89204181704E+00  0.88000000000E+00 0.  1.
        -11    1    4    4    0    0  0.39926523333E-01  0.55231904970E-01 -0.22696088582E-01  0.71833586504E-01  0.51100000000E-03 0.  1.
         11    1    4    4    0    0  0.43925959159E-01  0.31119525100E-01 -0.23789256785E-01  0.58856644399E-01  0.51100000000E-03 0. -1.
</event>
<event>
 8    1  0.1123450E+005  0.1043930E+01  0.7957747E-01            NaN
         13   -1    0    0    0    0  0.00000000000E+00  0.00000000000E+00  0.74505805969E-08  0.10566000000E+00  0.10566000000E+00 0. -1.
     999900   -1    0    0    0    0 -0.00000000000E+00 -0.00000000000E+00 -0.74505805969E-08  0.93827000000E+00  0.93827000000E+00 0. -1.
     999902    2    1    2    0    0 -0.36431105465E-03 -0.24340408922E-01  0.91419546500E-02  0.10179268547E+01  0.10175946728E+01 0.  0.
     999903    2    3    3    0    0  0.64665854680E-01 -0.32279188661E-01  0.10615804226E+00  0.13017459879E+00  0.21266815715E-01 0.  0.
         14    1    1    2    0    0  0.36431105465E-03  0.24340408922E-01 -0.91419546500E-02  0.26003145268E-01  0.00000000000E+00 0. -1.
     999901    1    3    3    0    0 -0.65030165735E-01  0.79387797389E-02 -0.97016087611E-01  0.88775225594E+00  0.88000000000E+00 0. -1.
        -11    1    4    4    0    0  0.36483264030E-01 -0.26524022881E-01  0.76819850239E-01  0.89084807099E-01  0.51100000000E-03 0. -1.
         11    1    4    4    0    0  0.28182590650E-01 -0.57551657796E-02  0.29338192022E-01  0.41089791689E-01  0.51100000000E-03 0.  1.
</event>
<event>
 8    1  0.1123450E+005  0.1043930E+01  0.7957747E-01            NaN
         13   -1    0    0    0    0  0.00000000000E+00  0.00000000000E+00  0.74505805969E-08  0.10566000000E+00  0.10566000000E+00 0.  1.
     999900   -1    0    0    0    0 -0.00000000000E+00 -0.00000000000E+00 -0.74505805969E-08  0.93827000000E+00  0.93827000000E+00 0.  1.
     999902    2    1    2    0    0 -0.22067378268E-01  0.90620838790E-02 -0.74723638594E-02  0.10189314647E+01  0.10186247606E+01 0.  0.
     999903    2    3    3    0    0 -0.10026478255E+00  0.19922028315E-01 -0.81492739035E-01  0.13230201084E+00  0.20318506949E-01 0.  0.
         14    1    1    2    0    0  0.22067378268E-01 -0.90620838790E-02  0.74723638594E-02  0.24998535347E-01  0.00000000000E+00 0.  1.
     999901    1    3    3    0    0  0.78197404283E-01 -0.10859944436E-01  0.74020375175E-01  0.88662945381E+00  0.88000000000E+00 0. -1.
        -11    1    4    4    0    0 -0.27133063911E-01 -0.31581975133E-02 -0.17750001605E-01  0.32580685179E-01  0.51100000000E-03 0.  1.
         11    1    4    4    0    0 -0.73131718639E-01  0.23080225829E-01 -0.63742737429E-01  0.99721325660E-01  0.51100000000E-03 0. -1.
</event>
<event>
 8    1  0.1123450E+005  0.1043930E+01  0.7957747E-01            NaN
         13   -1    0    0    0    0  0.00000000000E+00  0.00000000000E+00  0.74505805969E-08  0.10566000000E+00  0.10566000000E+00 0.  1.
     999900   -1    0    0    0    0 -0.00000000000E+00 -0.00000000000E+00 -0.74505805969E-08  0.93827000000E+00  0.93827000000E+00 0. -1.
     999902    2    1    2    0    0  0.27748888947E-02  0.22750177423E-01  0.13460029667E-01  0.10173510049E+01  0.10170037484E+01 0.  0.
     999903    2    3    3    0    0 -0.67042731095E-01 -0.10334673783E+00  0.14421636220E-01  0.12562466977E+00  0.19957405949E-01 0.  0.
         14    1    1    2    0    0 -0.27748888947E-02 -0.22750177423E-01 -0.13460029667E-01  0.26578995087E-01  0.00000000000E+00 0. -1.
     999901    1    3    3    0    0  0.69817619990E-01  0.12609691525E+00 -0.96160655241E-03  0.89172633514E+00  0.88000000000E+00 0. -1.
        -11    1    4    4    0    0 -0.56575295709E-01 -0.80242171223E-01  0.41992465408E-02  0.98272401618E-01  0.51100000000E-03 0. -1.
         11    1    4    4    0    0 -0.10467435386E-01 -0.23104566603E-01  0.10222389679E-01  0.27352268155E-01  0.51100000000E-03 0.  1.
</event>
<event>
 8    1  0.1123450E+005  0.1043930E+01  0.7957747E-01            NaN
         13   -1    0    0    0    0  0.00000000000E+00  0.00000000000E+00  0.74505805969E-08  0.10566000000E+00  0.10566000000E+00 0. -1.
     999900   -1    0    0    0    0 -0.00000000000E+00 -0.00000000000E+00 -0.74505805969E-08  0.93827000000E+00  0.93827000000E+00 0. -1.
     999902    2    1    2    0    0 -0.10004760508E-01 -0.16671508943E-01 -0.13602608050E-01  0.10202010011E+01  0.10199250057E+01 0.  0.
     999903    2    3    3    0    0 -0.15787161837E-02 -0.11813525807E+00 -0.59171695240E-01  0.13315960842E+00  0.16485152530E-01 0.  0.
         14    1    1    2    0    0  0.10004760508E-01  0.16671508943E-01  0.13602608050E-01  0.23728998905E-01  0.00000000000E+00 0. -1.
     999901    1    3    3    0    0 -0.84260443244E-02  0.10146374913E+00  0.45569087189E-01  0.88704139267E+00  0.88000000000E+00 0.  1.
        -11    1    4    4    0    0 -0.88399921649E-02 -0.64161355225E-01 -0.34214977865E-01  0.73251285293E-01  0.51100000000E-03 0.  1.
         11    1    4    4    0    0  0.72612759811E-02 -0.53973902843E-01 -0.24956717374E-01  0.59908323129E-01  0.51100000000E-03 0. -1.
</event>
<event>
 8    1  0.1123450E+005  0.1043930E+01  0.7957747E-01            NaN
         13   -1    0    0    0    0  0.00000000000E+00  0.00000000000E+00  0.74505805969E-08  0.10566000000E+00  0.10566000000E+00 0.  1.
     999900   -1    0    0    0    0 -0.00000000000E+00 -0.00000000000E+00 -0.74505805969E-08  0.93827000000E+00  0.93827000000E+00 0.  1.
     999902    2    1    2    0    0  0.21450518168E-01 -0.56364146354E-02  0.74417110686E-02  0.10205361341E+01  0.10202679687E+01 0.  0.
     999903    2    3    3    0    0 -0.28095289893E-01 -0.10054375503E+00  0.77215193690E-01  0.13130583250E+00  0.19510087667E-01 0.  0.
         14    1    1    2    0    0 -0.21450518168E-01  0.56364146354E-02 -0.74417110686E-02  0.23393865932E-01  0.00000000000E+00 0. -1.
     999901    1    3    3    0    0  0.49545808061E-01  0.94907340396E-01 -0.69773482621E-01  0.88923030157E+00  0.88000000000E+00 0. -1.
        -11    1    4    4    0    0 -0.33760476102E-02 -0.44265014931E-01  0.27270173117E-01  0.52102904978E-01  0.51100000000E-03 0.  1.
         11    1    4    4    0    0 -0.24719242283E-01 -0.56278740100E-01  0.49945020573E-01  0.79202927518E-01  0.51100000000E-03 0. -1.
</event>
<event>
 8    1  0.1123450E+005  0.1043930E+01  0.7957747E-01            NaN
         13   -1    0    0    0    0  0.00000000000E+00  0.00000000000E+00  0.74505805969E-08  0.10566000000E+00  0.10566000000E+00 0. -1.
     999900   -1    0    0    0    0 -0.00000000000E+00 -0.00000000000E+00 -0.74505805969E-08  0.93827000000E+00  0.93827000000E+00 0. -1.
     999902    2    1    2    0    0  0.14900488010E-02  0.23201928223E-01  0.38832373327E-02  0.10203582107E+01  0.10200859027E+01 0.  0.
     999903    2    3    3    0    0  0.87446541985E-01 -0.69009596953E-01 -0.61804162574E-01  0.12895127859E+00  0.19986384441E-01 0.  0.
         14    1    1    2    0    0 -0.14900488010E-02 -0.23201928223E-01 -0.38832373327E-02  0.23571789302E-01  0.00000000000E+00 0. -1.
     999901    1    3    3    0    0 -0.85956493184E-01  0.92211525176E-01  0.65687399907E-01  0.89140693210E+00  0.88000000000E+00 0.  1.
        -11    1    4    4    0    0  0.59155252364E-01 -0.39183217091E-01 -0.30300588785E-01  0.77156044388E-01  0.51100000000E-03 0.  1.
         11    1    4    4    0    0  0.28291289621E-01 -0.29826379861E-01 -0.31503573789E-01  0.51795234206E-01  0.51100000000E-03 0. -1.
</event>
<event>
 8    1  0.1123450E+005  0.1043930E+01  0.7957747E-01            NaN
         13   -1    0    0    0    0  0.00000000000E+00  0.00000000000E+00  0.74505805969E-08  0.10566000000E+00  0.10566000000E+00 0.  1.
     999900   -1    0    0    0    0 -0.00000000000E+00 -0.00000000000E+00 -0.74505805969E-08  0.93827000000E+00  0.93827000000E+00 0.  1.
     999902    2    1    2    0    0 -0.93751428290E-02 -0.17707761902E-01 -0.12009892754E-01  0.10205698703E+01  0.10203024868E+01 0.  0.
     999903    2    3    3    0    0 -0.46445186116E-01 -0.39002939245E-01 -0.11555751408E+00  0.13346796943E+00  0.27960243565E-01 0.  0.
         14    1    1    2    0    0  0.93751428290E-02  0.17707761902E-01  0.12009892754E-01  0.23360129679E-01  0.00000000000E+00 0.  1.
     999901    1    3    3    0    0  0.37070043287E-01  0.21295177343E-01  0.10354762132E+00  0.88710190089E+00  0.88000000000E+00 0. -1.
        -11    1    4    4    0    0 -0.25314164200E-01 -0.35252121405E-01 -0.61228007846E-01  0.75050976266E-01  0.51100000000E-03 0.  1.
         11    1    4    4    0    0 -0.21131021916E-01 -0.37508178401E-02 -0.54329506232E-01  0.58416993162E-01  0.51100000000E-03 0. -1.
</event>
<event>
 8    1  0.1123450E+005  0.1043930E+01  0.7957747E-01            NaN
         13   -1    0    0    0    0  0.00000000000E+00  0.00000000000E+00  0.74505805969E-08  0.10566000000E+00  0.10566000000E+00 0.  1.
     999900   -1    0    0    0    0 -0.00000000000E+00 -0.00000000000E+00 -0.74505805969E-08  0.93827000000E+00  0.93827000000E+00 0. -1.
     999902    2    1    2    0    0 -0.17835078165E-01 -0.33822060315E-02  0.14676253483E-01  0.10205864410E+01  0.10203194411E+01 0.  0.
     999903    2    3    3    0    0  0.12142043926E+00 -0.12356194751E-01 -0.33557356911E-01  0.12828654030E+00  0.20874424536E-01 0.  0.
         14    1    1    2    0    0  0.17835078165E-01  0.33822060315E-02 -0.14676253483E-01  0.23343559007E-01  0.00000000000E+00 0. -1.
     999901    1    3    3    0    0 -0.13925551743E+00  0.89739887196E-02  0.48233610393E-01  0.89229990069E+00  0.88000000000E+00 0.  1.
        -11    1    4    4    0    0  0.40877145744E-01 -0.97449595941E-02 -0.20093449402E-01  0.46582326171E-01  0.51100000000E-03 0.  1.
         11    1    4    4    0    0  0.80543293518E-01 -0.26112351570E-02 -0.13463907508E-01  0.81704214128E-01  0.51100000000E-03 0. -1.
</event>
<event>
 8    1  0.1123450E+005  0.1043930E+01  0.7957747E-01            NaN
         13   -1    0    0    0    0  0.00000000000E+00  0.00000000000E+00  0.74505805969E-08  0.10566000000E+00  0.10566000000E+00 0. -1.
     999900   -1    0    0    0    0 -0.00000000000E+00 -0.00000000000E+00 -0.74505805969E-08  0.93827000000E+00  0.93827000000E+00 0. -1.
     999902    2    1    2    0    0 -0.53109644803E-02  0.22278100718E-01 -0.48217007021E-02  0.10205255365E+01  0.10202571253E+01 0.  0.
     999903    2    3    3    0    0 -0.38579515284E-01  0.11454372968E+00  0.51469139020E-01  0.13328915230E+00  0.22545084634E-01 0.  0.
         14    1    1    2    0    0  0.53109644803E-02 -0.22278100718E-01  0.48217007021E-02  0.23404463526E-01  0.00000000000E+00 0.  1.
     999901    1    3    3    0    0  0.33268550803E-01 -0.92265628964E-01 -0.56290839722E-01  0.88723638417E+00  0.88000000000E+00 0. -1.
        -11    1    4    4    0    0 -0.51801879709E-02  0.49916961532E-01  0.20009412169E-01  0.54029391005E-01  0.51100000000E-03 0.  1.
         11    1    4    4    0    0 -0.33399327313E-01  0.64626768150E-01  0.31459726851E-01  0.79259761298E-01  0.51100000000E-03 0. -1.
</event>
<event>
 8    1  0.1123450E+005  0.1043930E+01  0.7957747E-01            NaN
         13   -1    0    0    0    0  0.00000000000E+00  0.00000000000E+00  0.74505805969E-08  0.10566000000E+00  0.10566000000E+00 0.  1.
     999900   -1    0    0    0    0 -0.00000000000E+00 -0.00000000000E+00 -0.74505805969E-08  0.93827000000E+00  0.93827000000E+00 0.  1.
     999902    2    1    2    0    0  0.20794092503E-01  0.25435977645E-02  0.78846371096E-02  0.10215462632E+01  0.10213010017E+01 0.  0.
     999903    2    3    3    0    0 -0.57794353341E-01  0.98143437814E-01 -0.61707561120E-01  0.13016612691E+00  0.12770114818E-01 0.  0.
         14    1    1    2    0    0 -0.20794092503E-01 -0.25435977645E-02 -0.78846371096E-02  0.22383736841E-01  0.00000000000E+00 0. -1.
     999901    1    3    3    0    0  0.78588445844E-01 -0.95599840050E-01  0.69592198229E-01  0.89138013624E+00  0.88000000000E+00 0. -1.
        -11    1    4    4    0    0 -0.35064715747E-01  0.60789728984E-01 -0.44926322567E-01  0.83328032622E-01  0.51100000000E-03 0.  1.
         11    1    4    4    0    0 -0.22729637594E-01  0.37353708831E-01 -0.16781238553E-01  0.46838094292E-01  0.51100000000E-03 0. -1.
</event>
<event>
 8    1  0.1123450E+005  0.1043930E+01  0.7957747E-01            NaN
         13   -1    0    0    0    0  0.00000000000E+00  0.00000000000E+00  0.74505805969E-08  0.10566000000E+00  0.10566000000E+00 0.  1.
     999900   -1    0    0    0    0 -0.00000000000E+00 -0.00000000000E+00 -0.74505805969E-08  0.93827000000E+00  0.93827000000E+00 0. -1.
     999902    2    1    2    0    0 -0.19988791418E-02 -0.22322532954E-01  0.43046420271E-02  0.10211084983E+01  0.10208534393E+01 0.  0.
     999903    2    3    3    0    0  0.10242781252E-01 -0.11817350008E+00 -0.58373435471E-01  0.13360311382E+00  0.19298791786E-01 0.  0.
         14    1    1    2    0    0  0.19988791418E-02  0.22322532954E-01 -0.43046420271E-02  0.22821501666E-01  0.00000000000E+00 0.  1.
     999901    1    3    3    0    0 -0.12241660394E-01  0.95850967125E-01  0.62678077498E-01  0.88750538452E+00  0.88000000000E+00 0.  1.
        -11    1    4    4    0    0  0.60330050802E-02 -0.27246218904E-01 -0.58732873990E-02  0.28522100567E-01  0.51100000000E-03 0. -1.
         11    1    4    4    0    0  0.42097761723E-02 -0.90927281175E-01 -0.52500148072E-01  0.10508101325E+00  0.51100000000E-03 0.  1.
</event>
<event>
 8    1  0.1123450E+005  0.1043930E+01  0.7957747E-01            NaN
         13   -1    0    0    0    0  0.00000000000E+00  0.00000000000E+00  0.74505805969E-08  0.10566000000E+00  0.10566000000E+00 0. -1.
     999900   -1    0    0    0    0 -0.00000000000E+00 -0.00000000000E+00 -0.74505805969E-08  0.93827000000E+00  0.93827000000E+00 0.  1.
     999902    2    1    2    0    0 -0.16920591810E-01 -0.81568694575E-02 -0.15644290857E-01  0.10194844527E+01  0.10191913287E+01 0.  0.
     999903    2    3    3    0    0 -0.70514175270E-01 -0.86165838656E-02 -0.11065709950E+00  0.13274891302E+00  0.18187517825E-01 0.  0.
         14    1    1    2    0    0  0.16920591810E-01  0.81568694575E-02  0.15644290857E-01  0.24445547303E-01  0.00000000000E+00 0. -1.
     999901    1    3    3    0    0  0.53593583461E-01  0.45971440814E-03  0.95012808647E-01  0.88673553968E+00  0.88000000000E+00 0. -1.
        -11    1    4    4    0    0 -0.47828692628E-01 -0.13363160711E-01 -0.82280067168E-01  0.96106339420E-01  0.51100000000E-03 0.  1.
         11    1    4    4    0    0 -0.22685482643E-01  0.47465768451E-02 -0.28377032337E-01  0.36642573596E-01  0.51100000000E-03 0. -1.
</event>
<event>
 8    1  0.1123450E+005  0.1043930E+01  0.7957747E-01            NaN
         13   -1    0    0    0    0  0.00000000000E+00  0.00000000000E+00  0.74505805969E-08  0.10566000000E+00  0.10566000000E+00 0. -1.
     999900   -1    0    0    0    0 -0.00000000000E+00 -0.00000000000E+00 -0.74505805969E-08  0.93827000000E+00  0.93827000000E+00 0. -1.
     999902    2    1    2    0    0 -0.12989954310E-01 -0.22715159087E-02  0.20841463930E-01  0.10192669646E+01  0.10189685372E+01 0.  0.
     999903    2    3    3    0    0 -0.93969082838E-01 -0.65939099691E-01  0.63789291450E-01  0.13221809537E+00  0.15310050325E-01 0.  0.
         14    1    1    2    0    0  0.12989954310E-01  0.22715159087E-02 -0.20841463930E-01  0.24663035422E-01  0.00000000000E+00 0.  1.
     999901    1    3    3    0    0  0.80979128528E-01  0.63667583782E-01 -0.42947827521E-01  0.88704886921E+00  0.88000000000E+00 0.  1.
        -11    1    4    4    0    0 -0.15443954359E-01 -0.13773242136E-01  0.17909585953E-01  0.27372108344E-01  0.51100000000E-03 0.  1.
         11    1    4    4    0    0 -0.78525128479E-01 -0.52165857555E-01  0.45879705497E-01  0.10484598702E+00  0.51100000000E-03 0. -1.
</event>
<event>
 8    1  0.1123450E+005  0.1043930E+01  0.7957747E-01            NaN
         13   -1    0    0    0    0  0.00000000000E+00  0.00000000000E+00  0.74505805969E-08  0.10566000000E+00  0.10566000000E+00 0.  1.
     999900   -1    0    0    0    0 -0.00000000000E+00 -0.00000000000E+00 -0.74505805969E-08  0.93827000000E+00  0.93827000000E+00 0.  1.
     999902    2    1    2    0    0  0.85433439660E-02 -0.22741131033E-01  0.49091345857E-02  0.10191459856E+01  0.10188445871E+01 0.  0.
     999903    2    3    3    0    0 -0.61997156963E-01 -0.10993645519E-01  0.11175191988E+00  0.12980389932E+00  0.19901079581E-01 0.  0.
         14    1    1    2    0    0 -0.85433439660E-02  0.22741131033E-01 -0.49091345857E-02  0.24784014388E-01  0.00000000000E+00 0. -1.
     999901    1    3    3    0    0  0.70540500929E-01 -0.11747485514E-01 -0.10684278529E+00  0.88934208630E+00  0.88000000000E+00 0.  1.
        -11    1    4    4    0    0 -0.50141226456E-01 -0.16541597339E-01  0.92692426866E-01  0.10667668045E+00  0.51100000000E-03 0.  1.
         11    1    4    4    0    0 -0.11855930507E-01  0.55479518201E-02  0.19059493011E-01  0.23127218865E-01  0.51100000000E-03 0. -1.
</event>
<event>
 8    1  0.1123450E+005  0.1043930E+01  0.7957747E-01            NaN
         13   -1    0    0    0    0  0.00000000000E+00  0.00000000000E+00  0.74505805969E-08  0.10566000000E+00  0.10566000000E+00 0.  1.
     999900   -1    0    0    0    0 -0.00000000000E+00 -0.00000000000E+00 -0.74505805969E-08  0.93827000000E+00  0.93827000000E+00 0. -1.
     999902    2    1    2    0    0  0.11415061968E-01  0.12777035900E-01 -0.15514177676E-01  0.10208162380E+01  0.10205545285E+01 0.  0.
     999903    2    3    3    0    0  0.51405607160E-02 -0.12603700585E+00 -0.23804533889E-01  0.12987435572E+00  0.19721567667E-01 0.  0.
         14    1    1    2    0    0 -0.11415061968E-01 -0.12777035900E-01  0.15514177676E-01  0.23113762028E-01  0.00000000000E+00 0.  1.
     999901    1    3    3    0    0  0.62745012517E-02  0.13881404175E+00  0.82903562133E-02  0.89094188226E+00  0.88000000000E+00 0.  1.
        -11    1    4    4    0    0 -0.67256527981E-02 -0.24958547058E-01 -0.62343454594E-02  0.26594955558E-01  0.51100000000E-03 0.  1.
         11    1    4    4    0    0  0.11866213514E-01 -0.10107845879E+00 -0.17570188430E-01  0.10327940016E+00  0.51100000000E-03 0. -1.
</event>
<event>
 8    1  0.1123450E+005  0.1043930E+01  0.7957747E-01            NaN
         13   -1    0    0    0    0  0.00000000000E+00  0.00000000000E+00  0.74505805969E-08  0.10566000000E+00  0.10566000000E+00 0. -1.
     999900   -1    0    0    0    0 -0.00000000000E+00 -0.00000000000E+00 -0.74505805969E-08  0.93827000000E+00  0.93827000000E+00 0.  1.
     999902    2    1    2    0    0 -0.47898029490E-02  0.21404021025E-01  0.61943645145E-02  0.10211386753E+01  0.10208842979E+01 0.  0.
     999903    2    3    3    0    0  0.97932633331E-01 -0.40361598647E-01 -0.71698372505E-01  0.12960394849E+00  0.20896591287E-01 0.  0.
         14    1    1    2    0    0  0.47898029490E-02 -0.21404021025E-01 -0.61943645145E-02  0.22791324667E-01  0.00000000000E+00 0. -1.
     999901    1    3    3    0    0 -0.10272243628E+00  0.61765619672E-01  0.77892737020E-01  0.89153472684E+00  0.88000000000E+00 0. -1.
        -11    1    4    4    0    0  0.90207756857E-01 -0.32817437652E-01 -0.69656342501E-01  0.11860308083E+00  0.51100000000E-03 0.  1.
         11    1    4    4    0    0  0.77248764741E-02 -0.75441609949E-02 -0.20420300039E-02  0.11000867656E-01  0.51100000000E-03 0. -1.
</event>
<event>
 8    1  0.1123450E+005  0.1043930E+01  0.7957747E-01            NaN
         13   -1    0    0    0    0  0.00000000000E+00  0.00000000000E+00  0.74505805969E-08  0.10566000000E+00  0.10566000000E+00 0. -1.
     999900   -1    0    0    0    0 -0.00000000000E+00 -0.00000000000E+00 -0.74505805969E-08  0.93827000000E+00  0.93827000000E+00 0.  1.
     999902    2    1    2    0    0 -0.13864055136E-01 -0.18759267072E-01 -0.53186211319E-02  0.10200049116E+01  0.10197242812E+01 0.  0.
     999903    2    3    3    0    0 -0.51856592070E-01  0.11211060738E+00 -0.31615148161E-01  0.12912789186E+00  0.20410792112E-01 0.  0.
         14    1    1    2    0    0  0.13864055136E-01  0.18759267072E-01  0.53186211319E-02  0.23925088436E-01  0.00000000000E+00 0.  1.
     999901    1    3    3    0    0  0.37992536934E-01 -0.13086987445E+00  0.26296527029E-01  0.89087701970E+00  0.88000000000E+00 0. -1.
        -11    1    4    4    0    0 -0.40450251067E-01  0.67180431642E-01 -0.24947537453E-01  0.82292611777E-01  0.51100000000E-03 0. -1.
         11    1    4    4    0    0 -0.11406341003E-01  0.44930175739E-01 -0.66676107074E-02  0.46835280084E-01  0.51100000000E-03 0.  1.
</event>
<event>
 8    1  0.1123450E+005  0.1043930E+01  0.7957747E-01            NaN
         13   -1    0    0    0    0  0.00000000000E+00  0.00000000000E+00  0.74505805969E-08  0.10566000000E+00  0.10566000000E+00 0. -1.
     999900   -1    0    0    0    0 -0.00000000000E+00 -0.00000000000E+00 -0.74505805969E-08  0.93827000000E+00  0.93827000000E+00 0.  1.
     999902    2    1    2    0    0 -0.17828054780E-01  0.15332095330E-02 -0.15594074286E-01  0.10201946799E+01  0.10199185357E+01 0.  0.
     999903    2    3    3    0    0 -0.75797016051E-01  0.57009140950E-01 -0.91587325677E-01  0.13328264720E+00  0.19513995664E-01 0.  0.
         14    1    1    2    0    0  0.17828054780E-01 -0.15332095330E-02  0.15594074286E-01  0.23735320127E-01  0.00000000000E+00 0. -1.
     999901    1    3    3    0    0  0.57968961271E-01 -0.55475931417E-01  0.75993251391E-01  0.88691203267E+00  0.88000000000E+00 0.  1.
        -11    1    4    4    0    0 -0.63753286141E-01  0.37907381509E-01 -0.68044609574E-01  0.10065674880E+00  0.51100000000E-03 0.  1.
         11    1    4    4    0    0 -0.12043729910E-01  0.19101759441E-01 -0.23542716103E-01  0.32625898400E-01  0.51100000000E-03 0. -1.
</event>
<event>
 8    1  0.1123450E+005  0.1043930E+01  0.7957747E-01            NaN
         13   -1    0    0    0    0  0.00000000000E+00  0.00000000000E+00  0.74505805969E-08  0.10566000000E+00  0.10566000000E+00 0. -1.
     999900   -1    0    0    0    0 -0.00000000000E+00 -0.00000000000E+00 -0.74505805969E-08  0.93827000000E+00  0.93827000000E+00 0.  1.
     999902    2    1    2    0    0  0.73597951909E-02 -0.20277091268E-01 -0.88273525007E-02  0.10206222938E+01  0.10203561229E+01 0.  0.
     999903    2    3    3    0    0 -0.23926643211E-01 -0.90269702782E-01  0.90878670638E-01  0.13167960840E+00  0.18960036823E-01 0.  0.
         14    1    1    2    0    0 -0.73597951909E-02  0.20277091268E-01  0.88273525007E-02  0.23307706188E-01  0.00000000000E+00 0. -1.
     999901    1    3    3    0    0  0.31286438402E-01  0.69992611513E-01 -0.99706023139E-01  0.88894268541E+00  0.88000000000E+00 0.  1.
        -11    1    4    4    0    0 -0.19715074956E-01 -0.82390320527E-01  0.73609724240E-01  0.11222968289E+00  0.51100000000E-03 0. -1.
         11    1    4    4    0    0 -0.42115682546E-02 -0.78793822552E-02  0.17268946398E-01  0.19449925516E-01  0.51100000000E-03 0.  1.
</event>
<event>
 8    1  0.1298136E+005  0.1043930E+01  0.7957747E-01            NaN
         13   -1    0    0    0    0  0.00000000000E+00  0.00000000000E+00  0.74505805969E-08  0.10566000000E+00  0.10566000000E+00 0. -1.
     999900   -1    0    0    0    0 -0.00000000000E+00 -0.00000000000E+00 -0.74505805969E-08  0.93827000000E+00  0.93827000000E+00 0.  1.
     999902    2    1    2    0    0 -0.19378944691E-01 -0.10038944455E-02 -0.13393889513E-01  0.10203514594E+01  0.10200789936E+01 0.  0.
     999903    2    3    3    0    0 -0.50239261065E-01 -0.82586695063E-01  0.85178325243E-01  0.13056238662E+00  0.21133957394E-01 0.  0.
         14    1    1    2    0    0  0.19378944691E-01  0.10038944455E-02  0.13393889513E-01  0.23578540618E-01  0.00000000000E+00 0. -1.
     999901    1    3    3    0    0  0.30860316373E-01  0.81582800618E-01 -0.98572214755E-01  0.88978907276E+00  0.88000000000E+00 0.  1.
        -11    1    4    4    0    0 -0.29005615704E-01 -0.27840680141E-01  0.33316747588E-01  0.52217774789E-01  0.51100000000E-03 0. -1.
         11    1    4    4    0    0 -0.21233645360E-01 -0.54746014922E-01  0.51861577655E-01  0.78344611832E-01  0.51100000000E-03 0.  1.
</event>
<event>
 8    1  0.1123450E+005  0.1043930E+01  0.7957747E-01            NaN
         13   -1    0    0    0    0  0.00000000000E+00  0.00000000000E+00  0.74505805969E-08  0.10566000000E+00  0.10566000000E+00 0.  1.
     999900   -1    0    0    0    0 -0.00000000000E+00 -0.00000000000E+00 -0.74505805969E-08  0.93827000000E+00  0.93827000000E+00 0. -1.
     999902    2    1    2    0    0  0.19717498322E-01 -0.12045287444E-01 -0.50373955260E-02  0.10202816588E+01  0.10200075584E+01 0.  0.
     999903    2    3    3    0    0 -0.11769775811E+00  0.40666178402E-01  0.20027388623E-01  0.12770690294E+00  0.20036377729E-01 0.  0.
         14    1    1    2    0    0 -0.19717498322E-01  0.12045287444E-01  0.50373955260E-02  0.23648341239E-01  0.00000000000E+00 0.  1.
     999901    1    3    3    0    0  0.13741525643E+00 -0.52711465845E-01 -0.25064784149E-01  0.89257475583E+00  0.88000000000E+00 0.  1.
        -11    1    4    4    0    0 -0.74131628837E-01  0.28589286004E-01  0.22023731555E-01  0.82450903821E-01  0.51100000000E-03 0. -1.
         11    1    4    4    0    0 -0.43566129273E-01  0.12076892398E-01 -0.19963429317E-02  0.45255999115E-01  0.51100000000E-03 0.  1.
</event>
<event>
 8    1  0.1123450E+005  0.1043930E+01  0.7957747E-01            NaN
         13   -1    0    0    0    0  0.00000000000E+00  0.00000000000E+00  0.74505805969E-08  0.10566000000E+00  0.10566000000E+00 0.  1.
     999900   -1    0    0    0    0 -0.00000000000E+00 -0.00000000000E+00 -0.74505805969E-08  0.93827000000E+00  0.93827000000E+00 0. -1.
     999902    2    1    2    0    0 -0.17924528476E-01  0.40111731667E-04  0.14314082937E-01  0.10209913143E+01  0.10207335992E+01 0.  0.
     999903    2    3    3    0    0  0.90638547260E-01  0.75175798849E-01  0.52130657032E-01  0.13033907795E+00  0.20097832116E-01 0.  0.
         14    1    1    2    0    0  0.17924528476E-01 -0.40111731667E-04 -0.14314082937E-01  0.22938685672E-01  0.00000000000E+00 0. -1.
     999901    1    3    3    0    0 -0.10856307574E+00 -0.75135687117E-01 -0.37816574095E-01  0.89065223638E+00  0.88000000000E+00 0. -1.
        -11    1    4    4    0    0  0.53468304877E-01  0.55091305716E-01  0.28257665320E-01  0.81808730355E-01  0.51100000000E-03 0. -1.
         11    1    4    4    0    0  0.37170242383E-01  0.20084493132E-01  0.23872991713E-01  0.48530347593E-01  0.51100000000E-03 0.  1.
</event>
<event>
 8    1  0.1123450E+005  0.1043930E+01  0.7957747E-01            NaN
         13   -1    0    0    0    0  0.00000000000E+00  0.00000000000E+00  0.74505805969E-08  0.10566000000E+00  0.10566000000E+00 0. -1.
     999900   -1    0    0    0    0 -0.00000000000E+00 -0.00000000000E+00 -0.74505805969E-08  0.93827000000E+00  0.93827000000E+00 0. -1.
     999902    2    1    2    0    0 -0.15204885782E-01  0.86208087894E-02 -0.76974666783E-02  0.10248313642E+01  0.10246533888E+01 0.  0.
     999903    2    3    3    0    0  0.62245459775E-02  0.12928386543E+00 -0.35920135223E-01  0.13589080781E+00  0.20566786330E-01 0.  0.
         14    1    1    2    0    0  0.15204885782E-01 -0.86208087894E-02  0.76974666783E-02  0.19098635791E-01  0.00000000000E+00 0.  1.
     999901    1    3    3    0    0 -0.21429431759E-01 -0.12066305664E+00  0.28222668545E-01  0.88894055640E+00  0.88000000000E+00 0.  1.
        -11    1    4    4    0    0  0.60409795667E-02  0.39069797214E-01 -0.19902712680E-01  0.44264224623E-01  0.51100000000E-03 0.  1.
         11    1    4    4    0    0  0.18356641080E-03  0.90214068219E-01 -0.16017422543E-01  0.91626583191E-01  0.51100000000E-03 0. -1.
</event>
<event>
 8    1  0.1123450E+005  0.1043930E+01  0.7957747E-01            NaN
         13   -1    0    0    0    0  0.00000000000E+00  0.00000000000E+00  0.74505805969E-08  0.10566000000E+00  0.10566000000E+00 0. -1.
     999900   -1    0    0    0    0 -0.00000000000E+00 -0.00000000000E+00 -0.74505805969E-08  0.93827000000E+00  0.93827000000E+00 0.  1.
     999902    2    1    2    0    0  0.14042936341E-01  0.97952130342E-02 -0.17611451222E-01  0.10193675597E+01  0.10190715913E+01 0.  0.
     999903    2    3    3    0    0  0.82198280427E-01  0.73924159108E-01  0.66198018449E-01  0.13044590969E+00  0.20313027893E-01 0.  0.
         14    1    1    2    0    0 -0.14042936341E-01 -0.97952130342E-02  0.17611451222E-01  0.24562440303E-01  0.00000000000E+00 0. -1.
     999901    1    3    3    0    0 -0.68155344087E-01 -0.64128946074E-01 -0.83809469671E-01  0.88892165001E+00  0.88000000000E+00 0.  1.
        -11    1    4    4    0    0  0.57489474547E-01  0.40428851138E-01  0.35611122979E-01  0.78790512683E-01  0.51100000000E-03 0. -1.
         11    1    4    4    0    0  0.24708805881E-01  0.33495307970E-01  0.30586895470E-01  0.51655397003E-01  0.51100000000E-03 0.  1.
</event>
<event>
 8    1  0.1123450E+005  0.1043930E+01  0.7957747E-01            NaN
         13   -1    0    0    0    0  0.00000000000E+00  0.00000000000E+00  0.74505805969E-08  0.10566000000E+00  0.10566000000E+00 0. -1.
     999900   -1    0    0    0    0 -0.00000000000E+00 -0.00000000000E+00 -0.74505805969E-08  0.93827000000E+00  0.93827000000E+00 0.  1.
     999902    2    1    2    0    0 -0.19135438090E-01 -0.90703806103E-02 -0.12363907328E-01  0.10194085196E+01  0.10191135496E+01 0.  0.
     999903    2    3    3    0    0  0.22559043955E-01  0.12478565106E+00 -0.30929572845E-03  0.12822886282E+00  0.19030933261E-01 0.  0.
         14    1    1    2    0    0  0.19135438090E-01  0.90703806103E-02  0.12363907328E-01  0.24521480374E-01  0.00000000000E+00 0. -1.
     999901    1    3    3    0    0 -0.41694482045E-01 -0.13385603167E+00 -0.12054611599E-01  0.89117965681E+00  0.88000000000E+00 0.  1.
        -11    1    4    4    0    0  0.21881245871E-01  0.73555055230E-01 -0.40949417874E-02  0.76851576041E-01  0.51100000000E-03 0. -1.
         11    1    4    4    0    0  0.67779808391E-03  0.51230595831E-01  0.37856460589E-02  0.51377286777E-01  0.51100000000E-03 0.  1.
</event>
<event>
 8    1  0.1123450E+005  0.1043930E+01  0.7957747E-01            NaN
         13   -1    0    0    0    0  0.00000000000E+00  0.00000000000E+00  0.74505805969E-08  0.10566000000E+00  0.10566000000E+00 0. -1.
     999900   -1    0    0    0    0 -0.00000000000E+00 -0.00000000000E+00 -0.74505805969E-08  0.93827000000E+00  0.93827000000E+00 0.  1.
     999902    2    1    2    0    0  0.82667966483E-02 -0.19408452519E-01 -0.89478546734E-02  0.10210151127E+01  0.10207579382E+01 0.  0.
     999903    2    3    3    0    0 -0.20634098140E-01 -0.68872895800E-01  0.10818098047E+00  0.13140780784E+00  0.19890843184E-01 0.  0.
         14    1    1    2    0    0 -0.82667966483E-02  0.19408452519E-01  0.89478546734E-02  0.22914887285E-01  0.00000000000E+00 0.  1.
     999901    1    3    3    0    0  0.28900894788E-01  0.49464443281E-01 -0.11712883515E+00  0.88960730488E+00  0.88000000000E+00 0. -1.
        -11    1    4    4    0    0 -0.66175168428E-02 -0.46648264054E-01  0.57687803479E-01  0.74484870005E-01  0.51100000000E-03 0. -1.
         11    1    4    4    0    0 -0.14016581297E-01 -0.22224631746E-01  0.50493176994E-01  0.56922937832E-01  0.51100000000E-03 0.  1.
</event>
<event>
 8    1  0.1123450E+005  0.1043930E+01  0.7957747E-01            NaN
         13   -1    0    0    0    0  0.00000000000E+00  0.00000000000E+00  0.74505805969E-08  0.10566000000E+00  0.10566000000E+00 0.  1.
     999900   -1    0    0    0    0 -0.00000000000E+00 -0.00000000000E+00 -0.74505805969E-08  0.93827000000E+00  0.93827000000E+00 0.  1.
     999902    2    1    2    0    0  0.21377361033E-01  0.13248777743E-01  0.54442650509E-02  0.10181974972E+01  0.10178722816E+01 0.  0.
     999903    2    3    3    0    0  0.74633303591E-01  0.10404069815E+00  0.23450213389E-01  0.13174186812E+00  0.20283254905E-01 0.  0.
         14    1    1    2    0    0 -0.21377361033E-01 -0.13248777743E-01 -0.54442650509E-02  0.25732502761E-01  0.00000000000E+00 0.  1.
     999901    1    3    3    0    0 -0.53255942559E-01 -0.90791920410E-01 -0.18005948338E-01  0.88645562912E+00  0.88000000000E+00 0. -1.
        -11    1    4    4    0    0  0.39032389859E-01  0.40021867023E-01  0.45623908996E-02  0.56092368731E-01  0.51100000000E-03 0.  1.
         11    1    4    4    0    0  0.35600913733E-01  0.64018831129E-01  0.18887822489E-01  0.75649499385E-01  0.51100000000E-03 0. -1.
</event>
<event>
 8    1  0.1123450E+005  0.1043930E+01  0.7957747E-01            NaN
         13   -1    0    0    0    0  0.00000000000E+00  0.00000000000E+00  0.74505805969E-08  0.10566000000E+00  0.10566000000E+00 0.  1.
     999900   -1    0    0    0    0 -0.00000000000E+00 -0.00000000000E+00 -0.74505805969E-08  0.93827000000E+00  0.93827000000E+00 0. -1.
     999902    2    1    2    0    0  0.17814551898E-01 -0.17387937507E-02  0.16105759852E-01  0.10198514377E+01  0.10195671522E+01 0.  0.
     999903    2    3    3    0    0 -0.10372460194E+00 -0.51719821319E-01  0.53565519259E-01  0.12930491862E+00  0.20414802524E-01 0.  0.
         14    1    1    2    0    0 -0.17814551898E-01  0.17387937507E-02 -0.16105759852E-01  0.24078562321E-01  0.00000000000E+00 0. -1.
     999901    1    3    3    0    0  0.12153915383E+00  0.49981027569E-01 -0.37459759407E-01  0.89054651906E+00  0.88000000000E+00 0. -1.
        -11    1    4    4    0    0 -0.45280469096E-01 -0.13196039651E-01  0.27569573853E-01  0.54633312800E-01  0.51100000000E-03 0. -1.
         11    1    4    4    0    0 -0.58444132840E-01 -0.38523781668E-01  0.25995945406E-01  0.74671605821E-01  0.51100000000E-03 0.  1.
</event>
<event>
 8    1  0.1123450E+005  0.1043930E+01  0.7957747E-01            NaN
         13   -1    0    0    0    0  0.00000000000E+00  0.00000000000E+00  0.74505805969E-08  0.10566000000E+00  0.10566000000E+00 0.  1.
     999900   -1    0    0    0    0 -0.00000000000E+00 -0.00000000000E+00 -0.74505805969E-08  0.93827000000E+00  0.93827000000E+00 0.  1.
     999902    2    1    2    0    0  0.16210654861E-01  0.78465743307E-02 -0.18541848787E-01  0.10180813208E+01  0.10177531241E+01 0.  0.
     999903    2    3    3    0    0 -0.59942306192E-01 -0.10762766724E+00 -0.25365445601E-01  0.12725017215E+00  0.19297814757E-01 0.  0.
         14    1    1    2    0    0 -0.16210654861E-01 -0.78465743307E-02  0.18541848787E-01  0.25848679196E-01  0.00000000000E+00 0.  1.
     999901    1    3    3    0    0  0.76152961054E-01  0.11547424157E+00  0.68235968141E-02  0.89083114866E+00  0.88000000000E+00 0.  1.
        -11    1    4    4    0    0 -0.38632986037E-01 -0.58912234110E-01 -0.61869412157E-02  0.70722685898E-01  0.51100000000E-03 0.  1.
         11    1    4    4    0    0 -0.21309320156E-01 -0.48715433127E-01 -0.19178504385E-01  0.56527486249E-01  0.51100000000E-03 0. -1.
</event>
<event>
 8    1  0.1123450E+005  0.1043930E+01  0.7957747E-01            NaN
         13   -1    0    0    0    0  0.00000000000E+00  0.00000000000E+00  0.74505805969E-08  0.10566000000E+00  0.10566000000E+00 0. -1.
     999900   -1    0    0    0    0 -0.00000000000E+00 -0.00000000000E+00 -0.74505805969E-08  0.93827000000E+00  0.93827000000E+00 0.  1.
     999902    2    1    2    0    0  0.10592694348E-01  0.15751212544E-01 -0.11397330543E-01  0.10217894261E+01  0.10215495222E+01 0.  0.
     999903    2    3    3    0    0  0.49475754829E-01 -0.50986610073E-01  0.10752950497E+00  0.13043684625E+00  0.20092080450E-01 0.  0.
         14    1    1    2    0    0 -0.10592694348E-01 -0.15751212544E-01  0.11397330543E-01  0.22140573924E-01  0.00000000000E+00 0. -1.
     999901    1    3    3    0    0 -0.38883060481E-01  0.66737822617E-01 -0.11892683552E+00  0.89135257983E+00  0.88000000000E+00 0. -1.
        -11    1    4    4    0    0  0.25529605791E-01 -0.19814093718E-01  0.33094937656E-01  0.46259000218E-01  0.51100000000E-03 0.  1.
         11    1    4    4    0    0  0.23946149038E-01 -0.31172516355E-01  0.74434567317E-01  0.84177846031E-01  0.51100000000E-03 0. -1.
</event>
<event>
 8    1  0.1123450E+005  0.1043930E+01  0.7957747E-01            NaN
         13   -1    0    0    0    0  0.00000000000E+00  0.00000000000E+00  0.74505805969E-08  0.10566000000E+00  0.10566000000E+00 0.  1.
     999900   -1    0    0    0    0 -0.00000000000E+00 -0.00000000000E+00 -0.74505805969E-08  0.93827000000E+00  0.93827000000E+00 0.  1.
     999902    2    1    2    0    0 -0.98892361924E-02 -0.51807595797E-02 -0.19704993239E-01  0.10212821740E+01  0.10210310255E+01 0.  0.
     999903    2    3    3    0    0 -0.60027679595E-01 -0.16574728306E-01  0.11310248686E+00  0.12983306567E+00  0.13653148839E-01 0.  0.
         14    1    1    2    0    0  0.98892361924E-02  0.51807595797E-02  0.19704993239E-01  0.22647825963E-01  0.00000000000E+00 0.  1.
     999901    1    3    3    0    0  0.50138443403E-01  0.11393968727E-01 -0.13280748010E+00  0.89144910836E+00  0.88000000000E+00 0.  1.
        -11    1    4    4    0    0 -0.28986201575E-01 -0.62001772167E-02  0.40485307860E-01  0.50179312000E-01  0.51100000000E-03 0. -1.
         11    1    4    4    0    0 -0.31041478020E-01 -0.10374551090E-01  0.72617178997E-01  0.79653753675E-01  0.51100000000E-03 0.  1.
</event>
<event>
 8    1  0.1123450E+005  0.1043930E+01  0.7957747E-01            NaN
         13   -1    0    0    0    0  0.00000000000E+00  0.00000000000E+00  0.74505805969E-08  0.10566000000E+00  0.10566000000E+00 0. -1.
     999900   -1    0    0    0    0 -0.00000000000E+00 -0.00000000000E+00 -0.74505805969E-08  0.93827000000E+00  0.93827000000E+00 0.  1.
     999902    2    1    2    0    0  0.17048467548E-01  0.91071881988E-02  0.67200667772E-02  0.10234666078E+01  0.10232620128E+01 0.  0.
     999903    2    3    3    0    0  0.30489242495E-01  0.93327880631E-01 -0.89234089177E-01  0.13415171447E+00  0.19856299067E-01 0.  0.
         14    1    1    2    0    0 -0.17048467548E-01 -0.91071881988E-02 -0.67200667772E-02  0.20463392195E-01  0.00000000000E+00 0.  1.
     999901    1    3    3    0    0 -0.13440774947E-01 -0.84220692432E-01  0.95954155954E-01  0.88931489334E+00  0.88000000000E+00 0. -1.
        -11    1    4    4    0    0  0.17443153307E-01  0.24445515698E-01 -0.28166246585E-01  0.41175786607E-01  0.51100000000E-03 0. -1.
         11    1    4    4    0    0  0.13046089188E-01  0.68882364933E-01 -0.61067842593E-01  0.92975927862E-01  0.51100000000E-03 0.  1.
</event>
<event>
 8    1  0.1123450E+005  0.1043930E+01  0.7957747E-01            NaN
         13   -1    0    0    0    0  0.00000000000E+00  0.00000000000E+00  0.74505805969E-08  0.10566000000E+00  0.10566000000E+00 0.  1.
     999900   -1    0    0    0    0 -0.00000000000E+00 -0.00000000000E+00 -0.74505805969E-08  0.93827000000E+00  0.93827000000E+00 0. -1.
     999902    2    1    2    0    0 -0.99707783165E-02  0.17898366755E-01 -0.12398767074E-01  0.10199821947E+01  0.10197010249E+01 0.  0.
     999903    2    3    3    0    0  0.69465185487E-01 -0.84920560238E-01 -0.64210281290E-01  0.12893436374E+00  0.21545217184E-01 0.  0.
         14    1    1    2    0    0  0.99707783165E-02 -0.17898366755E-01  0.12398767074E-01  0.23947805279E-01  0.00000000000E+00 0.  1.
     999901    1    3    3    0    0 -0.79435963804E-01  0.10281892699E+00  0.51811514216E-01  0.89104783098E+00  0.88000000000E+00 0.  1.
        -11    1    4    4    0    0  0.32937249556E-01 -0.24172251340E-01 -0.21399600396E-01  0.46123358087E-01  0.51100000000E-03 0.  1.
         11    1    4    4    0    0  0.36527935931E-01 -0.60748308898E-01 -0.42810680894E-01  0.82811005651E-01  0.51100000000E-03 0. -1.
</event>
<event>
 8    1  0.1123450E+005  0.1043930E+01  0.7957747E-01            NaN
         13   -1    0    0    0    0  0.00000000000E+00  0.00000000000E+00  0.74505805969E-08  0.10566000000E+00  0.10566000000E+00 0.  1.
     999900   -1    0    0    0    0 -0.00000000000E+00 -0.00000000000E+00 -0.74505805969E-08  0.93827000000E+00  0.93827000000E+00 0.  1.
     999902    2    1    2    0    0 -0.77616832336E-02 -0.21595913441E-01 -0.58288248838E-02  0.10202529562E+01  0.10199781822E+01 0.  0.
     999903    2    3    3    0    0  0.38790789243E-02  0.12441820400E+00 -0.22010652207E-01  0.12799879881E+00  0.20106888042E-01 0.  0.
         14    1    1    2    0    0  0.77616832336E-02  0.21595913441E-01  0.58288248838E-02  0.23677043808E-01  0.00000000000E+00 0.  1.
     999901    1    3    3    0    0 -0.11640762158E-01 -0.14601411744E+00  0.16181827324E-01  0.89225415738E+00  0.88000000000E+00 0.  1.
        -11    1    4    4    0    0 -0.51501646080E-02  0.19959802756E-01 -0.84189646154E-02  0.22272359725E-01  0.51100000000E-03 0.  1.
         11    1    4    4    0    0  0.90292435323E-02  0.10445840124E+00 -0.13591687592E-01  0.10572643908E+00  0.51100000000E-03 0. -1.
</event>
<event>
 8    1  0.1123450E+005  0.1043930E+01  0.7957747E-01            NaN
         13   -1    0    0    0    0  0.00000000000E+00  0.00000000000E+00  0.74505805969E-08  0.10566000000E+00  0.10566000000E+00 0.  1.
     999900   -1    0    0    0    0 -0.00000000000E+00 -0.00000000000E+00 -0.74505805969E-08  0.93827000000E+00  0.93827000000E+00 0. -1.
     999902    2    1    2    0    0  0.16563500707E-01  0.11941401513E-01  0.10729690454E-01  0.10208632949E+01  0.10206026622E+01 0.  0.
     999903    2    3    3    0    0 -0.27660690321E-02 -0.92263975940E-01  0.90702701179E-01  0.13090370292E+00  0.19710582002E-01 0.  0.
         14    1    1    2    0    0 -0.16563500707E-01 -0.11941401513E-01 -0.10729690454E-01  0.23066705075E-01  0.00000000000E+00 0. -1.
     999901    1    3    3    0    0  0.19329569739E-01  0.10420537745E+00 -0.79973010725E-01  0.88995959200E+00  0.88000000000E+00 0. -1.
        -11    1    4    4    0    0 -0.10853484895E-01 -0.44797017412E-01  0.40841868792E-01  0.61586445512E-01  0.51100000000E-03 0. -1.
         11    1    4    4    0    0  0.80874158633E-02 -0.47466958528E-01  0.49860832387E-01  0.69317257408E-01  0.51100000000E-03 0.  1.
</event>
<event>
 8    1  0.1123450E+005  0.1043930E+01  0.7957747E-01            NaN
         13   -1    0    0    0    0  0.00000000000E+00  0.00000000000E+00  0.74505805969E-08  0.10566000000E+00  0.10566000000E+00 0.  1.
     999900   -1    0    0    0    0 -0.00000000000E+00 -0.00000000000E+00 -0.74505805969E-08  0.93827000000E+00  0.93827000000E+00 0. -1.
     999902    2    1    2    0    0  0.11425640178E-01 -0.10348744204E-01 -0.11148313421E-01  0.10249056300E+01  0.10247290490E+01 0.  0.
     999903    2    3    3    0    0 -0.43466175002E-01  0.10794576921E+00  0.57951425068E-01  0.13261561153E+00  0.26209450487E-01 0.  0.
         14    1    1    2    0    0 -0.11425640178E-01  0.10348744204E-01  0.11148313421E-01  0.19024369956E-01  0.00000000000E+00 0.  1.
     999901    1    3    3    0    0  0.54891815180E-01 -0.11829451342E+00 -0.69099738489E-01  0.89229001851E+00  0.88000000000E+00 0. -1.
        -11    1    4    4    0    0 -0.76185867734E-02  0.30607714351E-02  0.61177924151E-02  0.10251814046E-01  0.51100000000E-03 0.  1.
         11    1    4    4    0    0 -0.35847588229E-01  0.10488499778E+00  0.51833632653E-01  0.12236379749E+00  0.51100000000E-03 0. -1.
</event>
<event>
 8    1  0.1123450E+005  0.1043930E+01  0.7957747E-01            NaN
         13   -1    0    0    0    0  0.00000000000E+00  0.00000000000E+00  0.74505805969E-08  0.10566000000E+00  0.10566000000E+00 0. -1.
     999900   -1    0    0    0    0 -0.00000000000E+00 -0.00000000000E+00 -0.74505805969E-08  0.93827000000E+00  0.93827000000E+00 0. -1.
     999902    2    1    2    0    0 -0.11635561759E-01 -0.20580491607E-01  0.12360507203E-02  0.10202557365E+01  0.10199810278E+01 0.  0.
     999903    2    3    3    0    0  0.35555717461E-01  0.10166329725E+00  0.66945794625E-01  0.12812999915E+00  0.18328180852E-01 0.  0.
         14    1    1    2    0    0  0.11635561759E-01  0.20580491607E-01 -0.12360507203E-02  0.23674263528E-01  0.00000000000E+00 0. -1.
     999901    1    3    3    0    0 -0.47191279219E-01 -0.12224378885E+00 -0.65709743905E-01  0.89212573732E+00  0.88000000000E+00 0. -1.
        -11    1    4    4    0    0  0.34007746091E-01  0.77198756014E-01  0.47324002000E-01  0.96726402861E-01  0.51100000000E-03 0. -1.
         11    1    4    4    0    0  0.15479713695E-02  0.24464541232E-01  0.19621792626E-01  0.31403596289E-01  0.51100000000E-03 0.  1.
</event>
<event>
 8    1  0.1123450E+005  0.1043930E+01  0.7957747E-01            NaN
         13   -1    0    0    0    0  0.00000000000E+00  0.00000000000E+00  0.74505805969E-08  0.10566000000E+00  0.10566000000E+00 0. -1.
     999900   -1    0    0    0    0 -0.00000000000E+00 -0.00000000000E+00 -0.74505805969E-08  0.93827000000E+00  0.93827000000E+00 0.  1.
     999902    2    1    2    0    0  0.10020487657E-01  0.17498155073E-01 -0.12997029207E-01  0.10199400360E+01  0.10196578635E+01 0.  0.
     999903    2    3    3    0    0 -0.32126831553E-01  0.73754082214E-01 -0.10332637950E+00  0.13252777704E+00  0.20383155707E-01 0.  0.
         14    1    1    2    0    0 -0.10020487657E-01 -0.17498155073E-01  0.12997029207E-01  0.23989963987E-01  0.00000000000E+00 0. -1.
     999901    1    3    3    0    0  0.42147319210E-01 -0.56255927140E-01  0.90329350296E-01  0.88741225898E+00  0.88000000000E+00 0. -1.
        -11    1    4    4    0    0 -0.11373838118E-01  0.17396534475E-01 -0.14678572004E-01  0.25450446014E-01  0.51100000000E-03 0. -1.
         11    1    4    4    0    0 -0.20752993435E-01  0.56357547739E-01 -0.88647807500E-01  0.10707733102E+00  0.51100000000E-03 0.  1.
</event>
<event>
 8    1  0.1123450E+005  0.1043930E+01  0.7957747E-01            NaN
         13   -1    0    0    0    0  0.00000000000E+00  0.00000000000E+00  0.74505805969E-08  0.10566000000E+00  0.10566000000E+00 0.  1.
     999900   -1    0    0    0    0 -0.00000000000E+00 -0.00000000000E+00 -0.74505805969E-08  0.93827000000E+00  0.93827000000E+00 0.  1.
     999902    2    1    2    0    0  0.23373346759E-01 -0.56532139001E-02  0.23578477671E-02  0.10197673923E+01  0.10194810948E+01 0.  0.
     999903    2    3    3    0    0 -0.98250515939E-01  0.71953372016E-01 -0.32095074573E-01  0.12735372697E+00  0.18932150838E-01 0.  0.
         14    1    1    2    0    0 -0.23373346759E-01  0.56532139001E-02 -0.23578477671E-02  0.24162607727E-01  0.00000000000E+00 0. -1.
     999901    1    3    3    0    0  0.12162386270E+00 -0.77606585916E-01  0.34452922340E-01  0.89241366530E+00  0.88000000000E+00 0. -1.
        -11    1    4    4    0    0 -0.53360623036E-01  0.40281248954E-01 -0.27251062765E-01  0.72199838302E-01  0.51100000000E-03 0. -1.
         11    1    4    4    0    0 -0.44889892904E-01  0.31672123062E-01 -0.48440118079E-02  0.55153888671E-01  0.51100000000E-03 0.  1.
</event>
<event>
 8    1  0.1123450E+005  0.1043930E+01  0.7957747E-01            NaN
         13   -1    0    0    0    0  0.00000000000E+00  0.00000000000E+00  0.74505805969E-08  0.10566000000E+00  0.10566000000E+00 0. -1.
     999900   -1    0    0    0    0 -0.00000000000E+00 -0.00000000000E+00 -0.74505805969E-08  0.93827000000E+00  0.93827000000E+00 0. -1.
     999902    2    1    2    0    0  0.51517714619E-02  0.20923245473E-01  0.20848680393E-01  0.10139468310E+01  0.10135034216E+01 0.  0.
     999903    2    3    3    0    0 -0.48655168271E-01  0.10875538940E+00  0.41443406641E-01  0.12769979148E+00  0.19865061482E-01 0.  0.
         14    1    1    2    0    0 -0.51517714619E-02 -0.20923245473E-01 -0.20848680393E-01  0.29983169019E-01  0.00000000000E+00 0.  1.
     999901    1    3    3    0    0  0.53806939733E-01 -0.87832143927E-01 -0.20594726248E-01  0.88624703950E+00  0.88000000000E+00 0. -1.
        -11    1    4    4    0    0 -0.23432402552E-01  0.46055819856E-01  0.28057718866E-01  0.58802319180E-01  0.51100000000E-03 0.  1.
         11    1    4    4    0    0 -0.25222765719E-01  0.62699569544E-01  0.13385687775E-01  0.68897472303E-01  0.51100000000E-03 0. -1.
</event>
<event>
 8    1  0.1123450E+005  0.1043930E+01  0.7957747E-01            NaN
         13   -1    0    0    0    0  0.00000000000E+00  0.00000000000E+00  0.74505805969E-08  0.10566000000E+00  0.10566000000E+00 0. -1.
     999900   -1    0    0    0    0 -0.00000000000E+00 -0.00000000000E+00 -0.74505805969E-08  0.93827000000E+00  0.93827000000E+00 0.  1.
     999902    2    1    2    0    0 -0.17917135416E-02  0.21614929874E-01 -0.86645532800E-02  0.10205742745E+01  0.10203069929E+01 0.  0.
     999903    2    3    3    0    0  0.11286871367E+00 -0.35132342568E-01 -0.51092261936E-01  0.13031174188E+00  0.19927438914E-01 0.  0.
         14    1    1    2    0    0  0.17917135416E-02 -0.21614929874E-01  0.86645532800E-02  0.23355725517E-01  0.00000000000E+00 0.  1.
     999901    1    3    3    0    0 -0.11466042721E+00  0.56747272442E-01  0.42427708656E-01  0.89026253260E+00  0.88000000000E+00 0. -1.
        -11    1    4    4    0    0  0.95437833011E-01 -0.36421780104E-01 -0.46465415775E-01  0.11222398148E+00  0.51100000000E-03 0.  1.
         11    1    4    4    0    0  0.17430880660E-01  0.12894375353E-02 -0.46268461611E-02  0.18087760396E-01  0.51100000000E-03 0. -1.
</event>
<event>
 8    1  0.1123450E+005  0.1043930E+01  0.7957747E-01            NaN
         13   -1    0    0    0    0  0.00000000000E+00  0.00000000000E+00  0.74505805969E-08  0.10566000000E+00  0.10566000000E+00 0. -1.
     999900   -1    0    0    0    0 -0.00000000000E+00 -0.00000000000E+00 -0.74505805969E-08  0.93827000000E+00  0.93827000000E+00 0.  1.
     999902    2    1    2    0    0 -0.19668084527E-01  0.12438952270E-01 -0.25447549252E-02  0.10205198129E+01  0.10202512689E+01 0.  0.
     999903    2    3    3    0    0  0.11242325959E+00  0.43339533828E-01 -0.42776643458E-01  0.12921651212E+00  0.18701906014E-01 0.  0.
         14    1    1    2    0    0  0.19668084527E-01 -0.12438952270E-01  0.25447549252E-02  0.23410187102E-01  0.00000000000E+00 0. -1.
     999901    1    3    3    0    0 -0.13209134412E+00 -0.30900581558E-01  0.40231888533E-01  0.89130330078E+00  0.88000000000E+00 0.  1.
        -11    1    4    4    0    0  0.55478431081E-01  0.26833719153E-01 -0.30093698671E-01  0.68584230108E-01  0.51100000000E-03 0. -1.
         11    1    4    4    0    0  0.56944828508E-01  0.16505814674E-01 -0.12682944787E-01  0.60632282007E-01  0.51100000000E-03 0.  1.
</event>
<event>
 8    1  0.1123450E+005  0.1043930E+01  0.7957747E-01            NaN
         13   -1    0    0    0    0  0.00000000000E+00  0.00000000000E+00  0.74505805969E-08  0.10566000000E+00  0.10566000000E+00 0.  1.
     999900   -1    0    0    0    0 -0.00000000000E+00 -0.00000000000E+00 -0.74505805969E-08  0.93827000000E+00  0.93827000000E+00 0.  1.
     999902    2    1    2    0    0 -0.15577294743E-02  0.16325000787E-01 -0.16739778662E-01  0.10204959999E+01  0.10202269029E+01 0.  0.
     999903    2    3    3    0    0 -0.93569204072E-01 -0.26092016966E-02 -0.91429551798E-01  0.13235007849E+00  0.19879045488E-01 0.  0.
         14    1    1    2    0    0  0.15577294743E-02 -0.16325000787E-01  0.16739778662E-01  0.23434000117E-01  0.00000000000E+00 0.  1.
     999901    1    3    3    0    0  0.92011474597E-01  0.18934202484E-01  0.74689773136E-01  0.88814592140E+00  0.88000000000E+00 0. -1.
        -11    1    4    4    0    0 -0.71537796059E-01 -0.63817796510E-02 -0.58943677189E-01  0.92913947166E-01  0.51100000000E-03 0.  1.
         11    1    4    4    0    0 -0.22031408013E-01  0.37725779543E-02 -0.32485874609E-01  0.39436131321E-01  0.51100000000E-03 0. -1.
</event>
<event>
 8    1  0.1123450E+005  0.1043930E+01  0.7957747E-01            NaN
         13   -1    0    0    0    0  0.00000000000E+00  0.00000000000E+00  0.74505805969E-08  0.10566000000E+00  0.10566000000E+00 0.  1.
     999900   -1    0    0    0    0 -0.00000000000E+00 -0.00000000000E+00 -0.74505805969E-08  0.93827000000E+00  0.93827000000E+00 0.  1.
     999902    2    1    2    0    0  0.11087103582E-01  0.18874629590E-01  0.65723019875E-02  0.10210745704E+01  0.10208187438E+01 0.  0.
     999903    2    3    3    0    0 -0.10342773357E+00 -0.67769536957E-01  0.30644323003E-01  0.12911026523E+00  0.20985229246E-01 0.  0.
         14    1    1    2    0    0 -0.11087103582E-01 -0.18874629590E-01 -0.65723019875E-02  0.22855429583E-01  0.00000000000E+00 0.  1.
     999901    1    3    3    0    0  0.11451483715E+00  0.86644166548E-01 -0.24072021015E-01  0.89196430518E+00  0.88000000000E+00 0. -1.
        -11    1    4    4    0    0 -0.33523498708E-01 -0.25552761798E-01  0.79778758955E-03  0.42162378813E-01  0.51100000000E-03 0. -1.
         11    1    4    4    0    0 -0.69904234858E-01 -0.42216775160E-01  0.29846535413E-01  0.86947886421E-01  0.51100000000E-03 0.  1.
</event>
<event>
 8    1  0.1123450E+005  0.1043930E+01  0.7957747E-01            NaN
         13   -1    0    0    0    0  0.00000000000E+00  0.00000000000E+00  0.74505805969E-08  0.10566000000E+00  0.10566000000E+00 0. -1.
     999900   -1    0    0    0    0 -0.00000000000E+00 -0.00000000000E+00 -0.74505805969E-08  0.93827000000E+00  0.93827000000E+00 0.  1.
     999902    2    1    2    0    0 -0.22671251124E-02  0.22080156536E-01 -0.83691989764E-02  0.10202083504E+01  0.10199325279E+01 0.  0.
     999903    2    3    3    0    0  0.62425903681E-02 -0.12106534445E+00 -0.36454474564E-01  0.12815911833E+00  0.20001083317E-01 0.  0.
         14    1    1    2    0    0  0.22671251124E-02 -0.22080156536E-01  0.83691989764E-02  0.23721649614E-01  0.00000000000E+00 0. -1.
     999901    1    3    3    0    0 -0.85097154806E-02  0.14314550098E+00  0.28085275588E-01  0.89204923206E+00  0.88000000000E+00 0.  1.
        -11    1    4    4    0    0  0.11990888387E-01 -0.44758672894E-01 -0.13953036052E-01  0.48394922664E-01  0.51100000000E-03 0.  1.
         11    1    4    4    0    0 -0.57482980190E-02 -0.76306671555E-01 -0.22501438513E-01  0.79764195665E-01  0.51100000000E-03 0. -1.
</event>
<event>
 8    1  0.1123450E+005  0.1043930E+01  0.7957747E-01            NaN
         13   -1    0    0    0    0  0.00000000000E+00  0.00000000000E+00  0.74505805969E-08  0.10566000000E+00  0.10566000000E+00 0. -1.
     999900   -1    0    0    0    0 -0.00000000000E+00 -0.00000000000E+00 -0.74505805969E-08  0.93827000000E+00  0.93827000000E+00 0. -1.
     999902    2    1    2    0    0 -0.43724582887E-02 -0.22562453430E-01 -0.61010034275E-02  0.10201517549E+01  0.10198745992E+01 0.  0.
     999903    2    3    3    0    0  0.84166081769E-01 -0.62702169717E-02 -0.98293198554E-01  0.13076774849E+00  0.17759679700E-01 0.  0.
         14    1    1    2    0    0  0.43724582887E-02  0.22562453430E-01  0.61010034275E-02  0.23778245080E-01  0.00000000000E+00 0.  1.
     999901    1    3    3    0    0 -0.88538540057E-01 -0.16292236458E-01  0.92192195126E-01  0.88938400643E+00  0.88000000000E+00 0.  1.
        -11    1    4    4    0    0  0.79751069271E-01 -0.18926588811E-02 -0.88420694125E-01  0.11908944319E+00  0.51100000000E-03 0. -1.
         11    1    4    4    0    0  0.44150124971E-02 -0.43775580906E-02 -0.98725044286E-02  0.11678305309E-01  0.51100000000E-03 0.  1.
</event>
<event>
 8    1  0.1123450E+005  0.1043930E+01  0.7957747E-01            NaN
         13   -1    0    0    0    0  0.00000000000E+00  0.00000000000E+00  0.74505805969E-08  0.10566000000E+00  0.10566000000E+00 0. -1.
     999900   -1    0    0    0    0 -0.00000000000E+00 -0.00000000000E+00 -0.74505805969E-08  0.93827000000E+00  0.93827000000E+00 0.  1.
     999902    2    1    2    0    0  0.21304336839E-01 -0.19504332201E-02 -0.10143664373E-01  0.10202535796E+01  0.10199788202E+01 0.  0.
     999903    2    3    3    0    0 -0.44874257246E-01 -0.11609880290E+00 -0.32296690361E-01  0.13014110736E+00  0.20024999833E-01 0.  0.
         14    1    1    2    0    0 -0.21304336839E-01  0.19504332201E-02  0.10143664373E-01  0.23676420439E-01  0.00000000000E+00 0.  1.
     999901    1    3    3    0    0  0.66178594085E-01  0.11414836968E+00  0.22153025988E-01  0.89011247221E+00  0.88000000000E+00 0. -1.
        -11    1    4    4    0    0 -0.30408716121E-01 -0.53033118812E-01 -0.19616631762E-01  0.64204945835E-01  0.51100000000E-03 0. -1.
         11    1    4    4    0    0 -0.14465541126E-01 -0.63065684083E-01 -0.12680058599E-01  0.65936161521E-01  0.51100000000E-03 0.  1.
</event>
<event>
 8    1  0.1123450E+005  0.1043930E+01  0.7957747E-01            NaN
         13   -1    0    0    0    0  0.00000000000E+00  0.00000000000E+00  0.74505805969E-08  0.10566000000E+00  0.10566000000E+00 0.  1.
     999900   -1    0    0    0    0 -0.00000000000E+00 -0.00000000000E+00 -0.74505805969E-08  0.93827000000E+00  0.93827000000E+00 0.  1.
     999902    2    1    2    0    0  0.89350303806E-02 -0.21057463040E-01 -0.48634262428E-02  0.10205440121E+01  0.10202760294E+01 0.  0.
     999903    2    3    3    0    0  0.10018974155E+00  0.78793896669E-01  0.12914429674E-01  0.13003080692E+00  0.22243331366E-01 0.  0.
         14    1    1    2    0    0 -0.89350303806E-02  0.21057463040E-01  0.48634262428E-02  0.23385987950E-01  0.00000000000E+00 0.  1.
     999901    1    3    3    0    0 -0.91254711172E-01 -0.99851359709E-01 -0.17777855917E-01  0.89051320513E+00  0.88000000000E+00 0.  1.
        -11    1    4    4    0    0  0.14919990157E-01  0.20095578465E-01 -0.32885127055E-02  0.25249035960E-01  0.51100000000E-03 0.  1.
         11    1    4    4    0    0  0.85269751395E-01  0.58698318205E-01  0.16202942380E-01  0.10478177096E+00  0.51100000000E-03 0. -1.
</event>
<event>
 8    1  0.1123450E+005  0.1043930E+01  0.7957747E-01            NaN
         13   -1    0    0    0    0  0.00000000000E+00  0.00000000000E+00  0.74505805969E-08  0.10566000000E+00  0.10566000000E+00 0. -1.
     999900   -1    0    0    0    0 -0.00000000000E+00 -0.00000000000E+00 -0.74505805969E-08  0.93827000000E+00  0.93827000000E+00 0. -1.
     999902    2    1    2    0    0  0.18511243760E-01 -0.15223210783E-01 -0.90783350064E-03  0.10199459125E+01  0.10196638799E+01 0.  0.
     999903    2    3    3    0    0 -0.11705441381E+00  0.21718812575E-01  0.41687745743E-01  0.12778160925E+00  0.20416388154E-01 0.  0.
         14    1    1    2    0    0 -0.18511243760E-01  0.15223210783E-01  0.90783350064E-03  0.23984087512E-01  0.00000000000E+00 0.  1.
     999901    1    3    3    0    0  0.13556565757E+00 -0.36942023359E-01 -0.42595579244E-01  0.89216430324E+00  0.88000000000E+00 0. -1.
        -11    1    4    4    0    0 -0.91451015772E-01  0.19760006017E-01  0.23984635997E-01  0.96588146314E-01  0.51100000000E-03 0. -1.
         11    1    4    4    0    0 -0.25603398038E-01  0.19588065583E-02  0.17703109746E-01  0.31193462935E-01  0.51100000000E-03 0.  1.
</event>
<event>
 8    1  0.1123450E+005  0.1043930E+01  0.7957747E-01            NaN
         13   -1    0    0    0    0  0.00000000000E+00  0.00000000000E+00  0.74505805969E-08  0.10566000000E+00  0.10566000000E+00 0. -1.
     999900   -1    0    0    0    0 -0.00000000000E+00 -0.00000000000E+00 -0.74505805969E-08  0.93827000000E+00  0.93827000000E+00 0. -1.
     999902    2    1    2    0    0  0.22825145509E-01  0.68675725560E-02 -0.52953889065E-02  0.10195129575E+01  0.10192205250E+01 0.  0.
     999903    2    3    3    0    0 -0.89494687839E-02 -0.11405587374E+00 -0.56923032999E-01  0.12917733562E+00  0.18913408587E-01 0.  0.
         14    1    1    2    0    0 -0.22825145509E-01 -0.68675725560E-02  0.52953889065E-02  0.24417042491E-01  0.00000000000E+00 0. -1.
     999901    1    3    3    0    0  0.31774614293E-01  0.12092344630E+00  0.51627644092E-01  0.89033562189E+00  0.88000000000E+00 0. -1.
        -11    1    4    4    0    0 -0.68837202945E-03 -0.36056903155E-01 -0.27687900250E-01  0.45469276027E-01  0.51100000000E-03 0.  1.
         11    1    4    4    0    0 -0.82610967544E-02 -0.77998970587E-01 -0.29235132749E-01  0.83708059589E-01  0.51100000000E-03 0. -1.
</event>
<event>
 8    1  0.1123450E+005  0.1043930E+01  0.7957747E-01            NaN
         13   -1    0    0    0    0  0.00000000000E+00  0.00000000000E+00  0.74505805969E-08  0.10566000000E+00  0.10566000000E+00 0.  1.
     999900   -1    0    0    0    0 -0.00000000000E+00 -0.00000000000E+00 -0.74505805969E-08  0.93827000000E+00  0.93827000000E+00 0. -1.
     999902    2    1    2    0    0  0.19795694582E-01  0.68283825597E-02 -0.13189631340E-01  0.10191820161E+01  0.10188815040E+01 0.  0.
     999903    2    3    3    0    0 -0.39680845747E-01  0.69818188119E-01 -0.10103346659E+00  0.13057540243E+00  0.19824869164E-01 0.  0.
         14    1    1    2    0    0 -0.19795694582E-01 -0.68283825597E-02  0.13189631340E-01  0.24747983903E-01  0.00000000000E+00 0. -1.
     999901    1    3    3    0    0  0.59476540330E-01 -0.62989805559E-01  0.87843835254E-01  0.88860661366E+00  0.88000000000E+00 0.  1.
        -11    1    4    4    0    0 -0.18255583787E-01  0.49297575357E-01 -0.57713503665E-01  0.78068091444E-01  0.51100000000E-03 0.  1.
         11    1    4    4    0    0 -0.21425261960E-01  0.20520612762E-01 -0.43319962929E-01  0.52507310990E-01  0.51100000000E-03 0. -1.
</event>
<event>
 8    1  0.1123450E+005  0.1043930E+01  0.7957747E-01            NaN
         13   -1    0    0    0    0  0.00000000000E+00  0.00000000000E+00  0.74505805969E-08  0.10566000000E+00  0.10566000000E+00 0.  1.
     999900   -1    0    0    0    0 -0.00000000000E+00 -0.00000000000E+00 -0.74505805969E-08  0.93827000000E+00  0.93827000000E+00 0.  1.
     999902    2    1    2    0    0 -0.85208701107E-02  0.10809375837E-01  0.19575541870E-01  0.10199999003E+01  0.10197191510E+01 0.  0.
     999903    2    3    3    0    0  0.66115887791E-01  0.95401469110E-01 -0.54451145050E-01  0.12971544110E+00  0.19708311324E-01 0.  0.
         14    1    1    2    0    0  0.85208701107E-02 -0.10809375837E-01 -0.19575541870E-01  0.23930099727E-01  0.00000000000E+00 0. -1.
     999901    1    3    3    0    0 -0.74636757901E-01 -0.84592093273E-01  0.74026686920E-01  0.89028445918E+00  0.88000000000E+00 0. -1.
        -11    1    4    4    0    0  0.66082134396E-01  0.86696510590E-01 -0.50197042833E-01  0.12001307289E+00  0.51100000000E-03 0. -1.
         11    1    4    4    0    0  0.33753394706E-04  0.87049585200E-02 -0.42541022164E-02  0.97023682054E-02  0.51100000000E-03 0.  1.
</event>
<event>
 8    1  0.1123450E+005  0.1043930E+01  0.7957747E-01            NaN
         13   -1    0    0    0    0  0.00000000000E+00  0.00000000000E+00  0.74505805969E-08  0.10566000000E+00  0.10566000000E+00 0.  1.
     999900   -1    0    0    0    0 -0.00000000000E+00 -0.00000000000E+00 -0.74505805969E-08  0.93827000000E+00  0.93827000000E+00 0.  1.
     999902    2    1    2    0    0  0.11152134913E-02  0.89354297367E-02  0.21979266084E-01  0.10201776582E+01  0.10199011131E+01 0.  0.
     999903    2    3    3    0    0  0.11710644699E+00 -0.32070324761E-01  0.45998225073E-01  0.13129501767E+00  0.19496648426E-01 0.  0.
         14    1    1    2    0    0 -0.11152134913E-02 -0.89354297367E-02 -0.21979266084E-01  0.23752341849E-01  0.00000000000E+00 0. -1.
     999901    1    3    3    0    0 -0.11599123350E+00  0.41005754498E-01 -0.24018958989E-01  0.88888264048E+00  0.88000000000E+00 0.  1.
        -11    1    4    4    0    0  0.52252410795E-01 -0.23758453343E-01  0.25098374985E-01  0.62649565737E-01  0.51100000000E-03 0.  1.
         11    1    4    4    0    0  0.64854036193E-01 -0.83118714177E-02  0.20899850088E-01  0.68645451938E-01  0.51100000000E-03 0. -1.
</event>
<event>
 8    1  0.1123450E+005  0.1043930E+01  0.7957747E-01            NaN
         13   -1    0    0    0    0  0.00000000000E+00  0.00000000000E+00  0.74505805969E-08  0.10566000000E+00  0.10566000000E+00 0. -1.
     999900   -1    0    0    0    0 -0.00000000000E+00 -0.00000000000E+00 -0.74505805969E-08  0.93827000000E+00  0.93827000000E+00 0.  1.
     999902    2    1    2    0    0  0.16797893691E-01  0.95192373832E-02 -0.14450046222E-01  0.10198138447E+01  0.10195286601E+01 0.  0.
     999903    2    3    3    0    0  0.20216465134E-01  0.43754054591E-01  0.11815702820E+00  0.12921385278E+00  0.20298120129E-01 0.  0.
         14    1    1    2    0    0 -0.16797893691E-01 -0.95192373832E-02  0.14450046222E-01  0.24116155345E-01  0.00000000000E+00 0.  1.
     999901    1    3    3    0    0 -0.34185714431E-02 -0.34234817208E-01 -0.13260707442E+00  0.89059999187E+00  0.88000000000E+00 0.  1.
        -11    1    4    4    0    0  0.19950413156E-01  0.30645930469E-01  0.10225238902E+00  0.10859559946E+00  0.51100000000E-03 0.  1.
         11    1    4    4    0    0  0.26605197844E-03  0.13108124122E-01  0.15904639179E-01  0.20618253323E-01  0.51100000000E-03 0. -1.
</event>
<event>
 8    1  0.1123450E+005  0.1043930E+01  0.7957747E-01            NaN
         13   -1    0    0    0    0  0.00000000000E+00  0.00000000000E+00  0.74505805969E-08  0.10566000000E+00  0.10566000000E+00 0.  1.
     999900   -1    0    0    0    0 -0.00000000000E+00 -0.00000000000E+00 -0.74505805969E-08  0.93827000000E+00  0.93827000000E+00 0. -1.
     999902    2    1    2    0    0 -0.97627172712E-02 -0.70918111505E-02  0.21305872930E-01  0.10194443990E+01  0.10191503020E+01 0.  0.
     999903    2    3    3    0    0 -0.12776840228E+00 -0.16836857824E-01  0.14035464280E-01  0.13148428366E+00  0.21974489503E-01 0.  0.
         14    1    1    2    0    0  0.97627172712E-02  0.70918111505E-02 -0.21305872930E-01  0.24485600977E-01  0.00000000000E+00 0. -1.
     999901    1    3    3    0    0  0.11800568501E+00  0.97450466732E-02  0.72704086505E-02  0.88796011536E+00  0.88000000000E+00 0. -1.
        -11    1    4    4    0    0 -0.63652072686E-01 -0.19181226330E-01  0.95873346650E-02  0.67169069576E-01  0.51100000000E-03 0.  1.
         11    1    4    4    0    0 -0.64116329598E-01  0.23443685061E-02  0.44481296147E-02  0.64315214086E-01  0.51100000000E-03 0. -1.
</event>
<event>
 8    1  0.1123450E+005  0.1043930E+01  0.7957747E-01            NaN
         13   -1    0    0    0    0  0.00000000000E+00  0.00000000000E+00  0.74505805969E-08  0.10566000000E+00  0.10566000000E+00 0. -1.
     999900   -1    0    0    0    0 -0.00000000000E+00 -0.00000000000E+00 -0.74505805969E-08  0.93827000000E+00  0.93827000000E+00 0.  1.
     999902    2    1    2    0    0 -0.81775346064E-02 -0.17821967930E-01  0.12460233840E-01  0.10206974358E+01  0.10204329980E+01 0.  0.
     999903    2    3    3    0    0  0.10784254751E+00  0.67714164387E-01 -0.99910983830E-03  0.12886884052E+00  0.19772625632E-01 0.  0.
         14    1    1    2    0    0  0.81775346064E-02  0.17821967930E-01 -0.12460233840E-01  0.23232564226E-01  0.00000000000E+00 0.  1.
     999901    1    3    3    0    0 -0.11602008211E+00 -0.85536132317E-01  0.13459343679E-01  0.89182859526E+00  0.88000000000E+00 0. -1.
        -11    1    4    4    0    0  0.44387895277E-01  0.31249261987E-01 -0.97646947974E-02  0.55158063847E-01  0.51100000000E-03 0. -1.
         11    1    4    4    0    0  0.63454652231E-01  0.36464902399E-01  0.87655849591E-02  0.73710776671E-01  0.51100000000E-03 0.  1.
</event>
<event>
 8    1  0.1123450E+005  0.1043930E+01  0.7957747E-01            NaN
         13   -1    0    0    0    0  0.00000000000E+00  0.00000000000E+00  0.74505805969E-08  0.10566000000E+00  0.10566000000E+00 0. -1.
     999900   -1    0    0    0    0 -0.00000000000E+00 -0.00000000000E+00 -0.74505805969E-08  0.93827000000E+00  0.93827000000E+00 0. -1.
     999902    2    1    2    0    0  0.16748064222E-03 -0.10407052896E-01 -0.15883014440E-01  0.10249403990E+01  0.10247644688E+01 0.  0.
     999903    2    3    3    0    0  0.26760817375E-01  0.10406125919E+00  0.74934833956E-01  0.13249539695E+00  0.19872439802E-01 0.  0.
         14    1    1    2    0    0 -0.16748064222E-03  0.10407052896E-01  0.15883014440E-01  0.18989601034E-01  0.00000000000E+00 0. -1.
     999901    1    3    3    0    0 -0.26593336732E-01 -0.11446831208E+00 -0.90817848396E-01  0.89244500201E+00  0.88000000000E+00 0. -1.
        -11    1    4    4    0    0 -0.62798048223E-03  0.27492375949E-01  0.24278282391E-01  0.36686798875E-01  0.51100000000E-03 0. -1.
         11    1    4    4    0    0  0.27388797857E-01  0.76568883238E-01  0.50656551565E-01  0.95808598079E-01  0.51100000000E-03 0.  1.
</event>
<event>
 8    1  0.1123450E+005  0.1043930E+01  0.7957747E-01            NaN
         13   -1    0    0    0    0  0.00000000000E+00  0.00000000000E+00  0.74505805969E-08  0.10566000000E+00  0.10566000000E+00 0.  1.
     999900   -1    0    0    0    0 -0.00000000000E+00 -0.00000000000E+00 -0.74505805969E-08  0.93827000000E+00  0.93827000000E+00 0.  1.
     999902    2    1    2    0    0  0.96919893222E-02  0.90595531160E-02  0.18665144804E-01  0.10210302666E+01  0.10207734359E+01 0.  0.
     999903    2    3    3    0    0  0.47653682325E-01 -0.22263902310E-01  0.12114402281E+00  0.13371737396E+00  0.20926228785E-01 0.  0.
         14    1    1    2    0    0 -0.96919893222E-02 -0.90595531160E-02 -0.18665144804E-01  0.22899733410E-01  0.00000000000E+00 0. -1.
     999901    1    3    3    0    0 -0.37961693003E-01  0.31323455426E-01 -0.10247887800E+00  0.88731289263E+00  0.88000000000E+00 0.  1.
        -11    1    4    4    0    0  0.33142368599E-01 -0.47446281381E-02  0.79465204451E-01  0.86231710709E-01  0.51100000000E-03 0. -1.
         11    1    4    4    0    0  0.14511313727E-01 -0.17519274172E-01  0.41678818355E-01  0.47485663248E-01  0.51100000000E-03 0.  1.
</event>
<event>
 8    1  0.1123450E+005  0.1043930E+01  0.7957747E-01            NaN
         13   -1    0    0    0    0  0.00000000000E+00  0.00000000000E+00  0.74505805969E-08  0.10566000000E+00  0.10566000000E+00 0.  1.
     999900   -1    0    0    0    0 -0.00000000000E+00 -0.00000000000E+00 -0.74505805969E-08  0.93827000000E+00  0.93827000000E+00 0. -1.
     999902    2    1    2    0    0  0.15296447731E-02  0.16378308273E-01  0.15675692910E-01  0.10212074090E+01  0.10209545808E+01 0.  0.
     999903    2    3    3    0    0  0.27294437425E-01 -0.22621417280E-01 -0.12259505386E+00  0.12918521051E+00  0.20063811909E-01 0.  0.
         14    1    1    2    0    0 -0.15296447731E-02 -0.16378308273E-01 -0.15675692910E-01  0.22722591032E-01  0.00000000000E+00 0. -1.
     999901    1    3    3    0    0 -0.25764792652E-01  0.38999725553E-01  0.13827074677E+00  0.89202219846E+00  0.88000000000E+00 0.  1.
        -11    1    4    4    0    0  0.21514391373E-01 -0.14886094360E-01 -0.55063564036E-01  0.60964924726E-01  0.51100000000E-03 0.  1.
         11    1    4    4    0    0  0.57800460519E-02 -0.77353229202E-02 -0.67531489826E-01  0.68220285781E-01  0.51100000000E-03 0. -1.
</event>
<event>
 8    1  0.1123450E+005  0.1043930E+01  0.7957747E-01            NaN
         13   -1    0    0    0    0  0.00000000000E+00  0.00000000000E+00  0.74505805969E-08  0.10566000000E+00  0.10566000000E+00 0.  1.
     999900   -1    0    0    0    0 -0.00000000000E+00 -0.00000000000E+00 -0.74505805969E-08  0.93827000000E+00  0.93827000000E+00 0. -1.
     999902    2    1    2    0    0 -0.60274235308E-03 -0.18452544722E-01  0.14915493364E-01  0.10201953914E+01  0.10199192639E+01 0.  0.
     999903    2    3    3    0    0 -0.40437481427E-01  0.62388650732E-01  0.10592655718E+00  0.13092315011E+00  0.19821757595E-01 0.  0.
         14    1    1    2    0    0  0.60274235308E-03  0.18452544722E-01 -0.14915493364E-01  0.23734608641E-01  0.00000000000E+00 0. -1.
     999901    1    3    3    0    0  0.39834739074E-01 -0.80841195454E-01 -0.91011063817E-01  0.88927224125E+00  0.88000000000E+00 0. -1.
        -11    1    4    4    0    0 -0.36140666753E-01  0.48409943362E-01  0.72089845501E-01  0.94057840476E-01  0.51100000000E-03 0. -1.
         11    1    4    4    0    0 -0.42968146740E-02  0.13978707370E-01  0.33836711680E-01  0.36865309634E-01  0.51100000000E-03 0.  1.
</event>
<event>
 8    1  0.1123450E+005  0.1043930E+01  0.7957747E-01            NaN
         13   -1    0    0    0    0  0.00000000000E+00  0.00000000000E+00  0.74505805969E-08  0.10566000000E+00  0.10566000000E+00 0.  1.
     999900   -1    0    0    0    0 -0.00000000000E+00 -0.00000000000E+00 -0.74505805969E-08  0.93827000000E+00  0.93827000000E+00 0. -1.
     999902    2    1    2    0    0 -0.15252115742E-01 -0.13331724486E-01  0.87525410657E-02  0.10218626284E+01  0.10216243255E+01 0.  0.
     999903    2    3    3    0    0  0.48538703388E-01 -0.11328106975E+00  0.48832494760E-01  0.13300631671E+00  0.10837954135E-01 0.  0.
         14    1    1    2    0    0  0.15252115742E-01  0.13331724486E-01 -0.87525410657E-02  0.22067371558E-01  0.00000000000E+00 0. -1.
     999901    1    3    3    0    0 -0.63790819130E-01  0.99949345261E-01 -0.40079953694E-01  0.88885631174E+00  0.88000000000E+00 0. -1.
        -11    1    4    4    0    0  0.13917981219E-01 -0.23018040871E-01  0.80682538487E-02  0.28087332517E-01  0.51100000000E-03 0.  1.
         11    1    4    4    0    0  0.34620722169E-01 -0.90263028876E-01  0.40764240911E-01  0.10491898419E+00  0.51100000000E-03 0. -1.
</event>
<event>
 8    1  0.1123450E+005  0.1043930E+01  0.7957747E-01            NaN
         13   -1    0    0    0    0  0.00000000000E+00  0.00000000000E+00  0.74505805969E-08  0.10566000000E+00  0.10566000000E+00 0.  1.
     999900   -1    0    0    0    0 -0.00000000000E+00 -0.00000000000E+00 -0.74505805969E-08  0.93827000000E+00  0.93827000000E+00 0.  1.
     999902    2    1    2    0    0 -0.16219233616E-01  0.15805555229E-01 -0.31905698076E-02  0.10210595201E+01  0.10208033526E+01 0.  0.
     999903    2    3    3    0    0 -0.19093360382E-01  0.98572230553E-01 -0.87135220882E-01  0.13319394041E+00  0.81876735031E-02 0.  0.
         14    1    1    2    0    0  0.16219233616E-01 -0.15805555229E-01  0.31905698076E-02  0.22870479901E-01  0.00000000000E+00 0. -1.
     999901    1    3    3    0    0  0.28741267652E-02 -0.82766675324E-01  0.83944651075E-01  0.88786557969E+00  0.88000000000E+00 0. -1.
        -11    1    4    4    0    0 -0.11683370632E-02  0.94715380320E-02 -0.11492810501E-01  0.14947269263E-01  0.51100000000E-03 0.  1.
         11    1    4    4    0    0 -0.17925023318E-01  0.89100692521E-01 -0.75642410381E-01  0.11824667115E+00  0.51100000000E-03 0. -1.
</event>
<event>
 8    1  0.1123450E+005  0.1043930E+01  0.7957747E-01            NaN
         13   -1    0    0    0    0  0.00000000000E+00  0.00000000000E+00  0.74505805969E-08  0.10566000000E+00  0.10566000000E+00 0.  1.
     999900   -1    0    0    0    0 -0.00000000000E+00 -0.00000000000E+00 -0.74505805969E-08  0.93827000000E+00  0.93827000000E+00 0. -1.
     999902    2    1    2    0    0  0.23207834174E-01  0.48730015636E-02  0.17780610443E-02  0.10201495204E+01  0.10198723119E+01 0.  0.
     999903    2    3    3    0    0 -0.17094126687E-01 -0.11229995058E-01 -0.12733945237E+00  0.12966937637E+00  0.13434622563E-01 0.  0.
         14    1    1    2    0    0 -0.23207834174E-01 -0.48730015636E-02 -0.17780610443E-02  0.23780479650E-01  0.00000000000E+00 0. -1.
     999901    1    3    3    0    0  0.40301960861E-01  0.16102996621E-01  0.12911751341E+00  0.89048014398E+00  0.88000000000E+00 0.  1.
        -11    1    4    4    0    0 -0.18344781566E-01 -0.10830908991E-01 -0.97722369957E-01  0.10001880979E+00  0.51100000000E-03 0.  1.
         11    1    4    4    0    0  0.12506548790E-02 -0.39908606692E-03 -0.29617082410E-01  0.29650566585E-01  0.51100000000E-03 0. -1.
</event>
<event>
 8    1  0.1123450E+005  0.1043930E+01  0.7957747E-01            NaN
         13   -1    0    0    0    0  0.00000000000E+00  0.00000000000E+00  0.74505805969E-08  0.10566000000E+00  0.10566000000E+00 0.  1.
     999900   -1    0    0    0    0 -0.00000000000E+00 -0.00000000000E+00 -0.74505805969E-08  0.93827000000E+00  0.93827000000E+00 0. -1.
     999902    2    1    2    0    0  0.14728664123E-01 -0.17618972876E-01  0.52265429980E-02  0.10203783864E+01  0.10201065498E+01 0.  0.
     999903    2    3    3    0    0  0.11685339091E+00 -0.40446170109E-01  0.45524480208E-01  0.13326257405E+00  0.19895419072E-01 0.  0.
         14    1    1    2    0    0 -0.14728664123E-01  0.17618972876E-01 -0.52265429980E-02  0.23551613613E-01  0.00000000000E+00 0.  1.
     999901    1    3    3    0    0 -0.10212472679E+00  0.22827197233E-01 -0.40297937210E-01  0.88711581234E+00  0.88000000000E+00 0. -1.
        -11    1    4    4    0    0  0.38617391951E-01 -0.21716036247E-01  0.10584080233E-01  0.45554067511E-01  0.51100000000E-03 0. -1.
         11    1    4    4    0    0  0.78235998961E-01 -0.18730133862E-01  0.34940399975E-01  0.87708506539E-01  0.51100000000E-03 0.  1.
</event>
<event>
 8    1  0.1123450E+005  0.1043930E+01  0.7957747E-01            NaN
         13   -1    0    0    0    0  0.00000000000E+00  0.00000000000E+00  0.74505805969E-08  0.10566000000E+00  0.10566000000E+00 0. -1.
     999900   -1    0    0    0    0 -0.00000000000E+00 -0.00000000000E+00 -0.74505805969E-08  0.93827000000E+00  0.93827000000E+00 0.  1.
     999902    2    1    2    0    0 -0.43091303341E-02  0.19079762341E-01  0.88801566446E-02  0.10224483074E+01  0.10222226167E+01 0.  0.
     999903    2    3    3    0    0 -0.25750632186E-01  0.10714284184E+00  0.75882580672E-01  0.13525939358E+00  0.19855827517E-01 0.  0.
         14    1    1    2    0    0  0.43091303341E-02 -0.19079762341E-01 -0.88801566446E-02  0.21481692607E-01  0.00000000000E+00 0.  1.
     999901    1    3    3    0    0  0.21441501852E-01 -0.88063079496E-01 -0.67002424027E-01  0.88718891382E+00  0.88000000000E+00 0.  1.
        -11    1    4    4    0    0 -0.23147748146E-01  0.58288580177E-01  0.47699763377E-01  0.78796607608E-01  0.51100000000E-03 0.  1.
         11    1    4    4    0    0 -0.26028840396E-02  0.48854261660E-01  0.28182817295E-01  0.56462785969E-01  0.51100000000E-03 0. -1.
</event>
<event>
 8    1  0.1123450E+005  0.1043930E+01  0.7957747E-01            NaN
         13   -1    0    0    0    0  0.00000000000E+00  0.00000000000E+00  0.74505805969E-08  0.10566000000E+00  0.10566000000E+00 0. -1.
     999900   -1    0    0    0    0 -0.00000000000E+00 -0.00000000000E+00 -0.74505805969E-08  0.93827000000E+00  0.93827000000E+00 0.  1.
     999902    2    1    2    0    0 -0.19369063392E-01  0.13474375578E-01 -0.13436702716E-03  0.10203347151E+01  0.10200618576E+01 0.  0.
     999903    2    3    3    0    0 -0.35895609859E-01  0.91530189524E-01 -0.86626139745E-01  0.13250215007E+00  0.19658618556E-01 0.  0.
         14    1    1    2    0    0  0.19369063392E-01 -0.13474375578E-01  0.13436702716E-03  0.23595284876E-01  0.00000000000E+00 0.  1.
     999901    1    3    3    0    0  0.16526546467E-01 -0.78055813946E-01  0.86491772718E-01  0.88783256506E+00  0.88000000000E+00 0. -1.
        -11    1    4    4    0    0 -0.16707690944E-01  0.25403675095E-01 -0.18260334654E-01  0.35471038717E-01  0.51100000000E-03 0.  1.
         11    1    4    4    0    0 -0.19187918915E-01  0.66126514430E-01 -0.68365805091E-01  0.97031111349E-01  0.51100000000E-03 0. -1.
</event>
<event>
 8    1  0.1123450E+005  0.1043930E+01  0.7957747E-01            NaN
         13   -1    0    0    0    0  0.00000000000E+00  0.00000000000E+00  0.74505805969E-08  0.10566000000E+00  0.10566000000E+00 0. -1.
     999900   -1    0    0    0    0 -0.00000000000E+00 -0.00000000000E+00 -0.74505805969E-08  0.93827000000E+00  0.93827000000E+00 0.  1.
     999902    2    1    2    0    0  0.14384056049E-01  0.19004067350E-01  0.56780441733E-03  0.10200893195E+01  0.10198106892E+01 0.  0.
     999903    2    3    3    0    0 -0.12531553548E+00 -0.69643973673E-02  0.18501679204E-01  0.12851096575E+00  0.20500485863E-01 0.  0.
         14    1    1    2    0    0 -0.14384056049E-01 -0.19004067350E-01 -0.56780441733E-03  0.23840680488E-01  0.00000000000E+00 0.  1.
     999901    1    3    3    0    0  0.13969959153E+00  0.25968464717E-01 -0.17933874787E-01  0.89157835376E+00  0.88000000000E+00 0.  1.
        -11    1    4    4    0    0 -0.10309772763E+00 -0.13342570629E-01  0.17018887329E-01  0.10534262803E+00  0.51100000000E-03 0.  1.
         11    1    4    4    0    0 -0.22217807849E-01  0.63781732616E-02  0.14827918755E-02  0.23168337716E-01  0.51100000000E-03 0. -1.
</event>
<event>
 8    1  0.1123450E+005  0.1043930E+01  0.7957747E-01            NaN
         13   -1    0    0    0    0  0.00000000000E+00  0.00000000000E+00  0.74505805969E-08  0.10566000000E+00  0.10566000000E+00 0. -1.
     999900   -1    0    0    0    0 -0.00000000000E+00 -0.00000000000E+00 -0.74505805969E-08  0.93827000000E+00  0.93827000000E+00 0.  1.
     999902    2    1    2    0    0 -0.52334973269E-02  0.20467022681E-01 -0.30892355260E-02  0.10225797801E+01  0.10223568726E+01 0.  0.
     999903    2    3    3    0    0 -0.27816392017E-01  0.57716254750E-01 -0.11626436558E+00  0.13426333738E+00  0.20107792855E-01 0.  0.
         14    1    1    2    0    0  0.52334973269E-02 -0.20467022681E-01  0.30892355260E-02  0.21350219855E-01  0.00000000000E+00 0.  1.
     999901    1    3    3    0    0  0.22582894690E-01 -0.37249232069E-01  0.11317513006E+00  0.88831644276E+00  0.88000000000E+00 0. -1.
        -11    1    4    4    0    0  0.65673320859E-04  0.16311467924E-01 -0.19897006323E-01  0.25733641025E-01  0.51100000000E-03 0. -1.
         11    1    4    4    0    0 -0.27882065338E-01  0.41404786827E-01 -0.96367359258E-01  0.10852969636E+00  0.51100000000E-03 0.  1.
</event>
<event>
 8    1  0.1123450E+005  0.1043930E+01  0.7957747E-01            NaN
         13   -1    0    0    0    0  0.00000000000E+00  0.00000000000E+00  0.74505805969E-08  0.10566000000E+00  0.10566000000E+00 0.  1.
     999900   -1    0    0    0    0 -0.00000000000E+00 -0.00000000000E+00 -0.74505805969E-08  0.93827000000E+00  0.93827000000E+00 0.  1.
     999902    2    1    2    0    0 -0.56914815750E-02  0.27952548281E-01  0.10799401758E-01  0.10134281149E+01  0.10129689921E+01 0.  0.
     999903    2    3    3    0    0  0.32175170953E-01 -0.41795225421E-01 -0.10848594815E+00  0.12184097386E+00  0.17144663100E-01 0.  0.
         14    1    1    2    0    0  0.56914815750E-02 -0.27952548281E-01 -0.10799401758E-01  0.30501885126E-01  0.00000000000E+00 0. -1.
     999901    1    3    3    0    0 -0.37866652528E-01  0.69747773702E-01  0.11928534991E+00  0.89158714101E+00  0.88000000000E+00 0. -1.
        -11    1    4    4    0    0  0.19515199789E-01 -0.25902669351E-01 -0.83838274935E-01  0.89893875028E-01  0.51100000000E-03 0. -1.
         11    1    4    4    0    0  0.12659971164E-01 -0.15892556070E-01 -0.24647673213E-01  0.31947098837E-01  0.51100000000E-03 0.  1.
</event>
<event>
 8    1  0.1123450E+005  0.1043930E+01  0.7957747E-01            NaN
         13   -1    0    0    0    0  0.00000000000E+00  0.00000000000E+00  0.74505805969E-08  0.10566000000E+00  0.10566000000E+00 0.  1.
     999900   -1    0    0    0    0 -0.00000000000E+00 -0.00000000000E+00 -0.74505805969E-08  0.93827000000E+00  0.93827000000E+00 0.  1.
     999902    2    1    2    0    0  0.16052764234E-01  0.16066359126E-01 -0.35897524649E-02  0.10209364040E+01  0.10206774395E+01 0.  0.
     999903    2    3    3    0    0 -0.10877219941E+00 -0.63880817372E-01  0.13224866709E-01  0.12838077322E+00  0.19863928170E-01 0.  0.
         14    1    1    2    0    0 -0.16052764234E-01 -0.16066359126E-01  0.35897524649E-02  0.22993596019E-01  0.00000000000E+00 0.  1.
     999901    1    3    3    0    0  0.12482496364E+00  0.79947176498E-01 -0.16814619174E-01  0.89255563076E+00  0.88000000000E+00 0. -1.
        -11    1    4    4    0    0 -0.74980625699E-01 -0.36791282426E-01  0.15752025086E-01  0.84994588699E-01  0.51100000000E-03 0. -1.
         11    1    4    4    0    0 -0.33791573707E-01 -0.27089534946E-01 -0.25271583765E-02  0.43386184526E-01  0.51100000000E-03 0.  1.
</event>
<event>
 8    1  0.1123450E+005  0.1043930E+01  0.7957747E-01            NaN
         13   -1    0    0    0    0  0.00000000000E+00  0.00000000000E+00  0.74505805969E-08  0.10566000000E+00  0.10566000000E+00 0.  1.
     999900   -1    0    0    0    0 -0.00000000000E+00 -0.00000000000E+00 -0.74505805969E-08  0.93827000000E+00  0.93827000000E+00 0.  1.
     999902    2    1    2    0    0 -0.18149748019E-01  0.15130453766E-01  0.92389520548E-02  0.10185587127E+01  0.10182426769E+01 0.  0.
     999903    2    3    3    0    0  0.28377939179E-02 -0.12417704404E+00  0.21210135508E-01  0.12727291953E+00  0.17903487337E-01 0.  0.
         14    1    1    2    0    0  0.18149748019E-01 -0.15130453766E-01 -0.92389520548E-02  0.25371287303E-01  0.00000000000E+00 0.  1.
     999901    1    3    3    0    0 -0.20987541937E-01  0.13930749780E+00 -0.11971183453E-01  0.89128579316E+00  0.88000000000E+00 0. -1.
        -11    1    4    4    0    0  0.20586784325E-02 -0.85117230142E-02  0.59545826488E-02  0.10602158322E-01  0.51100000000E-03 0. -1.
         11    1    4    4    0    0  0.77911548542E-03 -0.11566532102E+00  0.15255552859E-01  0.11667076121E+00  0.51100000000E-03 0.  1.
</event>
<event>
 8    1  0.1123450E+005  0.1043930E+01  0.7957747E-01            NaN
         13   -1    0    0    0    0  0.00000000000E+00  0.00000000000E+00  0.74505805969E-08  0.10566000000E+00  0.10566000000E+00 0.  1.
     999900   -1    0    0    0    0 -0.00000000000E+00 -0.00000000000E+00 -0.74505805969E-08  0.93827000000E+00  0.93827000000E+00 0. -1.
     999902    2    1    2    0    0 -0.33420148256E-02  0.21387636448E-01  0.95260501152E-02  0.10202795098E+01  0.10200053590E+01 0.  0.
     999903    2    3    3    0    0 -0.12406507184E+00 -0.32372107307E-01 -0.59280724857E-02  0.13027782640E+00  0.22295170487E-01 0.  0.
         14    1    1    2    0    0  0.33420148256E-02 -0.21387636448E-01 -0.95260501152E-02  0.23650490200E-01  0.00000000000E+00 0.  1.
     999901    1    3    3    0    0  0.12072305701E+00  0.53759743755E-01  0.15454122601E-01  0.89000168340E+00  0.88000000000E+00 0. -1.
        -11    1    4    4    0    0 -0.76286607476E-01 -0.13642169370E-01 -0.12630306908E-01  0.78520959233E-01  0.51100000000E-03 0. -1.
         11    1    4    4    0    0 -0.47778464363E-01 -0.18729937937E-01  0.67022344222E-02  0.51756867170E-01  0.51100000000E-03 0.  1.
</event>
<event>
 8    1  0.1123450E+005  0.1043930E+01  0.7957747E-01            NaN
         13   -1    0    0    0    0  0.00000000000E+00  0.00000000000E+00  0.74505805969E-08  0.10566000000E+00  0.10566000000E+00 0.  1.
     999900   -1    0    0    0    0 -0.00000000000E+00 -0.00000000000E+00 -0.74505805969E-08  0.93827000000E+00  0.93827000000E+00 0.  1.
     999902    2    1    2    0    0 -0.14201999681E-01  0.17533216610E-01 -0.72298060940E-02  0.10202365288E+01  0.10199613690E+01 0.  0.
     999903    2    3    3    0    0  0.76614566519E-01  0.80516621894E-01  0.64878125721E-01  0.13039715464E+00  0.21012580454E-01 0.  0.
         14    1    1    2    0    0  0.14201999681E-01 -0.17533216610E-01  0.72298060940E-02  0.23693471164E-01  0.00000000000E+00 0. -1.
     999901    1    3    3    0    0 -0.90816566200E-01 -0.62983405284E-01 -0.72107931815E-01  0.88983937420E+00  0.88000000000E+00 0. -1.
        -11    1    4    4    0    0  0.73814939143E-01  0.79483251567E-01  0.58281871723E-01  0.12313923101E+00  0.51100000000E-03 0.  1.
         11    1    4    4    0    0  0.27996273760E-02  0.10333703265E-02  0.65962539980E-02  0.72579236344E-02  0.51100000000E-03 0. -1.
</event>
<event>
 7    1  0.1123450E+005  0.1043930E+01  0.7957747E-01            NaN
         13   -1    0    0    0    0  0.00000000000E+00  0.00000000000E+00  0.74505805969E-08  0.10566000000E+00  0.10566000000E+00 0. -1.
     999900   -1    0    0    0    0 -0.00000000000E+00 -0.00000000000E+00 -0.74505805969E-08  0.93827000000E+00  0.93827000000E+00 0. -1.
     999902    2    1    2    0    0  0.12099319222E-01  0.19611491053E-01  0.52653179951E-02  0.10202925788E+01  0.10200187345E+01 0.  0.
         14    1    1    2    0    0 -0.12099319222E-01 -0.19611491053E-01 -0.52653179951E-02  0.23637421190E-01  0.00000000000E+00 0.  1.
     999901    1    3    3    0    0  0.63807497419E-02  0.43411185567E-01 -0.11810676893E+00  0.88897382069E+00  0.88000000000E+00 0. -1.
        -11    1    3    3    0    0  0.18134611554E-01 -0.47419129614E-02  0.31385414842E-01  0.36560296231E-01  0.51100000000E-03 0.  1.
         11    1    3    3    0    0 -0.12416042073E-01 -0.19057781553E-01  0.91986672081E-01  0.94758461892E-01  0.51100000000E-03 0. -1.
</event>
<event>
 8    1  0.1123450E+005  0.1043930E+01  0.7957747E-01            NaN
         13   -1    0    0    0    0  0.00000000000E+00  0.00000000000E+00  0.74505805969E-08  0.10566000000E+00  0.10566000000E+00 0.  1.
     999900   -1    0    0    0    0 -0.00000000000E+00 -0.00000000000E+00 -0.74505805969E-08  0.93827000000E+00  0.93827000000E+00 0. -1.
     999902    2    1    2    0    0 -0.65042727178E-03 -0.22768389725E-01 -0.65980029343E-02  0.10202159479E+01  0.10199403041E+01 0.  0.
     999903    2    3    3    0    0 -0.88476735006E-01 -0.72811887588E-01 -0.63728658507E-01  0.13258892945E+00  0.19717471566E-01 0.  0.
         14    1    1    2    0    0  0.65042727178E-03  0.22768389725E-01  0.65980029343E-02  0.23714052143E-01  0.00000000000E+00 0.  1.
     999901    1    3    3    0    0  0.87826307734E-01  0.50043497863E-01  0.57130655573E-01  0.88762701841E+00  0.88000000000E+00 0.  1.
        -11    1    4    4    0    0 -0.37769390020E-01 -0.43474719368E-01 -0.34233674446E-01  0.66998385307E-01  0.51100000000E-03 0.  1.
         11    1    4    4    0    0 -0.50707344985E-01 -0.29337168220E-01 -0.29494984061E-01  0.65590544139E-01  0.51100000000E-03 0. -1.
</event>
<event>
 7    1  0.1123450E+005  0.1043930E+01  0.7957747E-01            NaN
         13   -1    0    0    0    0  0.00000000000E+00  0.00000000000E+00  0.74505805969E-08  0.10566000000E+00  0.10566000000E+00 0.  1.
     999900   -1    0    0    0    0 -0.00000000000E+00 -0.00000000000E+00 -0.74505805969E-08  0.93827000000E+00  0.93827000000E+00 0. -1.
     999903    2    1    2    0    0 -0.61737925635E-01  0.81771627018E-01 -0.35653284701E-01  0.11019178740E+00  0.19310692711E-01 0.  0.
         14    1    1    2    0    0 -0.30282644612E-01 -0.36023944176E-01  0.60316649021E-03  0.47065134957E-01  0.00000000000E+00 0. -1.
     999901    1    1    2    0    0  0.92020570247E-01 -0.45747682842E-01  0.35050118211E-01  0.88667307765E+00  0.88000000000E+00 0.  1.
        -11    1    3    3    0    0 -0.24215378429E-01  0.45484818425E-01 -0.12155105286E-01  0.52945830480E-01  0.51100000000E-03 0.  1.
         11    1    3    3    0    0 -0.37522547206E-01  0.36286808593E-01 -0.23498179414E-01  0.57245956918E-01  0.51100000000E-03 0. -1.
</event>
<event>
 8    1  0.1123450E+005  0.1043930E+01  0.7957747E-01            NaN
         13   -1    0    0    0    0  0.00000000000E+00  0.00000000000E+00  0.74505805969E-08  0.10566000000E+00  0.10566000000E+00 0. -1.
     999900   -1    0    0    0    0 -0.00000000000E+00 -0.00000000000E+00 -0.74505805969E-08  0.93827000000E+00  0.93827000000E+00 0.  1.
     999902    2    1    2    0    0  0.33981481798E-02 -0.16096507680E-01 -0.15289971761E-01  0.10214705208E+01  0.10212235782E+01 0.  0.
     999903    2    3    3    0    0  0.52024904501E-01 -0.98914766812E-01  0.67904268704E-01  0.13234471015E+00  0.20332506353E-01 0.  0.
         14    1    1    2    0    0 -0.33981481798E-02  0.16096507680E-01  0.15289971761E-01  0.22459479224E-01  0.00000000000E+00 0. -1.
     999901    1    3    3    0    0 -0.48626756321E-01  0.82818259131E-01 -0.83194240465E-01  0.88912581063E+00  0.88000000000E+00 0.  1.
        -11    1    4    4    0    0  0.34874113943E-01 -0.51928237461E-01  0.28866734903E-01  0.68893360886E-01  0.51100000000E-03 0.  1.
         11    1    4    4    0    0  0.17150790558E-01 -0.46986529350E-01  0.39037533801E-01  0.63451349264E-01  0.51100000000E-03 0. -1.
</event>
<event>
 8    1  0.1123450E+005  0.1043930E+01  0.7957747E-01            NaN
         13   -1    0    0    0    0  0.00000000000E+00  0.00000000000E+00  0.74505805969E-08  0.10566000000E+00  0.10566000000E+00 0. -1.
     999900   -1    0    0    0    0 -0.00000000000E+00 -0.00000000000E+00 -0.74505805969E-08  0.93827000000E+00  0.93827000000E+00 0. -1.
     999902    2    1    2    0    0  0.11872496365E-01 -0.14788668923E-01 -0.15121427866E-01  0.10196747227E+01  0.10193861984E+01 0.  0.
     999903    2    3    3    0    0 -0.60158290683E-02 -0.99729395307E-01 -0.84293467536E-01  0.13270251889E+00  0.22856669957E-01 0.  0.
         14    1    1    2    0    0 -0.11872496365E-01  0.14788668923E-01  0.15121427866E-01  0.24255277347E-01  0.00000000000E+00 0. -1.
     999901    1    3    3    0    0  0.17888325433E-01  0.84940726384E-01  0.69172039670E-01  0.88697220377E+00  0.88000000000E+00 0.  1.
        -11    1    4    4    0    0  0.71700249144E-02 -0.60125233682E-01 -0.45858173327E-01  0.75958450251E-01  0.51100000000E-03 0. -1.
         11    1    4    4    0    0 -0.13185853983E-01 -0.39604161625E-01 -0.38435294208E-01  0.56744068634E-01  0.51100000000E-03 0.  1.
</event>
<event>
 8    1  0.1123450E+005  0.1043930E+01  0.7957747E-01            NaN
         13   -1    0    0    0    0  0.00000000000E+00  0.00000000000E+00  0.74505805969E-08  0.10566000000E+00  0.10566000000E+00 0.  1.
     999900   -1    0    0    0    0 -0.00000000000E+00 -0.00000000000E+00 -0.74505805969E-08  0.93827000000E+00  0.93827000000E+00 0.  1.
     999902    2    1    2    0    0 -0.89999345109E-02  0.21086502589E-01  0.64825646518E-02  0.10201043194E+01  0.10198260437E+01 0.  0.
     999903    2    3    3    0    0 -0.11531257590E-01  0.27569011305E-01  0.12688054730E+00  0.13187906375E+00  0.20009844752E-01 0.  0.
         14    1    1    2    0    0  0.89999345109E-02 -0.21086502589E-01 -0.64825646518E-02  0.23825680622E-01  0.00000000000E+00 0. -1.
     999901    1    3    3    0    0  0.25313230791E-02 -0.64825087157E-02 -0.12039798264E+00  0.88822525563E+00  0.88000000000E+00 0.  1.
        -11    1    4    4    0    0 -0.65905480070E-02  0.20243367968E-01  0.11557780472E+00  0.11752327146E+00  0.51100000000E-03 0.  1.
         11    1    4    4    0    0 -0.49407095829E-02  0.73256433362E-02  0.11302742574E-01  0.14355792286E-01  0.51100000000E-03 0. -1.
</event>
<event>
 8    1  0.1123450E+005  0.1043930E+01  0.7957747E-01            NaN
         13   -1    0    0    0    0  0.00000000000E+00  0.00000000000E+00  0.74505805969E-08  0.10566000000E+00  0.10566000000E+00 0.  1.
     999900   -1    0    0    0    0 -0.00000000000E+00 -0.00000000000E+00 -0.74505805969E-08  0.93827000000E+00  0.93827000000E+00 0.  1.
     999902    2    1    2    0    0  0.91533941805E-02 -0.79968709733E-02  0.21539672555E-01  0.10191975908E+01  0.10188974615E+01 0.  0.
     999903    2    3    3    0    0 -0.48219876276E-01  0.11455221940E+00  0.22491374852E-01  0.12885446738E+00  0.25499889868E-01 0.  0.
         14    1    1    2    0    0 -0.91533941805E-02  0.79968709733E-02 -0.21539672555E-01  0.24732409186E-01  0.00000000000E+00 0. -1.
     999901    1    3    3    0    0  0.57373270456E-01 -0.12254909037E+00 -0.95170229688E-03  0.89034312344E+00  0.88000000000E+00 0.  1.
        -11    1    4    4    0    0 -0.39647883036E-01  0.92410814493E-01  0.28184239377E-01  0.10443335547E+00  0.51100000000E-03 0. -1.
         11    1    4    4    0    0 -0.85719932394E-02  0.22141404905E-01 -0.56928645254E-02  0.24421111907E-01  0.51100000000E-03 0.  1.
</event>
<event>
 8    1  0.1123450E+005  0.1043930E+01  0.7957747E-01            NaN
         13   -1    0    0    0    0  0.00000000000E+00  0.00000000000E+00  0.74505805969E-08  0.10566000000E+00  0.10566000000E+00 0.  1.
     999900   -1    0    0    0    0 -0.00000000000E+00 -0.00000000000E+00 -0.74505805969E-08  0.93827000000E+00  0.93827000000E+00 0.  1.
     999902    2    1    2    0    0 -0.15190811291E-01  0.90951971389E-02 -0.15583656113E-01  0.10203432729E+01  0.10200706156E+01 0.  0.
     999903    2    3    3    0    0 -0.21780397197E-01 -0.36927223053E-01 -0.12431771700E+00  0.13243303991E+00  0.15671942968E-01 0.  0.
         14    1    1    2    0    0  0.15190811291E-01 -0.90951971389E-02  0.15583656113E-01  0.23586727126E-01  0.00000000000E+00 0.  1.
     999901    1    3    3    0    0  0.65895859057E-02  0.46022420191E-01  0.10873406088E+00  0.88791023296E+00  0.88000000000E+00 0. -1.
        -11    1    4    4    0    0 -0.21457307660E-01 -0.34489616135E-01 -0.12312395751E+00  0.12965230313E+00  0.51100000000E-03 0. -1.
         11    1    4    4    0    0 -0.32308953734E-03 -0.24376069171E-02 -0.11937594873E-02  0.27807367810E-02  0.51100000000E-03 0.  1.
</event>
<event>
 8    1  0.1123450E+005  0.1043930E+01  0.7957747E-01            NaN
         13   -1    0    0    0    0  0.00000000000E+00  0.00000000000E+00  0.74505805969E-08  0.10566000000E+00  0.10566000000E+00 0.  1.
     999900   -1    0    0    0    0 -0.00000000000E+00 -0.00000000000E+00 -0.74505805969E-08  0.93827000000E+00  0.93827000000E+00 0.  1.
     999902    2    1    2    0    0 -0.10816864153E-01 -0.11256733963E-01 -0.94964780865E-02  0.10256570225E+01  0.10254942351E+01 0.  0.
     999903    2    3    3    0    0 -0.63320094873E-02 -0.12288339426E+00 -0.57503636570E-01  0.13729599655E+00  0.20077338523E-01 0.  0.
         14    1    1    2    0    0  0.10816864153E-01  0.11256733963E-01  0.94964780865E-02  0.18272977471E-01  0.00000000000E+00 0. -1.
     999901    1    3    3    0    0 -0.44848546654E-02  0.11162666029E+00  0.48007158484E-01  0.88836102598E+00  0.88000000000E+00 0.  1.
        -11    1    4    4    0    0 -0.14799382329E-02 -0.11045115967E-02 -0.35012427517E-02  0.39912385104E-02  0.51100000000E-03 0. -1.
         11    1    4    4    0    0 -0.48520712544E-02 -0.12177888266E+00 -0.54002393819E-01  0.13330475804E+00  0.51100000000E-03 0.  1.
</event>
<event>
 8    1  0.1123450E+005  0.1043930E+01  0.7957747E-01            NaN
         13   -1    0    0    0    0  0.00000000000E+00  0.00000000000E+00  0.74505805969E-08  0.10566000000E+00  0.10566000000E+00 0. -1.
     999900   -1    0    0    0    0 -0.00000000000E+00 -0.00000000000E+00 -0.74505805969E-08  0.93827000000E+00  0.93827000000E+00 0.  1.
     999902    2    1    2    0    0 -0.24259092975E-01 -0.25434552641E-02  0.80339348575E-04  0.10195378043E+01  0.10192459738E+01 0.  0.
     999903    2    3    3    0    0 -0.12915588369E+00 -0.20277593152E-01  0.12988258682E-01  0.13303656305E+00  0.20919110152E-01 0.  0.
         14    1    1    2    0    0  0.24259092975E-01  0.25434552641E-02 -0.80339348575E-04  0.24392195700E-01  0.00000000000E+00 0.  1.
     999901    1    3    3    0    0  0.10489679072E+00  0.17734137888E-01 -0.12907919333E-01  0.88650124125E+00  0.88000000000E+00 0. -1.
        -11    1    4    4    0    0 -0.60121014063E-01 -0.44920142778E-02  0.15222642694E-01  0.62182831199E-01  0.51100000000E-03 0.  1.
         11    1    4    4    0    0 -0.69034869628E-01 -0.15785578875E-01 -0.22343840125E-02  0.70853731855E-01  0.51100000000E-03 0. -1.
</event>
<event>
 8    1  0.1123450E+005  0.1043930E+01  0.7957747E-01            NaN
         13   -1    0    0    0    0  0.00000000000E+00  0.00000000000E+00  0.74505805969E-08  0.10566000000E+00  0.10566000000E+00 0. -1.
     999900   -1    0    0    0    0 -0.00000000000E+00 -0.00000000000E+00 -0.74505805969E-08  0.93827000000E+00  0.93827000000E+00 0. -1.
     999902    2    1    2    0    0 -0.88864490255E-02 -0.10254561469E-01 -0.18718429526E-01  0.10208106442E+01  0.10205488067E+01 0.  0.
     999903    2    3    3    0    0 -0.60151406344E-01  0.11071316757E+00  0.25045694338E-01  0.12998148785E+00  0.19806645915E-01 0.  0.
         14    1    1    2    0    0  0.88864490255E-02  0.10254561469E-01  0.18718429526E-01  0.23119355768E-01  0.00000000000E+00 0. -1.
     999901    1    3    3    0    0  0.51264957318E-01 -0.12096772903E+00 -0.43764123864E-01  0.89082915638E+00  0.88000000000E+00 0. -1.
        -11    1    4    4    0    0 -0.21464633085E-01  0.27138139270E-01  0.24872321717E-03  0.34605376183E-01  0.51100000000E-03 0. -1.
         11    1    4    4    0    0 -0.38686773258E-01  0.83575028295E-01  0.24796971121E-01  0.95376111671E-01  0.51100000000E-03 0.  1.
</event>
<event>
 8    1  0.1123450E+005  0.1043930E+01  0.7957747E-01            NaN
         13   -1    0    0    0    0  0.00000000000E+00  0.00000000000E+00  0.74505805969E-08  0.10566000000E+00  0.10566000000E+00 0. -1.
     999900   -1    0    0    0    0 -0.00000000000E+00 -0.00000000000E+00 -0.74505805969E-08  0.93827000000E+00  0.93827000000E+00 0. -1.
     999902    2    1    2    0    0 -0.17651134078E-01  0.72325116040E-02  0.13831178229E-01  0.10203678853E+01  0.10200958034E+01 0.  0.
     999903    2    3    3    0    0  0.74982927081E-01  0.76207857391E-01 -0.69501938087E-01  0.12891790022E+00  0.18953329965E-01 0.  0.
         14    1    1    2    0    0  0.17651134078E-01 -0.72325116040E-02 -0.13831178229E-01  0.23562114709E-01  0.00000000000E+00 0.  1.
     999901    1    3    3    0    0 -0.92634061160E-01 -0.68975345787E-01  0.83333116316E-01  0.89144998507E+00  0.88000000000E+00 0.  1.
        -11    1    4    4    0    0  0.43567857259E-01  0.31226617827E-01 -0.37187883729E-01  0.65241548604E-01  0.51100000000E-03 0.  1.
         11    1    4    4    0    0  0.31415069822E-01  0.44981239565E-01 -0.32314054358E-01  0.63676351613E-01  0.51100000000E-03 0. -1.
</event>
<event>
 8    1  0.1123450E+005  0.1043930E+01  0.7957747E-01            NaN
         13   -1    0    0    0    0  0.00000000000E+00  0.00000000000E+00  0.74505805969E-08  0.10566000000E+00  0.10566000000E+00 0.  1.
     999900   -1    0    0    0    0 -0.00000000000E+00 -0.00000000000E+00 -0.74505805969E-08  0.93827000000E+00  0.93827000000E+00 0.  1.
     999902    2    1    2    0    0  0.76848305473E-02  0.19745967546E-01  0.89946443848E-02  0.10209112363E+01  0.10206516981E+01 0.  0.
     999903    2    3    3    0    0 -0.53902549185E-01  0.73579991417E-01 -0.92365629463E-01  0.13132424640E+00  0.19878335998E-01 0.  0.
         14    1    1    2    0    0 -0.76848305473E-02 -0.19745967546E-01 -0.89946443848E-02  0.23018763704E-01  0.00000000000E+00 0. -1.
     999901    1    3    3    0    0  0.61587379732E-01 -0.53834023871E-01  0.10136027385E+00  0.88958698989E+00  0.88000000000E+00 0. -1.
        -11    1    4    4    0    0 -0.36391645016E-01  0.63238178264E-01 -0.70508654998E-01  0.10146502140E+00  0.51100000000E-03 0.  1.
         11    1    4    4    0    0 -0.17510904169E-01  0.10341813154E-01 -0.21856974466E-01  0.29859225005E-01  0.51100000000E-03 0. -1.
</event>
<event>
 8    1  0.1123450E+005  0.1043930E+01  0.7957747E-01            NaN
         13   -1    0    0    0    0  0.00000000000E+00  0.00000000000E+00  0.74505805969E-08  0.10566000000E+00  0.10566000000E+00 0. -1.
     999900   -1    0    0    0    0 -0.00000000000E+00 -0.00000000000E+00 -0.74505805969E-08  0.93827000000E+00  0.93827000000E+00 0. -1.
     999902    2    1    2    0    0  0.18138077843E-01 -0.14037921353E-01  0.25955888270E-02  0.10208477517E+01  0.10205867636E+01 0.  0.
     999903    2    3    3    0    0  0.77863248401E-01  0.93615081264E-01  0.44775954660E-01  0.13127737889E+00  0.20059790670E-01 0.  0.
         14    1    1    2    0    0 -0.18138077843E-01  0.14037921353E-01 -0.25955888270E-02  0.23082248268E-01  0.00000000000E+00 0. -1.
     999901    1    3    3    0    0 -0.59725170558E-01 -0.10765300262E+00 -0.42180365833E-01  0.88957037284E+00  0.88000000000E+00 0.  1.
        -11    1    4    4    0    0  0.41951042898E-01  0.44309021688E-01  0.12585101601E-01  0.62304296052E-01  0.51100000000E-03 0. -1.
         11    1    4    4    0    0  0.35912205503E-01  0.49306059576E-01  0.32190853059E-01  0.68973082842E-01  0.51100000000E-03 0.  1.
</event>
<event>
 8    1  0.1123450E+005  0.1043930E+01  0.7957747E-01            NaN
         13   -1    0    0    0    0  0.00000000000E+00  0.00000000000E+00  0.74505805969E-08  0.10566000000E+00  0.10566000000E+00 0.  1.
     999900   -1    0    0    0    0 -0.00000000000E+00 -0.00000000000E+00 -0.74505805969E-08  0.93827000000E+00  0.93827000000E+00 0.  1.
     999902    2    1    2    0    0  0.61446489746E-02 -0.16132589540E-03  0.22913565921E-01  0.10202062937E+01  0.10199304229E+01 0.  0.
     999903    2    3    3    0    0  0.90762928906E-01 -0.80724777878E-01  0.47877764749E-01  0.13213313551E+00  0.20309754168E-01 0.  0.
         14    1    1    2    0    0 -0.61446489746E-02  0.16132589540E-03 -0.22913565921E-01  0.23723706293E-01  0.00000000000E+00 0. -1.
     999901    1    3    3    0    0 -0.84618279931E-01  0.80563451982E-01 -0.24964198829E-01  0.88807315820E+00  0.88000000000E+00 0. -1.
        -11    1    4    4    0    0  0.46162624360E-01 -0.44565201824E-01  0.35728437797E-01  0.73442681663E-01  0.51100000000E-03 0. -1.
         11    1    4    4    0    0  0.44600304546E-01 -0.36159576054E-01  0.12149326953E-01  0.58690453843E-01  0.51100000000E-03 0.  1.
</event>
<event>
 8    1  0.1123450E+005  0.1043930E+01  0.7957747E-01            NaN
         13   -1    0    0    0    0  0.00000000000E+00  0.00000000000E+00  0.74505805969E-08  0.10566000000E+00  0.10566000000E+00 0. -1.
     999900   -1    0    0    0    0 -0.00000000000E+00 -0.00000000000E+00 -0.74505805969E-08  0.93827000000E+00  0.93827000000E+00 0. -1.
     999902    2    1    2    0    0  0.18554728952E-01  0.13445765093E-01  0.35500182256E-03  0.10210129192E+01  0.10207556949E+01 0.  0.
     999903    2    3    3    0    0 -0.12604898098E-01 -0.10920494075E+00 -0.65479177495E-01  0.12952637576E+00  0.20123538203E-01 0.  0.
         14    1    1    2    0    0 -0.18554728952E-01 -0.13445765093E-01 -0.35500182256E-03  0.22917080785E-01  0.00000000000E+00 0. -1.
     999901    1    3    3    0    0  0.31159627050E-01  0.12265070585E+00  0.65834179318E-01  0.89148654346E+00  0.88000000000E+00 0.  1.
        -11    1    4    4    0    0 -0.43628719925E-02 -0.40087905043E-01 -0.35535869375E-01  0.53750664330E-01  0.51100000000E-03 0. -1.
         11    1    4    4    0    0 -0.82420261054E-02 -0.69117035711E-01 -0.29943308121E-01  0.75775711425E-01  0.51100000000E-03 0.  1.
</event>
<event>
 8    1  0.1123450E+005  0.1043930E+01  0.7957747E-01            NaN
         13   -1    0    0    0    0  0.00000000000E+00  0.00000000000E+00  0.74505805969E-08  0.10566000000E+00  0.10566000000E+00 0.  1.
     999900   -1    0    0    0    0 -0.00000000000E+00 -0.00000000000E+00 -0.74505805969E-08  0.93827000000E+00  0.93827000000E+00 0. -1.
     999902    2    1    2    0    0  0.14056951317E-01  0.12044450526E-01 -0.14417381539E-01  0.10204666763E+01  0.10201968976E+01 0.  0.
     999903    2    3    3    0    0  0.94610097503E-01  0.71380490992E-01 -0.59071918858E-01  0.13367267386E+00  0.18238615479E-01 0.  0.
         14    1    1    2    0    0 -0.14056951317E-01 -0.12044450526E-01  0.14417381539E-01  0.23463323705E-01  0.00000000000E+00 0.  1.
     999901    1    3    3    0    0 -0.80553146186E-01 -0.59336040465E-01  0.44654537319E-01  0.88679400244E+00  0.88000000000E+00 0. -1.
        -11    1    4    4    0    0  0.20635634947E-01  0.21392346300E-01 -0.22080800814E-01  0.37030862742E-01  0.51100000000E-03 0. -1.
         11    1    4    4    0    0  0.73974462556E-01  0.49988144692E-01 -0.36991118044E-01  0.96641811114E-01  0.51100000000E-03 0.  1.
</event>
<event>
 8    1  0.1123450E+005  0.1043930E+01  0.7957747E-01            NaN
         13   -1    0    0    0    0  0.00000000000E+00  0.00000000000E+00  0.74505805969E-08  0.10566000000E+00  0.10566000000E+00 0.  1.
     999900   -1    0    0    0    0 -0.00000000000E+00 -0.00000000000E+00 -0.74505805969E-08  0.93827000000E+00  0.93827000000E+00 0. -1.
     999902    2    1    2    0    0 -0.19615542847E-01  0.12110698053E-01 -0.13355789674E-01  0.10172876344E+01  0.10169386980E+01 0.  0.
     999903    2    3    3    0    0 -0.13101707706E-01  0.83946616221E-01 -0.95542387095E-01  0.13051964556E+00  0.26236254022E-01 0.  0.
         14    1    1    2    0    0  0.19615542847E-01 -0.12110698053E-01  0.13355789674E-01  0.26642365629E-01  0.00000000000E+00 0.  1.
     999901    1    3    3    0    0 -0.65138351409E-02 -0.71835918168E-01  0.82186597421E-01  0.88676798881E+00  0.88000000000E+00 0.  1.
        -11    1    4    4    0    0 -0.18501292197E-01  0.44348929027E-01 -0.61285599831E-01  0.77880107772E-01  0.51100000000E-03 0.  1.
         11    1    4    4    0    0  0.53995844910E-02  0.39597687194E-01 -0.34256787263E-01  0.52639537786E-01  0.51100000000E-03 0. -1.
</event>
<event>
 8    1  0.1123450E+005  0.1043930E+01  0.7957747E-01            NaN
         13   -1    0    0    0    0  0.00000000000E+00  0.00000000000E+00  0.74505805969E-08  0.10566000000E+00  0.10566000000E+00 0.  1.
     999900   -1    0    0    0    0 -0.00000000000E+00 -0.00000000000E+00 -0.74505805969E-08  0.93827000000E+00  0.93827000000E+00 0.  1.
     999902    2    1    2    0    0 -0.17648091486E-01  0.19730353024E-01  0.64434285490E-02  0.10166855559E+01  0.10163204513E+01 0.  0.
     999903    2    3    3    0    0 -0.68161906506E-01 -0.99613932278E-01 -0.32877765470E-01  0.12632559484E+00  0.17556407553E-01 0.  0.
         14    1    1    2    0    0  0.17648091486E-01 -0.19730353024E-01 -0.64434285490E-02  0.27244444113E-01  0.00000000000E+00 0. -1.
     999901    1    3    3    0    0  0.50513815020E-01  0.11934428530E+00  0.39321194019E-01  0.89035996105E+00  0.88000000000E+00 0. -1.
        -11    1    4    4    0    0 -0.13461415204E-01 -0.30822696052E-01 -0.13977910547E-01  0.36426520497E-01  0.51100000000E-03 0. -1.
         11    1    4    4    0    0 -0.54700491301E-01 -0.68791236226E-01 -0.18899854922E-01  0.89899074340E-01  0.51100000000E-03 0.  1.
</event>
<event>
 8    1  0.1123450E+005  0.1043930E+01  0.7957747E-01            NaN
         13   -1    0    0    0    0  0.00000000000E+00  0.00000000000E+00  0.74505805969E-08  0.10566000000E+00  0.10566000000E+00 0. -1.
     999900   -1    0    0    0    0 -0.00000000000E+00 -0.00000000000E+00 -0.74505805969E-08  0.93827000000E+00  0.93827000000E+00 0.  1.
     999902    2    1    2    0    0  0.25591162702E-02  0.10285919907E-01  0.24870223032E-01  0.10168952591E+01  0.10165358285E+01 0.  0.
     999903    2    3    3    0    0  0.86858613295E-01  0.15202480937E-01 -0.87867641491E-01  0.12569359620E+00  0.17396079293E-01 0.  0.
         14    1    1    2    0    0 -0.25591162702E-02 -0.10285919907E-01 -0.24870223032E-01  0.27034740947E-01  0.00000000000E+00 0.  1.
     999901    1    3    3    0    0 -0.84299497025E-01 -0.49165610298E-02  0.11273786452E+00  0.89120166285E+00  0.88000000000E+00 0. -1.
        -11    1    4    4    0    0  0.77571524808E-01  0.78716993405E-02 -0.74626691498E-01  0.10792918658E+00  0.51100000000E-03 0. -1.
         11    1    4    4    0    0  0.92870884866E-02  0.73307815964E-02 -0.13240949993E-01  0.17764409618E-01  0.51100000000E-03 0.  1.
</event>
<event>
 8    1  0.1123450E+005  0.1043930E+01  0.7957747E-01            NaN
         13   -1    0    0    0    0  0.00000000000E+00  0.00000000000E+00  0.74505805969E-08  0.10566000000E+00  0.10566000000E+00 0.  1.
     999900   -1    0    0    0    0 -0.00000000000E+00 -0.00000000000E+00 -0.74505805969E-08  0.93827000000E+00  0.93827000000E+00 0.  1.
     999902    2    1    2    0    0  0.18024514108E-01  0.77239264540E-02  0.13924577319E-01  0.10198793035E+01  0.10195956834E+01 0.  0.
     999903    2    3    3    0    0 -0.88556335470E-01  0.79639320157E-01 -0.43944534017E-01  0.12865534994E+00  0.20890934190E-01 0.  0.
         14    1    1    2    0    0 -0.18024514108E-01 -0.77239264540E-02 -0.13924577319E-01  0.24050696502E-01  0.00000000000E+00 0. -1.
     999901    1    3    3    0    0  0.10658084958E+00 -0.71915393703E-01  0.57869111336E-01  0.89122395356E+00  0.88000000000E+00 0.  1.
        -11    1    4    4    0    0 -0.23979188539E-01  0.24962773688E-01 -0.22751305361E-01  0.41424926914E-01  0.51100000000E-03 0.  1.
         11    1    4    4    0    0 -0.64577146931E-01  0.54676546469E-01 -0.21193228657E-01  0.87230423027E-01  0.51100000000E-03 0. -1.
</event>
<event>
 8    1  0.1123450E+005  0.1043930E+01  0.7957747E-01            NaN
         13   -1    0    0    0    0  0.00000000000E+00  0.00000000000E+00  0.74505805969E-08  0.10566000000E+00  0.10566000000E+00 0.  1.
     999900   -1    0    0    0    0 -0.00000000000E+00 -0.00000000000E+00 -0.74505805969E-08  0.93827000000E+00  0.93827000000E+00 0. -1.
     999902    2    1    2    0    0  0.18680608214E-01  0.19571325373E-01  0.13892880957E-02  0.10168388202E+01  0.10164778671E+01 0.  0.
     999903    2    3    3    0    0  0.75598987132E-01  0.71360723781E-01 -0.75359520772E-01  0.13015272960E+00  0.21286519152E-01 0.  0.
         14    1    1    2    0    0 -0.18680608214E-01 -0.19571325373E-01 -0.13892880957E-02  0.27091179773E-01  0.00000000000E+00 0. -1.
     999901    1    3    3    0    0 -0.56918378918E-01 -0.51789398408E-01  0.76748808868E-01  0.88668609063E+00  0.88000000000E+00 0. -1.
        -11    1    4    4    0    0  0.23030998561E-01  0.35772629249E-01 -0.32794516053E-01  0.53720101473E-01  0.51100000000E-03 0.  1.
         11    1    4    4    0    0  0.52567988571E-01  0.35588094532E-01 -0.42565004720E-01  0.76432628128E-01  0.51100000000E-03 0. -1.
</event>
<event>
 8    1  0.1123450E+005  0.1043930E+01  0.7957747E-01            NaN
         13   -1    0    0    0    0  0.00000000000E+00  0.00000000000E+00  0.74505805969E-08  0.10566000000E+00  0.10566000000E+00 0. -1.
     999900   -1    0    0    0    0 -0.00000000000E+00 -0.00000000000E+00 -0.74505805969E-08  0.93827000000E+00  0.93827000000E+00 0.  1.
     999902    2    1    2    0    0 -0.57314298418E-02  0.19515866661E-01 -0.19239990769E-02  0.10234991382E+01  0.10232951998E+01 0.  0.
     999903    2    3    3    0    0 -0.37442130068E-01 -0.11888508307E+00  0.36318568347E-01  0.13129799200E+00  0.19609900973E-01 0.  0.
         14    1    1    2    0    0  0.57314298418E-02 -0.19515866661E-01  0.19239990769E-02  0.20430861754E-01  0.00000000000E+00 0. -1.
     999901    1    3    3    0    0  0.31710700226E-01  0.13840094973E+00 -0.38242567424E-01  0.89220114624E+00  0.88000000000E+00 0. -1.
        -11    1    4    4    0    0  0.97894838607E-03 -0.17971344194E-01  0.27166264937E-02  0.18209028876E-01  0.51100000000E-03 0. -1.
         11    1    4    4    0    0 -0.38421078454E-01 -0.10091373888E+00  0.33601941854E-01  0.11308896313E+00  0.51100000000E-03 0.  1.
</event>
<event>
 8    1  0.1123450E+005  0.1043930E+01  0.7957747E-01            NaN
         13   -1    0    0    0    0  0.00000000000E+00  0.00000000000E+00  0.74505805969E-08  0.10566000000E+00  0.10566000000E+00 0.  1.
     999900   -1    0    0    0    0 -0.00000000000E+00 -0.00000000000E+00 -0.74505805969E-08  0.93827000000E+00  0.93827000000E+00 0. -1.
     999902    2    1    2    0    0 -0.60822997228E-02  0.19256073349E-01 -0.12658502390E-01  0.10200966533E+01  0.10198181964E+01 0.  0.
     999903    2    3    3    0    0  0.75174220400E-01 -0.97038700726E-01  0.29315012572E-01  0.12774645722E+00  0.19801881691E-01 0.  0.
         14    1    1    2    0    0  0.60822997228E-02 -0.19256073349E-01  0.12658502390E-01  0.23833346670E-01  0.00000000000E+00 0.  1.
     999901    1    3    3    0    0 -0.81256520123E-01  0.11629477408E+00 -0.41973514963E-01  0.89235019611E+00  0.88000000000E+00 0.  1.
        -11    1    4    4    0    0  0.27870199844E-01 -0.51955480610E-01  0.15259203196E-01  0.60903402269E-01  0.51100000000E-03 0. -1.
         11    1    4    4    0    0  0.47304020556E-01 -0.45083220116E-01  0.14055809377E-01  0.66843054950E-01  0.51100000000E-03 0.  1.
</event>
<event>
 7    1  0.1123450E+005  0.1043930E+01  0.7957747E-01            NaN
         13   -1    0    0    0    0  0.00000000000E+00  0.00000000000E+00  0.74505805969E-08  0.10566000000E+00  0.10566000000E+00 0. -1.
     999900   -1    0    0    0    0 -0.00000000000E+00 -0.00000000000E+00 -0.74505805969E-08  0.93827000000E+00  0.93827000000E+00 0. -1.
     999903    2    1    2    0    0 -0.23067034992E-02  0.72115232759E-01 -0.84789352663E-01  0.11317183644E+00  0.20315082095E-01 0.  0.
         14    1    1    2    0    0  0.10538503705E-02 -0.46450497238E-01  0.21324829333E-02  0.46511361814E-01  0.00000000000E+00 0. -1.
     999901    1    1    2    0    0  0.12528531288E-02 -0.25664735521E-01  0.82656869730E-01  0.88424680175E+00  0.88000000000E+00 0.  1.
        -11    1    3    3    0    0  0.51082035602E-02  0.24153315790E-01 -0.40681744669E-01  0.47589304235E-01  0.51100000000E-03 0.  1.
         11    1    3    3    0    0 -0.74149070594E-02  0.47961916969E-01 -0.44107607994E-01  0.65582532202E-01  0.51100000000E-03 0. -1.
</event>
<event>
 8    1  0.1123450E+005  0.1043930E+01  0.7957747E-01            NaN
         13   -1    0    0    0    0  0.00000000000E+00  0.00000000000E+00  0.74505805969E-08  0.10566000000E+00  0.10566000000E+00 0.  1.
     999900   -1    0    0    0    0 -0.00000000000E+00 -0.00000000000E+00 -0.74505805969E-08  0.93827000000E+00  0.93827000000E+00 0. -1.
     999902    2    1    2    0    0 -0.20715949699E-01 -0.16626318430E-01 -0.18378833519E-01  0.10116288149E+01  0.10111129970E+01 0.  0.
     999903    2    3    3    0    0  0.71860245668E-01 -0.58372006403E-01  0.74929394096E-01  0.12088784260E+00  0.20694693782E-01 0.  0.
         14    1    1    2    0    0  0.20715949699E-01  0.16626318430E-01  0.18378833519E-01  0.32301185086E-01  0.00000000000E+00 0.  1.
     999901    1    3    3    0    0 -0.92576195366E-01  0.41745687973E-01 -0.93308227614E-01  0.89074097231E+00  0.88000000000E+00 0. -1.
        -11    1    4    4    0    0  0.40729134240E-01 -0.40458003677E-01  0.56358313817E-01  0.80450190148E-01  0.51100000000E-03 0.  1.
         11    1    4    4    0    0  0.31131111428E-01 -0.17914002726E-01  0.18571080278E-01  0.40437652455E-01  0.51100000000E-03 0. -1.
</event>
<event>
 8    1  0.1123450E+005  0.1043930E+01  0.7957747E-01            NaN
         13   -1    0    0    0    0  0.00000000000E+00  0.00000000000E+00  0.74505805969E-08  0.10566000000E+00  0.10566000000E+00 0.  1.
     999900   -1    0    0    0    0 -0.00000000000E+00 -0.00000000000E+00 -0.74505805969E-08  0.93827000000E+00  0.93827000000E+00 0.  1.
     999902    2    1    2    0    0  0.10608342042E-01 -0.16268899463E-01  0.12593872745E-01  0.10207822217E+01  0.10205197325E+01 0.  0.
     999903    2    3    3    0    0  0.91394608863E-01 -0.95263338451E-01  0.75856448639E-03  0.13347921998E+00  0.19698948300E-01 0.  0.
         14    1    1    2    0    0 -0.10608342042E-01  0.16268899463E-01 -0.12593872745E-01  0.23147778324E-01  0.00000000000E+00 0. -1.
     999901    1    3    3    0    0 -0.80786266821E-01  0.78994438988E-01  0.11835308259E-01  0.88730300170E+00  0.88000000000E+00 0.  1.
        -11    1    4    4    0    0  0.59369166013E-01 -0.69264921815E-01 -0.70252697064E-02  0.91498321310E-01  0.51100000000E-03 0. -1.
         11    1    4    4    0    0  0.32025442850E-01 -0.25998416636E-01  0.77838341927E-02  0.41980898669E-01  0.51100000000E-03 0.  1.
</event>
<event>
 8    1  0.1123450E+005  0.1043930E+01  0.7957747E-01            NaN
         13   -1    0    0    0    0  0.00000000000E+00  0.00000000000E+00  0.74505805969E-08  0.10566000000E+00  0.10566000000E+00 0. -1.
     999900   -1    0    0    0    0 -0.00000000000E+00 -0.00000000000E+00 -0.74505805969E-08  0.93827000000E+00  0.93827000000E+00 0. -1.
     999902    2    1    2    0    0 -0.12711877342E-01 -0.16111002150E-01  0.11807718443E-01  0.10202534624E+01  0.10199787004E+01 0.  0.
     999903    2    3    3    0    0 -0.10795523925E+00  0.60758525892E-01  0.38968213432E-01  0.13136769092E+00  0.19824641469E-01 0.  0.
         14    1    1    2    0    0  0.12711877342E-01  0.16111002150E-01 -0.11807718443E-01  0.23676537556E-01  0.00000000000E+00 0.  1.
     999901    1    3    3    0    0  0.95243361909E-01 -0.76869528041E-01 -0.27160494989E-01  0.88888577152E+00  0.88000000000E+00 0. -1.
        -11    1    4    4    0    0 -0.65896062949E-01  0.39571745117E-01  0.14242805168E-01  0.78175013552E-01  0.51100000000E-03 0. -1.
         11    1    4    4    0    0 -0.42059176302E-01  0.21186780775E-01  0.24725408264E-01  0.53192677369E-01  0.51100000000E-03 0.  1.
</event>
<event>
 8    1  0.1123450E+005  0.1043930E+01  0.7957747E-01            NaN
         13   -1    0    0    0    0  0.00000000000E+00  0.00000000000E+00  0.74505805969E-08  0.10566000000E+00  0.10566000000E+00 0. -1.
     999900   -1    0    0    0    0 -0.00000000000E+00 -0.00000000000E+00 -0.74505805969E-08  0.93827000000E+00  0.93827000000E+00 0. -1.
     999902    2    1    2    0    0 -0.81398271475E-02  0.65116401571E-02  0.21217965878E-01  0.10202897733E+01  0.10200158632E+01 0.  0.
     999903    2    3    3    0    0 -0.40256760545E-01  0.11355273175E+00 -0.47860183362E-01  0.13053638980E+00  0.15307588138E-01 0.  0.
         14    1    1    2    0    0  0.81398271475E-02 -0.65116401571E-02 -0.21217965878E-01  0.23640226723E-01  0.00000000000E+00 0.  1.
     999901    1    3    3    0    0  0.32116933397E-01 -0.10704109159E+00  0.69078149239E-01  0.88975338347E+00  0.88000000000E+00 0. -1.
        -11    1    4    4    0    0 -0.30767505012E-01  0.66069250010E-01 -0.25705807117E-01  0.77284117398E-01  0.51100000000E-03 0.  1.
         11    1    4    4    0    0 -0.94892555331E-02  0.47483481738E-01 -0.22154376245E-01  0.53252272406E-01  0.51100000000E-03 0. -1.
</event>
<event>
 8    1  0.1123450E+005  0.1043930E+01  0.7957747E-01            NaN
         13   -1    0    0    0    0  0.00000000000E+00  0.00000000000E+00  0.74505805969E-08  0.10566000000E+00  0.10566000000E+00 0. -1.
     999900   -1    0    0    0    0 -0.00000000000E+00 -0.00000000000E+00 -0.74505805969E-08  0.93827000000E+00  0.93827000000E+00 0.  1.
     999902    2    1    2    0    0 -0.35202009560E-03 -0.48083629853E-03  0.22386625939E-01  0.10215354439E+01  0.10212899427E+01 0.  0.
     999903    2    3    3    0    0 -0.84610034876E-01  0.83754720053E-01 -0.49769397296E-01  0.13058003891E+00  0.20011059965E-01 0.  0.
         14    1    1    2    0    0  0.35202009560E-03  0.48083629853E-03 -0.22386625939E-01  0.22394556094E-01  0.00000000000E+00 0.  1.
     999901    1    3    3    0    0  0.84258014780E-01 -0.84235556351E-01  0.72156023236E-01  0.89095540500E+00  0.88000000000E+00 0. -1.
        -11    1    4    4    0    0 -0.62245664345E-01  0.62251271582E-01 -0.26962334290E-01  0.92070473740E-01  0.51100000000E-03 0. -1.
         11    1    4    4    0    0 -0.22364370530E-01  0.21503448471E-01 -0.22807063007E-01  0.38509565167E-01  0.51100000000E-03 0.  1.
</event>
<event>
 8    1  0.1123450E+005  0.1043930E+01  0.7957747E-01            NaN
         13   -1    0    0    0    0  0.00000000000E+00  0.00000000000E+00  0.74505805969E-08  0.10566000000E+00  0.10566000000E+00 0. -1.
     999900   -1    0    0    0    0 -0.00000000000E+00 -0.00000000000E+00 -0.74505805969E-08  0.93827000000E+00  0.93827000000E+00 0. -1.
     999902    2    1    2    0    0  0.32847896344E-02 -0.14003227867E-01 -0.17868298125E-01  0.10209919026E+01  0.10207342009E+01 0.  0.
     999903    2    3    3    0    0 -0.51055452656E-01 -0.11653197423E+00  0.29389589199E-01  0.13211715684E+00  0.20120509805E-01 0.  0.
         14    1    1    2    0    0 -0.32847896344E-02  0.14003227867E-01  0.17868298125E-01  0.22938097382E-01  0.00000000000E+00 0. -1.
     999901    1    3    3    0    0  0.54340242290E-01  0.10252874636E+00 -0.47257887323E-01  0.88887474578E+00  0.88000000000E+00 0. -1.
        -11    1    4    4    0    0 -0.19905217826E-01 -0.53634478824E-01  0.22911267590E-01  0.61628421358E-01  0.51100000000E-03 0. -1.
         11    1    4    4    0    0 -0.31150234829E-01 -0.62897495407E-01  0.64783216085E-02  0.70488735485E-01  0.51100000000E-03 0.  1.
</event>
<event>
 8    1  0.1123450E+005  0.1043930E+01  0.7957747E-01            NaN
         13   -1    0    0    0    0  0.00000000000E+00  0.00000000000E+00  0.74505805969E-08  0.10566000000E+00  0.10566000000E+00 0. -1.
     999900   -1    0    0    0    0 -0.00000000000E+00 -0.00000000000E+00 -0.74505805969E-08  0.93827000000E+00  0.93827000000E+00 0.  1.
     999902    2    1    2    0    0 -0.14360913665E-01 -0.39713814759E-02  0.17226878892E-01  0.10211534096E+01  0.10208993648E+01 0.  0.
     999903    2    3    3    0    0  0.11970912919E+00  0.93411559730E-02  0.46843768877E-01  0.13040700341E+00  0.19852331063E-01 0.  0.
         14    1    1    2    0    0  0.14360913665E-01  0.39713814759E-02 -0.17226878892E-01  0.22776590361E-01  0.00000000000E+00 0.  1.
     999901    1    3    3    0    0 -0.13407004285E+00 -0.13312537449E-01 -0.29616889985E-01  0.89074640623E+00  0.88000000000E+00 0. -1.
        -11    1    4    4    0    0  0.74400300773E-01  0.14462557975E-01  0.24725473646E-01  0.79725657766E-01  0.51100000000E-03 0. -1.
         11    1    4    4    0    0  0.45308828416E-01 -0.51214020020E-02  0.22118295231E-01  0.50681345640E-01  0.51100000000E-03 0.  1.
</event>
<event>
 8    1  0.1123450E+005  0.1043930E+01  0.7957747E-01            NaN
         13   -1    0    0    0    0  0.00000000000E+00  0.00000000000E+00  0.74505805969E-08  0.10566000000E+00  0.10566000000E+00 0. -1.
     999900   -1    0    0    0    0 -0.00000000000E+00 -0.00000000000E+00 -0.74505805969E-08  0.93827000000E+00  0.93827000000E+00 0. -1.
     999902    2    1    2    0    0 -0.12485154804E-01 -0.66711864540E-03  0.19835483040E-01  0.10204828141E+01  0.10202134107E+01 0.  0.
     999903    2    3    3    0    0  0.51824269959E-01  0.11733177209E+00  0.12233374087E-01  0.13024844477E+00  0.19039491178E-01 0.  0.
         14    1    1    2    0    0  0.12485154804E-01  0.66711864540E-03 -0.19835483040E-01  0.23447185870E-01  0.00000000000E+00 0.  1.
     999901    1    3    3    0    0 -0.64309424763E-01 -0.11799889074E+00  0.76021089531E-02  0.89023436936E+00  0.88000000000E+00 0. -1.
        -11    1    4    4    0    0  0.27047952970E-01  0.55353994529E-01  0.15113904797E-01  0.63437746724E-01  0.51100000000E-03 0.  1.
         11    1    4    4    0    0  0.24776316989E-01  0.61977777564E-01 -0.28805307098E-02  0.66810698047E-01  0.51100000000E-03 0. -1.
</event>
<event>
 8    1  0.1123450E+005  0.1043930E+01  0.7957747E-01            NaN
         13   -1    0    0    0    0  0.00000000000E+00  0.00000000000E+00  0.74505805969E-08  0.10566000000E+00  0.10566000000E+00 0.  1.
     999900   -1    0    0    0    0 -0.00000000000E+00 -0.00000000000E+00 -0.74505805969E-08  0.93827000000E+00  0.93827000000E+00 0. -1.
     999902    2    1    2    0    0  0.64017684971E-02  0.20985911191E-01 -0.95726824902E-02  0.10199920101E+01  0.10197110735E+01 0.  0.
     999903    2    3    3    0    0  0.13877105963E-01 -0.10837029365E+00  0.62794997004E-01  0.12756498823E+00  0.19822208699E-01 0.  0.
         14    1    1    2    0    0 -0.64017684971E-02 -0.20985911191E-01  0.95726824902E-02  0.23937989859E-01  0.00000000000E+00 0.  1.
     999901    1    3    3    0    0 -0.74753374662E-02  0.12935620484E+00 -0.72367679494E-01  0.89242702191E+00  0.88000000000E+00 0. -1.
        -11    1    4    4    0    0  0.14304661844E-01 -0.75113887389E-01  0.52468768793E-01  0.92735927498E-01  0.51100000000E-03 0.  1.
         11    1    4    4    0    0 -0.42755588068E-03 -0.33256406262E-01  0.10326228210E-01  0.34829060733E-01  0.51100000000E-03 0. -1.
</event>
<event>
 8    1  0.1123450E+005  0.1043930E+01  0.7957747E-01            NaN
         13   -1    0    0    0    0  0.00000000000E+00  0.00000000000E+00  0.74505805969E-08  0.10566000000E+00  0.10566000000E+00 0.  1.
     999900   -1    0    0    0    0 -0.00000000000E+00 -0.00000000000E+00 -0.74505805969E-08  0.93827000000E+00  0.93827000000E+00 0.  1.
     999902    2    1    2    0    0  0.98895889408E-02 -0.87046365321E-02 -0.18887046130E-01  0.10209018612E+01  0.10206421091E+01 0.  0.
     999903    2    3    3    0    0 -0.51524841589E-01  0.98987634879E-01 -0.65643598663E-01  0.13098302621E+00  0.19852202679E-01 0.  0.
         14    1    1    2    0    0 -0.98895889408E-02  0.87046365321E-02  0.18887046130E-01  0.23028138832E-01  0.00000000000E+00 0.  1.
     999901    1    3    3    0    0  0.61414430530E-01 -0.10769227141E+00  0.46756552533E-01  0.88991883495E+00  0.88000000000E+00 0.  1.
        -11    1    4    4    0    0 -0.20952200974E-01  0.34141761022E-01 -0.13287550369E-01  0.42207519320E-01  0.51100000000E-03 0.  1.
         11    1    4    4    0    0 -0.30572640615E-01  0.64845873857E-01 -0.52356048294E-01  0.88775506895E-01  0.51100000000E-03 0. -1.
</event>
<event>
 8    1  0.1123450E+005  0.1043930E+01  0.7957747E-01            NaN
         13   -1    0    0    0    0  0.00000000000E+00  0.00000000000E+00  0.74505805969E-08  0.10566000000E+00  0.10566000000E+00 0.  1.
     999900   -1    0    0    0    0 -0.00000000000E+00 -0.00000000000E+00 -0.74505805969E-08  0.93827000000E+00  0.93827000000E+00 0.  1.
     999902    2    1    2    0    0  0.19772059754E-02  0.20946103864E-01 -0.11642223707E-01  0.10198844186E+01  0.10196009206E+01 0.  0.
     999903    2    3    3    0    0  0.79081394269E-01  0.10321406560E+00 -0.17141511275E-01  0.13267344285E+00  0.20034988672E-01 0.  0.
         14    1    1    2    0    0 -0.19772059754E-02 -0.20946103864E-01  0.11642223707E-01  0.24045581370E-01  0.00000000000E+00 0. -1.
     999901    1    3    3    0    0 -0.77104188293E-01 -0.82267961739E-01  0.54992875685E-02  0.88721097578E+00  0.88000000000E+00 0. -1.
        -11    1    4    4    0    0  0.17947582445E-01  0.35674350454E-01 -0.10697544171E-01  0.41345780537E-01  0.51100000000E-03 0. -1.
         11    1    4    4    0    0  0.61133811824E-01  0.67539715149E-01 -0.64439671045E-02  0.91327662313E-01  0.51100000000E-03 0.  1.
</event>
<event>
 8    1  0.1123450E+005  0.1043930E+01  0.7957747E-01            NaN
         13   -1    0    0    0    0  0.00000000000E+00  0.00000000000E+00  0.74505805969E-08  0.10566000000E+00  0.10566000000E+00 0. -1.
     999900   -1    0    0    0    0 -0.00000000000E+00 -0.00000000000E+00 -0.74505805969E-08  0.93827000000E+00  0.93827000000E+00 0. -1.
     999902    2    1    2    0    0  0.78919078358E-02  0.11950393748E-02 -0.21956608480E-01  0.10205675732E+01  0.10203001365E+01 0.  0.
     999903    2    3    3    0    0 -0.97543952946E-01  0.67890447863E-01  0.47479528075E-01  0.12905965105E+00  0.16677897847E-01 0.  0.
         14    1    1    2    0    0 -0.78919078358E-02 -0.11950393748E-02  0.21956608480E-01  0.23362426765E-01  0.00000000000E+00 0. -1.
     999901    1    3    3    0    0  0.10543586078E+00 -0.66695408488E-01 -0.69436136555E-01  0.89150792218E+00  0.88000000000E+00 0. -1.
        -11    1    4    4    0    0 -0.69444318675E-01  0.52778368127E-01  0.27706597296E-01  0.91520414079E-01  0.51100000000E-03 0. -1.
         11    1    4    4    0    0 -0.28099634270E-01  0.15112079736E-01  0.19772930779E-01  0.37539236975E-01  0.51100000000E-03 0.  1.
</event>
<event>
 8    1  0.1123450E+005  0.1043930E+01  0.7957747E-01            NaN
         13   -1    0    0    0    0  0.00000000000E+00  0.00000000000E+00  0.74505805969E-08  0.10566000000E+00  0.10566000000E+00 0. -1.
     999900   -1    0    0    0    0 -0.00000000000E+00 -0.00000000000E+00 -0.74505805969E-08  0.93827000000E+00  0.93827000000E+00 0. -1.
     999902    2    1    2    0    0 -0.18911194953E-01 -0.14499124905E-01 -0.56149378291E-02  0.10194476503E+01  0.10191536324E+01 0.  0.
     999903    2    3    3    0    0  0.12845666267E-01 -0.59581208674E-01 -0.11455236551E+00  0.13101743043E+00  0.18121563501E-01 0.  0.
         14    1    1    2    0    0  0.18911194953E-01  0.14499124905E-01  0.56149378291E-02  0.24482349650E-01  0.00000000000E+00 0. -1.
     999901    1    3    3    0    0 -0.31756861219E-01  0.45082083769E-01  0.10893742768E+00  0.88843021992E+00  0.88000000000E+00 0.  1.
        -11    1    4    4    0    0 -0.27809437546E-02 -0.20453333084E-01 -0.47934306090E-01  0.52192253292E-01  0.51100000000E-03 0.  1.
         11    1    4    4    0    0  0.15626610021E-01 -0.39127875590E-01 -0.66618059423E-01  0.78825177141E-01  0.51100000000E-03 0. -1.
</event>
<event>
 8    1  0.1123450E+005  0.1043930E+01  0.7957747E-01            NaN
         13   -1    0    0    0    0  0.00000000000E+00  0.00000000000E+00  0.74505805969E-08  0.10566000000E+00  0.10566000000E+00 0. -1.
     999900   -1    0    0    0    0 -0.00000000000E+00 -0.00000000000E+00 -0.74505805969E-08  0.93827000000E+00  0.93827000000E+00 0. -1.
     999902    2    1    2    0    0 -0.58262668810E-02  0.97933669437E-02  0.18894994023E-01  0.10218647282E+01  0.10216264711E+01 0.  0.
     999903    2    3    3    0    0  0.83272895544E-01  0.78127649414E-01 -0.61473710569E-01  0.13109687761E+00  0.19211181477E-01 0.  0.
         14    1    1    2    0    0  0.58262668810E-02 -0.97933669437E-02 -0.18894994023E-01  0.22065271831E-01  0.00000000000E+00 0.  1.
     999901    1    3    3    0    0 -0.89099162425E-01 -0.68334282470E-01  0.80368704592E-01  0.89076785056E+00  0.88000000000E+00 0.  1.
        -11    1    4    4    0    0  0.51864679918E-01  0.51680392942E-01 -0.29033304426E-01  0.78765486887E-01  0.51100000000E-03 0. -1.
         11    1    4    4    0    0  0.31408215625E-01  0.26447256472E-01 -0.32440406143E-01  0.52331390726E-01  0.51100000000E-03 0.  1.
</event>
<event>
 8    1  0.1123450E+005  0.1043930E+01  0.7957747E-01            NaN
         13   -1    0    0    0    0  0.00000000000E+00  0.00000000000E+00  0.74505805969E-08  0.10566000000E+00  0.10566000000E+00 0.  1.
     999900   -1    0    0    0    0 -0.00000000000E+00 -0.00000000000E+00 -0.74505805969E-08  0.93827000000E+00  0.93827000000E+00 0. -1.
     999902    2    1    2    0    0 -0.11050795839E-01  0.20841900650E-01 -0.73834387711E-02  0.10192111797E+01  0.10189113841E+01 0.  0.
     999903    2    3    3    0    0 -0.34444022350E-01 -0.47464434313E-01 -0.11403314244E+00  0.12983659168E+00  0.20364669484E-01 0.  0.
         14    1    1    2    0    0  0.11050795839E-01 -0.20841900650E-01  0.73834387711E-02  0.24718820350E-01  0.00000000000E+00 0. -1.
     999901    1    3    3    0    0  0.23393226511E-01  0.68306334964E-01  0.10664970367E+00  0.88937458797E+00  0.88000000000E+00 0.  1.
        -11    1    4    4    0    0 -0.26128995219E-01 -0.36838515004E-01 -0.66245802434E-01  0.80178351442E-01  0.51100000000E-03 0. -1.
         11    1    4    4    0    0 -0.83150271302E-02 -0.10625919309E-01 -0.47787340005E-01  0.49658240234E-01  0.51100000000E-03 0.  1.
</event>
<event>
 8    1  0.1123450E+005  0.1043930E+01  0.7957747E-01            NaN
         13   -1    0    0    0    0  0.00000000000E+00  0.00000000000E+00  0.74505805969E-08  0.10566000000E+00  0.10566000000E+00 0.  1.
     999900   -1    0    0    0    0 -0.00000000000E+00 -0.00000000000E+00 -0.74505805969E-08  0.93827000000E+00  0.93827000000E+00 0.  1.
     999902    2    1    2    0    0  0.49977511017E-02  0.95088663388E-03  0.22734510186E-01  0.10206332265E+01  0.10203673081E+01 0.  0.
     999903    2    3    3    0    0 -0.30568438114E-01 -0.72834965382E-01  0.10502228291E+00  0.13300685055E+00  0.20537302520E-01 0.  0.
         14    1    1    2    0    0 -0.49977511017E-02 -0.95088663388E-03 -0.22734510186E-01  0.23296773486E-01  0.00000000000E+00 0. -1.
     999901    1    3    3    0    0  0.35566189216E-01  0.73785852016E-01 -0.82287772721E-01  0.88762637597E+00  0.88000000000E+00 0.  1.
        -11    1    4    4    0    0 -0.17317053681E-01 -0.50405219311E-01  0.84202898757E-01  0.99654180856E-01  0.51100000000E-03 0.  1.
         11    1    4    4    0    0 -0.13251384433E-01 -0.22429746071E-01  0.20819384149E-01  0.33352669692E-01  0.51100000000E-03 0. -1.
</event>
<event>
 8    1  0.1123450E+005  0.1043930E+01  0.7957747E-01            NaN
         13   -1    0    0    0    0  0.00000000000E+00  0.00000000000E+00  0.74505805969E-08  0.10566000000E+00  0.10566000000E+00 0. -1.
     999900   -1    0    0    0    0 -0.00000000000E+00 -0.00000000000E+00 -0.74505805969E-08  0.93827000000E+00  0.93827000000E+00 0. -1.
     999902    2    1    2    0    0 -0.14158548592E-01 -0.31424855548E-02 -0.17298368254E-01  0.10213562706E+01  0.10211067810E+01 0.  0.
     999903    2    3    3    0    0 -0.35790933043E-01  0.10391521757E+00  0.67431433231E-01  0.13056535738E+00  0.20517091143E-01 0.  0.
         14    1    1    2    0    0  0.14158548592E-01  0.31424855548E-02  0.17298368254E-01  0.22573729376E-01  0.00000000000E+00 0. -1.
     999901    1    3    3    0    0  0.21632384451E-01 -0.10705770313E+00 -0.84729801484E-01  0.89079091324E+00  0.88000000000E+00 0. -1.
        -11    1    4    4    0    0 -0.18679194179E-02  0.21942939300E-01  0.20997279928E-01  0.30432360957E-01  0.51100000000E-03 0.  1.
         11    1    4    4    0    0 -0.33923013625E-01  0.81972278275E-01  0.46434153303E-01  0.10013299642E+00  0.51100000000E-03 0. -1.
</event>
<event>
 8    1  0.1123450E+005  0.1043930E+01  0.7957747E-01            NaN
         13   -1    0    0    0    0  0.00000000000E+00  0.00000000000E+00  0.74505805969E-08  0.10566000000E+00  0.10566000000E+00 0.  1.
     999900   -1    0    0    0    0 -0.00000000000E+00 -0.00000000000E+00 -0.74505805969E-08  0.93827000000E+00  0.93827000000E+00 0. -1.
     999902    2    1    2    0    0  0.10631779453E-01 -0.11498670748E-01  0.16755712180E-01  0.10209951345E+01  0.10207375063E+01 0.  0.
     999903    2    3    3    0    0 -0.11356627127E+00  0.49970937859E-01 -0.27735846100E-01  0.12904044547E+00  0.22085443337E-01 0.  0.
         14    1    1    2    0    0 -0.10631779453E-01  0.11498670748E-01 -0.16755712180E-01  0.22934865466E-01  0.00000000000E+00 0. -1.
     999901    1    3    3    0    0  0.12419805072E+00 -0.61469608607E-01  0.44491558280E-01  0.89195468906E+00  0.88000000000E+00 0.  1.
        -11    1    4    4    0    0 -0.63437849732E-01  0.38799325281E-01 -0.12021101707E-01  0.75329386219E-01  0.51100000000E-03 0.  1.
         11    1    4    4    0    0 -0.50128421538E-01  0.11171612578E-01 -0.15714744393E-01  0.53711059251E-01  0.51100000000E-03 0. -1.
</event>
<event>
 8    1  0.1123450E+005  0.1043930E+01  0.7957747E-01            NaN
         13   -1    0    0    0    0  0.00000000000E+00  0.00000000000E+00  0.74505805969E-08  0.10566000000E+00  0.10566000000E+00 0. -1.
     999900   -1    0    0    0    0 -0.00000000000E+00 -0.00000000000E+00 -0.74505805969E-08  0.93827000000E+00  0.93827000000E+00 0.  1.
     999902    2    1    2    0    0  0.50512436509E-02  0.16384268093E-01  0.16084880651E-01  0.10204207957E+01  0.10201499485E+01 0.  0.
     999903    2    3    3    0    0  0.64042046306E-02  0.12601514577E+00  0.38230264838E-01  0.13334065391E+00  0.19933540422E-01 0.  0.
         14    1    1    2    0    0 -0.50512436509E-02 -0.16384268093E-01 -0.16084880651E-01  0.23509204345E-01  0.00000000000E+00 0.  1.
     999901    1    3    3    0    0 -0.13529609797E-02 -0.10963087768E+00 -0.22145384187E-01  0.88708014175E+00  0.88000000000E+00 0.  1.
        -11    1    4    4    0    0  0.12543810260E-01  0.74370171548E-01  0.27166713529E-01  0.80165834598E-01  0.51100000000E-03 0.  1.
         11    1    4    4    0    0 -0.61396056292E-02  0.51644974224E-01  0.11063551309E-01  0.53174819308E-01  0.51100000000E-03 0. -1.
</event>
<event>
 8    1  0.1123450E+005  0.1043930E+01  0.7957747E-01            NaN
         13   -1    0    0    0    0  0.00000000000E+00  0.00000000000E+00  0.74505805969E-08  0.10566000000E+00  0.10566000000E+00 0.  1.
     999900   -1    0    0    0    0 -0.00000000000E+00 -0.00000000000E+00 -0.74505805969E-08  0.93827000000E+00  0.93827000000E+00 0. -1.
     999902    2    1    2    0    0 -0.23570137407E-01 -0.13739972339E-02 -0.58103221769E-02  0.10196154141E+01  0.10193254600E+01 0.  0.
     999903    2    3    3    0    0  0.79436962959E-01  0.76961419117E-02 -0.98905394584E-01  0.12868364189E+00  0.20192595867E-01 0.  0.
         14    1    1    2    0    0  0.23570137407E-01  0.13739972339E-02  0.58103221769E-02  0.24314585943E-01  0.00000000000E+00 0. -1.
     999901    1    3    3    0    0 -0.10300710037E+00 -0.90701391456E-02  0.93095072407E-01  0.89093177217E+00  0.88000000000E+00 0. -1.
        -11    1    4    4    0    0  0.61637194185E-01  0.91828146323E-02 -0.63207923737E-01  0.88763565361E-01  0.51100000000E-03 0.  1.
         11    1    4    4    0    0  0.17799768774E-01 -0.14866727206E-02 -0.35697470847E-01  0.39920076529E-01  0.51100000000E-03 0. -1.
</event>
<event>
 8    1  0.1123450E+005  0.1043930E+01  0.7957747E-01            NaN
         13   -1    0    0    0    0  0.00000000000E+00  0.00000000000E+00  0.74505805969E-08  0.10566000000E+00  0.10566000000E+00 0. -1.
     999900   -1    0    0    0    0 -0.00000000000E+00 -0.00000000000E+00 -0.74505805969E-08  0.93827000000E+00  0.93827000000E+00 0. -1.
     999902    2    1    2    0    0  0.16652696781E-01  0.10476928507E-01 -0.12605869858E-01  0.10205636504E+01  0.10202961228E+01 0.  0.
     999903    2    3    3    0    0  0.61364260804E-01 -0.58282824165E-01  0.95923989332E-01  0.13011109245E+00  0.23770245087E-01 0.  0.
         14    1    1    2    0    0 -0.16652696781E-01 -0.10476928507E-01  0.12605869858E-01  0.23366349649E-01  0.00000000000E+00 0. -1.
     999901    1    3    3    0    0 -0.44711564023E-01  0.68759752672E-01 -0.10852985919E+00  0.89045255791E+00  0.88000000000E+00 0. -1.
        -11    1    4    4    0    0  0.19804240562E-01 -0.31749030827E-01  0.52055692430E-01  0.64111349526E-01  0.51100000000E-03 0. -1.
         11    1    4    4    0    0  0.41560020242E-01 -0.26533793338E-01  0.43868296902E-01  0.65999742920E-01  0.51100000000E-03 0.  1.
</event>
<event>
 8    1  0.1123450E+005  0.1043930E+01  0.7957747E-01            NaN
         13   -1    0    0    0    0  0.00000000000E+00  0.00000000000E+00  0.74505805969E-08  0.10566000000E+00  0.10566000000E+00 0.  1.
     999900   -1    0    0    0    0 -0.00000000000E+00 -0.00000000000E+00 -0.74505805969E-08  0.93827000000E+00  0.93827000000E+00 0.  1.
     999902    2    1    2    0    0  0.12552606007E-01  0.14727928573E-01 -0.12226551826E-01  0.10210396447E+01  0.10207830267E+01 0.  0.
     999903    2    3    3    0    0 -0.26792055988E-01  0.94036019777E-01  0.85257960036E-01  0.13124134965E+00  0.19869192990E-01 0.  0.
         14    1    1    2    0    0 -0.12552606007E-01 -0.14727928573E-01  0.12226551826E-01  0.22890355331E-01  0.00000000000E+00 0.  1.
     999901    1    3    3    0    0  0.39344661995E-01 -0.79308091204E-01 -0.97484511862E-01  0.88979829501E+00  0.88000000000E+00 0.  1.
        -11    1    4    4    0    0  0.10548519997E-02  0.24141705432E-02  0.72414158709E-02  0.77227039933E-02  0.51100000000E-03 0. -1.
         11    1    4    4    0    0 -0.27846907988E-01  0.91621849233E-01  0.78016544165E-01  0.12351864566E+00  0.51100000000E-03 0.  1.
</event>
<event>
 8    1  0.1123450E+005  0.1043930E+01  0.7957747E-01            NaN
         13   -1    0    0    0    0  0.00000000000E+00  0.00000000000E+00  0.74505805969E-08  0.10566000000E+00  0.10566000000E+00 0.  1.
     999900   -1    0    0    0    0 -0.00000000000E+00 -0.00000000000E+00 -0.74505805969E-08  0.93827000000E+00  0.93827000000E+00 0. -1.
     999902    2    1    2    0    0  0.10777984944E-01  0.34208933760E-02 -0.21773798235E-01  0.10193950095E+01  0.10190997103E+01 0.  0.
     999903    2    3    3    0    0  0.85666503742E-01  0.31048525215E-01  0.88686383473E-01  0.12890467935E+00  0.21175007986E-01 0.  0.
         14    1    1    2    0    0 -0.10777984944E-01 -0.34208933760E-02  0.21773798235E-01  0.24534990534E-01  0.00000000000E+00 0.  1.
     999901    1    3    3    0    0 -0.74888518798E-01 -0.27627631839E-01 -0.11046018171E+00  0.89049033012E+00  0.88000000000E+00 0. -1.
        -11    1    4    4    0    0  0.34201057822E-01  0.79824892342E-02  0.47458734467E-01  0.59042570140E-01  0.51100000000E-03 0. -1.
         11    1    4    4    0    0  0.51465445920E-01  0.23066035981E-01  0.41227649006E-01  0.69862109210E-01  0.51100000000E-03 0.  1.
</event>
<event>
 8    1  0.1123450E+005  0.1043930E+01  0.7957747E-01            NaN
         13   -1    0    0    0    0  0.00000000000E+00  0.00000000000E+00  0.74505805969E-08  0.10566000000E+00  0.10566000000E+00 0. -1.
     999900   -1    0    0    0    0 -0.00000000000E+00 -0.00000000000E+00 -0.74505805969E-08  0.93827000000E+00  0.93827000000E+00 0. -1.
     999902    2    1    2    0    0  0.56801059415E-02  0.21073333258E-01  0.95094847458E-02  0.10201228734E+01  0.10198450360E+01 0.  0.
     999903    2    3    3    0    0  0.11437176269E+00  0.57320522476E-01 -0.24096957372E-01  0.13205917750E+00  0.22190552271E-01 0.  0.
         14    1    1    2    0    0 -0.56801059415E-02 -0.21073333258E-01 -0.95094847458E-02  0.23807126627E-01  0.00000000000E+00 0.  1.
     999901    1    3    3    0    0 -0.10869165675E+00 -0.36247189218E-01  0.33606442118E-01  0.88806369587E+00  0.88000000000E+00 0. -1.
        -11    1    4    4    0    0  0.32635787001E-01  0.27511514000E-01 -0.10932252936E-01  0.44065329580E-01  0.51100000000E-03 0. -1.
         11    1    4    4    0    0  0.81735975689E-01  0.29809008476E-01 -0.13164704436E-01  0.87993847922E-01  0.51100000000E-03 0.  1.
</event>
<event>
 8    1  0.1123450E+005  0.1043930E+01  0.7957747E-01            NaN
         13   -1    0    0    0    0  0.00000000000E+00  0.00000000000E+00  0.74505805969E-08  0.10566000000E+00  0.10566000000E+00 0.  1.
     999900   -1    0    0    0    0 -0.00000000000E+00 -0.00000000000E+00 -0.74505805969E-08  0.93827000000E+00  0.93827000000E+00 0.  1.
     999902    2    1    2    0    0 -0.10379507908E-01  0.18679170792E-01  0.10381473503E-01  0.10201724623E+01  0.10198957948E+01 0.  0.
     999903    2    3    3    0    0 -0.31788000841E-01 -0.12185296606E+00  0.17716547985E-01  0.12873463026E+00  0.20002665338E-01 0.  0.
         14    1    1    2    0    0  0.10379507908E-01 -0.18679170792E-01 -0.10381473503E-01  0.23757537709E-01  0.00000000000E+00 0.  1.
     999901    1    3    3    0    0  0.21408492933E-01  0.14053213685E+00 -0.73350744823E-02  0.89143783203E+00  0.88000000000E+00 0. -1.
        -11    1    4    4    0    0 -0.24782318922E-01 -0.64566467171E-01  0.32689858785E-02  0.69238279902E-01  0.51100000000E-03 0.  1.
         11    1    4    4    0    0 -0.70056819185E-02 -0.57286498889E-01  0.14447562107E-01  0.59496350358E-01  0.51100000000E-03 0. -1.
</event>
<event>
 8    1  0.1123450E+005  0.1043930E+01  0.7957747E-01            NaN
         13   -1    0    0    0    0  0.00000000000E+00  0.00000000000E+00  0.74505805969E-08  0.10566000000E+00  0.10566000000E+00 0. -1.
     999900   -1    0    0    0    0 -0.00000000000E+00 -0.00000000000E+00 -0.74505805969E-08  0.93827000000E+00  0.93827000000E+00 0.  1.
     999902    2    1    2    0    0 -0.63127399365E-02 -0.46863672454E-02 -0.24010751413E-01  0.10186648282E+01  0.10183514635E+01 0.  0.
     999903    2    3    3    0    0  0.24089479088E-01  0.49623477120E-01 -0.11735152279E+00  0.13154231482E+00  0.22118051528E-01 0.  0.
         14    1    1    2    0    0  0.63127399365E-02  0.46863672454E-02  0.24010751413E-01  0.25265171816E-01  0.00000000000E+00 0. -1.
     999901    1    3    3    0    0 -0.30402219024E-01 -0.54309844365E-01  0.93340771375E-01  0.88712251336E+00  0.88000000000E+00 0. -1.
        -11    1    4    4    0    0  0.21978752210E-01  0.29585511712E-01 -0.92310677135E-01  0.99397637226E-01  0.51100000000E-03 0.  1.
         11    1    4    4    0    0  0.21107268784E-02  0.20037965407E-01 -0.25040845653E-01  0.32144677595E-01  0.51100000000E-03 0. -1.
</event>
<event>
 8    1  0.1123450E+005  0.1043930E+01  0.7957747E-01            NaN
         13   -1    0    0    0    0  0.00000000000E+00  0.00000000000E+00  0.74505805969E-08  0.10566000000E+00  0.10566000000E+00 0.  1.
     999900   -1    0    0    0    0 -0.00000000000E+00 -0.00000000000E+00 -0.74505805969E-08  0.93827000000E+00  0.93827000000E+00 0.  1.
     999902    2    1    2    0    0  0.47618521071E-02  0.22872656454E-01  0.64113759860E-02  0.10197031680E+01  0.10194153282E+01 0.  0.
     999903    2    3    3    0    0  0.93910597500E-01 -0.54844359882E-01  0.67735275516E-01  0.12967617169E+00  0.20018437028E-01 0.  0.
         14    1    1    2    0    0 -0.47618521071E-02 -0.22872656454E-01 -0.64113759860E-02  0.24226832042E-01  0.00000000000E+00 0. -1.
     999901    1    3    3    0    0 -0.89148745393E-01  0.77717016336E-01 -0.61323899530E-01  0.89002699627E+00  0.88000000000E+00 0.  1.
        -11    1    4    4    0    0  0.29064210717E-01 -0.69075353492E-02  0.16451836624E-01  0.34108157947E-01  0.51100000000E-03 0. -1.
         11    1    4    4    0    0  0.64846386783E-01 -0.47936824533E-01  0.51283438892E-01  0.95568013743E-01  0.51100000000E-03 0.  1.
</event>
<event>
 8    1  0.1123450E+005  0.1043930E+01  0.7957747E-01            NaN
         13   -1    0    0    0    0  0.00000000000E+00  0.00000000000E+00  0.74505805969E-08  0.10566000000E+00  0.10566000000E+00 0. -1.
     999900   -1    0    0    0    0 -0.00000000000E+00 -0.00000000000E+00 -0.74505805969E-08  0.93827000000E+00  0.93827000000E+00 0.  1.
     999902    2    1    2    0    0  0.28898021322E-01 -0.21512644951E-02  0.16820439249E-01  0.10104240192E+01  0.10098683319E+01 0.  0.
     999903    2    3    3    0    0 -0.84333758534E-01  0.62824761206E-01  0.54266580019E-01  0.12000527871E+00  0.19931677384E-01 0.  0.
         14    1    1    2    0    0 -0.28898021322E-01  0.21512644951E-02 -0.16820439249E-01  0.33505980836E-01  0.00000000000E+00 0.  1.
     999901    1    3    3    0    0  0.11323177986E+00 -0.64976025701E-01 -0.37446140770E-01  0.89041874045E+00  0.88000000000E+00 0.  1.
        -11    1    4    4    0    0 -0.75966584251E-01  0.48089667712E-01  0.48085935419E-01  0.10196105320E+00  0.51100000000E-03 0.  1.
         11    1    4    4    0    0 -0.83671742828E-02  0.14735093495E-01  0.61806445995E-02  0.18044225515E-01  0.51100000000E-03 0. -1.
</event>
<event>
 7    1  0.1123450E+005  0.1043930E+01  0.7957747E-01            NaN
         13   -1    0    0    0    0  0.00000000000E+00  0.00000000000E+00  0.74505805969E-08  0.10566000000E+00  0.10566000000E+00 0.  1.
     999900   -1    0    0    0    0 -0.00000000000E+00 -0.00000000000E+00 -0.74505805969E-08  0.93827000000E+00  0.93827000000E+00 0.  1.
     999903    2    1    2    0    0 -0.64646181744E-01  0.79301112014E-01 -0.18135269001E-01  0.10596243255E+00  0.20769062306E-01 0.  0.
         14    1    1    2    0    0 -0.14164513512E-01  0.37095507042E-02 -0.45966627692E-01  0.48242357642E-01  0.00000000000E+00 0. -1.
     999901    1    1    2    0    0  0.78810695257E-01 -0.83010662718E-01  0.64101896693E-01  0.88972520981E+00  0.88000000000E+00 0. -1.
        -11    1    3    3    0    0 -0.62955108446E-02  0.56456337539E-03 -0.19337452346E-02  0.66296817595E-02  0.51100000000E-03 0.  1.
         11    1    3    3    0    0 -0.58350670900E-01  0.78736548638E-01 -0.16201523766E-01  0.99332750789E-01  0.51100000000E-03 0. -1.
</event>
<event>
 8    1  0.1123450E+005  0.1043930E+01  0.7957747E-01            NaN
         13   -1    0    0    0    0  0.00000000000E+00  0.00000000000E+00  0.74505805969E-08  0.10566000000E+00  0.10566000000E+00 0.  1.
     999900   -1    0    0    0    0 -0.00000000000E+00 -0.00000000000E+00 -0.74505805969E-08  0.93827000000E+00  0.93827000000E+00 0.  1.
     999902    2    1    2    0    0 -0.92762475502E-02 -0.18007479820E-01 -0.79192181310E-02  0.10221806985E+01  0.10219492885E+01 0.  0.
     999903    2    3    3    0    0  0.10129971485E+00  0.18830163137E-01  0.76693438415E-01  0.13047258652E+00  0.22912988991E-01 0.  0.
         14    1    1    2    0    0  0.92762475502E-02  0.18007479820E-01  0.79192181310E-02  0.21749301458E-01  0.00000000000E+00 0. -1.
     999901    1    3    3    0    0 -0.11057596240E+00 -0.36837642957E-01 -0.84612656546E-01  0.89170811202E+00  0.88000000000E+00 0.  1.
        -11    1    4    4    0    0  0.84478824667E-01  0.23552536696E-01  0.67849875670E-01  0.11088399592E+00  0.51100000000E-03 0. -1.
         11    1    4    4    0    0  0.16820890184E-01 -0.47223735592E-02  0.88435627452E-02  0.19588590598E-01  0.51100000000E-03 0.  1.
</event>
<event>
 8    1  0.1123450E+005  0.1043930E+01  0.7957747E-01            NaN
         13   -1    0    0    0    0  0.00000000000E+00  0.00000000000E+00  0.74505805969E-08  0.10566000000E+00  0.10566000000E+00 0. -1.
     999900   -1    0    0    0    0 -0.00000000000E+00 -0.00000000000E+00 -0.74505805969E-08  0.93827000000E+00  0.93827000000E+00 0.  1.
     999902    2    1    2    0    0 -0.25595689022E-01  0.48322460336E-02 -0.16635129605E-01  0.10130234079E+01  0.10125518295E+01 0.  0.
     999903    2    3    3    0    0 -0.11256647771E+00 -0.21005117125E-01 -0.52598136439E-01  0.12762811467E+00  0.20247094770E-01 0.  0.
         14    1    1    2    0    0  0.25595689022E-01 -0.48322460336E-02  0.16635129605E-01  0.30906592100E-01  0.00000000000E+00 0. -1.
     999901    1    3    3    0    0  0.86970788689E-01  0.25837363159E-01  0.35963006834E-01  0.88539529323E+00  0.88000000000E+00 0.  1.
        -11    1    4    4    0    0 -0.51107732895E-01 -0.15281606301E-01 -0.15254207334E-01  0.55484050098E-01  0.51100000000E-03 0. -1.
         11    1    4    4    0    0 -0.61458744816E-01 -0.57235108242E-02 -0.37343929104E-01  0.72144064569E-01  0.51100000000E-03 0.  1.
</event>
<event>
 8    1  0.1123450E+005  0.1043930E+01  0.7957747E-01            NaN
         13   -1    0    0    0    0  0.00000000000E+00  0.00000000000E+00  0.74505805969E-08  0.10566000000E+00  0.10566000000E+00 0. -1.
     999900   -1    0    0    0    0 -0.00000000000E+00 -0.00000000000E+00 -0.74505805969E-08  0.93827000000E+00  0.93827000000E+00 0. -1.
     999902    2    1    2    0    0 -0.88601497488E-02 -0.21207960414E-01  0.13382136388E-02  0.10209067367E+01  0.10206470959E+01 0.  0.
     999903    2    3    3    0    0 -0.66614110680E-01  0.53510195305E-02 -0.11130222243E+00  0.13145254041E+00  0.20627954548E-01 0.  0.
         14    1    1    2    0    0  0.88601497488E-02  0.21207960414E-01 -0.13382136388E-02  0.23023263327E-01  0.00000000000E+00 0. -1.
     999901    1    3    3    0    0  0.57753960931E-01 -0.26558979945E-01  0.11264043607E+00  0.88945419627E+00  0.88000000000E+00 0.  1.
        -11    1    4    4    0    0 -0.28293908794E-01  0.29219369281E-02 -0.67207728199E-01  0.72980975884E-01  0.51100000000E-03 0.  1.
         11    1    4    4    0    0 -0.38320201886E-01  0.24290826024E-02 -0.44094494233E-01  0.58471564521E-01  0.51100000000E-03 0. -1.
</event>
<event>
 8    1  0.1123450E+005  0.1043930E+01  0.7957747E-01            NaN
         13   -1    0    0    0    0  0.00000000000E+00  0.00000000000E+00  0.74505805969E-08  0.10566000000E+00  0.10566000000E+00 0.  1.
     999900   -1    0    0    0    0 -0.00000000000E+00 -0.00000000000E+00 -0.74505805969E-08  0.93827000000E+00  0.93827000000E+00 0.  1.
     999902    2    1    2    0    0  0.16979735124E-01  0.20193241009E-01  0.21128795303E-02  0.10174622338E+01  0.10171179158E+01 0.  0.
     999903    2    3    3    0    0 -0.70595846770E-02 -0.61508310448E-01  0.10904127656E+00  0.12690807234E+00  0.19558855839E-01 0.  0.
         14    1    1    2    0    0 -0.16979735124E-01 -0.20193241009E-01 -0.21128795303E-02  0.26467766193E-01  0.00000000000E+00 0. -1.
     999901    1    3    3    0    0  0.24039319801E-01  0.81701551457E-01 -0.10692839703E+00  0.89055416146E+00  0.88000000000E+00 0.  1.
        -11    1    4    4    0    0 -0.12312394582E-02 -0.14631324432E-02  0.15324864650E-01  0.15452161812E-01  0.51100000000E-03 0.  1.
         11    1    4    4    0    0 -0.58283452188E-02 -0.60045178005E-01  0.93716411913E-01  0.11145591053E+00  0.51100000000E-03 0. -1.
</event>
<event>
 8    1  0.1123450E+005  0.1043930E+01  0.7957747E-01            NaN
         13   -1    0    0    0    0  0.00000000000E+00  0.00000000000E+00  0.74505805969E-08  0.10566000000E+00  0.10566000000E+00 0.  1.
     999900   -1    0    0    0    0 -0.00000000000E+00 -0.00000000000E+00 -0.74505805969E-08  0.93827000000E+00  0.93827000000E+00 0. -1.
     999902    2    1    2    0    0 -0.20899731561E-01  0.38739623376E-02  0.11014889681E-01  0.10199897795E+01  0.10197087899E+01 0.  0.
     999903    2    3    3    0    0  0.65888258129E-01 -0.33603437400E-01  0.10499892519E+00  0.12995061767E+00  0.19797352736E-01 0.  0.
         14    1    1    2    0    0  0.20899731561E-01 -0.38739623376E-02 -0.11014889681E-01  0.23940220513E-01  0.00000000000E+00 0. -1.
     999901    1    3    3    0    0 -0.86787989690E-01  0.37477399737E-01 -0.93984035513E-01  0.89003916182E+00  0.88000000000E+00 0. -1.
        -11    1    4    4    0    0  0.10998378242E-01 -0.14505708581E-01  0.29566722797E-01  0.34725093569E-01  0.51100000000E-03 0. -1.
         11    1    4    4    0    0  0.54889879887E-01 -0.19097728819E-01  0.75432202397E-01  0.95225524096E-01  0.51100000000E-03 0.  1.
</event>
<event>
 8    1  0.1123450E+005  0.1043930E+01  0.7957747E-01            NaN
         13   -1    0    0    0    0  0.00000000000E+00  0.00000000000E+00  0.74505805969E-08  0.10566000000E+00  0.10566000000E+00 0. -1.
     999900   -1    0    0    0    0 -0.00000000000E+00 -0.00000000000E+00 -0.74505805969E-08  0.93827000000E+00  0.93827000000E+00 0.  1.
     999902    2    1    2    0    0  0.16318252509E-01 -0.30036792852E-02  0.17294381042E-01  0.10199632925E+01  0.10196816733E+01 0.  0.
     999903    2    3    3    0    0 -0.44774177527E-01  0.14702246791E-01 -0.11671618106E+00  0.12754824577E+00  0.20615650462E-01 0.  0.
         14    1    1    2    0    0 -0.16318252509E-01  0.30036792852E-02 -0.17294381042E-01  0.23966707530E-01  0.00000000000E+00 0.  1.
     999901    1    3    3    0    0  0.61092430035E-01 -0.17705926076E-01  0.13401056210E+00  0.89241504670E+00  0.88000000000E+00 0. -1.
        -11    1    4    4    0    0 -0.16443766723E-01  0.11288465092E-01 -0.70147694538E-01  0.72930014934E-01  0.51100000000E-03 0.  1.
         11    1    4    4    0    0 -0.28330410804E-01  0.34137816989E-02 -0.46568486519E-01  0.54618230835E-01  0.51100000000E-03 0. -1.
</event>
<event>
 8    1  0.1155564E+005  0.1043930E+01  0.7957747E-01            NaN
         13   -1    0    0    0    0  0.00000000000E+00  0.00000000000E+00  0.74505805969E-08  0.10566000000E+00  0.10566000000E+00 0. -1.
     999900   -1    0    0    0    0 -0.00000000000E+00 -0.00000000000E+00 -0.74505805969E-08  0.93827000000E+00  0.93827000000E+00 0.  1.
     999902    2    1    2    0    0 -0.88641806168E-02  0.20390675839E-01  0.74179388443E-02  0.10204911610E+01  0.10202219515E+01 0.  0.
     999903    2    3    3    0    0  0.23606743572E-01  0.11294470450E+00  0.63583237398E-01  0.13326224466E+00  0.20055252600E-01 0.  0.
         14    1    1    2    0    0  0.88641806168E-02 -0.20390675839E-01 -0.74179388443E-02  0.23438839047E-01  0.00000000000E+00 0. -1.
     999901    1    3    3    0    0 -0.32470924189E-01 -0.92554028665E-01 -0.56165298554E-01  0.88722891629E+00  0.88000000000E+00 0. -1.
        -11    1    4    4    0    0  0.80798830794E-02  0.82695202824E-01  0.44018152332E-01  0.94029994876E-01  0.51100000000E-03 0.  1.
         11    1    4    4    0    0  0.15526860493E-01  0.30249501680E-01  0.19565085066E-01  0.39232249787E-01  0.51100000000E-03 0. -1.
</event>
<event>
 8    1  0.1123450E+005  0.1043930E+01  0.7957747E-01            NaN
         13   -1    0    0    0    0  0.00000000000E+00  0.00000000000E+00  0.74505805969E-08  0.10566000000E+00  0.10566000000E+00 0.  1.
     999900   -1    0    0    0    0 -0.00000000000E+00 -0.00000000000E+00 -0.74505805969E-08  0.93827000000E+00  0.93827000000E+00 0. -1.
     999902    2    1    2    0    0  0.27431157545E-02 -0.48193202602E-02 -0.21691780374E-01  0.10215406305E+01  0.10212952442E+01 0.  0.
     999903    2    3    3    0    0 -0.27103168208E-01  0.92424958133E-01  0.84104375243E-01  0.12938589228E+00  0.19753697707E-01 0.  0.
         14    1    1    2    0    0 -0.27431157545E-02  0.48193202602E-02  0.21691780374E-01  0.22389369522E-01  0.00000000000E+00 0.  1.
     999901    1    3    3    0    0  0.29846283962E-01 -0.97244278393E-01 -0.10579615562E+00  0.89215473820E+00  0.88000000000E+00 0. -1.
        -11    1    4    4    0    0 -0.59469445989E-02  0.21266220855E-01  0.92084460841E-02  0.23930626816E-01  0.51100000000E-03 0. -1.
         11    1    4    4    0    0 -0.21156223609E-01  0.71158737279E-01  0.74895929159E-01  0.10545526546E+00  0.51100000000E-03 0.  1.
</event>
<event>
 8    1  0.1123450E+005  0.1043930E+01  0.7957747E-01            NaN
         13   -1    0    0    0    0  0.00000000000E+00  0.00000000000E+00  0.74505805969E-08  0.10566000000E+00  0.10566000000E+00 0.  1.
     999900   -1    0    0    0    0 -0.00000000000E+00 -0.00000000000E+00 -0.74505805969E-08  0.93827000000E+00  0.93827000000E+00 0.  1.
     999902    2    1    2    0    0 -0.87412824377E-02  0.12571394617E-01 -0.18365001386E-01  0.10200192648E+01  0.10197389751E+01 0.  0.
     999903    2    3    3    0    0  0.10409719134E+00 -0.31606196599E-01  0.64248149296E-01  0.12788187999E+00  0.19767995218E-01 0.  0.
         14    1    1    2    0    0  0.87412824377E-02 -0.12571394617E-01  0.18365001386E-01  0.23910735187E-01  0.00000000000E+00 0.  1.
     999901    1    3    3    0    0 -0.11283847377E+00  0.44177591216E-01 -0.82613150682E-01  0.89213738482E+00  0.88000000000E+00 0.  1.
        -11    1    4    4    0    0  0.94849579854E-01 -0.29100494535E-01  0.64405078898E-01  0.11828591163E+00  0.51100000000E-03 0. -1.
         11    1    4    4    0    0  0.92476114819E-02 -0.25057020645E-02 -0.15692960269E-03  0.95959683647E-02  0.51100000000E-03 0.  1.
</event>
<event>
 8    1  0.1123450E+005  0.1043930E+01  0.7957747E-01            NaN
         13   -1    0    0    0    0  0.00000000000E+00  0.00000000000E+00  0.74505805969E-08  0.10566000000E+00  0.10566000000E+00 0. -1.
     999900   -1    0    0    0    0 -0.00000000000E+00 -0.00000000000E+00 -0.74505805969E-08  0.93827000000E+00  0.93827000000E+00 0.  1.
     999902    2    1    2    0    0 -0.79294770766E-02  0.20957686326E-01  0.50417222378E-02  0.10209621924E+01  0.10207038151E+01 0.  0.
     999903    2    3    3    0    0 -0.16191995146E-02  0.11862351736E+00 -0.57399674456E-01  0.13333763090E+00  0.20249456983E-01 0.  0.
         14    1    1    2    0    0  0.79294770766E-02 -0.20957686326E-01 -0.50417222378E-02  0.22967807600E-01  0.00000000000E+00 0. -1.
     999901    1    3    3    0    0 -0.63102775621E-02 -0.97665831036E-01  0.62441396694E-01  0.88762456150E+00  0.88000000000E+00 0. -1.
        -11    1    4    4    0    0  0.67898910472E-02  0.44479479247E-01 -0.14564616281E-01  0.47296044898E-01  0.51100000000E-03 0.  1.
         11    1    4    4    0    0 -0.84090905617E-02  0.74144038115E-01 -0.42835058175E-01  0.86041586003E-01  0.51100000000E-03 0. -1.
</event>
<event>
 8    1  0.1123450E+005  0.1043930E+01  0.7957747E-01            NaN
         13   -1    0    0    0    0  0.00000000000E+00  0.00000000000E+00  0.74505805969E-08  0.10566000000E+00  0.10566000000E+00 0. -1.
     999900   -1    0    0    0    0 -0.00000000000E+00 -0.00000000000E+00 -0.74505805969E-08  0.93827000000E+00  0.93827000000E+00 0.  1.
     999902    2    1    2    0    0  0.15064862366E-01 -0.73902397235E-02  0.16712242536E-01  0.10202474163E+01  0.10199725122E+01 0.  0.
     999903    2    3    3    0    0  0.11082535334E+00  0.41096430082E-01  0.57149685898E-01  0.13280377547E+00  0.19989514071E-01 0.  0.
         14    1    1    2    0    0 -0.15064862366E-01  0.73902397235E-02 -0.16712242536E-01  0.23682583724E-01  0.00000000000E+00 0.  1.
     999901    1    3    3    0    0 -0.95760490973E-01 -0.48486669805E-01 -0.40437443362E-01  0.88744364081E+00  0.88000000000E+00 0. -1.
        -11    1    4    4    0    0  0.87299291112E-01  0.31035166051E-01  0.53394963451E-01  0.10693750981E+00  0.51100000000E-03 0.  1.
         11    1    4    4    0    0  0.23526062227E-01  0.10061264030E-01  0.37547224474E-02  0.25866265665E-01  0.51100000000E-03 0. -1.
</event>
<event>
 8    1  0.1123450E+005  0.1043930E+01  0.7957747E-01            NaN
         13   -1    0    0    0    0  0.00000000000E+00  0.00000000000E+00  0.74505805969E-08  0.10566000000E+00  0.10566000000E+00 0. -1.
     999900   -1    0    0    0    0 -0.00000000000E+00 -0.00000000000E+00 -0.74505805969E-08  0.93827000000E+00  0.93827000000E+00 0.  1.
     999902    2    1    2    0    0 -0.30641483139E-02  0.37457644277E-02 -0.24646810815E-01  0.10188125750E+01  0.10185029101E+01 0.  0.
     999903    2    3    3    0    0  0.14782555460E-01  0.86423870817E-02  0.12340595136E+00  0.12625327604E+00  0.20436391077E-01 0.  0.
         14    1    1    2    0    0  0.30641483139E-02 -0.37457644277E-02  0.24646810815E-01  0.25117425015E-01  0.00000000000E+00 0. -1.
     999901    1    3    3    0    0 -0.17846703774E-01 -0.48966226540E-02 -0.14805276217E+00  0.89255929895E+00  0.88000000000E+00 0.  1.
        -11    1    4    4    0    0  0.92200722781E-02  0.78312046359E-02  0.25968036926E-01  0.28652007986E-01  0.51100000000E-03 0.  1.
         11    1    4    4    0    0  0.55624831817E-02  0.81118244580E-03  0.97437914429E-01  0.97601268052E-01  0.51100000000E-03 0. -1.
</event>
<event>
 8    1  0.1123450E+005  0.1043930E+01  0.7957747E-01            NaN
         13   -1    0    0    0    0  0.00000000000E+00  0.00000000000E+00  0.74505805969E-08  0.10566000000E+00  0.10566000000E+00 0. -1.
     999900   -1    0    0    0    0 -0.00000000000E+00 -0.00000000000E+00 -0.74505805969E-08  0.93827000000E+00  0.93827000000E+00 0. -1.
     999902    2    1    2    0    0  0.99556499287E-02 -0.11755208151E-01  0.21482933532E-01  0.10174948659E+01  0.10171514075E+01 0.  0.
     999903    2    3    3    0    0  0.87239534938E-03  0.12334158809E+00 -0.17525464513E-01  0.12628484292E+00  0.20659409906E-01 0.  0.
         14    1    1    2    0    0 -0.99556499287E-02  0.11755208151E-01 -0.21482933532E-01  0.26435134146E-01  0.00000000000E+00 0.  1.
     999901    1    3    3    0    0  0.90832545793E-02 -0.13509679624E+00  0.39008398044E-01  0.89121002294E+00  0.88000000000E+00 0. -1.
        -11    1    4    4    0    0  0.84384955341E-03  0.75912937924E-01 -0.59291871286E-03  0.75921662916E-01  0.51100000000E-03 0.  1.
         11    1    4    4    0    0  0.28545795968E-04  0.47428650166E-01 -0.16932545800E-01  0.50363180000E-01  0.51100000000E-03 0. -1.
</event>
<event>
 8    1  0.1123450E+005  0.1043930E+01  0.7957747E-01            NaN
         13   -1    0    0    0    0  0.00000000000E+00  0.00000000000E+00  0.74505805969E-08  0.10566000000E+00  0.10566000000E+00 0. -1.
     999900   -1    0    0    0    0 -0.00000000000E+00 -0.00000000000E+00 -0.74505805969E-08  0.93827000000E+00  0.93827000000E+00 0. -1.
     999902    2    1    2    0    0  0.10183339783E-01  0.17985126357E-01  0.13240204208E-01  0.10193847726E+01  0.10190892240E+01 0.  0.
     999903    2    3    3    0    0 -0.42943308732E-01 -0.83704186443E-01 -0.82594097290E-01  0.12677770876E+00  0.20007097217E-01 0.  0.
         14    1    1    2    0    0 -0.10183339783E-01 -0.17985126357E-01 -0.13240204208E-01  0.24545227371E-01  0.00000000000E+00 0. -1.
     999901    1    3    3    0    0  0.53126648515E-01  0.10168931280E+00  0.95834301497E-01  0.89260706387E+00  0.88000000000E+00 0. -1.
        -11    1    4    4    0    0 -0.19427102588E-01 -0.43121348962E-01 -0.54245069548E-01  0.71969797433E-01  0.51100000000E-03 0.  1.
         11    1    4    4    0    0 -0.23516206144E-01 -0.40582837482E-01 -0.28349027742E-01  0.54807911330E-01  0.51100000000E-03 0. -1.
</event>
<event>
 8    1  0.1123450E+005  0.1043930E+01  0.7957747E-01            NaN
         13   -1    0    0    0    0  0.00000000000E+00  0.00000000000E+00  0.74505805969E-08  0.10566000000E+00  0.10566000000E+00 0.  1.
     999900   -1    0    0    0    0 -0.00000000000E+00 -0.00000000000E+00 -0.74505805969E-08  0.93827000000E+00  0.93827000000E+00 0.  1.
     999902    2    1    2    0    0 -0.91945136060E-02 -0.11816299896E-01 -0.18422012980E-01  0.10201911166E+01  0.10199148885E+01 0.  0.
     999903    2    3    3    0    0  0.97951942403E-01 -0.64627444263E-01 -0.55622807971E-01  0.13134170349E+00  0.19633052150E-01 0.  0.
         14    1    1    2    0    0  0.91945136060E-02  0.11816299896E-01  0.18422012980E-01  0.23738883418E-01  0.00000000000E+00 0.  1.
     999901    1    3    3    0    0 -0.10714645601E+00  0.52811144367E-01  0.37200794990E-01  0.88884941309E+00  0.88000000000E+00 0.  1.
        -11    1    4    4    0    0  0.43047487123E-01 -0.35804754316E-01 -0.34799559723E-01  0.65926755245E-01  0.51100000000E-03 0. -1.
         11    1    4    4    0    0  0.54904455280E-01 -0.28822689948E-01 -0.20823248248E-01  0.65414948246E-01  0.51100000000E-03 0.  1.
</event>
<event>
 8    1  0.1123450E+005  0.1043930E+01  0.7957747E-01            NaN
         13   -1    0    0    0    0  0.00000000000E+00  0.00000000000E+00  0.74505805969E-08  0.10566000000E+00  0.10566000000E+00 0.  1.
     999900   -1    0    0    0    0 -0.00000000000E+00 -0.00000000000E+00 -0.74505805969E-08  0.93827000000E+00  0.93827000000E+00 0.  1.
     999902    2    1    2    0    0  0.13217436971E-01  0.17537674803E-01 -0.79090420318E-02  0.10205885428E+01  0.10203215915E+01 0.  0.
     999903    2    3    3    0    0 -0.21634317211E-01 -0.23984882105E-01  0.12340607613E+00  0.12919501145E+00  0.20468832570E-01 0.  0.
         14    1    1    2    0    0 -0.13217436971E-01 -0.17537674803E-01  0.79090420318E-02  0.23341457183E-01  0.00000000000E+00 0. -1.
     999901    1    3    3    0    0  0.34851754182E-01  0.41522556908E-01 -0.13131511816E+00  0.89139353137E+00  0.88000000000E+00 0.  1.
        -11    1    4    4    0    0  0.32730709907E-03 -0.14118761901E-01  0.43328969810E-01  0.45575292795E-01  0.51100000000E-03 0. -1.
         11    1    4    4    0    0 -0.21961624310E-01 -0.98661202041E-02  0.80077106322E-01  0.83619718656E-01  0.51100000000E-03 0.  1.
</event>
<event>
 8    1  0.1123450E+005  0.1043930E+01  0.7957747E-01            NaN
         13   -1    0    0    0    0  0.00000000000E+00  0.00000000000E+00  0.74505805969E-08  0.10566000000E+00  0.10566000000E+00 0. -1.
     999900   -1    0    0    0    0 -0.00000000000E+00 -0.00000000000E+00 -0.74505805969E-08  0.93827000000E+00  0.93827000000E+00 0.  1.
     999902    2    1    2    0    0 -0.18719234984E-01 -0.69475107955E-02 -0.15083595823E-01  0.10189061608E+01  0.10185988278E+01 0.  0.
     999903    2    3    3    0    0 -0.63467507151E-01  0.46500399772E-01 -0.10364625299E+00  0.13171822624E+00  0.20414056996E-01 0.  0.
         14    1    1    2    0    0  0.18719234984E-01  0.69475107955E-02  0.15083595823E-01  0.25023839186E-01  0.00000000000E+00 0. -1.
     999901    1    3    3    0    0  0.44748272167E-01 -0.53447910568E-01  0.88562657165E-01  0.88718793457E+00  0.88000000000E+00 0. -1.
        -11    1    4    4    0    0 -0.38439099383E-01  0.27876273269E-01 -0.78052766329E-01  0.91362719012E-01  0.51100000000E-03 0.  1.
         11    1    4    4    0    0 -0.25028407768E-01  0.18624126504E-01 -0.25593486659E-01  0.40355507230E-01  0.51100000000E-03 0. -1.
</event>
<event>
 8    1  0.1123450E+005  0.1043930E+01  0.7957747E-01            NaN
         13   -1    0    0    0    0  0.00000000000E+00  0.00000000000E+00  0.74505805969E-08  0.10566000000E+00  0.10566000000E+00 0. -1.
     999900   -1    0    0    0    0 -0.00000000000E+00 -0.00000000000E+00 -0.74505805969E-08  0.93827000000E+00  0.93827000000E+00 0. -1.
     999902    2    1    2    0    0  0.53364053628E-02  0.15061131740E-01  0.17108040993E-01  0.10205206006E+01  0.10202520749E+01 0.  0.
     999903    2    3    3    0    0 -0.89830695153E-01  0.20126770745E-01  0.92852491509E-01  0.13214024320E+00  0.19100209430E-01 0.  0.
         14    1    1    2    0    0 -0.53364053628E-02 -0.15061131740E-01 -0.17108040993E-01  0.23409399354E-01  0.00000000000E+00 0.  1.
     999901    1    3    3    0    0  0.95167100515E-01 -0.50656390050E-02 -0.75744450515E-01  0.88838035745E+00  0.88000000000E+00 0. -1.
        -11    1    4    4    0    0 -0.55117696281E-01  0.50811004990E-02  0.63594972400E-01  0.84311088602E-01  0.51100000000E-03 0.  1.
         11    1    4    4    0    0 -0.34712998871E-01  0.15045670246E-01  0.29257519108E-01  0.47829154594E-01  0.51100000000E-03 0. -1.
</event>
<event>
 8    1  0.1123450E+005  0.1043930E+01  0.7957747E-01            NaN
         13   -1    0    0    0    0  0.00000000000E+00  0.00000000000E+00  0.74505805969E-08  0.10566000000E+00  0.10566000000E+00 0.  1.
     999900   -1    0    0    0    0 -0.00000000000E+00 -0.00000000000E+00 -0.74505805969E-08  0.93827000000E+00  0.93827000000E+00 0.  1.
     999902    2    1    2    0    0  0.14104235920E-01 -0.72928008962E-02  0.18587309301E-01  0.10194840907E+01  0.10191909579E+01 0.  0.
     999903    2    3    3    0    0  0.35244567114E-01 -0.48096254079E-01  0.11698821281E+00  0.13280795295E+00  0.19906814515E-01 0.  0.
         14    1    1    2    0    0 -0.14104235920E-01  0.72928008962E-02 -0.18587309301E-01  0.24445909327E-01  0.00000000000E+00 0. -1.
     999901    1    3    3    0    0 -0.21140331194E-01  0.40803453183E-01 -0.98400903505E-01  0.88667613772E+00  0.88000000000E+00 0.  1.
        -11    1    4    4    0    0  0.60153233724E-02 -0.23429726262E-01  0.38052845495E-01  0.45093418137E-01  0.51100000000E-03 0.  1.
         11    1    4    4    0    0  0.29229243741E-01 -0.24666527817E-01  0.78935367311E-01  0.87714534814E-01  0.51100000000E-03 0. -1.
</event>
<event>
 8    1  0.1123450E+005  0.1043930E+01  0.7957747E-01            NaN
         13   -1    0    0    0    0  0.00000000000E+00  0.00000000000E+00  0.74505805969E-08  0.10566000000E+00  0.10566000000E+00 0. -1.
     999900   -1    0    0    0    0 -0.00000000000E+00 -0.00000000000E+00 -0.74505805969E-08  0.93827000000E+00  0.93827000000E+00 0. -1.
     999902    2    1    2    0    0 -0.24854513157E-01 -0.14276310151E-02  0.30665132336E-03  0.10190326309E+01  0.10187284348E+01 0.  0.
     999903    2    3    3    0    0  0.68001197648E-01 -0.41044109573E-01  0.98120584903E-01  0.12787651996E+00  0.20395425074E-01 0.  0.
         14    1    1    2    0    0  0.24854513157E-01  0.14276310151E-02 -0.30665132336E-03  0.24897369131E-01  0.00000000000E+00 0.  1.
     999901    1    3    3    0    0 -0.92855710805E-01  0.39616478558E-01 -0.97813933580E-01  0.89115611091E+00  0.88000000000E+00 0. -1.
        -11    1    4    4    0    0  0.38808683983E-01 -0.12579621738E-01  0.55603785229E-01  0.68966679551E-01  0.51100000000E-03 0.  1.
         11    1    4    4    0    0  0.29192513665E-01 -0.28464487836E-01  0.42516799675E-01  0.58909840412E-01  0.51100000000E-03 0. -1.
</event>
<event>
 8    1  0.1123450E+005  0.1043930E+01  0.7957747E-01            NaN
         13   -1    0    0    0    0  0.00000000000E+00  0.00000000000E+00  0.74505805969E-08  0.10566000000E+00  0.10566000000E+00 0.  1.
     999900   -1    0    0    0    0 -0.00000000000E+00 -0.00000000000E+00 -0.74505805969E-08  0.93827000000E+00  0.93827000000E+00 0. -1.
     999902    2    1    2    0    0  0.17428504318E-01 -0.37900659643E-02 -0.25933586804E-01  0.10124551166E+01  0.10119657577E+01 0.  0.
     999903    2    3    3    0    0 -0.39434593122E-01 -0.43942621096E-02  0.11151230917E+00  0.11997253902E+00  0.19596386068E-01 0.  0.
         14    1    1    2    0    0 -0.17428504318E-01  0.37900659643E-02  0.25933586804E-01  0.31474883436E-01  0.00000000000E+00 0.  1.
     999901    1    3    3    0    0  0.56863097440E-01  0.60419614526E-03 -0.13744589598E+00  0.89248257755E+00  0.88000000000E+00 0. -1.
        -11    1    4    4    0    0 -0.14451674609E-01  0.78005513509E-02  0.39757163590E-01  0.43018515526E-01  0.51100000000E-03 0. -1.
         11    1    4    4    0    0 -0.24982918513E-01 -0.12194813460E-01  0.71755145584E-01  0.76954023491E-01  0.51100000000E-03 0.  1.
</event>
<event>
 8    1  0.1123450E+005  0.1043930E+01  0.7957747E-01            NaN
         13   -1    0    0    0    0  0.00000000000E+00  0.00000000000E+00  0.74505805969E-08  0.10566000000E+00  0.10566000000E+00 0. -1.
     999900   -1    0    0    0    0 -0.00000000000E+00 -0.00000000000E+00 -0.74505805969E-08  0.93827000000E+00  0.93827000000E+00 0. -1.
     999902    2    1    2    0    0 -0.23865159903E-01  0.17524070127E-02  0.12807237087E-02  0.10199663392E+01  0.10196847925E+01 0.  0.
     999903    2    3    3    0    0 -0.54492220808E-01  0.27011893574E-01  0.11515936511E+00  0.13174091536E+00  0.19873220306E-01 0.  0.
         14    1    1    2    0    0  0.23865159903E-01 -0.17524070127E-02 -0.12807237087E-02  0.23963660838E-01  0.00000000000E+00 0.  1.
     999901    1    3    3    0    0  0.30627060905E-01 -0.25259486561E-01 -0.11387864140E+00  0.88822542380E+00  0.88000000000E+00 0. -1.
        -11    1    4    4    0    0 -0.28723591340E-01  0.88215748802E-02  0.38469943116E-01  0.48816621423E-01  0.51100000000E-03 0. -1.
         11    1    4    4    0    0 -0.25768629468E-01  0.18190318694E-01  0.76689421990E-01  0.82924293937E-01  0.51100000000E-03 0.  1.
</event>
<event>
 8    1  0.1123450E+005  0.1043930E+01  0.7957747E-01            NaN
         13   -1    0    0    0    0  0.00000000000E+00  0.00000000000E+00  0.74505805969E-08  0.10566000000E+00  0.10566000000E+00 0.  1.
     999900   -1    0    0    0    0 -0.00000000000E+00 -0.00000000000E+00 -0.74505805969E-08  0.93827000000E+00  0.93827000000E+00 0.  1.
     999902    2    1    2    0    0  0.16431712041E-01  0.91736195572E-02 -0.15060666938E-01  0.10198264703E+01  0.10195415878E+01 0.  0.
     999903    2    3    3    0    0 -0.24653966985E-01 -0.90577938382E-01  0.84239295312E-01  0.12769481585E+00  0.19938056841E-01 0.  0.
         14    1    1    2    0    0 -0.16431712041E-01 -0.91736195572E-02  0.15060666938E-01  0.24103529721E-01  0.00000000000E+00 0.  1.
     999901    1    3    3    0    0  0.41085679026E-01  0.99751557939E-01 -0.99299962250E-01  0.89213165443E+00  0.88000000000E+00 0.  1.
        -11    1    4    4    0    0 -0.26209223550E-01 -0.62877399048E-01  0.62402617397E-01  0.92384189606E-01  0.51100000000E-03 0. -1.
         11    1    4    4    0    0  0.15552565643E-02 -0.27700539334E-01  0.21836677915E-01  0.35310626244E-01  0.51100000000E-03 0.  1.
</event>
<event>
 8    1  0.1123450E+005  0.1043930E+01  0.7957747E-01            NaN
         13   -1    0    0    0    0  0.00000000000E+00  0.00000000000E+00  0.74505805969E-08  0.10566000000E+00  0.10566000000E+00 0. -1.
     999900   -1    0    0    0    0 -0.00000000000E+00 -0.00000000000E+00 -0.74505805969E-08  0.93827000000E+00  0.93827000000E+00 0.  1.
     999902    2    1    2    0    0 -0.10770363573E-01  0.94877895708E-02 -0.20818852287E-01  0.10186427800E+01  0.10183288613E+01 0.  0.
     999903    2    3    3    0    0 -0.94641055489E-01  0.79452369383E-01 -0.39454845651E-01  0.13169484717E+00  0.22742900877E-01 0.  0.
         14    1    1    2    0    0  0.10770363573E-01 -0.94877895708E-02  0.20818852287E-01  0.25287219953E-01  0.00000000000E+00 0. -1.
     999901    1    3    3    0    0  0.83870691916E-01 -0.69964579812E-01  0.18635993365E-01  0.88694793288E+00  0.88000000000E+00 0.  1.
        -11    1    4    4    0    0 -0.16350944140E-01  0.21372388166E-01 -0.16418659349E-01  0.31527223887E-01  0.51100000000E-03 0.  1.
         11    1    4    4    0    0 -0.78290111349E-01  0.58079981217E-01 -0.23036186302E-01  0.10016762328E+00  0.51100000000E-03 0. -1.
</event>
<event>
 8    1  0.1123450E+005  0.1043930E+01  0.7957747E-01            NaN
         13   -1    0    0    0    0  0.00000000000E+00  0.00000000000E+00  0.74505805969E-08  0.10566000000E+00  0.10566000000E+00 0.  1.
     999900   -1    0    0    0    0 -0.00000000000E+00 -0.00000000000E+00 -0.74505805969E-08  0.93827000000E+00  0.93827000000E+00 0.  1.
     999902    2    1    2    0    0 -0.95333678395E-02 -0.21765498641E-01  0.40263746753E-02  0.10198295078E+01  0.10195446980E+01 0.  0.
     999903    2    3    3    0    0 -0.54426415677E-01  0.66719284500E-01  0.94683713345E-01  0.12962520781E+00  0.20591048503E-01 0.  0.
         14    1    1    2    0    0  0.95333678395E-02  0.21765498641E-01 -0.40263746753E-02  0.24100492245E-01  0.00000000000E+00 0.  1.
     999901    1    3    3    0    0  0.44893047838E-01 -0.88484783140E-01 -0.90657338670E-01  0.89020429995E+00  0.88000000000E+00 0.  1.
        -11    1    4    4    0    0 -0.26869450035E-01  0.47233716817E-01  0.64524175597E-01  0.84360071758E-01  0.51100000000E-03 0.  1.
         11    1    4    4    0    0 -0.27556965642E-01  0.19485567682E-01  0.30159537748E-01  0.45265136048E-01  0.51100000000E-03 0. -1.
</event>
<event>
 8    1  0.1123450E+005  0.1043930E+01  0.7957747E-01            NaN
         13   -1    0    0    0    0  0.00000000000E+00  0.00000000000E+00  0.74505805969E-08  0.10566000000E+00  0.10566000000E+00 0. -1.
     999900   -1    0    0    0    0 -0.00000000000E+00 -0.00000000000E+00 -0.74505805969E-08  0.93827000000E+00  0.93827000000E+00 0. -1.
     999902    2    1    2    0    0  0.97004826719E-02  0.31473141576E-02  0.21243537794E-01  0.10203653475E+01  0.10200932063E+01 0.  0.
     999903    2    3    3    0    0  0.60714275788E-01 -0.93416788158E-01 -0.63124952735E-01  0.12961000781E+00  0.20026853818E-01 0.  0.
         14    1    1    2    0    0 -0.97004826719E-02 -0.31473141576E-02 -0.21243537794E-01  0.23564652522E-01  0.00000000000E+00 0.  1.
     999901    1    3    3    0    0 -0.51013793116E-01  0.96564102316E-01  0.84368490529E-01  0.89075533966E+00  0.88000000000E+00 0.  1.
        -11    1    4    4    0    0  0.40303815139E-01 -0.64992670872E-01 -0.32464646066E-01  0.83082243272E-01  0.51100000000E-03 0. -1.
         11    1    4    4    0    0  0.20410460648E-01 -0.28424117286E-01 -0.30660306669E-01  0.46527764543E-01  0.51100000000E-03 0.  1.
</event>
<event>
 8    1  0.1123450E+005  0.1043930E+01  0.7957747E-01            NaN
         13   -1    0    0    0    0  0.00000000000E+00  0.00000000000E+00  0.74505805969E-08  0.10566000000E+00  0.10566000000E+00 0. -1.
     999900   -1    0    0    0    0 -0.00000000000E+00 -0.00000000000E+00 -0.74505805969E-08  0.93827000000E+00  0.93827000000E+00 0. -1.
     999902    2    1    2    0    0  0.47684203418E-02  0.12563962302E-01  0.19093634423E-01  0.10205813843E+01  0.10203142673E+01 0.  0.
     999903    2    3    3    0    0 -0.10151192015E+00 -0.61112349492E-01 -0.46734084920E-01  0.12869742414E+00  0.18427237841E-01 0.  0.
         14    1    1    2    0    0 -0.47684203418E-02 -0.12563962302E-01 -0.19093634423E-01  0.23348615736E-01  0.00000000000E+00 0.  1.
     999901    1    3    3    0    0  0.10628034049E+00  0.73676311795E-01  0.65827719344E-01  0.89188396012E+00  0.88000000000E+00 0.  1.
        -11    1    4    4    0    0 -0.77453768532E-01 -0.39935353543E-01 -0.27816082999E-01  0.91476304674E-01  0.51100000000E-03 0. -1.
         11    1    4    4    0    0 -0.24058151614E-01 -0.21176995949E-01 -0.18918001922E-01  0.37221119465E-01  0.51100000000E-03 0.  1.
</event>
<event>
 8    1  0.1123450E+005  0.1043930E+01  0.7957747E-01            NaN
         13   -1    0    0    0    0  0.00000000000E+00  0.00000000000E+00  0.74505805969E-08  0.10566000000E+00  0.10566000000E+00 0.  1.
     999900   -1    0    0    0    0 -0.00000000000E+00 -0.00000000000E+00 -0.74505805969E-08  0.93827000000E+00  0.93827000000E+00 0.  1.
     999902    2    1    2    0    0  0.26646795109E-02  0.93284706409E-02 -0.21457111019E-01  0.10203815713E+01  0.10201098091E+01 0.  0.
     999903    2    3    3    0    0  0.12090391852E+00 -0.44431505648E-01  0.35298012797E-02  0.13049674814E+00  0.20616148299E-01 0.  0.
         14    1    1    2    0    0 -0.26646795109E-02 -0.93284706409E-02  0.21457111019E-01  0.23548428709E-01  0.00000000000E+00 0.  1.
     999901    1    3    3    0    0 -0.11823923901E+00  0.53759976288E-01 -0.24986912299E-01  0.88988482315E+00  0.88000000000E+00 0.  1.
        -11    1    4    4    0    0  0.69822685062E-01 -0.14930829030E-01  0.38312461674E-02  0.71505779997E-01  0.51100000000E-03 0.  1.
         11    1    4    4    0    0  0.51081233455E-01 -0.29500676618E-01 -0.30144488764E-03  0.58990968141E-01  0.51100000000E-03 0. -1.
</event>
<event>
 8    1  0.1243791E+005  0.1043930E+01  0.7957747E-01            NaN
         13   -1    0    0    0    0  0.00000000000E+00  0.00000000000E+00  0.74505805969E-08  0.10566000000E+00  0.10566000000E+00 0.  1.
     999900   -1    0    0    0    0 -0.00000000000E+00 -0.00000000000E+00 -0.74505805969E-08  0.93827000000E+00  0.93827000000E+00 0.  1.
     999902    2    1    2    0    0  0.17021212422E-01 -0.92877062549E-02  0.13355663626E-01  0.10203852148E+01  0.10201135376E+01 0.  0.
     999903    2    3    3    0    0  0.98476417003E-01 -0.86753347423E-01 -0.76689584434E-02  0.13298569335E+00  0.20065734903E-01 0.  0.
         14    1    1    2    0    0 -0.17021212422E-01  0.92877062549E-02 -0.13355663626E-01  0.23544785212E-01  0.00000000000E+00 0.  1.
     999901    1    3    3    0    0 -0.81455204582E-01  0.77465641168E-01  0.21024622070E-01  0.88739952144E+00  0.88000000000E+00 0.  1.
        -11    1    4    4    0    0  0.62612516602E-01 -0.41992419156E-01 -0.34091947279E-02  0.75469028293E-01  0.51100000000E-03 0. -1.
         11    1    4    4    0    0  0.35863900401E-01 -0.44760928267E-01 -0.42597637154E-02  0.57516665057E-01  0.51100000000E-03 0.  1.
</event>
<event>
 8    1  0.1123450E+005  0.1043930E+01  0.7957747E-01            NaN
         13   -1    0    0    0    0  0.00000000000E+00  0.00000000000E+00  0.74505805969E-08  0.10566000000E+00  0.10566000000E+00 0. -1.
     999900   -1    0    0    0    0 -0.00000000000E+00 -0.00000000000E+00 -0.74505805969E-08  0.93827000000E+00  0.93827000000E+00 0.  1.
     999902    2    1    2    0    0 -0.64061575704E-02 -0.10417663141E-01 -0.19992548844E-01  0.10204935205E+01  0.10202243660E+01 0.  0.
     999903    2    3    3    0    0 -0.70761541101E-01  0.29629267515E-01  0.10155278979E+00  0.12891142035E+00  0.20496243316E-01 0.  0.
         14    1    1    2    0    0  0.64061575704E-02  0.10417663141E-01  0.19992548844E-01  0.23436479458E-01  0.00000000000E+00 0. -1.
     999901    1    3    3    0    0  0.64355383531E-01 -0.40046930656E-01 -0.12154533863E+00  0.89158210019E+00  0.88000000000E+00 0.  1.
        -11    1    4    4    0    0 -0.61377360376E-01  0.19529126991E-01  0.74061869403E-01  0.98152884768E-01  0.51100000000E-03 0. -1.
         11    1    4    4    0    0 -0.93841807255E-02  0.10100140524E-01  0.27490920383E-01  0.30758535579E-01  0.51100000000E-03 0.  1.
</event>
<event>
 8    1  0.1123450E+005  0.1043930E+01  0.7957747E-01            NaN
         13   -1    0    0    0    0  0.00000000000E+00  0.00000000000E+00  0.74505805969E-08  0.10566000000E+00  0.10566000000E+00 0.  1.
     999900   -1    0    0    0    0 -0.00000000000E+00 -0.00000000000E+00 -0.74505805969E-08  0.93827000000E+00  0.93827000000E+00 0.  1.
     999902    2    1    2    0    0  0.58288247998E-02  0.86806473648E-02  0.20961021713E-01  0.10205057974E+01  0.10202369280E+01 0.  0.
     999903    2    3    3    0    0  0.73850413904E-01  0.10549405713E+00 -0.18480565303E-01  0.13171143889E+00  0.20578924102E-01 0.  0.
         14    1    1    2    0    0 -0.58288247998E-02 -0.86806473648E-02 -0.20961021713E-01  0.23424202622E-01  0.00000000000E+00 0. -1.
     999901    1    3    3    0    0 -0.68021589105E-01 -0.96813409764E-01  0.39441587016E-01  0.88879435849E+00  0.88000000000E+00 0.  1.
        -11    1    4    4    0    0  0.26388410061E-01  0.55502569071E-01 -0.77175409048E-02  0.61941140752E-01  0.51100000000E-03 0. -1.
         11    1    4    4    0    0  0.47462003844E-01  0.49991488058E-01 -0.10763024398E-01  0.69770298138E-01  0.51100000000E-03 0.  1.
</event>
<event>
 8    1  0.1123450E+005  0.1043930E+01  0.7957747E-01            NaN
         13   -1    0    0    0    0  0.00000000000E+00  0.00000000000E+00  0.74505805969E-08  0.10566000000E+00  0.10566000000E+00 0. -1.
     999900   -1    0    0    0    0 -0.00000000000E+00 -0.00000000000E+00 -0.74505805969E-08  0.93827000000E+00  0.93827000000E+00 0. -1.
     999902    2    1    2    0    0 -0.19980728902E-01  0.11379722960E-01 -0.44099766913E-02  0.10205168516E+01  0.10202482389E+01 0.  0.
     999903    2    3    3    0    0  0.10702535557E+00  0.70632130077E-01 -0.33144574563E-03  0.12941751505E+00  0.17477379960E-01 0.  0.
         14    1    1    2    0    0  0.19980728902E-01 -0.11379722960E-01  0.44099766913E-02  0.23413148368E-01  0.00000000000E+00 0. -1.
     999901    1    3    3    0    0 -0.12700608448E+00 -0.59252407118E-01 -0.40785309457E-02  0.89109933658E+00  0.88000000000E+00 0. -1.
        -11    1    4    4    0    0  0.77581236855E-01  0.48494914324E-01  0.73389127326E-02  0.91786305015E-01  0.51100000000E-03 0.  1.
         11    1    4    4    0    0  0.29444118720E-01  0.22137215753E-01 -0.76703584783E-02  0.37631210035E-01  0.51100000000E-03 0. -1.
</event>
<event>
 8    1  0.1123450E+005  0.1043930E+01  0.7957747E-01            NaN
         13   -1    0    0    0    0  0.00000000000E+00  0.00000000000E+00  0.74505805969E-08  0.10566000000E+00  0.10566000000E+00 0.  1.
     999900   -1    0    0    0    0 -0.00000000000E+00 -0.00000000000E+00 -0.74505805969E-08  0.93827000000E+00  0.93827000000E+00 0.  1.
     999902    2    1    2    0    0  0.19888502115E-02  0.19380579469E-01 -0.15094251333E-01  0.10192845378E+01  0.10189865407E+01 0.  0.
     999903    2    3    3    0    0 -0.28272800328E-01  0.14030702475E-01 -0.12622972592E+00  0.13176243528E+00  0.20764965590E-01 0.  0.
         14    1    1    2    0    0 -0.19888502115E-02 -0.19380579469E-01  0.15094251333E-01  0.24645462240E-01  0.00000000000E+00 0.  1.
     999901    1    3    3    0    0  0.30261650540E-01  0.53498769943E-02  0.11113547458E+00  0.88752210248E+00  0.88000000000E+00 0. -1.
        -11    1    4    4    0    0 -0.30472935399E-01  0.97046360994E-02 -0.11734047236E+00  0.12162165650E+00  0.51100000000E-03 0.  1.
         11    1    4    4    0    0  0.22001350713E-02  0.43260663757E-02 -0.88892535550E-02  0.10140778786E-01  0.51100000000E-03 0. -1.
</event>
<event>
 8    1  0.1123450E+005  0.1043930E+01  0.7957747E-01            NaN
         13   -1    0    0    0    0  0.00000000000E+00  0.00000000000E+00  0.74505805969E-08  0.10566000000E+00  0.10566000000E+00 0.  1.
     999900   -1    0    0    0    0 -0.00000000000E+00 -0.00000000000E+00 -0.74505805969E-08  0.93827000000E+00  0.93827000000E+00 0. -1.
     999902    2    1    2    0    0 -0.14277135538E-01 -0.79732021798E-02 -0.13287350031E-01  0.10228595889E+01  0.10226425458E+01 0.  0.
     999903    2    3    3    0    0 -0.11317057102E+00  0.38534663380E-01 -0.59231195376E-01  0.13491041804E+00  0.19999699105E-01 0.  0.
         14    1    1    2    0    0  0.14277135538E-01  0.79732021798E-02  0.13287350031E-01  0.21070411079E-01  0.00000000000E+00 0. -1.
     999901    1    3    3    0    0  0.98893435479E-01 -0.46507865560E-01  0.45943845345E-01  0.88794917088E+00  0.88000000000E+00 0.  1.
        -11    1    4    4    0    0 -0.81908236702E-01  0.22403952967E-01 -0.33343722052E-01  0.91230265096E-01  0.51100000000E-03 0. -1.
         11    1    4    4    0    0 -0.31262334316E-01  0.16130710412E-01 -0.25887473324E-01  0.43680152946E-01  0.51100000000E-03 0.  1.
</event>
<event>
 8    1  0.1123450E+005  0.1043930E+01  0.7957747E-01            NaN
         13   -1    0    0    0    0  0.00000000000E+00  0.00000000000E+00  0.74505805969E-08  0.10566000000E+00  0.10566000000E+00 0.  1.
     999900   -1    0    0    0    0 -0.00000000000E+00 -0.00000000000E+00 -0.74505805969E-08  0.93827000000E+00  0.93827000000E+00 0. -1.
     999902    2    1    2    0    0 -0.82427850414E-02  0.21946219842E-01  0.45451523517E-02  0.10200503333E+01  0.10197707801E+01 0.  0.
     999903    2    3    3    0    0 -0.37110002306E-01 -0.87155835357E-01 -0.84770375208E-01  0.12835877334E+00  0.17795119363E-01 0.  0.
         14    1    1    2    0    0  0.82427850414E-02 -0.21946219842E-01 -0.45451523517E-02  0.23879666674E-01  0.00000000000E+00 0. -1.
     999901    1    3    3    0    0  0.28867217265E-01  0.10910205520E+00  0.89315527560E-01  0.89169155998E+00  0.88000000000E+00 0.  1.
        -11    1    4    4    0    0  0.16879230248E-02 -0.72618984155E-02 -0.81667040630E-02  0.11069798055E-01  0.51100000000E-03 0. -1.
         11    1    4    4    0    0 -0.38797925331E-01 -0.79893936942E-01 -0.76603671145E-01  0.11728897529E+00  0.51100000000E-03 0.  1.
</event>
<event>
 8    1  0.1123450E+005  0.1043930E+01  0.7957747E-01            NaN
         13   -1    0    0    0    0  0.00000000000E+00  0.00000000000E+00  0.74505805969E-08  0.10566000000E+00  0.10566000000E+00 0.  1.
     999900   -1    0    0    0    0 -0.00000000000E+00 -0.00000000000E+00 -0.74505805969E-08  0.93827000000E+00  0.93827000000E+00 0. -1.
     999902    2    1    2    0    0  0.11080883587E-01  0.16988499040E-01  0.11379057492E-01  0.10206732154E+01  0.10204082196E+01 0.  0.
     999903    2    3    3    0    0 -0.45804942943E-01 -0.10752204319E+00 -0.48428828121E-01  0.12808380499E+00  0.20025661956E-01 0.  0.
         14    1    1    2    0    0 -0.11080883587E-01 -0.16988499040E-01 -0.11379057492E-01  0.23256784604E-01  0.00000000000E+00 0. -1.
     999901    1    3    3    0    0  0.56885826529E-01  0.12451054223E+00  0.59807885614E-01  0.89258941041E+00  0.88000000000E+00 0.  1.
        -11    1    4    4    0    0 -0.32828794725E-01 -0.56112297950E-01 -0.20585354639E-01  0.68193384510E-01  0.51100000000E-03 0. -1.
         11    1    4    4    0    0 -0.12976148217E-01 -0.51409745245E-01 -0.27843473482E-01  0.59890420480E-01  0.51100000000E-03 0.  1.
</event>
<event>
 7    1  0.1123450E+005  0.1043930E+01  0.7957747E-01            NaN
         13   -1    0    0    0    0  0.00000000000E+00  0.00000000000E+00  0.74505805969E-08  0.10566000000E+00  0.10566000000E+00 0.  1.
     999900   -1    0    0    0    0 -0.00000000000E+00 -0.00000000000E+00 -0.74505805969E-08  0.93827000000E+00  0.93827000000E+00 0. -1.
     999903    2    1    2    0    0 -0.37299094855E-02 -0.65692768600E-01  0.89940413604E-01  0.11314984953E+00  0.19599958645E-01 0.  0.
         14    1    1    2    0    0  0.16285984661E-01 -0.16143875148E-01  0.31104737296E-01  0.38644051074E-01  0.00000000000E+00 0.  1.
     999901    1    1    2    0    0 -0.12556075175E-01  0.81836643747E-01 -0.12104515090E+00  0.89213609939E+00  0.88000000000E+00 0. -1.
        -11    1    3    3    0    0  0.78494757979E-02 -0.33603999679E-01  0.43688436148E-01  0.55675700613E-01  0.51100000000E-03 0. -1.
         11    1    3    3    0    0 -0.11579385283E-01 -0.32088768921E-01  0.46251977457E-01  0.57474148920E-01  0.51100000000E-03 0.  1.
</event>
<event>
 8    1  0.1123450E+005  0.1043930E+01  0.7957747E-01            NaN
         13   -1    0    0    0    0  0.00000000000E+00  0.00000000000E+00  0.74505805969E-08  0.10566000000E+00  0.10566000000E+00 0.  1.
     999900   -1    0    0    0    0 -0.00000000000E+00 -0.00000000000E+00 -0.74505805969E-08  0.93827000000E+00  0.93827000000E+00 0.  1.
     999902    2    1    2    0    0  0.10209502049E-01 -0.21963078900E-01 -0.22782575163E-02  0.10196030350E+01  0.10193127821E+01 0.  0.
     999903    2    3    3    0    0 -0.49745393266E-01  0.11171888566E+00 -0.27759516188E-01  0.12712628371E+00  0.20851563664E-01 0.  0.
         14    1    1    2    0    0 -0.10209502049E-01  0.21963078900E-01  0.22782575163E-02  0.24326964960E-01  0.00000000000E+00 0.  1.
     999901    1    3    3    0    0  0.59954895315E-01 -0.13368196456E+00  0.25481258672E-01  0.89247675133E+00  0.88000000000E+00 0. -1.
        -11    1    4    4    0    0 -0.30263021725E-01  0.47322597371E-01 -0.18879935442E-01  0.59262060284E-01  0.51100000000E-03 0. -1.
         11    1    4    4    0    0 -0.19482371541E-01  0.64396288287E-01 -0.88795807454E-02  0.67864223426E-01  0.51100000000E-03 0.  1.
</event>
<event>
 8    1  0.1123450E+005  0.1043930E+01  0.7957747E-01            NaN
         13   -1    0    0    0    0  0.00000000000E+00  0.00000000000E+00  0.74505805969E-08  0.10566000000E+00  0.10566000000E+00 0. -1.
     999900   -1    0    0    0    0 -0.00000000000E+00 -0.00000000000E+00 -0.74505805969E-08  0.93827000000E+00  0.93827000000E+00 0.  1.
     999902    2    1    2    0    0  0.19254620535E-01  0.93451476714E-02 -0.14982152188E-01  0.10178045894E+01  0.10174692354E+01 0.  0.
     999903    2    3    3    0    0 -0.10247257741E+00  0.62138746235E-01  0.34799789222E-01  0.12646687757E+00  0.20518111185E-01 0.  0.
         14    1    1    2    0    0 -0.19254620535E-01 -0.93451476714E-02  0.14982152188E-01  0.26125410641E-01  0.00000000000E+00 0. -1.
     999901    1    3    3    0    0  0.12172719795E+00 -0.52793598563E-01 -0.49781941410E-01  0.89133771179E+00  0.88000000000E+00 0. -1.
        -11    1    4    4    0    0 -0.25208674488E-01  0.23538837005E-01  0.38045094831E-02  0.34702874958E-01  0.51100000000E-03 0. -1.
         11    1    4    4    0    0 -0.77263902926E-01  0.38599909230E-01  0.30995279739E-01  0.91764002610E-01  0.51100000000E-03 0.  1.
</event>
<event>
 8    1  0.1123450E+005  0.1043930E+01  0.7957747E-01            NaN
         13   -1    0    0    0    0  0.00000000000E+00  0.00000000000E+00  0.74505805969E-08  0.10566000000E+00  0.10566000000E+00 0. -1.
     999900   -1    0    0    0    0 -0.00000000000E+00 -0.00000000000E+00 -0.74505805969E-08  0.93827000000E+00  0.93827000000E+00 0.  1.
     999902    2    1    2    0    0  0.19232568431E-01  0.13467130442E-01 -0.43462621239E-02  0.10200522848E+01  0.10197727778E+01 0.  0.
     999903    2    3    3    0    0 -0.92020428211E-02  0.66146058625E-01  0.11036037008E+00  0.13059109501E+00  0.20362812858E-01 0.  0.
         14    1    1    2    0    0 -0.19232568431E-01 -0.13467130442E-01  0.43462621239E-02  0.23877715243E-01  0.00000000000E+00 0. -1.
     999901    1    3    3    0    0  0.28434611252E-01 -0.52678928183E-01 -0.11470663221E+00  0.88946118975E+00  0.88000000000E+00 0.  1.
        -11    1    4    4    0    0 -0.63939587579E-02  0.54675572630E-01  0.10264527966E+00  0.11647581513E+00  0.51100000000E-03 0. -1.
         11    1    4    4    0    0 -0.28080840632E-02  0.11470485994E-01  0.77150904213E-02  0.14115279886E-01  0.51100000000E-03 0.  1.
</event>
<event>
 8    1  0.1123450E+005  0.1043930E+01  0.7957747E-01            NaN
         13   -1    0    0    0    0  0.00000000000E+00  0.00000000000E+00  0.74505805969E-08  0.10566000000E+00  0.10566000000E+00 0. -1.
     999900   -1    0    0    0    0 -0.00000000000E+00 -0.00000000000E+00 -0.74505805969E-08  0.93827000000E+00  0.93827000000E+00 0. -1.
     999902    2    1    2    0    0  0.18493871116E-01  0.98497546053E-02 -0.21806254790E-01  0.10136884114E+01  0.10132372090E+01 0.  0.
     999903    2    3    3    0    0 -0.96143910294E-01 -0.28918123522E-01  0.64872050904E-01  0.12118748814E+00  0.19952817790E-01 0.  0.
         14    1    1    2    0    0 -0.18493871116E-01 -0.98497546053E-02  0.21806254790E-01  0.30241588626E-01  0.00000000000E+00 0. -1.
     999901    1    3    3    0    0  0.11463778141E+00  0.38767878128E-01 -0.86678305694E-01  0.89250092324E+00  0.88000000000E+00 0. -1.
        -11    1    4    4    0    0 -0.28848902587E-01 -0.18470696201E-01  0.21761166209E-01  0.40586146336E-01  0.51100000000E-03 0.  1.
         11    1    4    4    0    0 -0.67295007707E-01 -0.10447427321E-01  0.43110884695E-01  0.80601341801E-01  0.51100000000E-03 0. -1.
</event>
<event>
 8    1  0.1123450E+005  0.1043930E+01  0.7957747E-01            NaN
         13   -1    0    0    0    0  0.00000000000E+00  0.00000000000E+00  0.74505805969E-08  0.10566000000E+00  0.10566000000E+00 0. -1.
     999900   -1    0    0    0    0 -0.00000000000E+00 -0.00000000000E+00 -0.74505805969E-08  0.93827000000E+00  0.93827000000E+00 0. -1.
     999902    2    1    2    0    0 -0.17051374593E-01  0.72520784007E-02 -0.12378585311E-01  0.10216461181E+01  0.10214030641E+01 0.  0.
     999903    2    3    3    0    0  0.28150485068E-01 -0.84789255455E-02 -0.12787129899E+00  0.13281022804E+00  0.20570502681E-01 0.  0.
         14    1    1    2    0    0  0.17051374593E-01 -0.72520784007E-02  0.12378585311E-01  0.22283881864E-01  0.00000000000E+00 0. -1.
     999901    1    3    3    0    0 -0.45201859661E-01  0.15731003946E-01  0.11549271368E+00  0.88883589009E+00  0.88000000000E+00 0.  1.
        -11    1    4    4    0    0  0.37172373608E-02 -0.76148325331E-02 -0.61389155668E-01  0.61973325574E-01  0.51100000000E-03 0. -1.
         11    1    4    4    0    0  0.24433247707E-01 -0.86409301244E-03 -0.66482143320E-01  0.70836902471E-01  0.51100000000E-03 0.  1.
</event>
<event>
 8    1  0.1123450E+005  0.1043930E+01  0.7957747E-01            NaN
         13   -1    0    0    0    0  0.00000000000E+00  0.00000000000E+00  0.74505805969E-08  0.10566000000E+00  0.10566000000E+00 0. -1.
     999900   -1    0    0    0    0 -0.00000000000E+00 -0.00000000000E+00 -0.74505805969E-08  0.93827000000E+00  0.93827000000E+00 0. -1.
     999902    2    1    2    0    0  0.11973171279E-01  0.13394493697E-02  0.19663242865E-01  0.10208693392E+01  0.10206088446E+01 0.  0.
     999903    2    3    3    0    0 -0.14083335990E-01 -0.46812511116E-01 -0.11722988493E+00  0.12860408646E+00  0.20159701992E-01 0.  0.
         14    1    1    2    0    0 -0.11973171279E-01 -0.13394493697E-02 -0.19663242865E-01  0.23060660768E-01  0.00000000000E+00 0.  1.
     999901    1    3    3    0    0  0.26056507269E-01  0.48151960486E-01  0.13689312779E+00  0.89226525277E+00  0.88000000000E+00 0.  1.
        -11    1    4    4    0    0 -0.11314132872E-01 -0.19893935117E-01 -0.75255656405E-01  0.78660366126E-01  0.51100000000E-03 0.  1.
         11    1    4    4    0    0 -0.27692031178E-02 -0.26918575999E-01 -0.41974228521E-01  0.49943720333E-01  0.51100000000E-03 0. -1.
</event>
<event>
 8    1  0.1123450E+005  0.1043930E+01  0.7957747E-01            NaN
         13   -1    0    0    0    0  0.00000000000E+00  0.00000000000E+00  0.74505805969E-08  0.10566000000E+00  0.10566000000E+00 0. -1.
     999900   -1    0    0    0    0 -0.00000000000E+00 -0.00000000000E+00 -0.74505805969E-08  0.93827000000E+00  0.93827000000E+00 0. -1.
     999902    2    1    2    0    0  0.18325477939E-01 -0.13413301109E-01  0.91443635919E-02  0.10194481869E+01  0.10191541819E+01 0.  0.
     999903    2    3    3    0    0  0.10584348721E+00 -0.25546809562E-02  0.77223375581E-01  0.13242391243E+00  0.19059713247E-01 0.  0.
         14    1    1    2    0    0 -0.18325477939E-01  0.13413301109E-01 -0.91443635919E-02  0.24481813123E-01  0.00000000000E+00 0. -1.
     999901    1    3    3    0    0 -0.87518009269E-01 -0.10858620152E-01 -0.68079011989E-01  0.88702427444E+00  0.88000000000E+00 0. -1.
        -11    1    4    4    0    0  0.54373104013E-01  0.69702075913E-02  0.33729369877E-01  0.64365749799E-01  0.51100000000E-03 0.  1.
         11    1    4    4    0    0  0.51470383194E-01 -0.95248885475E-02  0.43494005704E-01  0.68058162635E-01  0.51100000000E-03 0. -1.
</event>
<event>
 8    1  0.1123450E+005  0.1043930E+01  0.7957747E-01            NaN
         13   -1    0    0    0    0  0.00000000000E+00  0.00000000000E+00  0.74505805969E-08  0.10566000000E+00  0.10566000000E+00 0. -1.
     999900   -1    0    0    0    0 -0.00000000000E+00 -0.00000000000E+00 -0.74505805969E-08  0.93827000000E+00  0.93827000000E+00 0.  1.
     999902    2    1    2    0    0 -0.96375903652E-02  0.17752421316E-01 -0.89546355058E-02  0.10218343645E+01  0.10215954441E+01 0.  0.
     999903    2    3    3    0    0 -0.50984865408E-01  0.68241765587E-01 -0.10211282011E+00  0.13451411883E+00  0.20263885640E-01 0.  0.
         14    1    1    2    0    0  0.96375903652E-02 -0.17752421316E-01  0.89546355058E-02  0.22095635489E-01  0.00000000000E+00 0. -1.
     999901    1    3    3    0    0  0.41347275043E-01 -0.50489344272E-01  0.93158184609E-01  0.88732024568E+00  0.88000000000E+00 0. -1.
        -11    1    4    4    0    0 -0.16199464310E-01  0.13081914279E-01 -0.14872493915E-01  0.25593188965E-01  0.51100000000E-03 0. -1.
         11    1    4    4    0    0 -0.34785401098E-01  0.55159851308E-01 -0.87240326200E-01  0.10892092986E+00  0.51100000000E-03 0.  1.
</event>
<event>
 8    1  0.1123450E+005  0.1043930E+01  0.7957747E-01            NaN
         13   -1    0    0    0    0  0.00000000000E+00  0.00000000000E+00  0.74505805969E-08  0.10566000000E+00  0.10566000000E+00 0. -1.
     999900   -1    0    0    0    0 -0.00000000000E+00 -0.00000000000E+00 -0.74505805969E-08  0.93827000000E+00  0.93827000000E+00 0.  1.
     999902    2    1    2    0    0  0.36989681044E-02  0.16442346865E-01  0.15912562138E-01  0.10207515020E+01  0.10204883077E+01 0.  0.
     999903    2    3    3    0    0  0.82008750998E-01 -0.97654511146E-01 -0.10929678283E-01  0.12953266189E+00  0.19935241203E-01 0.  0.
         14    1    1    2    0    0 -0.36989681044E-02 -0.16442346865E-01 -0.15912562138E-01  0.23178497994E-01  0.00000000000E+00 0.  1.
     999901    1    3    3    0    0 -0.78309782893E-01  0.11409685801E+00  0.26842240421E-01  0.89121884011E+00  0.88000000000E+00 0.  1.
        -11    1    4    4    0    0  0.24376556822E-01 -0.16697813336E-01 -0.50708053026E-02  0.29983456774E-01  0.51100000000E-03 0.  1.
         11    1    4    4    0    0  0.57632194176E-01 -0.80956697811E-01 -0.58588729804E-02  0.99549205118E-01  0.51100000000E-03 0. -1.
</event>
<event>
 8    1  0.1123450E+005  0.1043930E+01  0.7957747E-01            NaN
         13   -1    0    0    0    0  0.00000000000E+00  0.00000000000E+00  0.74505805969E-08  0.10566000000E+00  0.10566000000E+00 0. -1.
     999900   -1    0    0    0    0 -0.00000000000E+00 -0.00000000000E+00 -0.74505805969E-08  0.93827000000E+00  0.93827000000E+00 0. -1.
     999902    2    1    2    0    0 -0.99160685854E-02  0.27680381101E-01  0.18505216470E-01  0.10091884550E+01  0.10085902849E+01 0.  0.
     999903    2    3    3    0    0  0.38899323135E-01  0.11274581873E+00 -0.22119372227E-01  0.12280849787E+00  0.19180290424E-01 0.  0.
         14    1    1    2    0    0  0.99160685854E-02 -0.27680381101E-01 -0.18505216470E-01  0.34741545025E-01  0.00000000000E+00 0.  1.
     999901    1    3    3    0    0 -0.48815391720E-01 -0.85065437627E-01  0.40624588696E-01  0.88637995710E+00  0.88000000000E+00 0. -1.
        -11    1    4    4    0    0  0.21162440529E-01  0.86912843698E-01 -0.15827070445E-01  0.90842988549E-01  0.51100000000E-03 0.  1.
         11    1    4    4    0    0  0.17736882606E-01  0.25832975031E-01 -0.62923017819E-02  0.31965509323E-01  0.51100000000E-03 0. -1.
</event>
<event>
 8    1  0.1123450E+005  0.1043930E+01  0.7957747E-01            NaN
         13   -1    0    0    0    0  0.00000000000E+00  0.00000000000E+00  0.74505805969E-08  0.10566000000E+00  0.10566000000E+00 0.  1.
     999900   -1    0    0    0    0 -0.00000000000E+00 -0.00000000000E+00 -0.74505805969E-08  0.93827000000E+00  0.93827000000E+00 0.  1.
     999902    2    1    2    0    0  0.25129735539E-01  0.12856202058E-01 -0.93095380768E-02  0.10142070621E+01  0.10137714297E+01 0.  0.
     999903    2    3    3    0    0 -0.18714954845E-01 -0.11973748535E+00  0.11297131016E-01  0.12295621208E+00  0.17415222821E-01 0.  0.
         14    1    1    2    0    0 -0.25129735539E-01 -0.12856202058E-01  0.93095380768E-02  0.29722937924E-01  0.00000000000E+00 0. -1.
     999901    1    3    3    0    0  0.43844690384E-01  0.13259368741E+00 -0.20606669093E-01  0.89125085000E+00  0.88000000000E+00 0.  1.
        -11    1    4    4    0    0 -0.13492909822E-01 -0.91382153700E-01  0.15966070206E-01  0.93743976602E-01  0.51100000000E-03 0.  1.
         11    1    4    4    0    0 -0.52220450222E-02 -0.28355331651E-01 -0.46689391892E-02  0.29212235474E-01  0.51100000000E-03 0. -1.
</event>
<event>
 8    1  0.1123450E+005  0.1043930E+01  0.7957747E-01            NaN
         13   -1    0    0    0    0  0.00000000000E+00  0.00000000000E+00  0.74505805969E-08  0.10566000000E+00  0.10566000000E+00 0.  1.
     999900   -1    0    0    0    0 -0.00000000000E+00 -0.00000000000E+00 -0.74505805969E-08  0.93827000000E+00  0.93827000000E+00 0.  1.
     999902    2    1    2    0    0  0.12332054125E-01 -0.22043548297E-01 -0.13432195550E-01  0.10153219337E+01  0.10149188182E+01 0.  0.
     999903    2    3    3    0    0  0.14367722495E-03 -0.97929005248E-01  0.78575352764E-01  0.12719325605E+00  0.20345210997E-01 0.  0.
         14    1    1    2    0    0 -0.12332054125E-01  0.22043548297E-01  0.13432195550E-01  0.28608066306E-01  0.00000000000E+00 0.  1.
     999901    1    3    3    0    0  0.12188376900E-01  0.75885456951E-01 -0.92007548314E-01  0.88812867764E+00  0.88000000000E+00 0.  1.
        -11    1    4    4    0    0  0.68643049954E-02 -0.32993037911E-01  0.35656382556E-01  0.49064222930E-01  0.51100000000E-03 0. -1.
         11    1    4    4    0    0 -0.67206277705E-02 -0.64935967337E-01  0.42918970208E-01  0.78129033120E-01  0.51100000000E-03 0.  1.
</event>
<event>
 8    1  0.1123450E+005  0.1043930E+01  0.7957747E-01            NaN
         13   -1    0    0    0    0  0.00000000000E+00  0.00000000000E+00  0.74505805969E-08  0.10566000000E+00  0.10566000000E+00 0. -1.
     999900   -1    0    0    0    0 -0.00000000000E+00 -0.00000000000E+00 -0.74505805969E-08  0.93827000000E+00  0.93827000000E+00 0. -1.
     999902    2    1    2    0    0  0.12531352566E-01  0.79200493516E-03  0.28320365859E-01  0.10129508910E+01  0.10124770627E+01 0.  0.
     999903    2    3    3    0    0 -0.84619011532E-01 -0.22942754817E-01 -0.80270992851E-01  0.12065407090E+00  0.20669432021E-01 0.  0.
         14    1    1    2    0    0 -0.12531352566E-01 -0.79200493516E-03 -0.28320365859E-01  0.30979108950E-01  0.00000000000E+00 0.  1.
     999901    1    3    3    0    0  0.97150364098E-01  0.23734759752E-01  0.10859135871E+00  0.89229682015E+00  0.88000000000E+00 0.  1.
        -11    1    4    4    0    0 -0.17630643368E-01 -0.13859940239E-01 -0.21616546843E-01  0.31152427632E-01  0.51100000000E-03 0. -1.
         11    1    4    4    0    0 -0.66988368164E-01 -0.90828145781E-02 -0.58654446008E-01  0.89501643267E-01  0.51100000000E-03 0.  1.
</event>
<event>
 8    1  0.1123450E+005  0.1043930E+01  0.7957747E-01            NaN
         13   -1    0    0    0    0  0.00000000000E+00  0.00000000000E+00  0.74505805969E-08  0.10566000000E+00  0.10566000000E+00 0. -1.
     999900   -1    0    0    0    0 -0.00000000000E+00 -0.00000000000E+00 -0.74505805969E-08  0.93827000000E+00  0.93827000000E+00 0. -1.
     999902    2    1    2    0    0  0.80339866183E-02 -0.21778093360E-01  0.43129786846E-02  0.10203200005E+01  0.10200467986E+01 0.  0.
     999903    2    3    3    0    0  0.23630754711E-01 -0.58238725068E-01 -0.11382010084E+00  0.13154102836E+00  0.19946556617E-01 0.  0.
         14    1    1    2    0    0 -0.80339866183E-02  0.21778093360E-01 -0.43129786846E-02  0.23609999503E-01  0.00000000000E+00 0. -1.
     999901    1    3    3    0    0 -0.15596768093E-01  0.36460631708E-01  0.11813307952E+00  0.88877897214E+00  0.88000000000E+00 0.  1.
        -11    1    4    4    0    0  0.19216878497E-02 -0.58088613238E-02 -0.27928366102E-01  0.28595288217E-01  0.51100000000E-03 0.  1.
         11    1    4    4    0    0  0.21709066861E-01 -0.52429863744E-01 -0.85891734736E-01  0.10294574014E+00  0.51100000000E-03 0. -1.
</event>
<event>
 8    1  0.1123450E+005  0.1043930E+01  0.7957747E-01            NaN
         13   -1    0    0    0    0  0.00000000000E+00  0.00000000000E+00  0.74505805969E-08  0.10566000000E+00  0.10566000000E+00 0.  1.
     999900   -1    0    0    0    0 -0.00000000000E+00 -0.00000000000E+00 -0.74505805969E-08  0.93827000000E+00  0.93827000000E+00 0. -1.
     999902    2    1    2    0    0 -0.17373458512E-01 -0.40766269936E-02 -0.14645732299E-01  0.10208442160E+01  0.10205831470E+01 0.  0.
     999903    2    3    3    0    0  0.93284677508E-01  0.76441473986E-01  0.39490908622E-01  0.12862273927E+00  0.20951066562E-01 0.  0.
         14    1    1    2    0    0  0.17373458512E-01  0.40766269936E-02  0.14645732299E-01  0.23085784000E-01  0.00000000000E+00 0.  1.
     999901    1    3    3    0    0 -0.11065813602E+00 -0.80518100980E-01 -0.54136640921E-01  0.89222147673E+00  0.88000000000E+00 0.  1.
        -11    1    4    4    0    0  0.71788413248E-02 -0.15171946994E-04  0.32955061162E-02  0.79156474477E-02  0.51100000000E-03 0.  1.
         11    1    4    4    0    0  0.86105836183E-01  0.76456645933E-01  0.36195402506E-01  0.12070709182E+00  0.51100000000E-03 0. -1.
</event>
<event>
 8    1  0.1123450E+005  0.1043930E+01  0.7957747E-01            NaN
         13   -1    0    0    0    0  0.00000000000E+00  0.00000000000E+00  0.74505805969E-08  0.10566000000E+00  0.10566000000E+00 0. -1.
     999900   -1    0    0    0    0 -0.00000000000E+00 -0.00000000000E+00 -0.74505805969E-08  0.93827000000E+00  0.93827000000E+00 0.  1.
     999902    2    1    2    0    0 -0.15494858260E-01 -0.18126712240E-01  0.57385860144E-03  0.10200763285E+01  0.10197973908E+01 0.  0.
     999903    2    3    3    0    0  0.56470041215E-01 -0.36814214001E-01 -0.10973183082E+00  0.13007884842E+00  0.18310658206E-01 0.  0.
         14    1    1    2    0    0  0.15494858260E-01  0.18126712240E-01 -0.57385860144E-03  0.23853671475E-01  0.00000000000E+00 0.  1.
     999901    1    3    3    0    0 -0.71964899475E-01  0.18687501761E-01  0.11030568942E+00  0.88999748011E+00  0.88000000000E+00 0. -1.
        -11    1    4    4    0    0  0.11272743771E-01 -0.17052524402E-01 -0.34919352038E-01  0.40465857317E-01  0.51100000000E-03 0.  1.
         11    1    4    4    0    0  0.45197297444E-01 -0.19761689599E-01 -0.74812478779E-01  0.89612991101E-01  0.51100000000E-03 0. -1.
</event>
<event>
 8    1  0.1123450E+005  0.1043930E+01  0.7957747E-01            NaN
         13   -1    0    0    0    0  0.00000000000E+00  0.00000000000E+00  0.74505805969E-08  0.10566000000E+00  0.10566000000E+00 0. -1.
     999900   -1    0    0    0    0 -0.00000000000E+00 -0.00000000000E+00 -0.74505805969E-08  0.93827000000E+00  0.93827000000E+00 0.  1.
     999902    2    1    2    0    0  0.73994919673E-02  0.17337106112E-01 -0.13554882411E-01  0.10207122790E+01  0.10204481829E+01 0.  0.
     999903    2    3    3    0    0  0.21880291016E-01 -0.12188824909E+00  0.28615330787E-01  0.12865189994E+00  0.19924402140E-01 0.  0.
         14    1    1    2    0    0 -0.73994919673E-02 -0.17337106112E-01  0.13554882411E-01  0.23217720967E-01  0.00000000000E+00 0. -1.
     999901    1    3    3    0    0 -0.14480799048E-01  0.13922535520E+00 -0.42170213197E-01  0.89206037910E+00  0.88000000000E+00 0. -1.
        -11    1    4    4    0    0  0.15947874901E-01 -0.66821459401E-01  0.25139029911E-01  0.73155137183E-01  0.51100000000E-03 0.  1.
         11    1    4    4    0    0  0.59324161141E-02 -0.55066789687E-01  0.34763008754E-02  0.55496762754E-01  0.51100000000E-03 0. -1.
</event>
<event>
 8    1  0.1123450E+005  0.1043930E+01  0.7957747E-01            NaN
         13   -1    0    0    0    0  0.00000000000E+00  0.00000000000E+00  0.74505805969E-08  0.10566000000E+00  0.10566000000E+00 0. -1.
     999900   -1    0    0    0    0 -0.00000000000E+00 -0.00000000000E+00 -0.74505805969E-08  0.93827000000E+00  0.93827000000E+00 0.  1.
     999902    2    1    2    0    0  0.28714388637E-01 -0.33052498368E-02 -0.29671282429E-02  0.10148741118E+01  0.10144580908E+01 0.  0.
     999903    2    3    3    0    0  0.45341688965E-01  0.12897855399E-01  0.11567855913E+00  0.12660849447E+00  0.20638759570E-01 0.  0.
         14    1    1    2    0    0 -0.28714388637E-01  0.33052498368E-02  0.29671282429E-02  0.29055888238E-01  0.00000000000E+00 0. -1.
     999901    1    3    3    0    0 -0.16627300327E-01 -0.16203105235E-01 -0.11864568737E+00  0.88826561729E+00  0.88000000000E+00 0.  1.
        -11    1    4    4    0    0  0.35808207972E-01  0.12815978747E-01  0.67371973709E-01  0.77367441679E-01  0.51100000000E-03 0. -1.
         11    1    4    4    0    0  0.95334809927E-02  0.81876651748E-04  0.48306585421E-01  0.49241052788E-01  0.51100000000E-03 0.  1.
</event>
<event>
 8    1  0.1123450E+005  0.1043930E+01  0.7957747E-01            NaN
         13   -1    0    0    0    0  0.00000000000E+00  0.00000000000E+00  0.74505805969E-08  0.10566000000E+00  0.10566000000E+00 0. -1.
     999900   -1    0    0    0    0 -0.00000000000E+00 -0.00000000000E+00 -0.74505805969E-08  0.93827000000E+00  0.93827000000E+00 0.  1.
     999902    2    1    2    0    0  0.80115343893E-02  0.58451291517E-02 -0.21977064209E-01  0.10198189741E+01  0.10195339123E+01 0.  0.
     999903    2    3    3    0    0  0.12799772202E-01  0.11922344804E+00  0.46096481354E-01  0.12992483545E+00  0.19429682007E-01 0.  0.
         14    1    1    2    0    0 -0.80115343893E-02 -0.58451291517E-02  0.21977064209E-01  0.24111025887E-01  0.00000000000E+00 0. -1.
     999901    1    3    3    0    0 -0.47882378122E-02 -0.11337831889E+00 -0.68073545563E-01  0.88989413866E+00  0.88000000000E+00 0. -1.
        -11    1    4    4    0    0 -0.10773237603E-02  0.75612825837E-01  0.26392968101E-01  0.80095629992E-01  0.51100000000E-03 0.  1.
         11    1    4    4    0    0  0.13877095962E-01  0.43610622205E-01  0.19703513253E-01  0.49829205462E-01  0.51100000000E-03 0. -1.
</event>
<event>
 8    1  0.1123450E+005  0.1043930E+01  0.7957747E-01            NaN
         13   -1    0    0    0    0  0.00000000000E+00  0.00000000000E+00  0.74505805969E-08  0.10566000000E+00  0.10566000000E+00 0. -1.
     999900   -1    0    0    0    0 -0.00000000000E+00 -0.00000000000E+00 -0.74505805969E-08  0.93827000000E+00  0.93827000000E+00 0. -1.
     999902    2    1    2    0    0  0.24205109833E-02  0.12325264014E-01 -0.19080274285E-01  0.10210864479E+01  0.10208308901E+01 0.  0.
     999903    2    3    3    0    0  0.48087701146E-01 -0.85806279657E-01  0.80711875859E-01  0.12885678835E+00  0.20359773320E-01 0.  0.
         14    1    1    2    0    0 -0.24205109833E-02 -0.12325264014E-01  0.19080274285E-01  0.22843552115E-01  0.00000000000E+00 0. -1.
     999901    1    3    3    0    0 -0.45667190163E-01  0.98131543670E-01 -0.99792150144E-01  0.89222965953E+00  0.88000000000E+00 0. -1.
        -11    1    4    4    0    0  0.11592575535E-01 -0.27569866983E-01  0.36259982576E-01  0.47005668066E-01  0.51100000000E-03 0. -1.
         11    1    4    4    0    0  0.36495125611E-01 -0.58236412674E-01  0.44451893283E-01  0.81851120285E-01  0.51100000000E-03 0.  1.
</event>
<event>
 8    1  0.1123450E+005  0.1043930E+01  0.7957747E-01            NaN
         13   -1    0    0    0    0  0.00000000000E+00  0.00000000000E+00  0.74505805969E-08  0.10566000000E+00  0.10566000000E+00 0.  1.
     999900   -1    0    0    0    0 -0.00000000000E+00 -0.00000000000E+00 -0.74505805969E-08  0.93827000000E+00  0.93827000000E+00 0.  1.
     999902    2    1    2    0    0  0.13363590333E-02 -0.11171848921E-02  0.23871024105E-01  0.10199955113E+01  0.10197146578E+01 0.  0.
     999903    2    3    3    0    0  0.10226044864E+00 -0.13977485808E-01  0.80271489256E-01  0.13234013241E+00  0.20440870663E-01 0.  0.
         14    1    1    2    0    0 -0.13363590333E-02  0.11171848921E-02 -0.23871024105E-01  0.23934488701E-01  0.00000000000E+00 0. -1.
     999901    1    3    3    0    0 -0.10092408961E+00  0.12860300916E-01 -0.56400465151E-01  0.88765537889E+00  0.88000000000E+00 0. -1.
        -11    1    4    4    0    0  0.61683579515E-01  0.16467445783E-02  0.45686080612E-01  0.76779260430E-01  0.51100000000E-03 0.  1.
         11    1    4    4    0    0  0.40576869124E-01 -0.15624230386E-01  0.34585408644E-01  0.55560871980E-01  0.51100000000E-03 0. -1.
</event>
<event>
 8    1  0.1123450E+005  0.1043930E+01  0.7957747E-01            NaN
         13   -1    0    0    0    0  0.00000000000E+00  0.00000000000E+00  0.74505805969E-08  0.10566000000E+00  0.10566000000E+00 0.  1.
     999900   -1    0    0    0    0 -0.00000000000E+00 -0.00000000000E+00 -0.74505805969E-08  0.93827000000E+00  0.93827000000E+00 0. -1.
     999902    2    1    2    0    0 -0.13340426151E-01 -0.13045494222E-01 -0.10866023938E-01  0.10223378170E+01  0.10221097738E+01 0.  0.
     999903    2    3    3    0    0  0.94267251651E-01  0.83606523043E-03  0.87533985727E-01  0.13023094455E+00  0.20270336016E-01 0.  0.
         14    1    1    2    0    0  0.13340426151E-01  0.13045494222E-01  0.10866023938E-01  0.21592182975E-01  0.00000000000E+00 0. -1.
     999901    1    3    3    0    0 -0.10760767780E+00 -0.13881559452E-01 -0.98400009666E-01  0.89210687247E+00  0.88000000000E+00 0. -1.
        -11    1    4    4    0    0  0.79101428641E-01 -0.63951172737E-02  0.68481254209E-01  0.10482307397E+00  0.51100000000E-03 0. -1.
         11    1    4    4    0    0  0.15165823010E-01  0.72311825041E-02  0.19052731519E-01  0.25407870578E-01  0.51100000000E-03 0.  1.
</event>
<event>
 8    1  0.1123450E+005  0.1043930E+01  0.7957747E-01            NaN
         13   -1    0    0    0    0  0.00000000000E+00  0.00000000000E+00  0.74505805969E-08  0.10566000000E+00  0.10566000000E+00 0.  1.
     999900   -1    0    0    0    0 -0.00000000000E+00 -0.00000000000E+00 -0.74505805969E-08  0.93827000000E+00  0.93827000000E+00 0. -1.
     999902    2    1    2    0    0  0.16592049884E-01  0.10035976483E-01 -0.13353487478E-01  0.10203857317E+01  0.10201140666E+01 0.  0.
     999903    2    3    3    0    0  0.89914911019E-01 -0.56553430142E-01  0.73436155302E-01  0.13058640984E+00  0.19415453758E-01 0.  0.
         14    1    1    2    0    0 -0.16592049884E-01 -0.10035976483E-01  0.13353487478E-01  0.23544268329E-01  0.00000000000E+00 0. -1.
     999901    1    3    3    0    0 -0.73322861135E-01  0.66589406625E-01 -0.86789642780E-01  0.88979932183E+00  0.88000000000E+00 0. -1.
        -11    1    4    4    0    0  0.28973065872E-01 -0.80436394220E-02  0.21423698349E-01  0.36923903546E-01  0.51100000000E-03 0. -1.
         11    1    4    4    0    0  0.60941845147E-01 -0.48509790720E-01  0.52012456953E-01  0.93662506292E-01  0.51100000000E-03 0.  1.
</event>
<event>
 8    1  0.1123450E+005  0.1043930E+01  0.7957747E-01            NaN
         13   -1    0    0    0    0  0.00000000000E+00  0.00000000000E+00  0.74505805969E-08  0.10566000000E+00  0.10566000000E+00 0.  1.
     999900   -1    0    0    0    0 -0.00000000000E+00 -0.00000000000E+00 -0.74505805969E-08  0.93827000000E+00  0.93827000000E+00 0.  1.
     999902    2    1    2    0    0  0.27107874789E-02 -0.72117437716E-02 -0.22068650614E-01  0.10205551640E+01  0.10202874398E+01 0.  0.
     999903    2    3    3    0    0  0.66396402699E-01  0.56717632558E-02 -0.11375614173E+00  0.13340893123E+00  0.20416462946E-01 0.  0.
         14    1    1    2    0    0 -0.27107874789E-02  0.72117437716E-02  0.22068650614E-01  0.23374835976E-01  0.00000000000E+00 0.  1.
     999901    1    3    3    0    0 -0.63685615220E-01 -0.12883507027E-01  0.91687491119E-01  0.88714623280E+00  0.88000000000E+00 0. -1.
        -11    1    4    4    0    0  0.22662399932E-01 -0.98307089012E-03 -0.22295435612E-01  0.31810350032E-01  0.51100000000E-03 0.  1.
         11    1    4    4    0    0  0.43734002767E-01  0.66548341459E-02 -0.91460706121E-01  0.10159858119E+00  0.51100000000E-03 0. -1.
</event>
<event>
 8    1  0.1123450E+005  0.1043930E+01  0.7957747E-01            NaN
         13   -1    0    0    0    0  0.00000000000E+00  0.00000000000E+00  0.74505805969E-08  0.10566000000E+00  0.10566000000E+00 0. -1.
     999900   -1    0    0    0    0 -0.00000000000E+00 -0.00000000000E+00 -0.74505805969E-08  0.93827000000E+00  0.93827000000E+00 0.  1.
     999902    2    1    2    0    0  0.14767255354E-01 -0.16031600400E-01  0.99544285575E-02  0.10199680575E+01  0.10196865516E+01 0.  0.
     999903    2    3    3    0    0  0.40045502049E-02  0.99340677488E-01  0.80022104403E-01  0.12961078225E+00  0.22601129548E-01 0.  0.
         14    1    1    2    0    0 -0.14767255354E-01  0.16031600400E-01 -0.99544285575E-02  0.23961942534E-01  0.00000000000E+00 0. -1.
     999901    1    3    3    0    0  0.10762705150E-01 -0.11537227789E+00 -0.70067675846E-01  0.89035727521E+00  0.88000000000E+00 0.  1.
        -11    1    4    4    0    0 -0.83708681057E-02  0.29874130276E-01  0.19490252419E-01  0.36642409213E-01  0.51100000000E-03 0. -1.
         11    1    4    4    0    0  0.12375418311E-01  0.69466547213E-01  0.60531851984E-01  0.92968373040E-01  0.51100000000E-03 0.  1.
</event>
<event>
 8    1  0.1123450E+005  0.1043930E+01  0.7957747E-01            NaN
         13   -1    0    0    0    0  0.00000000000E+00  0.00000000000E+00  0.74505805969E-08  0.10566000000E+00  0.10566000000E+00 0.  1.
     999900   -1    0    0    0    0 -0.00000000000E+00 -0.00000000000E+00 -0.74505805969E-08  0.93827000000E+00  0.93827000000E+00 0.  1.
     999902    2    1    2    0    0  0.13539248753E-01 -0.19934697460E-01  0.46224461122E-02  0.10193928765E+01  0.10190975254E+01 0.  0.
     999903    2    3    3    0    0  0.16675732942E-01 -0.12191822652E+00 -0.43939779037E-01  0.13216755711E+00  0.19885294611E-01 0.  0.
         14    1    1    2    0    0 -0.13539248753E-01  0.19934697460E-01 -0.46224461122E-02  0.24537123460E-01  0.00000000000E+00 0.  1.
     999901    1    3    3    0    0 -0.31364841893E-02  0.10198352906E+00  0.48562225149E-01  0.88722531943E+00  0.88000000000E+00 0.  1.
        -11    1    4    4    0    0  0.11626571586E-01 -0.28651648089E-01 -0.68898937574E-02  0.31683211044E-01  0.51100000000E-03 0. -1.
         11    1    4    4    0    0  0.50491613558E-02 -0.93266578435E-01 -0.37049885280E-01  0.10048434606E+00  0.51100000000E-03 0.  1.
</event>
<event>
 8    1  0.1123450E+005  0.1043930E+01  0.7957747E-01            NaN
         13   -1    0    0    0    0  0.00000000000E+00  0.00000000000E+00  0.74505805969E-08  0.10566000000E+00  0.10566000000E+00 0. -1.
     999900   -1    0    0    0    0 -0.00000000000E+00 -0.00000000000E+00 -0.74505805969E-08  0.93827000000E+00  0.93827000000E+00 0. -1.
     999902    2    1    2    0    0 -0.14876586969E-01  0.17658820451E-01 -0.21140247283E-02  0.10207434548E+01  0.10204800755E+01 0.  0.
     999903    2    3    3    0    0  0.70898020375E-01 -0.10315179190E+00 -0.15832898657E-01  0.12825216919E+00  0.23045970500E-01 0.  0.
         14    1    1    2    0    0  0.14876586969E-01 -0.17658820451E-01  0.21140247283E-02  0.23186545239E-01  0.00000000000E+00 0.  1.
     999901    1    3    3    0    0 -0.85774607344E-01  0.12081061235E+00  0.13718873929E-01  0.89249128557E+00  0.88000000000E+00 0.  1.
        -11    1    4    4    0    0  0.41607664087E-01 -0.75584045570E-01 -0.42248155666E-02  0.86384349526E-01  0.51100000000E-03 0. -1.
         11    1    4    4    0    0  0.29290356288E-01 -0.27567746331E-01 -0.11608083091E-01  0.41867819663E-01  0.51100000000E-03 0.  1.
</event>
<event>
 8    1  0.1123450E+005  0.1043930E+01  0.7957747E-01            NaN
         13   -1    0    0    0    0  0.00000000000E+00  0.00000000000E+00  0.74505805969E-08  0.10566000000E+00  0.10566000000E+00 0.  1.
     999900   -1    0    0    0    0 -0.00000000000E+00 -0.00000000000E+00 -0.74505805969E-08  0.93827000000E+00  0.93827000000E+00 0. -1.
     999902    2    1    2    0    0  0.45208831717E-02 -0.30366950921E-01  0.17353898434E-01  0.10086631901E+01  0.10080464687E+01 0.  0.
     999903    2    3    3    0    0 -0.10516859657E+00  0.49605182605E-01  0.71855936128E-02  0.11819661655E+00  0.19942406159E-01 0.  0.
         14    1    1    2    0    0 -0.45208831717E-02  0.30366950921E-01 -0.17353898434E-01  0.35266809945E-01  0.00000000000E+00 0. -1.
     999901    1    3    3    0    0  0.10968947974E+00 -0.79972133526E-01  0.10168304821E-01  0.89046657350E+00  0.88000000000E+00 0. -1.
        -11    1    4    4    0    0 -0.99154358289E-01  0.41276645041E-01  0.41988495545E-02  0.10748599747E+00  0.51100000000E-03 0. -1.
         11    1    4    4    0    0 -0.60142382769E-02  0.83285375641E-02  0.29867440583E-02  0.10710619080E-01  0.51100000000E-03 0.  1.
</event>
<event>
 8    1  0.1123450E+005  0.1043930E+01  0.7957747E-01            NaN
         13   -1    0    0    0    0  0.00000000000E+00  0.00000000000E+00  0.74505805969E-08  0.10566000000E+00  0.10566000000E+00 0. -1.
     999900   -1    0    0    0    0 -0.00000000000E+00 -0.00000000000E+00 -0.74505805969E-08  0.93827000000E+00  0.93827000000E+00 0. -1.
     999902    2    1    2    0    0  0.21154018060E-01 -0.18437697938E-02 -0.12001060744E-01  0.10195390708E+01  0.10192472710E+01 0.  0.
     999903    2    3    3    0    0 -0.46482025449E-02 -0.12318190554E+00  0.34566575615E-01  0.12961927526E+00  0.20271179788E-01 0.  0.
         14    1    1    2    0    0 -0.21154018060E-01  0.18437697938E-02  0.12001060744E-01  0.24390929177E-01  0.00000000000E+00 0. -1.
     999901    1    3    3    0    0  0.25802220605E-01  0.12133813575E+00 -0.46567636359E-01  0.88991979556E+00  0.88000000000E+00 0. -1.
        -11    1    4    4    0    0 -0.51308918252E-03 -0.92560909073E-01  0.34301596885E-01  0.98714972617E-01  0.51100000000E-03 0.  1.
         11    1    4    4    0    0 -0.41351133624E-02 -0.30620996469E-01  0.26497873000E-03  0.30904302645E-01  0.51100000000E-03 0. -1.
</event>
<event>
 8    1  0.1123450E+005  0.1043930E+01  0.7957747E-01            NaN
         13   -1    0    0    0    0  0.00000000000E+00  0.00000000000E+00  0.74505805969E-08  0.10566000000E+00  0.10566000000E+00 0. -1.
     999900   -1    0    0    0    0 -0.00000000000E+00 -0.00000000000E+00 -0.74505805969E-08  0.93827000000E+00  0.93827000000E+00 0.  1.
     999902    2    1    2    0    0 -0.11137188057E-02 -0.18088669193E-01  0.16518593356E-01  0.10194084941E+01  0.10191135235E+01 0.  0.
     999903    2    3    3    0    0  0.73957442531E-01  0.64693192423E-01 -0.78207590514E-01  0.12729775787E+00  0.20817768672E-01 0.  0.
         14    1    1    2    0    0  0.11137188057E-02  0.18088669193E-01 -0.16518593356E-01  0.24521505852E-01  0.00000000000E+00 0. -1.
     999901    1    3    3    0    0 -0.75071161336E-01 -0.82781861616E-01  0.94726183871E-01  0.89211073628E+00  0.88000000000E+00 0. -1.
        -11    1    4    4    0    0  0.17630494057E-01  0.73171799230E-02 -0.85771225861E-02  0.20933313058E-01  0.51100000000E-03 0.  1.
         11    1    4    4    0    0  0.56326948473E-01  0.57376012500E-01 -0.69630467928E-01  0.10636444481E+00  0.51100000000E-03 0. -1.
</event>
<event>
 8    1  0.1123450E+005  0.1043930E+01  0.7957747E-01            NaN
         13   -1    0    0    0    0  0.00000000000E+00  0.00000000000E+00  0.74505805969E-08  0.10566000000E+00  0.10566000000E+00 0. -1.
     999900   -1    0    0    0    0 -0.00000000000E+00 -0.00000000000E+00 -0.74505805969E-08  0.93827000000E+00  0.93827000000E+00 0. -1.
     999902    2    1    2    0    0 -0.24836863303E-02 -0.16460366538E-01 -0.22395755109E-01  0.10160251221E+01  0.10156418495E+01 0.  0.
     999903    2    3    3    0    0 -0.74214268664E-01 -0.82222951151E-01 -0.64452494895E-01  0.12966246305E+00  0.19744843799E-01 0.  0.
         14    1    1    2    0    0  0.24836863303E-02  0.16460366538E-01  0.22395755109E-01  0.27904877911E-01  0.00000000000E+00 0. -1.
     999901    1    3    3    0    0  0.71730582334E-01  0.65762584613E-01  0.42056739786E-01  0.88636265904E+00  0.88000000000E+00 0.  1.
        -11    1    4    4    0    0 -0.50735264634E-01 -0.59309439754E-01 -0.55114491476E-01  0.95548652597E-01  0.51100000000E-03 0.  1.
         11    1    4    4    0    0 -0.23479004030E-01 -0.22913511397E-01 -0.93380034193E-02  0.34113810453E-01  0.51100000000E-03 0. -1.
</event>
<event>
 8    1  0.1123450E+005  0.1043930E+01  0.7957747E-01            NaN
         13   -1    0    0    0    0  0.00000000000E+00  0.00000000000E+00  0.74505805969E-08  0.10566000000E+00  0.10566000000E+00 0.  1.
     999900   -1    0    0    0    0 -0.00000000000E+00 -0.00000000000E+00 -0.74505805969E-08  0.93827000000E+00  0.93827000000E+00 0.  1.
     999902    2    1    2    0    0 -0.13064413918E-01 -0.15650813925E-01  0.13368266250E-01  0.10195509633E+01  0.10192594514E+01 0.  0.
     999903    2    3    3    0    0 -0.19757619063E-01  0.12137847962E+00  0.32223751445E-01  0.12872137489E+00  0.20192161094E-01 0.  0.
         14    1    1    2    0    0  0.13064413918E-01  0.15650813925E-01 -0.13368266250E-01  0.24379036693E-01  0.00000000000E+00 0.  1.
     999901    1    3    3    0    0  0.66932051449E-02 -0.13702929354E+00 -0.18855485195E-01  0.89082958842E+00  0.88000000000E+00 0.  1.
        -11    1    4    4    0    0 -0.77752651913E-02  0.58224392402E-01  0.51462268100E-02  0.58968460983E-01  0.51100000000E-03 0. -1.
         11    1    4    4    0    0 -0.11982353872E-01  0.63154087217E-01  0.27077524635E-01  0.69752913903E-01  0.51100000000E-03 0.  1.
</event>
<event>
 8    1  0.1123450E+005  0.1043930E+01  0.7957747E-01            NaN
         13   -1    0    0    0    0  0.00000000000E+00  0.00000000000E+00  0.74505805969E-08  0.10566000000E+00  0.10566000000E+00 0. -1.
     999900   -1    0    0    0    0 -0.00000000000E+00 -0.00000000000E+00 -0.74505805969E-08  0.93827000000E+00  0.93827000000E+00 0.  1.
     999902    2    1    2    0    0 -0.12681414687E-01 -0.13706209976E-01 -0.14217021305E-01  0.10204608252E+01  0.10201909104E+01 0.  0.
     999903    2    3    3    0    0  0.69079206875E-01 -0.41939373328E-01 -0.10273556049E+00  0.13180034869E+00  0.16908242616E-01 0.  0.
         14    1    1    2    0    0  0.12681414687E-01  0.13706209976E-01  0.14217021305E-01  0.23469174786E-01  0.00000000000E+00 0.  1.
     999901    1    3    3    0    0 -0.81760621561E-01  0.28233163352E-01  0.88518539187E-01  0.88866047652E+00  0.88000000000E+00 0. -1.
        -11    1    4    4    0    0  0.42056094865E-01 -0.33897155542E-01 -0.73088971937E-01  0.90884493776E-01  0.51100000000E-03 0.  1.
         11    1    4    4    0    0  0.27023112010E-01 -0.80422177862E-02 -0.29646588555E-01  0.40915854917E-01  0.51100000000E-03 0. -1.
</event>
<event>
 8    1  0.1123450E+005  0.1043930E+01  0.7957747E-01            NaN
         13   -1    0    0    0    0  0.00000000000E+00  0.00000000000E+00  0.74505805969E-08  0.10566000000E+00  0.10566000000E+00 0. -1.
     999900   -1    0    0    0    0 -0.00000000000E+00 -0.00000000000E+00 -0.74505805969E-08  0.93827000000E+00  0.93827000000E+00 0. -1.
     999902    2    1    2    0    0  0.16134704994E-01 -0.17631454763E-01 -0.40874090017E-02  0.10196832721E+01  0.10193949537E+01 0.  0.
     999903    2    3    3    0    0 -0.21319216532E-01  0.12152674436E+00 -0.25761316505E-01  0.12769809346E+00  0.20491438627E-01 0.  0.
         14    1    1    2    0    0 -0.16134704994E-01  0.17631454763E-01  0.40874090017E-02  0.24246727917E-01  0.00000000000E+00 0.  1.
     999901    1    3    3    0    0  0.37453921527E-01 -0.13915819912E+00  0.21673907503E-01  0.89198517863E+00  0.88000000000E+00 0.  1.
        -11    1    4    4    0    0  0.23044118549E-02  0.41115023412E-01 -0.63695551160E-02  0.41672386752E-01  0.51100000000E-03 0. -1.
         11    1    4    4    0    0 -0.23623628387E-01  0.80411720945E-01 -0.19391761389E-01  0.86025706706E-01  0.51100000000E-03 0.  1.
</event>
<event>
 8    1  0.1123450E+005  0.1043930E+01  0.7957747E-01            NaN
         13   -1    0    0    0    0  0.00000000000E+00  0.00000000000E+00  0.74505805969E-08  0.10566000000E+00  0.10566000000E+00 0. -1.
     999900   -1    0    0    0    0 -0.00000000000E+00 -0.00000000000E+00 -0.74505805969E-08  0.93827000000E+00  0.93827000000E+00 0. -1.
     999902    2    1    2    0    0  0.12635607390E-01  0.21075747911E-01  0.85190827521E-02  0.10179219148E+01  0.10175896050E+01 0.  0.
     999903    2    3    3    0    0  0.11888552770E+00  0.48342289438E-01  0.17169203384E-01  0.13106942740E+00  0.20338820265E-01 0.  0.
         14    1    1    2    0    0 -0.12635607390E-01 -0.21075747911E-01 -0.85190827521E-02  0.26008085186E-01  0.00000000000E+00 0. -1.
     999901    1    3    3    0    0 -0.10624992031E+00 -0.27266541527E-01 -0.86501206315E-02  0.88685248742E+00  0.88000000000E+00 0.  1.
        -11    1    4    4    0    0  0.60252741908E-01  0.13575783812E-01  0.88627215462E-02  0.62397946823E-01  0.51100000000E-03 0. -1.
         11    1    4    4    0    0  0.58632785787E-01  0.34766505626E-01  0.83064818373E-02  0.68671480573E-01  0.51100000000E-03 0.  1.
</event>
<event>
 8    1  0.1123450E+005  0.1043930E+01  0.7957747E-01            NaN
         13   -1    0    0    0    0  0.00000000000E+00  0.00000000000E+00  0.74505805969E-08  0.10566000000E+00  0.10566000000E+00 0. -1.
     999900   -1    0    0    0    0 -0.00000000000E+00 -0.00000000000E+00 -0.74505805969E-08  0.93827000000E+00  0.93827000000E+00 0. -1.
     999902    2    1    2    0    0  0.23443984880E-01  0.58261948186E-02  0.26385406565E-02  0.10196292414E+01  0.10193396210E+01 0.  0.
     999903    2    3    3    0    0 -0.20089864801E-01  0.41445349571E-01  0.11997723321E+00  0.13006064423E+00  0.19997875393E-01 0.  0.
         14    1    1    2    0    0 -0.23443984880E-01 -0.58261948186E-02 -0.26385406565E-02  0.24300758628E-01  0.00000000000E+00 0. -1.
     999901    1    3    3    0    0  0.43533849681E-01 -0.35619154753E-01 -0.11733869255E+00  0.88956859714E+00  0.88000000000E+00 0. -1.
        -11    1    4    4    0    0 -0.80990047030E-02  0.27450885135E-01  0.93598946387E-01  0.97878337019E-01  0.51100000000E-03 0.  1.
         11    1    4    4    0    0 -0.11990860098E-01  0.13994464436E-01  0.26378286821E-01  0.32182307210E-01  0.51100000000E-03 0. -1.
</event>
<event>
 8    1  0.1123450E+005  0.1043930E+01  0.7957747E-01            NaN
         13   -1    0    0    0    0  0.00000000000E+00  0.00000000000E+00  0.74505805969E-08  0.10566000000E+00  0.10566000000E+00 0.  1.
     999900   -1    0    0    0    0 -0.00000000000E+00 -0.00000000000E+00 -0.74505805969E-08  0.93827000000E+00  0.93827000000E+00 0. -1.
     999902    2    1    2    0    0  0.21411878984E-01 -0.10775983244E-01  0.40747004196E-02  0.10196155278E+01  0.10193255765E+01 0.  0.
     999903    2    3    3    0    0  0.50833479171E-01  0.10661416871E-01 -0.11800772805E+00  0.13044214084E+00  0.19789386389E-01 0.  0.
         14    1    1    2    0    0 -0.21411878984E-01  0.10775983244E-01 -0.40747004196E-02  0.24314472233E-01  0.00000000000E+00 0. -1.
     999901    1    3    3    0    0 -0.29421600188E-01 -0.21437400114E-01  0.12208242847E+00  0.88917338693E+00  0.88000000000E+00 0.  1.
        -11    1    4    4    0    0  0.25653276713E-01 -0.45483308169E-02 -0.51505719808E-01  0.57722423834E-01  0.51100000000E-03 0. -1.
         11    1    4    4    0    0  0.25180202458E-01  0.15209747688E-01 -0.66502008238E-01  0.72719717004E-01  0.51100000000E-03 0.  1.
</event>
<event>
 8    1  0.1123450E+005  0.1043930E+01  0.7957747E-01            NaN
         13   -1    0    0    0    0  0.00000000000E+00  0.00000000000E+00  0.74505805969E-08  0.10566000000E+00  0.10566000000E+00 0.  1.
     999900   -1    0    0    0    0 -0.00000000000E+00 -0.00000000000E+00 -0.74505805969E-08  0.93827000000E+00  0.93827000000E+00 0. -1.
     999902    2    1    2    0    0 -0.16797358875E-01  0.10471432941E-01  0.11628944624E-01  0.10209727675E+01  0.10207146307E+01 0.  0.
     999903    2    3    3    0    0 -0.10344569661E+00  0.79250972939E-01  0.23934538169E-01  0.13396093710E+00  0.19772245533E-01 0.  0.
         14    1    1    2    0    0  0.16797358875E-01 -0.10471432941E-01 -0.11628944624E-01  0.22957232544E-01  0.00000000000E+00 0. -1.
     999901    1    3    3    0    0  0.86648337733E-01 -0.68779539998E-01 -0.12305593545E-01  0.88701183035E+00  0.88000000000E+00 0. -1.
        -11    1    4    4    0    0 -0.23812129203E-02  0.25039830980E-02  0.43127284565E-02  0.55498517157E-02  0.51100000000E-03 0.  1.
         11    1    4    4    0    0 -0.10106448369E+00  0.76746989841E-01  0.19621809712E-01  0.12841108539E+00  0.51100000000E-03 0. -1.
</event>
<event>
 8    1  0.1123450E+005  0.1043930E+01  0.7957747E-01            NaN
         13   -1    0    0    0    0  0.00000000000E+00  0.00000000000E+00  0.74505805969E-08  0.10566000000E+00  0.10566000000E+00 0.  1.
     999900   -1    0    0    0    0 -0.00000000000E+00 -0.00000000000E+00 -0.74505805969E-08  0.93827000000E+00  0.93827000000E+00 0.  1.
     999902    2    1    2    0    0  0.64685694275E-02  0.56517876503E-02 -0.21599343114E-01  0.10206852863E+01  0.10204205686E+01 0.  0.
     999903    2    3    3    0    0 -0.53501630865E-01 -0.10959315822E+00 -0.42591581912E-01  0.13089963984E+00  0.21156276289E-01 0.  0.
         14    1    1    2    0    0 -0.64685694275E-02 -0.56517876503E-02  0.21599343114E-01  0.23244713744E-01  0.00000000000E+00 0.  1.
     999901    1    3    3    0    0  0.59970200293E-01  0.11524494587E+00  0.20992238799E-01  0.88978564641E+00  0.88000000000E+00 0. -1.
        -11    1    4    4    0    0 -0.20215944479E-01 -0.22680717789E-01 -0.64825824499E-02  0.31070635121E-01  0.51100000000E-03 0. -1.
         11    1    4    4    0    0 -0.33285686387E-01 -0.86912440435E-01 -0.36108999463E-01  0.99829004722E-01  0.51100000000E-03 0.  1.
</event>
<event>
 8    1  0.1123450E+005  0.1043930E+01  0.7957747E-01            NaN
         13   -1    0    0    0    0  0.00000000000E+00  0.00000000000E+00  0.74505805969E-08  0.10566000000E+00  0.10566000000E+00 0.  1.
     999900   -1    0    0    0    0 -0.00000000000E+00 -0.00000000000E+00 -0.74505805969E-08  0.93827000000E+00  0.93827000000E+00 0.  1.
     999902    2    1    2    0    0  0.20322972348E-01 -0.12181796305E-01  0.33427759905E-02  0.10200010736E+01  0.10197203522E+01 0.  0.
     999903    2    3    3    0    0  0.10037002931E-01 -0.12677672671E+00 -0.28872775111E-01  0.13192695455E+00  0.19950045866E-01 0.  0.
         14    1    1    2    0    0 -0.20322972348E-01  0.12181796305E-01 -0.33427759905E-02  0.23928926378E-01  0.00000000000E+00 0.  1.
     999901    1    3    3    0    0  0.10285969416E-01  0.11459493040E+00  0.32215551102E-01  0.88807411908E+00  0.88000000000E+00 0.  1.
        -11    1    4    4    0    0  0.23750961775E-02 -0.58304095778E-01 -0.23181154196E-01  0.62790410870E-01  0.51100000000E-03 0.  1.
         11    1    4    4    0    0  0.76619067539E-02 -0.68472630931E-01 -0.56916209150E-02  0.69136543675E-01  0.51100000000E-03 0. -1.
</event>
<event>
 8    1  0.1123450E+005  0.1043930E+01  0.7957747E-01            NaN
         13   -1    0    0    0    0  0.00000000000E+00  0.00000000000E+00  0.74505805969E-08  0.10566000000E+00  0.10566000000E+00 0. -1.
     999900   -1    0    0    0    0 -0.00000000000E+00 -0.00000000000E+00 -0.74505805969E-08  0.93827000000E+00  0.93827000000E+00 0.  1.
     999902    2    1    2    0    0 -0.13815664578E-01 -0.36922648684E-02  0.19386558851E-01  0.10198396685E+01  0.10195551017E+01 0.  0.
     999903    2    3    3    0    0  0.22974378936E-01 -0.10116483383E+00  0.78676162869E-01  0.13171261332E+00  0.19902969911E-01 0.  0.
         14    1    1    2    0    0  0.13815664578E-01  0.36922648684E-02 -0.19386558851E-01  0.24090331498E-01  0.00000000000E+00 0. -1.
     999901    1    3    3    0    0 -0.36790043515E-01  0.97472568966E-01 -0.59289604018E-01  0.88812705518E+00  0.88000000000E+00 0.  1.
        -11    1    4    4    0    0  0.18086567539E-01 -0.89290272699E-01  0.60168125548E-01  0.10918031497E+00  0.51100000000E-03 0.  1.
         11    1    4    4    0    0  0.48878113973E-02 -0.11874561136E-01  0.18508037321E-01  0.22532298349E-01  0.51100000000E-03 0. -1.
</event>
<event>
 8    1  0.1123450E+005  0.1043930E+01  0.7957747E-01            NaN
         13   -1    0    0    0    0  0.00000000000E+00  0.00000000000E+00  0.74505805969E-08  0.10566000000E+00  0.10566000000E+00 0. -1.
     999900   -1    0    0    0    0 -0.00000000000E+00 -0.00000000000E+00 -0.74505805969E-08  0.93827000000E+00  0.93827000000E+00 0. -1.
     999902    2    1    2    0    0 -0.56579403855E-02  0.18239956805E-01  0.13184181176E-01  0.10207237304E+01  0.10204598978E+01 0.  0.
     999903    2    3    3    0    0 -0.29487025518E-01 -0.11729042827E+00 -0.38214752597E-01  0.12854764862E+00  0.20918924718E-01 0.  0.
         14    1    1    2    0    0  0.56579403855E-02 -0.18239956805E-01 -0.13184181176E-01  0.23206269561E-01  0.00000000000E+00 0.  1.
     999901    1    3    3    0    0  0.23829085133E-01  0.13553038508E+00  0.51398933773E-01  0.89217608182E+00  0.88000000000E+00 0.  1.
        -11    1    4    4    0    0 -0.28669089399E-01 -0.83478711142E-01 -0.21641850629E-01  0.90880375883E-01  0.51100000000E-03 0. -1.
         11    1    4    4    0    0 -0.81793611905E-03 -0.33811717130E-01 -0.16572901968E-01  0.37667272737E-01  0.51100000000E-03 0.  1.
</event>
<event>
 8    1  0.1123450E+005  0.1043930E+01  0.7957747E-01            NaN
         13   -1    0    0    0    0  0.00000000000E+00  0.00000000000E+00  0.74505805969E-08  0.10566000000E+00  0.10566000000E+00 0. -1.
     999900   -1    0    0    0    0 -0.00000000000E+00 -0.00000000000E+00 -0.74505805969E-08  0.93827000000E+00  0.93827000000E+00 0. -1.
     999902    2    1    2    0    0 -0.17152042240E-01  0.81665519038E-02  0.11478858799E-01  0.10217342950E+01  0.10214931817E+01 0.  0.
     999903    2    3    3    0    0  0.45370828167E-01 -0.91532778291E-01 -0.77520922464E-01  0.12945069272E+00  0.17641623358E-01 0.  0.
         14    1    1    2    0    0  0.17152042240E-01 -0.81665519038E-02 -0.11478858799E-01  0.22195705042E-01  0.00000000000E+00 0. -1.
     999901    1    3    3    0    0 -0.62522870407E-01  0.99699330195E-01  0.88999781263E-01  0.89228360224E+00  0.88000000000E+00 0.  1.
        -11    1    4    4    0    0  0.46085960365E-01 -0.84990840339E-01 -0.75085249724E-01  0.12241492773E+00  0.51100000000E-03 0. -1.
         11    1    4    4    0    0 -0.71513219714E-03 -0.65419379520E-02 -0.24356727395E-02  0.70357649848E-02  0.51100000000E-03 0.  1.
</event>
<event>
 8    1  0.1123450E+005  0.1043930E+01  0.7957747E-01            NaN
         13   -1    0    0    0    0  0.00000000000E+00  0.00000000000E+00  0.74505805969E-08  0.10566000000E+00  0.10566000000E+00 0. -1.
     999900   -1    0    0    0    0 -0.00000000000E+00 -0.00000000000E+00 -0.74505805969E-08  0.93827000000E+00  0.93827000000E+00 0.  1.
     999902    2    1    2    0    0 -0.12153234999E-01 -0.20531803362E-01 -0.60789090648E-02  0.10193086839E+01  0.10190112776E+01 0.  0.
     999903    2    3    3    0    0 -0.12876989741E+00  0.58440736765E-02  0.13452202608E-01  0.13100884875E+00  0.19144634220E-01 0.  0.
         14    1    1    2    0    0  0.12153234999E-01  0.20531803362E-01  0.60789090648E-02  0.24621316083E-01  0.00000000000E+00 0. -1.
     999901    1    3    3    0    0  0.11661666241E+00 -0.26375877038E-01 -0.19531111673E-01  0.88829983517E+00  0.88000000000E+00 0.  1.
        -11    1    4    4    0    0 -0.29831437374E-01  0.24965415551E-02  0.11262270622E-01  0.31988235902E-01  0.51100000000E-03 0.  1.
         11    1    4    4    0    0 -0.98938460033E-01  0.33475321214E-02  0.21899319865E-02  0.99020612844E-01  0.51100000000E-03 0. -1.
</event>
<event>
 8    1  0.1123450E+005  0.1043930E+01  0.7957747E-01            NaN
         13   -1    0    0    0    0  0.00000000000E+00  0.00000000000E+00  0.74505805969E-08  0.10566000000E+00  0.10566000000E+00 0.  1.
     999900   -1    0    0    0    0 -0.00000000000E+00 -0.00000000000E+00 -0.74505805969E-08  0.93827000000E+00  0.93827000000E+00 0.  1.
     999902    2    1    2    0    0 -0.12644723673E-01 -0.13142801275E-01  0.18255533404E-01  0.10181252182E+01  0.10177981496E+01 0.  0.
     999903    2    3    3    0    0  0.71860713374E-01  0.28893953849E-01  0.10138537467E+00  0.12918268456E+00  0.20257075208E-01 0.  0.
         14    1    1    2    0    0  0.12644723673E-01  0.13142801275E-01 -0.18255533404E-01  0.25804781766E-01  0.00000000000E+00 0. -1.
     999901    1    3    3    0    0 -0.84505437048E-01 -0.42036755124E-01 -0.83129841269E-01  0.88894253368E+00  0.88000000000E+00 0.  1.
        -11    1    4    4    0    0  0.16826321448E-01  0.14914733158E-02  0.33975097606E-01  0.37946250994E-01  0.51100000000E-03 0.  1.
         11    1    4    4    0    0  0.55034391926E-01  0.27402480533E-01  0.67410277066E-01  0.91236433563E-01  0.51100000000E-03 0. -1.
</event>
<event>
 8    1  0.1123450E+005  0.1043930E+01  0.7957747E-01            NaN
         13   -1    0    0    0    0  0.00000000000E+00  0.00000000000E+00  0.74505805969E-08  0.10566000000E+00  0.10566000000E+00 0. -1.
     999900   -1    0    0    0    0 -0.00000000000E+00 -0.00000000000E+00 -0.74505805969E-08  0.93827000000E+00  0.93827000000E+00 0.  1.
     999902    2    1    2    0    0 -0.16864125740E-01 -0.78359983152E-02  0.15046836433E-01  0.10200091118E+01  0.10197285812E+01 0.  0.
     999903    2    3    3    0    0  0.64189238303E-01  0.36815990334E-01  0.10559938519E+00  0.13053555287E+00  0.20313171873E-01 0.  0.
         14    1    1    2    0    0  0.16864125740E-01  0.78359983152E-02 -0.15046836433E-01  0.23920888219E-01  0.00000000000E+00 0.  1.
     999901    1    3    3    0    0 -0.81053364043E-01 -0.44651988650E-01 -0.90552548761E-01  0.88947355891E+00  0.88000000000E+00 0.  1.
        -11    1    4    4    0    0  0.30182171363E-01  0.13753456430E-01  0.31185074744E-01  0.45529013165E-01  0.51100000000E-03 0.  1.
         11    1    4    4    0    0  0.34007066940E-01  0.23062533905E-01  0.74414310451E-01  0.85006539706E-01  0.51100000000E-03 0. -1.
</event>
<event>
 8    1  0.1123450E+005  0.1043930E+01  0.7957747E-01            NaN
         13   -1    0    0    0    0  0.00000000000E+00  0.00000000000E+00  0.74505805969E-08  0.10566000000E+00  0.10566000000E+00 0.  1.
     999900   -1    0    0    0    0 -0.00000000000E+00 -0.00000000000E+00 -0.74505805969E-08  0.93827000000E+00  0.93827000000E+00 0. -1.
     999902    2    1    2    0    0  0.51767910660E-02 -0.58369455615E-02  0.21281626090E-01  0.10212633569E+01  0.10210117862E+01 0.  0.
     999903    2    3    3    0    0  0.10307949041E-02 -0.12266924968E+00 -0.42156515826E-01  0.13126820277E+00  0.20133600716E-01 0.  0.
         14    1    1    2    0    0 -0.51767910660E-02  0.58369455615E-02 -0.21281626090E-01  0.22666643074E-01  0.00000000000E+00 0. -1.
     999901    1    3    3    0    0  0.41459961618E-02  0.11683230412E+00  0.63438141915E-01  0.88999515415E+00  0.88000000000E+00 0.  1.
        -11    1    4    4    0    0 -0.84159993418E-02 -0.36334685669E-01 -0.15771990583E-01  0.40497595429E-01  0.51100000000E-03 0. -1.
         11    1    4    4    0    0  0.94467942460E-02 -0.86334564008E-01 -0.26384525242E-01  0.90770607342E-01  0.51100000000E-03 0.  1.
</event>
