<event>
 8    1  0.1094134E+005  0.1043930E+01  0.7957747E-01            NaN
         13   -1    0    0    0    0  0.00000000000E+00  0.00000000000E+00  0.74505805969E-08  0.10566000000E+00  0.10566000000E+00 0.  1.
     999900   -1    0    0    0    0 -0.00000000000E+00 -0.00000000000E+00 -0.74505805969E-08  0.93827000000E+00  0.93827000000E+00 0.  1.
     999902    2    1    2    0    0  0.16697591861E-02 -0.18060649355E-02  0.25129122659E-01  0.10186807867E+01  0.10183678228E+01 0.  0.
     999903    2    3    3    0    0 -0.66964621499E-01 -0.83547886607E-01  0.73047879050E-01  0.13093723656E+00  0.18548784163E-01 0.  0.
         14    1    1    2    0    0 -0.16697591861E-02  0.18060649355E-02 -0.25129122659E-01  0.25249213293E-01  0.00000000000E+00 0. -1.
     999901    1    3    3    0    0  0.68634380685E-01  0.81741821672E-01 -0.47918756391E-01  0.88774355015E+00  0.88000000000E+00 0.  1.
        -11    1    4    4    0    0 -0.21033700681E-01 -0.34645918926E-01  0.18916013986E-01  0.44730671453E-01  0.51100000000E-03 0. -1.
         11    1    4    4    0    0 -0.45930920818E-01 -0.48901967681E-01  0.54131865064E-01  0.86206565102E-01  0.51100000000E-03 0.  1.
</event>
<event>
 8    1  0.1094134E+005  0.1043930E+01  0.7957747E-01            NaN
         13   -1    0    0    0    0  0.00000000000E+00  0.00000000000E+00  0.74505805969E-08  0.10566000000E+00  0.10566000000E+00 0. -1.
     999900   -1    0    0    0    0 -0.00000000000E+00 -0.00000000000E+00 -0.74505805969E-08  0.93827000000E+00  0.93827000000E+00 0.  1.
     999902    2    1    2    0    0 -0.20479888364E-01  0.81914321770E-02  0.73739897636E-02  0.10206727191E+01  0.10204077119E+01 0.  0.
     999903    2    3    3    0    0 -0.94089059752E-01 -0.90628371861E-01  0.60571411023E-02  0.13208653992E+00  0.18544867742E-01 0.  0.
         14    1    1    2    0    0  0.20479888364E-01 -0.81914321770E-02 -0.73739897636E-02  0.23257280872E-01  0.00000000000E+00 0. -1.
     999901    1    3    3    0    0  0.73609171387E-01  0.98819804038E-01  0.13168486613E-02  0.88858617920E+00  0.88000000000E+00 0. -1.
        -11    1    4    4    0    0 -0.34574833296E-01 -0.25696339840E-01 -0.47595875932E-02  0.43343232156E-01  0.51100000000E-03 0.  1.
         11    1    4    4    0    0 -0.59514226455E-01 -0.64932032021E-01  0.10816728696E-01  0.88743307768E-01  0.51100000000E-03 0. -1.
</event>
<event>
 8    1  0.1094134E+005  0.1043930E+01  0.7957747E-01            NaN
         13   -1    0    0    0    0  0.00000000000E+00  0.00000000000E+00  0.74505805969E-08  0.10566000000E+00  0.10566000000E+00 0.  1.
     999900   -1    0    0    0    0 -0.00000000000E+00 -0.00000000000E+00 -0.74505805969E-08  0.93827000000E+00  0.93827000000E+00 0.  1.
     999902    2    1    2    0    0  0.70271983376E-02  0.11110086717E-01  0.21271395500E-01  0.10189242445E+01  0.10186173610E+01 0.  0.
     999903    2    3    3    0    0  0.32959284253E-01 -0.49127763524E-01  0.11567776357E+00  0.13144825380E+00  0.19936069660E-01 0.  0.
         14    1    1    2    0    0 -0.70271983376E-02 -0.11110086717E-01 -0.21271395500E-01  0.25005755535E-01  0.00000000000E+00 0. -1.
     999901    1    3    3    0    0 -0.25932085916E-01  0.60237850241E-01 -0.94406368072E-01  0.88747599067E+00  0.88000000000E+00 0.  1.
        -11    1    4    4    0    0  0.33583858594E-01 -0.35920116143E-01  0.89808054930E-01  0.10239081088E+00  0.51100000000E-03 0. -1.
         11    1    4    4    0    0 -0.62457434023E-03 -0.13207647382E-01  0.25869708643E-01  0.29057442914E-01  0.51100000000E-03 0.  1.
</event>
<event>
 8    1  0.1094134E+005  0.1043930E+01  0.7957747E-01            NaN
         13   -1    0    0    0    0  0.00000000000E+00  0.00000000000E+00  0.74505805969E-08  0.10566000000E+00  0.10566000000E+00 0.  1.
     999900   -1    0    0    0    0 -0.00000000000E+00 -0.00000000000E+00 -0.74505805969E-08  0.93827000000E+00  0.93827000000E+00 0. -1.
     999902    2    1    2    0    0 -0.12276678340E-01  0.17030067054E-01 -0.69878393146E-02  0.10218037732E+01  0.10215641835E+01 0.  0.
     999903    2    3    3    0    0 -0.55794821857E-01 -0.45625500208E-01 -0.10945748413E+00  0.13257962988E+00  0.20041681832E-01 0.  0.
         14    1    1    2    0    0  0.12276678340E-01 -0.17030067054E-01  0.69878393146E-02  0.22126226818E-01  0.00000000000E+00 0. -1.
     999901    1    3    3    0    0  0.43518143516E-01  0.62655567261E-01  0.10246964482E+00  0.88922414330E+00  0.88000000000E+00 0. -1.
        -11    1    4    4    0    0 -0.85500568811E-02  0.75649181351E-03 -0.12864503739E-01  0.15473601067E-01  0.51100000000E-03 0.  1.
         11    1    4    4    0    0 -0.47244764976E-01 -0.46381992021E-01 -0.96592980395E-01  0.11710602881E+00  0.51100000000E-03 0. -1.
</event>
<event>
 8    1  0.1094134E+005  0.1043930E+01  0.7957747E-01            NaN
         13   -1    0    0    0    0  0.00000000000E+00  0.00000000000E+00  0.74505805969E-08  0.10566000000E+00  0.10566000000E+00 0. -1.
     999900   -1    0    0    0    0 -0.00000000000E+00 -0.00000000000E+00 -0.74505805969E-08  0.93827000000E+00  0.93827000000E+00 0. -1.
     999902    2    1    2    0    0  0.21624807152E-02  0.16261962565E-01  0.17700676965E-01  0.10197961707E+01  0.10195105630E+01 0.  0.
     999903    2    3    3    0    0 -0.11393607592E+00 -0.34243590292E-01  0.49057927694E-01  0.13018223038E+00  0.19664179754E-01 0.  0.
         14    1    1    2    0    0 -0.21624807152E-02 -0.16261962565E-01 -0.17700676965E-01  0.24133829251E-01  0.00000000000E+00 0. -1.
     999901    1    3    3    0    0  0.11609855664E+00  0.50505552857E-01 -0.31357250729E-01  0.88961394037E+00  0.88000000000E+00 0. -1.
        -11    1    4    4    0    0 -0.94646976827E-01 -0.35373143866E-01  0.38273263723E-01  0.10804819927E+00  0.51100000000E-03 0. -1.
         11    1    4    4    0    0 -0.19289099093E-01  0.11295535733E-02  0.10784663971E-01  0.22134031107E-01  0.51100000000E-03 0.  1.
</event>
<event>
 8    1  0.1094134E+005  0.1043930E+01  0.7957747E-01            NaN
         13   -1    0    0    0    0  0.00000000000E+00  0.00000000000E+00  0.74505805969E-08  0.10566000000E+00  0.10566000000E+00 0. -1.
     999900   -1    0    0    0    0 -0.00000000000E+00 -0.00000000000E+00 -0.74505805969E-08  0.93827000000E+00  0.93827000000E+00 0. -1.
     999902    2    1    2    0    0 -0.22888848601E-01 -0.66402175363E-02  0.24101780833E-02  0.10199758597E+01  0.10196945393E+01 0.  0.
     999903    2    3    3    0    0 -0.10927035455E+00  0.64836169725E-01  0.31474096148E-01  0.13238623051E+00  0.19792827332E-01 0.  0.
         14    1    1    2    0    0  0.22888848601E-01  0.66402175363E-02 -0.24101780833E-02  0.23954140302E-01  0.00000000000E+00 0. -1.
     999901    1    3    3    0    0  0.86381505944E-01 -0.71476387261E-01 -0.29063918065E-01  0.88758962919E+00  0.88000000000E+00 0.  1.
        -11    1    4    4    0    0 -0.53578780216E-01  0.36062759805E-01  0.25411901876E-01  0.69406298072E-01  0.51100000000E-03 0.  1.
         11    1    4    4    0    0 -0.55691574329E-01  0.28773409920E-01  0.60621942728E-02  0.62979932440E-01  0.51100000000E-03 0. -1.
</event>
<event>
 8    1  0.1094134E+005  0.1043930E+01  0.7957747E-01            NaN
         13   -1    0    0    0    0  0.00000000000E+00  0.00000000000E+00  0.74505805969E-08  0.10566000000E+00  0.10566000000E+00 0.  1.
     999900   -1    0    0    0    0 -0.00000000000E+00 -0.00000000000E+00 -0.74505805969E-08  0.93827000000E+00  0.93827000000E+00 0. -1.
     999902    2    1    2    0    0 -0.22093382325E-01 -0.78472334816E-02 -0.87076177219E-03  0.10204682259E+01  0.10201984833E+01 0.  0.
     999903    2    3    3    0    0  0.38407178254E-01 -0.12246779353E+00 -0.12348301397E-01  0.13090095781E+00  0.22563430889E-01 0.  0.
         14    1    1    2    0    0  0.22093382325E-01  0.78472334816E-02  0.87076177219E-03  0.23461774058E-01  0.00000000000E+00 0. -1.
     999901    1    3    3    0    0 -0.60500560579E-01  0.11462056005E+00  0.11477539625E-01  0.88956726813E+00  0.88000000000E+00 0. -1.
        -11    1    4    4    0    0  0.29240058175E-01 -0.86658956668E-01 -0.18806330369E-01  0.93373952234E-01  0.51100000000E-03 0.  1.
         11    1    4    4    0    0  0.91671200790E-02 -0.35808836866E-01  0.64580289718E-02  0.37527005575E-01  0.51100000000E-03 0. -1.
</event>
<event>
 8    1  0.1094134E+005  0.1043930E+01  0.7957747E-01            NaN
         13   -1    0    0    0    0  0.00000000000E+00  0.00000000000E+00  0.74505805969E-08  0.10566000000E+00  0.10566000000E+00 0.  1.
     999900   -1    0    0    0    0 -0.00000000000E+00 -0.00000000000E+00 -0.74505805969E-08  0.93827000000E+00  0.93827000000E+00 0.  1.
     999902    2    1    2    0    0  0.67387434696E-02  0.12156535933E-02  0.22346172900E-01  0.10205582238E+01  0.10202905705E+01 0.  0.
     999903    2    3    3    0    0 -0.10380666424E+00 -0.58714869269E-01 -0.45119973672E-01  0.12906305523E+00  0.19954969015E-01 0.  0.
         14    1    1    2    0    0 -0.67387434696E-02 -0.12156535933E-02 -0.22346172900E-01  0.23371776152E-01  0.00000000000E+00 0. -1.
     999901    1    3    3    0    0  0.11054540770E+00  0.59930522862E-01  0.67466146572E-01  0.89149516862E+00  0.88000000000E+00 0.  1.
        -11    1    4    4    0    0 -0.14629317976E-01 -0.10407402089E-01  0.23300740395E-03  0.17962359982E-01  0.51100000000E-03 0. -1.
         11    1    4    4    0    0 -0.89177346259E-01 -0.48307467180E-01 -0.45352981076E-01  0.11110069525E+00  0.51100000000E-03 0.  1.
</event>
<event>
 8    1  0.1094134E+005  0.1043930E+01  0.7957747E-01            NaN
         13   -1    0    0    0    0  0.00000000000E+00  0.00000000000E+00  0.74505805969E-08  0.10566000000E+00  0.10566000000E+00 0. -1.
     999900   -1    0    0    0    0 -0.00000000000E+00 -0.00000000000E+00 -0.74505805969E-08  0.93827000000E+00  0.93827000000E+00 0. -1.
     999902    2    1    2    0    0  0.33452750725E-01  0.84463747956E-03  0.82589113918E-02  0.10094624854E+01  0.10088738771E+01 0.  0.
     999903    2    3    3    0    0  0.10651617075E+00  0.41430959632E-01 -0.43601899562E-01  0.12398235770E+00  0.20205947796E-01 0.  0.
         14    1    1    2    0    0 -0.33452750725E-01 -0.84463747956E-03 -0.82589113918E-02  0.34467514574E-01  0.00000000000E+00 0. -1.
     999901    1    3    3    0    0 -0.73063420029E-01 -0.40586322152E-01  0.51860810954E-01  0.88548012773E+00  0.88000000000E+00 0.  1.
        -11    1    4    4    0    0  0.21559836316E-01  0.97279608670E-02 -0.18088828815E-01  0.29781313159E-01  0.51100000000E-03 0.  1.
         11    1    4    4    0    0  0.84956334438E-01  0.31702998765E-01 -0.25513070747E-01  0.94201044537E-01  0.51100000000E-03 0. -1.
</event>
<event>
 8    1  0.1094134E+005  0.1043930E+01  0.7957747E-01            NaN
         13   -1    0    0    0    0  0.00000000000E+00  0.00000000000E+00  0.74505805969E-08  0.10566000000E+00  0.10566000000E+00 0.  1.
     999900   -1    0    0    0    0 -0.00000000000E+00 -0.00000000000E+00 -0.74505805969E-08  0.93827000000E+00  0.93827000000E+00 0.  1.
     999902    2    1    2    0    0 -0.20331576193E-01  0.12869798905E-01  0.10188685280E-02  0.10198459221E+01  0.10195615048E+01 0.  0.
     999903    2    3    3    0    0 -0.12623399792E+00 -0.24159230480E-01 -0.24427848787E-01  0.13235845327E+00  0.20083568081E-01 0.  0.
         14    1    1    2    0    0  0.20331576193E-01 -0.12869798905E-01 -0.10188685280E-02  0.24084077882E-01  0.00000000000E+00 0.  1.
     999901    1    3    3    0    0  0.10590242173E+00  0.37029029385E-01  0.25446717315E-01  0.88748746885E+00  0.88000000000E+00 0. -1.
        -11    1    4    4    0    0 -0.16448975857E-01 -0.27220470542E-02 -0.10314760468E-01  0.19612081772E-01  0.51100000000E-03 0. -1.
         11    1    4    4    0    0 -0.10978502206E+00 -0.21437183426E-01 -0.14113088318E-01  0.11274637150E+00  0.51100000000E-03 0.  1.
</event>
<event>
 8    1  0.1094134E+005  0.1043930E+01  0.7957747E-01            NaN
         13   -1    0    0    0    0  0.00000000000E+00  0.00000000000E+00  0.74505805969E-08  0.10566000000E+00  0.10566000000E+00 0. -1.
     999900   -1    0    0    0    0 -0.00000000000E+00 -0.00000000000E+00 -0.74505805969E-08  0.93827000000E+00  0.93827000000E+00 0. -1.
     999902    2    1    2    0    0 -0.20017352874E-01  0.73686365527E-02 -0.80313707687E-02  0.10211375860E+01  0.10208831840E+01 0.  0.
     999903    2    3    3    0    0 -0.76761528859E-01  0.20599761937E-01 -0.10588058105E+00  0.13379918821E+00  0.19360857906E-01 0.  0.
         14    1    1    2    0    0  0.20017352874E-01 -0.73686365527E-02  0.80313707687E-02  0.22792414026E-01  0.00000000000E+00 0. -1.
     999901    1    3    3    0    0  0.56744175985E-01 -0.13231125384E-01  0.97849210280E-01  0.88733839776E+00  0.88000000000E+00 0.  1.
        -11    1    4    4    0    0 -0.53516325023E-01  0.20528366049E-01 -0.64150313805E-01  0.86028685558E-01  0.51100000000E-03 0. -1.
         11    1    4    4    0    0 -0.23245203836E-01  0.71395888287E-04 -0.41730267244E-01  0.47770502656E-01  0.51100000000E-03 0.  1.
</event>
<event>
 8    1  0.1094134E+005  0.1043930E+01  0.7957747E-01            NaN
         13   -1    0    0    0    0  0.00000000000E+00  0.00000000000E+00  0.74505805969E-08  0.10566000000E+00  0.10566000000E+00 0.  1.
     999900   -1    0    0    0    0 -0.00000000000E+00 -0.00000000000E+00 -0.74505805969E-08  0.93827000000E+00  0.93827000000E+00 0. -1.
     999902    2    1    2    0    0 -0.23420241115E-02  0.20985405277E-01 -0.10450250607E-01  0.10203698631E+01  0.10200978274E+01 0.  0.
     999903    2    3    3    0    0 -0.91552247334E-01  0.94338809500E-01  0.36308424174E-03  0.13275727081E+00  0.18513134587E-01 0.  0.
         14    1    1    2    0    0  0.23420241115E-02 -0.20985405277E-01  0.10450250607E-01  0.23560136870E-01  0.00000000000E+00 0. -1.
     999901    1    3    3    0    0  0.89210223223E-01 -0.73353404223E-01 -0.10813334849E-01  0.88761259232E+00  0.88000000000E+00 0.  1.
        -11    1    4    4    0    0 -0.81428060489E-02  0.10032806118E-01 -0.54186623143E-02  0.14020895521E-01  0.51100000000E-03 0.  1.
         11    1    4    4    0    0 -0.83409441285E-01  0.84306003382E-01  0.57817465561E-02  0.11873637529E+00  0.51100000000E-03 0. -1.
</event>
<event>
 8    1  0.1094134E+005  0.1043930E+01  0.7957747E-01            NaN
         13   -1    0    0    0    0  0.00000000000E+00  0.00000000000E+00  0.74505805969E-08  0.10566000000E+00  0.10566000000E+00 0. -1.
     999900   -1    0    0    0    0 -0.00000000000E+00 -0.00000000000E+00 -0.74505805969E-08  0.93827000000E+00  0.93827000000E+00 0. -1.
     999902    2    1    2    0    0 -0.88754255966E-02 -0.17992529179E-01 -0.76361354428E-03  0.10238529636E+01  0.10236560964E+01 0.  0.
     999903    2    3    3    0    0 -0.83130297003E-01  0.94626208929E-01  0.36237041036E-01  0.13280536971E+00  0.21433090887E-01 0.  0.
         14    1    1    2    0    0  0.88754255966E-02  0.17992529179E-01  0.76361354428E-03  0.20077036420E-01  0.00000000000E+00 0. -1.
     999901    1    3    3    0    0  0.74254871406E-01 -0.11261873811E+00 -0.37000654580E-01  0.89104759387E+00  0.88000000000E+00 0. -1.
        -11    1    4    4    0    0 -0.73380798475E-01  0.86947654714E-01  0.38632847820E-01  0.12015570855E+00  0.51100000000E-03 0.  1.
         11    1    4    4    0    0 -0.97494985280E-02  0.76785542143E-02 -0.23958067842E-02  0.12649661162E-01  0.51100000000E-03 0. -1.
</event>
<event>
 8    1  0.1094134E+005  0.1043930E+01  0.7957747E-01            NaN
         13   -1    0    0    0    0  0.00000000000E+00  0.00000000000E+00  0.74505805969E-08  0.10566000000E+00  0.10566000000E+00 0.  1.
     999900   -1    0    0    0    0 -0.00000000000E+00 -0.00000000000E+00 -0.74505805969E-08  0.93827000000E+00  0.93827000000E+00 0.  1.
     999902    2    1    2    0    0  0.35913541523E-01  0.42942310329E-03 -0.43659341177E-02  0.10077495046E+01  0.10070998142E+01 0.  0.
     999903    2    3    3    0    0  0.75658214064E-02 -0.46559974833E-01 -0.10900290602E+00  0.11985283680E+00  0.16062255665E-01 0.  0.
         14    1    1    2    0    0 -0.35913541523E-01 -0.42942310329E-03  0.43659341177E-02  0.36180495431E-01  0.00000000000E+00 0.  1.
     999901    1    3    3    0    0  0.28347720117E-01  0.46989397936E-01  0.10463697190E+00  0.88789666777E+00  0.88000000000E+00 0. -1.
        -11    1    4    4    0    0  0.65570097194E-02 -0.19454166282E-01 -0.64922410519E-01  0.68092873862E-01  0.51100000000E-03 0. -1.
         11    1    4    4    0    0  0.10088116870E-02 -0.27105808551E-01 -0.44080495501E-01  0.51759962933E-01  0.51100000000E-03 0.  1.
</event>
<event>
 8    1  0.1094134E+005  0.1043930E+01  0.7957747E-01            NaN
         13   -1    0    0    0    0  0.00000000000E+00  0.00000000000E+00  0.74505805969E-08  0.10566000000E+00  0.10566000000E+00 0.  1.
     999900   -1    0    0    0    0 -0.00000000000E+00 -0.00000000000E+00 -0.74505805969E-08  0.93827000000E+00  0.93827000000E+00 0. -1.
     999902    2    1    2    0    0 -0.93118555866E-02 -0.11194150385E-02  0.21735243011E-01  0.10202575575E+01  0.10199828916E+01 0.  0.
     999903    2    3    3    0    0 -0.12626583245E-01  0.32359377887E-01 -0.12166143929E+00  0.12801632024E+00  0.19496473930E-01 0.  0.
         14    1    1    2    0    0  0.93118555866E-02  0.11194150385E-02 -0.21735243011E-01  0.23672442485E-01  0.00000000000E+00 0. -1.
     999901    1    3    3    0    0  0.33147276588E-02 -0.33478792925E-01  0.14339668230E+00  0.89224123727E+00  0.88000000000E+00 0.  1.
        -11    1    4    4    0    0 -0.15731873426E-01  0.16903672512E-01 -0.85495856912E-01  0.88560875425E-01  0.51100000000E-03 0. -1.
         11    1    4    4    0    0  0.31052901808E-02  0.15455705375E-01 -0.36165582380E-01  0.39455444816E-01  0.51100000000E-03 0.  1.
</event>
<event>
 8    1  0.1094134E+005  0.1043930E+01  0.7957747E-01            NaN
         13   -1    0    0    0    0  0.00000000000E+00  0.00000000000E+00  0.74505805969E-08  0.10566000000E+00  0.10566000000E+00 0. -1.
     999900   -1    0    0    0    0 -0.00000000000E+00 -0.00000000000E+00 -0.74505805969E-08  0.93827000000E+00  0.93827000000E+00 0. -1.
     999902    2    1    2    0    0 -0.45617696672E-02  0.21168006745E-01  0.92748604777E-02  0.10203733175E+01  0.10201013625E+01 0.  0.
     999903    2    3    3    0    0 -0.11092047455E+00 -0.61237692049E-01  0.22139777489E-01  0.13005406053E+00  0.19247917048E-01 0.  0.
         14    1    1    2    0    0  0.45617696672E-02 -0.21168006745E-01 -0.92748604777E-02  0.23556682469E-01  0.00000000000E+00 0. -1.
     999901    1    3    3    0    0  0.10635870488E+00  0.82405698794E-01 -0.12864917011E-01  0.89031925700E+00  0.88000000000E+00 0.  1.
        -11    1    4    4    0    0 -0.21904459254E-01 -0.41600143344E-02  0.18329370969E-02  0.22377038095E-01  0.51100000000E-03 0.  1.
         11    1    4    4    0    0 -0.89016015297E-01 -0.57077677715E-01  0.20306840392E-01  0.10767702243E+00  0.51100000000E-03 0. -1.
</event>
<event>
 8    1  0.1094134E+005  0.1043930E+01  0.7957747E-01            NaN
         13   -1    0    0    0    0  0.00000000000E+00  0.00000000000E+00  0.74505805969E-08  0.10566000000E+00  0.10566000000E+00 0.  1.
     999900   -1    0    0    0    0 -0.00000000000E+00 -0.00000000000E+00 -0.74505805969E-08  0.93827000000E+00  0.93827000000E+00 0.  1.
     999902    2    1    2    0    0  0.92302583533E-02 -0.18331933769E-01 -0.11651561510E-01  0.10203288062E+01  0.10200558104E+01 0.  0.
     999903    2    3    3    0    0  0.86430511086E-01 -0.87945666328E-01 -0.46878291189E-01  0.13351040690E+00  0.20561641319E-01 0.  0.
         14    1    1    2    0    0 -0.92302583533E-02  0.18331933769E-01  0.11651561510E-01  0.23601193838E-01  0.00000000000E+00 0.  1.
     999901    1    3    3    0    0 -0.77200252732E-01  0.69613732559E-01  0.35226729679E-01  0.88681839926E+00  0.88000000000E+00 0. -1.
        -11    1    4    4    0    0  0.63722879435E-01 -0.53771921605E-01 -0.37467202103E-01  0.91411581712E-01  0.51100000000E-03 0.  1.
         11    1    4    4    0    0  0.22707631650E-01 -0.34173744723E-01 -0.94110890868E-02  0.42098825190E-01  0.51100000000E-03 0. -1.
</event>
<event>
 8    1  0.1094134E+005  0.1043930E+01  0.7957747E-01            NaN
         13   -1    0    0    0    0  0.00000000000E+00  0.00000000000E+00  0.74505805969E-08  0.10566000000E+00  0.10566000000E+00 0. -1.
     999900   -1    0    0    0    0 -0.00000000000E+00 -0.00000000000E+00 -0.74505805969E-08  0.93827000000E+00  0.93827000000E+00 0.  1.
     999902    2    1    2    0    0 -0.13109956051E-01  0.19259076251E-01  0.16617959434E-02  0.10205731053E+01  0.10203057966E+01 0.  0.
     999903    2    3    3    0    0 -0.13431939896E-01 -0.12225110638E+00  0.31940718874E-01  0.12875358954E+00  0.20773234610E-01 0.  0.
         14    1    1    2    0    0  0.13109956051E-01 -0.19259076251E-01 -0.16617959434E-02  0.23356894731E-01  0.00000000000E+00 0.  1.
     999901    1    3    3    0    0  0.32198384464E-03  0.14151018263E+00 -0.30278922931E-01  0.89181951573E+00  0.88000000000E+00 0. -1.
        -11    1    4    4    0    0 -0.15506160806E-01 -0.50576171417E-01  0.10776618374E-01  0.53988765153E-01  0.51100000000E-03 0. -1.
         11    1    4    4    0    0  0.20742209104E-02 -0.71674934964E-01  0.21164100500E-01  0.74764824386E-01  0.51100000000E-03 0.  1.
</event>
<event>
 8    1  0.1094134E+005  0.1043930E+01  0.7957747E-01            NaN
         13   -1    0    0    0    0  0.00000000000E+00  0.00000000000E+00  0.74505805969E-08  0.10566000000E+00  0.10566000000E+00 0. -1.
     999900   -1    0    0    0    0 -0.00000000000E+00 -0.00000000000E+00 -0.74505805969E-08  0.93827000000E+00  0.93827000000E+00 0. -1.
     999902    2    1    2    0    0  0.70419153339E-02  0.32147650335E-02  0.22254240215E-01  0.10203678589E+01  0.10200957764E+01 0.  0.
     999903    2    3    3    0    0 -0.63301403697E-01  0.11077070759E+00 -0.16750290784E-01  0.13017809444E+00  0.19711586936E-01 0.  0.
         14    1    1    2    0    0 -0.70419153339E-02 -0.32147650335E-02 -0.22254240215E-01  0.23562141102E-01  0.00000000000E+00 0.  1.
     999901    1    3    3    0    0  0.70343319031E-01 -0.10755594256E+00  0.39004530998E-01  0.89018976446E+00  0.88000000000E+00 0.  1.
        -11    1    4    4    0    0 -0.52446914003E-01  0.80392645136E-01 -0.18943427755E-01  0.97840537389E-01  0.51100000000E-03 0. -1.
         11    1    4    4    0    0 -0.10854489693E-01  0.30378062455E-01  0.21931369712E-02  0.32337557048E-01  0.51100000000E-03 0.  1.
</event>
<event>
 8    1  0.1094134E+005  0.1043930E+01  0.7957747E-01            NaN
         13   -1    0    0    0    0  0.00000000000E+00  0.00000000000E+00  0.74505805969E-08  0.10566000000E+00  0.10566000000E+00 0.  1.
     999900   -1    0    0    0    0 -0.00000000000E+00 -0.00000000000E+00 -0.74505805969E-08  0.93827000000E+00  0.93827000000E+00 0. -1.
     999902    2    1    2    0    0 -0.45613787517E-02  0.94759959375E-02 -0.21515887560E-01  0.10199814282E+01  0.10197002401E+01 0.  0.
     999903    2    3    3    0    0  0.37219422821E-01 -0.10214427990E+00  0.64144201850E-01  0.12782540355E+00  0.20152315247E-01 0.  0.
         14    1    1    2    0    0  0.45613787517E-02 -0.94759959375E-02  0.21515887560E-01  0.23948571828E-01  0.00000000000E+00 0.  1.
     999901    1    3    3    0    0 -0.41780801573E-01  0.11162027584E+00 -0.85660089409E-01  0.89215602463E+00  0.88000000000E+00 0.  1.
        -11    1    4    4    0    0  0.10140926795E-01 -0.14584390169E-01  0.40449761809E-02  0.18225415940E-01  0.51100000000E-03 0.  1.
         11    1    4    4    0    0  0.27078496026E-01 -0.87559889729E-01  0.60099225669E-01  0.10959998761E+00  0.51100000000E-03 0. -1.
</event>
<event>
 8    1  0.1094134E+005  0.1043930E+01  0.7957747E-01            NaN
         13   -1    0    0    0    0  0.00000000000E+00  0.00000000000E+00  0.74505805969E-08  0.10566000000E+00  0.10566000000E+00 0.  1.
     999900   -1    0    0    0    0 -0.00000000000E+00 -0.00000000000E+00 -0.74505805969E-08  0.93827000000E+00  0.93827000000E+00 0. -1.
     999902    2    1    2    0    0  0.19100471164E-02 -0.92226071006E-02 -0.22656287621E-01  0.10193940645E+01  0.10190987423E+01 0.  0.
     999903    2    3    3    0    0  0.24810199722E-01  0.12435238058E+00  0.62105729939E-02  0.12855177209E+00  0.20197186023E-01 0.  0.
         14    1    1    2    0    0 -0.19100471164E-02  0.92226071006E-02  0.22656287621E-01  0.24535935492E-01  0.00000000000E+00 0.  1.
     999901    1    3    3    0    0 -0.22900152606E-01 -0.13357498768E+00 -0.28866860615E-01  0.89084229242E+00  0.88000000000E+00 0.  1.
        -11    1    4    4    0    0  0.17701261697E-01  0.76349346315E-01 -0.56972293659E-02  0.78582930028E-01  0.51100000000E-03 0. -1.
         11    1    4    4    0    0  0.71089380250E-02  0.48003034266E-01  0.11907802360E-01  0.49968842059E-01  0.51100000000E-03 0.  1.
</event>
<event>
 8    1  0.1094134E+005  0.1043930E+01  0.7957747E-01            NaN
         13   -1    0    0    0    0  0.00000000000E+00  0.00000000000E+00  0.74505805969E-08  0.10566000000E+00  0.10566000000E+00 0.  1.
     999900   -1    0    0    0    0 -0.00000000000E+00 -0.00000000000E+00 -0.74505805969E-08  0.93827000000E+00  0.93827000000E+00 0. -1.
     999902    2    1    2    0    0  0.13694608449E-01 -0.45623413612E-02 -0.19041889800E-01  0.10200354227E+01  0.10197555161E+01 0.  0.
     999903    2    3    3    0    0 -0.37354607651E-01 -0.46287320716E-01  0.11139224775E+00  0.12798157865E+00  0.20812708733E-01 0.  0.
         14    1    1    2    0    0 -0.13694608449E-01  0.45623413612E-02  0.19041889800E-01  0.23894577343E-01  0.00000000000E+00 0.  1.
     999901    1    3    3    0    0  0.51049216099E-01  0.41724979355E-01 -0.13043413754E+00  0.89205384400E+00  0.88000000000E+00 0. -1.
        -11    1    4    4    0    0 -0.31409652679E-01 -0.30724203927E-01  0.63086911855E-01  0.76881483836E-01  0.51100000000E-03 0. -1.
         11    1    4    4    0    0 -0.59449549713E-02 -0.15563116789E-01  0.48305335890E-01  0.51100094816E-01  0.51100000000E-03 0.  1.
</event>
<event>
 8    1  0.1094134E+005  0.1043930E+01  0.7957747E-01            NaN
         13   -1    0    0    0    0  0.00000000000E+00  0.00000000000E+00  0.74505805969E-08  0.10566000000E+00  0.10566000000E+00 0.  1.
     999900   -1    0    0    0    0 -0.00000000000E+00 -0.00000000000E+00 -0.74505805969E-08  0.93827000000E+00  0.93827000000E+00 0.  1.
     999902    2    1    2    0    0  0.12441766442E-01  0.23913287034E-02 -0.20566245833E-01  0.10197745353E+01  0.10194884092E+01 0.  0.
     999903    2    3    3    0    0  0.71832298196E-01 -0.20522378056E-01 -0.10825074386E+00  0.13312869600E+00  0.20590752484E-01 0.  0.
         14    1    1    2    0    0 -0.12441766442E-01 -0.23913287034E-02  0.20566245833E-01  0.24155464658E-01  0.00000000000E+00 0.  1.
     999901    1    3    3    0    0 -0.59390531754E-01  0.22913706760E-01  0.87684498030E-01  0.88664583934E+00  0.88000000000E+00 0.  1.
        -11    1    4    4    0    0  0.14719797352E-01 -0.13432179563E-01 -0.28518824718E-01  0.34794832464E-01  0.51100000000E-03 0.  1.
         11    1    4    4    0    0  0.57112500844E-01 -0.70901984933E-02 -0.79731919145E-01  0.98333863541E-01  0.51100000000E-03 0. -1.
</event>
<event>
 8    1  0.1094134E+005  0.1043930E+01  0.7957747E-01            NaN
         13   -1    0    0    0    0  0.00000000000E+00  0.00000000000E+00  0.74505805969E-08  0.10566000000E+00  0.10566000000E+00 0.  1.
     999900   -1    0    0    0    0 -0.00000000000E+00 -0.00000000000E+00 -0.74505805969E-08  0.93827000000E+00  0.93827000000E+00 0.  1.
     999902    2    1    2    0    0  0.17101875181E-01  0.12189034088E-01  0.12883877900E-01  0.10192917980E+01  0.10189939787E+01 0.  0.
     999903    2    3    3    0    0 -0.74258108572E-01  0.92985320939E-01  0.48755539930E-01  0.13015656493E+00  0.20077154215E-01 0.  0.
         14    1    1    2    0    0 -0.17101875181E-01 -0.12189034088E-01 -0.12883877900E-01  0.24638201973E-01  0.00000000000E+00 0. -1.
     999901    1    3    3    0    0  0.91359983753E-01 -0.80796286850E-01 -0.35871662030E-01  0.88913523310E+00  0.88000000000E+00 0.  1.
        -11    1    4    4    0    0 -0.71018444152E-01  0.79309493258E-01  0.40893207233E-01  0.11404442402E+00  0.51100000000E-03 0.  1.
         11    1    4    4    0    0 -0.32396644199E-02  0.13675827681E-01  0.78623326975E-02  0.16112140911E-01  0.51100000000E-03 0. -1.
</event>
<event>
 8    1  0.1094134E+005  0.1043930E+01  0.7957747E-01            NaN
         13   -1    0    0    0    0  0.00000000000E+00  0.00000000000E+00  0.74505805969E-08  0.10566000000E+00  0.10566000000E+00 0.  1.
     999900   -1    0    0    0    0 -0.00000000000E+00 -0.00000000000E+00 -0.74505805969E-08  0.93827000000E+00  0.93827000000E+00 0.  1.
     999902    2    1    2    0    0 -0.18939465524E-01 -0.19332725291E-01 -0.92944735122E-02  0.10153145346E+01  0.10149112076E+01 0.  0.
     999903    2    3    3    0    0 -0.60642850208E-02  0.63367713733E-01 -0.10698615709E+00  0.12596151251E+00  0.19183902813E-01 0.  0.
         14    1    1    2    0    0  0.18939465524E-01  0.19332725291E-01  0.92944735122E-02  0.28615465388E-01  0.00000000000E+00 0.  1.
     999901    1    3    3    0    0 -0.12875180503E-01 -0.82700439024E-01  0.97691683579E-01  0.88935302211E+00  0.88000000000E+00 0. -1.
        -11    1    4    4    0    0 -0.64070387059E-02  0.30583002091E-01 -0.69213076135E-01  0.75941300957E-01  0.51100000000E-03 0.  1.
         11    1    4    4    0    0  0.34275368503E-03  0.32784711643E-01 -0.37773080956E-01  0.50020211550E-01  0.51100000000E-03 0. -1.
</event>
<event>
 8    1  0.1094134E+005  0.1043930E+01  0.7957747E-01            NaN
         13   -1    0    0    0    0  0.00000000000E+00  0.00000000000E+00  0.74505805969E-08  0.10566000000E+00  0.10566000000E+00 0.  1.
     999900   -1    0    0    0    0 -0.00000000000E+00 -0.00000000000E+00 -0.74505805969E-08  0.93827000000E+00  0.93827000000E+00 0.  1.
     999902    2    1    2    0    0 -0.18356019744E-02  0.22754040354E-01  0.48119827869E-02  0.10206003844E+01  0.10203337070E+01 0.  0.
     999903    2    3    3    0    0 -0.27356312148E-01 -0.11953698148E+00  0.31627777306E-01  0.12840246441E+00  0.21199500335E-01 0.  0.
         14    1    1    2    0    0  0.18356019744E-02 -0.22754040354E-01 -0.48119827869E-02  0.23329615628E-01  0.00000000000E+00 0. -1.
     999901    1    3    3    0    0  0.25520710174E-01  0.14229102183E+00 -0.26815794519E-01  0.89219791996E+00  0.88000000000E+00 0. -1.
        -11    1    4    4    0    0 -0.86149535435E-02 -0.71008787032E-01  0.25849409307E-01  0.76058650677E-01  0.51100000000E-03 0. -1.
         11    1    4    4    0    0 -0.18741358605E-01 -0.48528194448E-01  0.57783679989E-02  0.52343813736E-01  0.51100000000E-03 0.  1.
</event>
<event>
 8    1  0.1094134E+005  0.1043930E+01  0.7957747E-01            NaN
         13   -1    0    0    0    0  0.00000000000E+00  0.00000000000E+00  0.74505805969E-08  0.10566000000E+00  0.10566000000E+00 0. -1.
     999900   -1    0    0    0    0 -0.00000000000E+00 -0.00000000000E+00 -0.74505805969E-08  0.93827000000E+00  0.93827000000E+00 0.  1.
     999902    2    1    2    0    0 -0.12963002896E-01  0.16966705993E-01 -0.72856992385E-02  0.10213691939E+01  0.10211199931E+01 0.  0.
     999903    2    3    3    0    0 -0.10077245153E+00 -0.64854351674E-01  0.49855104291E-01  0.13138590412E+00  0.20385054782E-01 0.  0.
         14    1    1    2    0    0  0.12963002896E-01 -0.16966705993E-01  0.72856992385E-02  0.22560806052E-01  0.00000000000E+00 0. -1.
     999901    1    3    3    0    0  0.87809448636E-01  0.81821057667E-01 -0.57140803529E-01  0.88998328983E+00  0.88000000000E+00 0.  1.
        -11    1    4    4    0    0 -0.53681250886E-01 -0.22495621815E-01  0.24794109802E-01  0.63267200818E-01  0.51100000000E-03 0. -1.
         11    1    4    4    0    0 -0.47091200646E-01 -0.42358729859E-01  0.25060994489E-01  0.68118703300E-01  0.51100000000E-03 0.  1.
</event>
<event>
 8    1  0.1094134E+005  0.1043930E+01  0.7957747E-01            NaN
         13   -1    0    0    0    0  0.00000000000E+00  0.00000000000E+00  0.74505805969E-08  0.10566000000E+00  0.10566000000E+00 0.  1.
     999900   -1    0    0    0    0 -0.00000000000E+00 -0.00000000000E+00 -0.74505805969E-08  0.93827000000E+00  0.93827000000E+00 0. -1.
     999902    2    1    2    0    0 -0.26061025710E-02 -0.25868857623E-02  0.23341147888E-01  0.10203017768E+01  0.10200281480E+01 0.  0.
     999903    2    3    3    0    0 -0.35452300614E-01 -0.12322978332E+00 -0.14307699565E-01  0.13066644857E+00  0.20653459738E-01 0.  0.
         14    1    1    2    0    0  0.26061025710E-02  0.25868857623E-02 -0.23341147888E-01  0.23628223236E-01  0.00000000000E+00 0. -1.
     999901    1    3    3    0    0  0.32846198043E-01  0.12064289756E+00  0.37648847454E-01  0.88963532819E+00  0.88000000000E+00 0. -1.
        -11    1    4    4    0    0 -0.41795375261E-02 -0.49879051692E-01 -0.78017159856E-02  0.50660795739E-01  0.51100000000E-03 0. -1.
         11    1    4    4    0    0 -0.31272763088E-01 -0.73350731628E-01 -0.65059835798E-02  0.80005652830E-01  0.51100000000E-03 0.  1.
</event>
<event>
 8    1  0.1094134E+005  0.1043930E+01  0.7957747E-01            NaN
         13   -1    0    0    0    0  0.00000000000E+00  0.00000000000E+00  0.74505805969E-08  0.10566000000E+00  0.10566000000E+00 0.  1.
     999900   -1    0    0    0    0 -0.00000000000E+00 -0.00000000000E+00 -0.74505805969E-08  0.93827000000E+00  0.93827000000E+00 0.  1.
     999902    2    1    2    0    0  0.58542693706E-02 -0.20126496356E-01 -0.11097607344E-01  0.10202128076E+01  0.10199370900E+01 0.  0.
     999903    2    3    3    0    0  0.74077558094E-01 -0.85292526680E-01  0.65097049840E-01  0.13189605420E+00  0.19915910592E-01 0.  0.
         14    1    1    2    0    0 -0.58542693706E-02  0.20126496356E-01  0.11097607344E-01  0.23717192376E-01  0.00000000000E+00 0.  1.
     999901    1    3    3    0    0 -0.68223288724E-01  0.65166030325E-01 -0.76194657184E-01  0.88831675343E+00  0.88000000000E+00 0.  1.
        -11    1    4    4    0    0  0.12401258250E-01 -0.15832506333E-01  0.20956933909E-01  0.29050192131E-01  0.51100000000E-03 0. -1.
         11    1    4    4    0    0  0.61676299845E-01 -0.69460020348E-01  0.44140115930E-01  0.10284586207E+00  0.51100000000E-03 0.  1.
</event>
<event>
 8    1  0.1094134E+005  0.1043930E+01  0.7957747E-01            NaN
         13   -1    0    0    0    0  0.00000000000E+00  0.00000000000E+00  0.74505805969E-08  0.10566000000E+00  0.10566000000E+00 0. -1.
     999900   -1    0    0    0    0 -0.00000000000E+00 -0.00000000000E+00 -0.74505805969E-08  0.93827000000E+00  0.93827000000E+00 0. -1.
     999902    2    1    2    0    0  0.24362095918E-02 -0.43079543786E-02 -0.23744833874E-01  0.10196748825E+01  0.10193863621E+01 0.  0.
     999903    2    3    3    0    0 -0.23944558116E-01  0.11403936488E+00 -0.55997214086E-01  0.13077542313E+00  0.19702911021E-01 0.  0.
         14    1    1    2    0    0 -0.24362095918E-02  0.43079543786E-02  0.23744833874E-01  0.24255117477E-01  0.00000000000E+00 0. -1.
     999901    1    3    3    0    0  0.26380767708E-01 -0.11834731926E+00  0.32252380212E-01  0.88889945939E+00  0.88000000000E+00 0.  1.
        -11    1    4    4    0    0 -0.24963780406E-01  0.77923756499E-01 -0.42481760164E-01  0.92196872109E-01  0.51100000000E-03 0. -1.
         11    1    4    4    0    0  0.10192222897E-02  0.36115608385E-01 -0.13515453923E-01  0.38578551020E-01  0.51100000000E-03 0.  1.
</event>
<event>
 8    1  0.1094134E+005  0.1043930E+01  0.7957747E-01            NaN
         13   -1    0    0    0    0  0.00000000000E+00  0.00000000000E+00  0.74505805969E-08  0.10566000000E+00  0.10566000000E+00 0.  1.
     999900   -1    0    0    0    0 -0.00000000000E+00 -0.00000000000E+00 -0.74505805969E-08  0.93827000000E+00  0.93827000000E+00 0. -1.
     999902    2    1    2    0    0  0.12524558244E-01  0.24097444457E-02  0.19214664665E-01  0.10208675898E+01  0.10206070552E+01 0.  0.
     999903    2    3    3    0    0 -0.27717785770E-01  0.12470063047E-01 -0.12294052962E+00  0.12849504675E+00  0.21744541774E-01 0.  0.
         14    1    1    2    0    0 -0.12524558244E-01 -0.24097444457E-02 -0.19214664665E-01  0.23062410232E-01  0.00000000000E+00 0. -1.
     999901    1    3    3    0    0  0.40242344014E-01 -0.10060318601E-01  0.14215519428E+00  0.89237254301E+00  0.88000000000E+00 0.  1.
        -11    1    4    4    0    0 -0.11292366621E-01 -0.26684850173E-02 -0.71129428780E-01  0.72071458399E-01  0.51100000000E-03 0.  1.
         11    1    4    4    0    0 -0.16425419149E-01  0.15138548064E-01 -0.51811100839E-01  0.56423588355E-01  0.51100000000E-03 0. -1.
</event>
<event>
 8    1  0.1094134E+005  0.1043930E+01  0.7957747E-01            NaN
         13   -1    0    0    0    0  0.00000000000E+00  0.00000000000E+00  0.74505805969E-08  0.10566000000E+00  0.10566000000E+00 0. -1.
     999900   -1    0    0    0    0 -0.00000000000E+00 -0.00000000000E+00 -0.74505805969E-08  0.93827000000E+00  0.93827000000E+00 0. -1.
     999902    2    1    2    0    0  0.17984882409E-01 -0.34826205267E-02  0.14811749741E-01  0.10203721442E+01  0.10201001618E+01 0.  0.
     999903    2    3    3    0    0 -0.99688401885E-01  0.58030646899E-01 -0.52501934498E-01  0.12786891393E+00  0.16990367056E-01 0.  0.
         14    1    1    2    0    0 -0.17984882409E-01  0.34826205267E-02 -0.14811749741E-01  0.23557855832E-01  0.00000000000E+00 0.  1.
     999901    1    3    3    0    0  0.11767328429E+00 -0.61513267426E-01  0.67313684239E-01  0.89250323024E+00  0.88000000000E+00 0. -1.
        -11    1    4    4    0    0 -0.82580172862E-01  0.43111728067E-01 -0.36320920635E-01  0.99987881484E-01  0.51100000000E-03 0.  1.
         11    1    4    4    0    0 -0.17108229023E-01  0.14918918832E-01 -0.16181013863E-01  0.27881032443E-01  0.51100000000E-03 0. -1.
</event>
<event>
 8    1  0.1094134E+005  0.1043930E+01  0.7957747E-01            NaN
         13   -1    0    0    0    0  0.00000000000E+00  0.00000000000E+00  0.74505805969E-08  0.10566000000E+00  0.10566000000E+00 0.  1.
     999900   -1    0    0    0    0 -0.00000000000E+00 -0.00000000000E+00 -0.74505805969E-08  0.93827000000E+00  0.93827000000E+00 0.  1.
     999902    2    1    2    0    0 -0.19371406093E-01 -0.11196115671E-01  0.86416988127E-02  0.10199449351E+01  0.10196628792E+01 0.  0.
     999903    2    3    3    0    0 -0.11816546163E+00  0.55105990235E-01 -0.47373249213E-02  0.13183726542E+00  0.18944018202E-01 0.  0.
         14    1    1    2    0    0  0.19371406093E-01  0.11196115671E-01 -0.86416988127E-02  0.23985064905E-01  0.00000000000E+00 0. -1.
     999901    1    3    3    0    0  0.98794055532E-01 -0.66302105905E-01  0.13379023734E-01  0.88810766967E+00  0.88000000000E+00 0. -1.
        -11    1    4    4    0    0 -0.96683493732E-01  0.37432172724E-01 -0.70582729050E-02  0.10391797656E+00  0.51100000000E-03 0.  1.
         11    1    4    4    0    0 -0.21481967894E-01  0.17673817511E-01  0.23209479838E-02  0.27919288862E-01  0.51100000000E-03 0. -1.
</event>
<event>
 8    1  0.1094134E+005  0.1043930E+01  0.7957747E-01            NaN
         13   -1    0    0    0    0  0.00000000000E+00  0.00000000000E+00  0.74505805969E-08  0.10566000000E+00  0.10566000000E+00 0. -1.
     999900   -1    0    0    0    0 -0.00000000000E+00 -0.00000000000E+00 -0.74505805969E-08  0.93827000000E+00  0.93827000000E+00 0.  1.
     999902    2    1    2    0    0  0.23631154030E-01  0.27696352882E-02  0.17500822281E-02  0.10200728185E+01  0.10197937978E+01 0.  0.
     999903    2    3    3    0    0  0.61400321353E-01 -0.81131719887E-01  0.81282600972E-01  0.13170838376E+00  0.19694712455E-01 0.  0.
         14    1    1    2    0    0 -0.23631154030E-01 -0.27696352882E-02 -0.17500822281E-02  0.23857181481E-01  0.00000000000E+00 0.  1.
     999901    1    3    3    0    0 -0.37769167323E-01  0.83901355175E-01 -0.79532518744E-01  0.88836443476E+00  0.88000000000E+00 0.  1.
        -11    1    4    4    0    0  0.31121723818E-01 -0.30059361256E-01  0.43350250902E-01  0.61250569522E-01  0.51100000000E-03 0. -1.
         11    1    4    4    0    0  0.30278597535E-01 -0.51072358631E-01  0.37932350071E-01  0.70457814241E-01  0.51100000000E-03 0.  1.
</event>
<event>
 8    1  0.1094134E+005  0.1043930E+01  0.7957747E-01            NaN
         13   -1    0    0    0    0  0.00000000000E+00  0.00000000000E+00  0.74505805969E-08  0.10566000000E+00  0.10566000000E+00 0. -1.
     999900   -1    0    0    0    0 -0.00000000000E+00 -0.00000000000E+00 -0.74505805969E-08  0.93827000000E+00  0.93827000000E+00 0. -1.
     999902    2    1    2    0    0 -0.13836017390E-02 -0.84699499409E-02  0.22813019690E-01  0.10195560739E+01  0.10192646857E+01 0.  0.
     999903    2    3    3    0    0 -0.53655116585E-01 -0.61958813293E-01  0.10264195475E+00  0.13278325709E+00  0.19448815128E-01 0.  0.
         14    1    1    2    0    0  0.13836017390E-02  0.84699499409E-02 -0.22813019690E-01  0.24373926093E-01  0.00000000000E+00 0.  1.
     999901    1    3    3    0    0  0.52271514846E-01  0.53488863352E-01 -0.79828935056E-01  0.88677281681E+00  0.88000000000E+00 0.  1.
        -11    1    4    4    0    0 -0.40411951695E-01 -0.44819050899E-01  0.87723252060E-01  0.10647771239E+00  0.51100000000E-03 0. -1.
         11    1    4    4    0    0 -0.13243164890E-01 -0.17139762394E-01  0.14918702687E-01  0.26305544702E-01  0.51100000000E-03 0.  1.
</event>
<event>
 8    1  0.1094134E+005  0.1043930E+01  0.7957747E-01            NaN
         13   -1    0    0    0    0  0.00000000000E+00  0.00000000000E+00  0.74505805969E-08  0.10566000000E+00  0.10566000000E+00 0. -1.
     999900   -1    0    0    0    0 -0.00000000000E+00 -0.00000000000E+00 -0.74505805969E-08  0.93827000000E+00  0.93827000000E+00 0.  1.
     999902    2    1    2    0    0 -0.23115138734E-02 -0.20928956310E-01  0.95893245083E-02  0.10207930284E+01  0.10205307871E+01 0.  0.
     999903    2    3    3    0    0  0.10696712771E+00  0.27120702072E-01  0.67226561523E-01  0.13086458060E+00  0.20703356972E-01 0.  0.
         14    1    1    2    0    0  0.23115138734E-02  0.20928956310E-01 -0.95893245083E-02  0.23136971564E-01  0.00000000000E+00 0. -1.
     999901    1    3    3    0    0 -0.10927864158E+00 -0.48049658382E-01 -0.57637237015E-01  0.88992844784E+00  0.88000000000E+00 0. -1.
        -11    1    4    4    0    0  0.85357712265E-01  0.12946302874E-01  0.49461745777E-01  0.99500106621E-01  0.51100000000E-03 0.  1.
         11    1    4    4    0    0  0.21609415445E-01  0.14174399198E-01  0.17764815746E-01  0.31364473979E-01  0.51100000000E-03 0. -1.
</event>
<event>
 8    1  0.1094134E+005  0.1043930E+01  0.7957747E-01            NaN
         13   -1    0    0    0    0  0.00000000000E+00  0.00000000000E+00  0.74505805969E-08  0.10566000000E+00  0.10566000000E+00 0.  1.
     999900   -1    0    0    0    0 -0.00000000000E+00 -0.00000000000E+00 -0.74505805969E-08  0.93827000000E+00  0.93827000000E+00 0. -1.
     999902    2    1    2    0    0 -0.19432014206E-01 -0.59253772016E-03 -0.13894302363E-01  0.10200342699E+01  0.10197543361E+01 0.  0.
     999903    2    3    3    0    0 -0.12227966452E-01 -0.12522698171E+00  0.21513599490E-01  0.13051790559E+00  0.27217064563E-01 0.  0.
         14    1    1    2    0    0  0.19432014206E-01  0.59253772016E-03  0.13894302363E-01  0.23895730063E-01  0.00000000000E+00 0.  1.
     999901    1    3    3    0    0 -0.72040477545E-02  0.12463444399E+00 -0.35407901854E-01  0.88951636435E+00  0.88000000000E+00 0. -1.
        -11    1    4    4    0    0 -0.19599368470E-01 -0.98816029225E-01  0.11835034246E-01  0.10143506313E+00  0.51100000000E-03 0. -1.
         11    1    4    4    0    0  0.73714020181E-02 -0.26410952487E-01  0.96785652447E-02  0.29082842454E-01  0.51100000000E-03 0.  1.
</event>
<event>
 8    1  0.1094134E+005  0.1043930E+01  0.7957747E-01            NaN
         13   -1    0    0    0    0  0.00000000000E+00  0.00000000000E+00  0.74505805969E-08  0.10566000000E+00  0.10566000000E+00 0. -1.
     999900   -1    0    0    0    0 -0.00000000000E+00 -0.00000000000E+00 -0.74505805969E-08  0.93827000000E+00  0.93827000000E+00 0.  1.
     999902    2    1    2    0    0  0.22778271657E-01 -0.50858650055E-02  0.16986419426E-02  0.10205291225E+01  0.10202607945E+01 0.  0.
     999903    2    3    3    0    0  0.23074600165E-02  0.44944221245E-01 -0.12072107788E+00  0.13041191031E+00  0.20208421797E-01 0.  0.
         14    1    1    2    0    0 -0.22778271657E-01  0.50858650055E-02 -0.16986419426E-02  0.23400877484E-01  0.00000000000E+00 0.  1.
     999901    1    3    3    0    0  0.20470811641E-01 -0.50030086250E-01  0.12241971982E+00  0.89011721220E+00  0.88000000000E+00 0. -1.
        -11    1    4    4    0    0  0.21423090769E-02  0.43687622994E-01 -0.94257952785E-01  0.10391352499E+00  0.51100000000E-03 0. -1.
         11    1    4    4    0    0  0.16515093969E-03  0.12565982510E-02 -0.26463125097E-01  0.26498385326E-01  0.51100000000E-03 0.  1.
</event>
<event>
 8    1  0.1094134E+005  0.1043930E+01  0.7957747E-01            NaN
         13   -1    0    0    0    0  0.00000000000E+00  0.00000000000E+00  0.74505805969E-08  0.10566000000E+00  0.10566000000E+00 0.  1.
     999900   -1    0    0    0    0 -0.00000000000E+00 -0.00000000000E+00 -0.74505805969E-08  0.93827000000E+00  0.93827000000E+00 0.  1.
     999902    2    1    2    0    0 -0.86617044817E-03 -0.14643028188E-01  0.17662333435E-01  0.10209707633E+01  0.10207125810E+01 0.  0.
     999903    2    3    3    0    0 -0.73046297924E-01  0.96623438776E-01 -0.38622971516E-01  0.12925431007E+00  0.23304338265E-01 0.  0.
         14    1    1    2    0    0  0.86617044817E-03  0.14643028188E-01 -0.17662333435E-01  0.22959236662E-01  0.00000000000E+00 0. -1.
     999901    1    3    3    0    0  0.72180127476E-01 -0.11126646696E+00  0.56285304951E-01  0.89171645327E+00  0.88000000000E+00 0.  1.
        -11    1    4    4    0    0 -0.47375548038E-01  0.43526462491E-01 -0.18663844068E-01  0.66989519220E-01  0.51100000000E-03 0. -1.
         11    1    4    4    0    0 -0.25670749886E-01  0.53096976284E-01 -0.19959127449E-01  0.62264790851E-01  0.51100000000E-03 0.  1.
</event>
<event>
 8    1  0.1094134E+005  0.1043930E+01  0.7957747E-01            NaN
         13   -1    0    0    0    0  0.00000000000E+00  0.00000000000E+00  0.74505805969E-08  0.10566000000E+00  0.10566000000E+00 0. -1.
     999900   -1    0    0    0    0 -0.00000000000E+00 -0.00000000000E+00 -0.74505805969E-08  0.93827000000E+00  0.93827000000E+00 0. -1.
     999902    2    1    2    0    0 -0.24258370525E-02  0.14328492378E-01  0.19248505923E-01  0.10198116385E+01  0.10195264012E+01 0.  0.
     999903    2    3    3    0    0 -0.64746843909E-01  0.26762421310E-01  0.11109141743E+00  0.13275266030E+00  0.19328341876E-01 0.  0.
         14    1    1    2    0    0  0.24258370525E-02 -0.14328492378E-01 -0.19248505923E-01  0.24118361459E-01  0.00000000000E+00 0.  1.
     999901    1    3    3    0    0  0.62321006857E-01 -0.12433928932E-01 -0.91842911506E-01  0.88705897824E+00  0.88000000000E+00 0. -1.
        -11    1    4    4    0    0 -0.35279510663E-01  0.43701264614E-02  0.58094224153E-01  0.68109778144E-01  0.51100000000E-03 0. -1.
         11    1    4    4    0    0 -0.29467333246E-01  0.22392294849E-01  0.52997193275E-01  0.64642882155E-01  0.51100000000E-03 0.  1.
</event>
<event>
 8    1  0.1094134E+005  0.1043930E+01  0.7957747E-01            NaN
         13   -1    0    0    0    0  0.00000000000E+00  0.00000000000E+00  0.74505805969E-08  0.10566000000E+00  0.10566000000E+00 0.  1.
     999900   -1    0    0    0    0 -0.00000000000E+00 -0.00000000000E+00 -0.74505805969E-08  0.93827000000E+00  0.93827000000E+00 0.  1.
     999902    2    1    2    0    0 -0.32455261807E-02 -0.22605789567E-01  0.61885608536E-02  0.10202687776E+01  0.10199943750E+01 0.  0.
     999903    2    3    3    0    0  0.11567958780E+00  0.44423065667E-01  0.31264207948E-01  0.12939008871E+00  0.20227915344E-01 0.  0.
         14    1    1    2    0    0  0.32455261807E-02  0.22605789567E-01 -0.61885608536E-02  0.23661222445E-01  0.00000000000E+00 0. -1.
     999901    1    3    3    0    0 -0.11892511398E+00 -0.67028855235E-01 -0.25075647095E-01  0.89087868885E+00  0.88000000000E+00 0. -1.
        -11    1    4    4    0    0  0.62316087429E-01  0.22029637024E-01  0.26867831686E-01  0.71349429993E-01  0.51100000000E-03 0. -1.
         11    1    4    4    0    0  0.53363500373E-01  0.22393428643E-01  0.43963762622E-02  0.58040658712E-01  0.51100000000E-03 0.  1.
</event>
<event>
 8    1  0.1094134E+005  0.1043930E+01  0.7957747E-01            NaN
         13   -1    0    0    0    0  0.00000000000E+00  0.00000000000E+00  0.74505805969E-08  0.10566000000E+00  0.10566000000E+00 0. -1.
     999900   -1    0    0    0    0 -0.00000000000E+00 -0.00000000000E+00 -0.74505805969E-08  0.93827000000E+00  0.93827000000E+00 0. -1.
     999902    2    1    2    0    0  0.16054183589E-01 -0.13142001371E-01  0.95210106391E-02  0.10211024146E+01  0.10208472180E+01 0.  0.
     999903    2    3    3    0    0 -0.40977830629E-01 -0.81414739262E-01 -0.91498211313E-01  0.13086722065E+00  0.21136801880E-01 0.  0.
         14    1    1    2    0    0 -0.16054183589E-01  0.13142001371E-01 -0.95210106391E-02  0.22827585381E-01  0.00000000000E+00 0.  1.
     999901    1    3    3    0    0  0.57032014219E-01  0.68272737891E-01  0.10101922195E+00  0.89023519397E+00  0.88000000000E+00 0.  1.
        -11    1    4    4    0    0 -0.25404253729E-01 -0.48355744794E-01 -0.39938325314E-01  0.67668198676E-01  0.51100000000E-03 0. -1.
         11    1    4    4    0    0 -0.15573576901E-01 -0.33058994468E-01 -0.51559885999E-01  0.63199021970E-01  0.51100000000E-03 0.  1.
</event>
<event>
 8    1  0.1094134E+005  0.1043930E+01  0.7957747E-01            NaN
         13   -1    0    0    0    0  0.00000000000E+00  0.00000000000E+00  0.74505805969E-08  0.10566000000E+00  0.10566000000E+00 0. -1.
     999900   -1    0    0    0    0 -0.00000000000E+00 -0.00000000000E+00 -0.74505805969E-08  0.93827000000E+00  0.93827000000E+00 0. -1.
     999902    2    1    2    0    0 -0.94947068323E-02  0.15401063360E-01 -0.15855611184E-01  0.10198729300E+01  0.10195891578E+01 0.  0.
     999903    2    3    3    0    0 -0.33235244336E-02 -0.29589199349E-01 -0.12673140641E+00  0.13175376616E+00  0.20288888475E-01 0.  0.
         14    1    1    2    0    0  0.94947068323E-02 -0.15401063360E-01  0.15855611184E-01  0.24057069989E-01  0.00000000000E+00 0. -1.
     999901    1    3    3    0    0 -0.61711823987E-02  0.44990262709E-01  0.11087579522E+00  0.88811916385E+00  0.88000000000E+00 0.  1.
        -11    1    4    4    0    0  0.37198314593E-02 -0.28452152495E-01 -0.95813665610E-01  0.10001940695E+00  0.51100000000E-03 0. -1.
         11    1    4    4    0    0 -0.70433558929E-02 -0.11370468536E-02 -0.30917740795E-01  0.31734359213E-01  0.51100000000E-03 0.  1.
</event>
<event>
 8    1  0.1094134E+005  0.1043930E+01  0.7957747E-01            NaN
         13   -1    0    0    0    0  0.00000000000E+00  0.00000000000E+00  0.74505805969E-08  0.10566000000E+00  0.10566000000E+00 0.  1.
     999900   -1    0    0    0    0 -0.00000000000E+00 -0.00000000000E+00 -0.74505805969E-08  0.93827000000E+00  0.93827000000E+00 0.  1.
     999902    2    1    2    0    0 -0.14889000882E-02  0.22646715205E-01  0.65929317028E-02  0.10202961835E+01  0.10200224237E+01 0.  0.
     999903    2    3    3    0    0  0.10526378851E+00 -0.54468148181E-01  0.48342415214E-01  0.12951795183E+00  0.19765282658E-01 0.  0.
         14    1    1    2    0    0  0.14889000882E-02 -0.22646715205E-01 -0.65929317028E-02  0.23633816482E-01  0.00000000000E+00 0.  1.
     999901    1    3    3    0    0 -0.10675268860E+00  0.77114863386E-01 -0.41749483511E-01  0.89077823169E+00  0.88000000000E+00 0.  1.
        -11    1    4    4    0    0  0.94826067537E-01 -0.45377642761E-01  0.36459846291E-01  0.11126857175E+00  0.51100000000E-03 0. -1.
         11    1    4    4    0    0  0.10437720976E-01 -0.90905054200E-02  0.11882568923E-01  0.18249380076E-01  0.51100000000E-03 0.  1.
</event>
<event>
 8    1  0.1094134E+005  0.1043930E+01  0.7957747E-01            NaN
         13   -1    0    0    0    0  0.00000000000E+00  0.00000000000E+00  0.74505805969E-08  0.10566000000E+00  0.10566000000E+00 0. -1.
     999900   -1    0    0    0    0 -0.00000000000E+00 -0.00000000000E+00 -0.74505805969E-08  0.93827000000E+00  0.93827000000E+00 0. -1.
     999902    2    1    2    0    0  0.10974548042E-01  0.10694293249E-01  0.20103151400E-01  0.10186526325E+01  0.10183389614E+01 0.  0.
     999903    2    3    3    0    0  0.85328212768E-01  0.64364209645E-01 -0.69954179818E-01  0.12931622240E+00  0.20135608342E-01 0.  0.
         14    1    1    2    0    0 -0.10974548042E-01 -0.10694293249E-01 -0.20103151400E-01  0.25277367526E-01  0.00000000000E+00 0.  1.
     999901    1    3    3    0    0 -0.74353664727E-01 -0.53669916396E-01  0.90057331218E-01  0.88933641008E+00  0.88000000000E+00 0.  1.
        -11    1    4    4    0    0  0.62298731287E-01  0.55305407006E-01 -0.47505037601E-01  0.95899998345E-01  0.51100000000E-03 0. -1.
         11    1    4    4    0    0  0.23029481482E-01  0.90588026388E-02 -0.22449142217E-01  0.33416224052E-01  0.51100000000E-03 0.  1.
</event>
<event>
 8    1  0.1094134E+005  0.1043930E+01  0.7957747E-01            NaN
         13   -1    0    0    0    0  0.00000000000E+00  0.00000000000E+00  0.74505805969E-08  0.10566000000E+00  0.10566000000E+00 0. -1.
     999900   -1    0    0    0    0 -0.00000000000E+00 -0.00000000000E+00 -0.74505805969E-08  0.93827000000E+00  0.93827000000E+00 0.  1.
     999902    2    1    2    0    0 -0.95583218258E-02  0.16202487735E-01 -0.13575518702E-01  0.10207313614E+01  0.10204677042E+01 0.  0.
     999903    2    3    3    0    0 -0.69865132564E-01 -0.70815404520E-01  0.80624086296E-01  0.12939383241E+00  0.18616184094E-01 0.  0.
         14    1    1    2    0    0  0.95583218258E-02 -0.16202487735E-01  0.13575518702E-01  0.23198638602E-01  0.00000000000E+00 0. -1.
     999901    1    3    3    0    0  0.60306810738E-01  0.87017892255E-01 -0.94199604998E-01  0.89133752898E+00  0.88000000000E+00 0.  1.
        -11    1    4    4    0    0 -0.28621709626E-01 -0.23107493573E-01  0.40157449420E-01  0.54461365996E-01  0.51100000000E-03 0. -1.
         11    1    4    4    0    0 -0.41243422938E-01 -0.47707910947E-01  0.40466636876E-01  0.74932466419E-01  0.51100000000E-03 0.  1.
</event>
<event>
 8    1  0.1094134E+005  0.1043930E+01  0.7957747E-01            NaN
         13   -1    0    0    0    0  0.00000000000E+00  0.00000000000E+00  0.74505805969E-08  0.10566000000E+00  0.10566000000E+00 0. -1.
     999900   -1    0    0    0    0 -0.00000000000E+00 -0.00000000000E+00 -0.74505805969E-08  0.93827000000E+00  0.93827000000E+00 0.  1.
     999902    2    1    2    0    0  0.24616975957E-01  0.37792178748E-02  0.75723450478E-02  0.10178988955E+01  0.10175659895E+01 0.  0.
     999903    2    3    3    0    0 -0.12151850720E+00 -0.20344294643E-01  0.32951197676E-02  0.12551118941E+00  0.23697319188E-01 0.  0.
         14    1    1    2    0    0 -0.24616975957E-01 -0.37792178748E-02 -0.75723450478E-02  0.26031104520E-01  0.00000000000E+00 0.  1.
     999901    1    3    3    0    0  0.14613548315E+00  0.24123512518E-01  0.42772252802E-02  0.89238770607E+00  0.88000000000E+00 0.  1.
        -11    1    4    4    0    0 -0.30477210313E-01 -0.15692278154E-01  0.19663557228E-02  0.34340000261E-01  0.51100000000E-03 0.  1.
         11    1    4    4    0    0 -0.91041296883E-01 -0.46520164897E-02  0.13287640448E-02  0.91171189147E-01  0.51100000000E-03 0. -1.
</event>
<event>
 8    1  0.1094134E+005  0.1043930E+01  0.7957747E-01            NaN
         13   -1    0    0    0    0  0.00000000000E+00  0.00000000000E+00  0.74505805969E-08  0.10566000000E+00  0.10566000000E+00 0.  1.
     999900   -1    0    0    0    0 -0.00000000000E+00 -0.00000000000E+00 -0.74505805969E-08  0.93827000000E+00  0.93827000000E+00 0. -1.
     999902    2    1    2    0    0  0.12800955014E-01  0.18928528022E-01  0.67448449757E-02  0.10201046657E+01  0.10198263981E+01 0.  0.
     999903    2    3    3    0    0 -0.28710788510E-01 -0.10260647731E+00  0.69240558976E-01  0.12858927228E+00  0.19711605089E-01 0.  0.
         14    1    1    2    0    0 -0.12800955014E-01 -0.18928528022E-01 -0.67448449757E-02  0.23825334333E-01  0.00000000000E+00 0. -1.
     999901    1    3    3    0    0  0.41511743524E-01  0.12153500534E+00 -0.62495714000E-01  0.89151539338E+00  0.88000000000E+00 0. -1.
        -11    1    4    4    0    0 -0.16854493353E-01 -0.87675700592E-01  0.57220252064E-01  0.10604489987E+00  0.51100000000E-03 0.  1.
         11    1    4    4    0    0 -0.11856295156E-01 -0.14930776722E-01  0.12020306912E-01  0.22544372416E-01  0.51100000000E-03 0. -1.
</event>
<event>
 7    1  0.1094134E+005  0.1043930E+01  0.7957747E-01            NaN
         13   -1    0    0    0    0  0.00000000000E+00  0.00000000000E+00  0.74505805969E-08  0.10566000000E+00  0.10566000000E+00 0. -1.
     999900   -1    0    0    0    0 -0.00000000000E+00 -0.00000000000E+00 -0.74505805969E-08  0.93827000000E+00  0.93827000000E+00 0. -1.
     999902    2    1    2    0    0 -0.12574823678E-01 -0.19616103642E-01 -0.50179850653E-02  0.10200951959E+01  0.10198167045E+01 0.  0.
         14    1    1    2    0    0  0.12574823678E-01  0.19616103642E-01  0.50179850653E-02  0.23834804105E-01  0.00000000000E+00 0. -1.
     999901    1    3    3    0    0  0.43720554296E-01 -0.60404498912E-01  0.89059508115E-01  0.88763268661E+00  0.88000000000E+00 0. -1.
        -11    1    3    3    0    0 -0.30592062479E-01  0.37270432563E-02 -0.31760173426E-02  0.30985695817E-01  0.51100000000E-03 0.  1.
         11    1    3    3    0    0 -0.25703315496E-01  0.37061352014E-01 -0.90901475837E-01  0.10147681347E+00  0.51100000000E-03 0. -1.
</event>
<event>
 8    1  0.1094134E+005  0.1043930E+01  0.7957747E-01            NaN
         13   -1    0    0    0    0  0.00000000000E+00  0.00000000000E+00  0.74505805969E-08  0.10566000000E+00  0.10566000000E+00 0. -1.
     999900   -1    0    0    0    0 -0.00000000000E+00 -0.00000000000E+00 -0.74505805969E-08  0.93827000000E+00  0.93827000000E+00 0.  1.
     999902    2    1    2    0    0 -0.86075205359E-02  0.18820935776E-01 -0.19929966639E-01  0.10151981257E+01  0.10147914632E+01 0.  0.
     999903    2    3    3    0    0  0.97056353531E-01 -0.73611867909E-01  0.69527717494E-02  0.12366497478E+00  0.20150486225E-01 0.  0.
         14    1    1    2    0    0  0.86075205359E-02 -0.18820935776E-01  0.19929966639E-01  0.28731874347E-01  0.00000000000E+00 0. -1.
     999901    1    3    3    0    0 -0.10566387407E+00  0.92432803685E-01 -0.26882738388E-01  0.89153315087E+00  0.88000000000E+00 0.  1.
        -11    1    4    4    0    0  0.73284893119E-01 -0.61434880641E-01  0.12309676172E-01  0.96419444965E-01  0.51100000000E-03 0. -1.
         11    1    4    4    0    0  0.23771460411E-01 -0.12176987268E-01 -0.53569044228E-02  0.27245529817E-01  0.51100000000E-03 0.  1.
</event>
<event>
 8    1  0.1094134E+005  0.1043930E+01  0.7957747E-01            NaN
         13   -1    0    0    0    0  0.00000000000E+00  0.00000000000E+00  0.74505805969E-08  0.10566000000E+00  0.10566000000E+00 0.  1.
     999900   -1    0    0    0    0 -0.00000000000E+00 -0.00000000000E+00 -0.74505805969E-08  0.93827000000E+00  0.93827000000E+00 0.  1.
     999902    2    1    2    0    0  0.45461773960E-02 -0.54799743711E-02 -0.22200845046E-01  0.10206152972E+01  0.10203489645E+01 0.  0.
     999903    2    3    3    0    0 -0.60351379797E-01  0.88101064428E-01 -0.74294293394E-01  0.13174926050E+00  0.20836002859E-01 0.  0.
         14    1    1    2    0    0 -0.45461773960E-02  0.54799743711E-02  0.22200845046E-01  0.23314702846E-01  0.00000000000E+00 0.  1.
     999901    1    3    3    0    0  0.64897557193E-01 -0.93581038800E-01  0.52093448347E-01  0.88886603665E+00  0.88000000000E+00 0.  1.
        -11    1    4    4    0    0 -0.28553796943E-01  0.26384082917E-01 -0.32785425138E-01  0.50858473962E-01  0.51100000000E-03 0. -1.
         11    1    4    4    0    0 -0.31797582854E-01  0.61716981511E-01 -0.41508868256E-01  0.80890786540E-01  0.51100000000E-03 0.  1.
</event>
<event>
 8    1  0.1094134E+005  0.1043930E+01  0.7957747E-01            NaN
         13   -1    0    0    0    0  0.00000000000E+00  0.00000000000E+00  0.74505805969E-08  0.10566000000E+00  0.10566000000E+00 0. -1.
     999900   -1    0    0    0    0 -0.00000000000E+00 -0.00000000000E+00 -0.74505805969E-08  0.93827000000E+00  0.93827000000E+00 0. -1.
     999902    2    1    2    0    0  0.12543431270E-02 -0.62452241491E-02  0.22671780822E-01  0.10203803536E+01  0.10201085629E+01 0.  0.
     999903    2    3    3    0    0 -0.24941348981E-01 -0.12243234571E+00  0.38050906167E-01  0.13222373506E+00  0.20578981733E-01 0.  0.
         14    1    1    2    0    0 -0.12543431270E-02  0.62452241491E-02 -0.22671780822E-01  0.23549646430E-01  0.00000000000E+00 0.  1.
     999901    1    3    3    0    0  0.26195692108E-01  0.11618712156E+00 -0.15379125345E-01  0.88815661851E+00  0.88000000000E+00 0.  1.
        -11    1    4    4    0    0 -0.23628388007E-01 -0.65185462434E-01  0.19442752736E-01  0.72011991970E-01  0.51100000000E-03 0.  1.
         11    1    4    4    0    0 -0.13129609742E-02 -0.57246883275E-01  0.18608153431E-01  0.60211743093E-01  0.51100000000E-03 0. -1.
</event>
<event>
 8    1  0.1094134E+005  0.1043930E+01  0.7957747E-01            NaN
         13   -1    0    0    0    0  0.00000000000E+00  0.00000000000E+00  0.74505805969E-08  0.10566000000E+00  0.10566000000E+00 0. -1.
     999900   -1    0    0    0    0 -0.00000000000E+00 -0.00000000000E+00 -0.74505805969E-08  0.93827000000E+00  0.93827000000E+00 0. -1.
     999902    2    1    2    0    0 -0.46913012568E-02 -0.17067003812E-01  0.18898761374E-01  0.10180368714E+01  0.10177075304E+01 0.  0.
     999903    2    3    3    0    0 -0.24626625216E-01  0.11027839159E+00  0.56716127865E-01  0.12784339802E+00  0.18958400143E-01 0.  0.
         14    1    1    2    0    0  0.46913012568E-02  0.17067003812E-01 -0.18898761374E-01  0.25893128588E-01  0.00000000000E+00 0.  1.
     999901    1    3    3    0    0  0.19935323959E-01 -0.12734539540E+00 -0.37817366491E-01  0.89019347340E+00  0.88000000000E+00 0. -1.
        -11    1    4    4    0    0 -0.17769493281E-01  0.78540060418E-01  0.30506619420E-01  0.86111619026E-01  0.51100000000E-03 0.  1.
         11    1    4    4    0    0 -0.68571319347E-02  0.31738331167E-01  0.26209508445E-01  0.41731778989E-01  0.51100000000E-03 0. -1.
</event>
<event>
 8    1  0.1094134E+005  0.1043930E+01  0.7957747E-01            NaN
         13   -1    0    0    0    0  0.00000000000E+00  0.00000000000E+00  0.74505805969E-08  0.10566000000E+00  0.10566000000E+00 0.  1.
     999900   -1    0    0    0    0 -0.00000000000E+00 -0.00000000000E+00 -0.74505805969E-08  0.93827000000E+00  0.93827000000E+00 0. -1.
     999902    2    1    2    0    0 -0.85937292916E-02 -0.11470091781E-01 -0.12511548946E-01  0.10249049101E+01  0.10247283156E+01 0.  0.
     999903    2    3    3    0    0  0.16178397408E-01  0.72545757344E-01 -0.11097720710E+00  0.13509155495E+00  0.20227710536E-01 0.  0.
         14    1    1    2    0    0  0.85937292916E-02  0.11470091781E-01  0.12511548946E-01  0.19025089898E-01  0.00000000000E+00 0.  1.
     999901    1    3    3    0    0 -0.24772126699E-01 -0.84015849125E-01  0.98465658150E-01  0.88981335515E+00  0.88000000000E+00 0.  1.
        -11    1    4    4    0    0  0.10412187278E-01  0.51830218009E-01 -0.61245356850E-01  0.80907601618E-01  0.51100000000E-03 0.  1.
         11    1    4    4    0    0  0.57662101296E-02  0.20715539335E-01 -0.49731850246E-01  0.54183953336E-01  0.51100000000E-03 0. -1.
</event>
<event>
 8    1  0.1094134E+005  0.1043930E+01  0.7957747E-01            NaN
         13   -1    0    0    0    0  0.00000000000E+00  0.00000000000E+00  0.74505805969E-08  0.10566000000E+00  0.10566000000E+00 0.  1.
     999900   -1    0    0    0    0 -0.00000000000E+00 -0.00000000000E+00 -0.74505805969E-08  0.93827000000E+00  0.93827000000E+00 0. -1.
     999902    2    1    2    0    0 -0.10626642183E-01  0.12108235491E-01 -0.16403694374E-01  0.10209383476E+01  0.10206794274E+01 0.  0.
     999903    2    3    3    0    0  0.62998494903E-01 -0.10886992091E+00 -0.24433315979E-01  0.12957935710E+00  0.19296445687E-01 0.  0.
         14    1    1    2    0    0  0.10626642183E-01 -0.12108235491E-01  0.16403694374E-01  0.22991652396E-01  0.00000000000E+00 0.  1.
     999901    1    3    3    0    0 -0.73625137086E-01  0.12097815640E+00  0.80296216053E-02  0.89135899051E+00  0.88000000000E+00 0. -1.
        -11    1    4    4    0    0  0.40360248571E-01 -0.50628297654E-01 -0.13499630290E-01  0.66141328434E-01  0.51100000000E-03 0. -1.
         11    1    4    4    0    0  0.22638246332E-01 -0.58241623257E-01 -0.10933685689E-01  0.63438028661E-01  0.51100000000E-03 0.  1.
</event>
<event>
 8    1  0.1094134E+005  0.1043930E+01  0.7957747E-01            NaN
         13   -1    0    0    0    0  0.00000000000E+00  0.00000000000E+00  0.74505805969E-08  0.10566000000E+00  0.10566000000E+00 0.  1.
     999900   -1    0    0    0    0 -0.00000000000E+00 -0.00000000000E+00 -0.74505805969E-08  0.93827000000E+00  0.93827000000E+00 0.  1.
     999902    2    1    2    0    0 -0.20655737228E-01 -0.85648463464E-02 -0.86045995174E-02  0.10199705508E+01  0.10196891042E+01 0.  0.
     999903    2    3    3    0    0 -0.83945209487E-01 -0.98073946758E-01  0.22078028617E-01  0.13263811026E+00  0.20979316413E-01 0.  0.
         14    1    1    2    0    0  0.20655737228E-01  0.85648463464E-02  0.86045995174E-02  0.23959449206E-01  0.00000000000E+00 0.  1.
     999901    1    3    3    0    0  0.63289472259E-01  0.89509100412E-01 -0.30682628134E-01  0.88733244053E+00  0.88000000000E+00 0. -1.
        -11    1    4    4    0    0 -0.44634583358E-01 -0.63853140339E-01  0.62142623934E-02  0.78155919423E-01  0.51100000000E-03 0. -1.
         11    1    4    4    0    0 -0.39310626129E-01 -0.34220806419E-01  0.15863766223E-01  0.54482190837E-01  0.51100000000E-03 0.  1.
</event>
<event>
 8    1  0.1094134E+005  0.1043930E+01  0.7957747E-01            NaN
         13   -1    0    0    0    0  0.00000000000E+00  0.00000000000E+00  0.74505805969E-08  0.10566000000E+00  0.10566000000E+00 0. -1.
     999900   -1    0    0    0    0 -0.00000000000E+00 -0.00000000000E+00 -0.74505805969E-08  0.93827000000E+00  0.93827000000E+00 0. -1.
     999902    2    1    2    0    0 -0.22374414311E-01 -0.84150299778E-02 -0.68433704076E-02  0.10190651882E+01  0.10187617970E+01 0.  0.
     999903    2    3    3    0    0 -0.18997199324E-01  0.12582063999E+00 -0.17659791971E-02  0.12886498572E+00  0.20281489856E-01 0.  0.
         14    1    1    2    0    0  0.22374414311E-01  0.84150299778E-02  0.68433704076E-02  0.24864811759E-01  0.00000000000E+00 0.  1.
     999901    1    3    3    0    0 -0.33772149874E-02 -0.13423566997E+00 -0.50773912104E-02  0.89020020252E+00  0.88000000000E+00 0. -1.
        -11    1    4    4    0    0 -0.49406749014E-02  0.91810279084E-01 -0.36010320157E-02  0.92015032285E-01  0.51100000000E-03 0.  1.
         11    1    4    4    0    0 -0.14056524422E-01  0.34010360909E-01  0.18350528185E-02  0.36849953431E-01  0.51100000000E-03 0. -1.
</event>
<event>
 8    1  0.1094134E+005  0.1043930E+01  0.7957747E-01            NaN
         13   -1    0    0    0    0  0.00000000000E+00  0.00000000000E+00  0.74505805969E-08  0.10566000000E+00  0.10566000000E+00 0.  1.
     999900   -1    0    0    0    0 -0.00000000000E+00 -0.00000000000E+00 -0.74505805969E-08  0.93827000000E+00  0.93827000000E+00 0.  1.
     999902    2    1    2    0    0 -0.23790971283E-01 -0.39947415760E-02 -0.65238456495E-03  0.10197971618E+01  0.10195115778E+01 0.  0.
     999903    2    3    3    0    0 -0.11934388822E+00 -0.16898217792E-01 -0.52506945400E-01  0.13301322242E+00  0.20174850733E-01 0.  0.
         14    1    1    2    0    0  0.23790971283E-01  0.39947415760E-02  0.65238456495E-03  0.24132838218E-01  0.00000000000E+00 0. -1.
     999901    1    3    3    0    0  0.95552916940E-01  0.12903476216E-01  0.51854560835E-01  0.88678393936E+00  0.88000000000E+00 0. -1.
        -11    1    4    4    0    0 -0.22281477222E-01  0.44333837703E-02 -0.76344651560E-02  0.23972177583E-01  0.51100000000E-03 0. -1.
         11    1    4    4    0    0 -0.97062411001E-01 -0.21331601562E-01 -0.44872480244E-01  0.10904104484E+00  0.51100000000E-03 0.  1.
</event>
<event>
 8    1  0.1094134E+005  0.1043930E+01  0.7957747E-01            NaN
         13   -1    0    0    0    0  0.00000000000E+00  0.00000000000E+00  0.74505805969E-08  0.10566000000E+00  0.10566000000E+00 0. -1.
     999900   -1    0    0    0    0 -0.00000000000E+00 -0.00000000000E+00 -0.74505805969E-08  0.93827000000E+00  0.93827000000E+00 0. -1.
     999902    2    1    2    0    0 -0.63692450854E-02  0.93964015504E-03  0.22955778024E-01  0.10200884826E+01  0.10198098325E+01 0.  0.
     999903    2    3    3    0    0  0.69046322140E-01  0.10702429878E+00 -0.82882517759E-02  0.12996621462E+00  0.24513806238E-01 0.  0.
         14    1    1    2    0    0  0.63692450854E-02 -0.93964015504E-03 -0.22955778024E-01  0.23841517386E-01  0.00000000000E+00 0.  1.
     999901    1    3    3    0    0 -0.75415567225E-01 -0.10608465862E+00  0.31244029800E-01  0.89012226799E+00  0.88000000000E+00 0.  1.
        -11    1    4    4    0    0  0.56270191258E-01  0.87380161207E-01  0.29464358927E-02  0.10397388904E+00  0.51100000000E-03 0.  1.
         11    1    4    4    0    0  0.12776130882E-01  0.19644137570E-01 -0.11234687669E-01  0.25992325583E-01  0.51100000000E-03 0. -1.
</event>
<event>
 8    1  0.1094134E+005  0.1043930E+01  0.7957747E-01            NaN
         13   -1    0    0    0    0  0.00000000000E+00  0.00000000000E+00  0.74505805969E-08  0.10566000000E+00  0.10566000000E+00 0. -1.
     999900   -1    0    0    0    0 -0.00000000000E+00 -0.00000000000E+00 -0.74505805969E-08  0.93827000000E+00  0.93827000000E+00 0.  1.
     999902    2    1    2    0    0  0.38387196662E-02  0.20384072350E-01 -0.11184260876E-01  0.10203644772E+01  0.10200923156E+01 0.  0.
     999903    2    3    3    0    0 -0.83110055009E-02 -0.87933466886E-01 -0.91355844491E-01  0.13002308876E+00  0.27545342184E-01 0.  0.
         14    1    1    2    0    0 -0.38387196662E-02 -0.20384072350E-01  0.11184260876E-01  0.23565522816E-01  0.00000000000E+00 0. -1.
     999901    1    3    3    0    0  0.12149725167E-01  0.10831753924E+00  0.80171583615E-01  0.89034138843E+00  0.88000000000E+00 0. -1.
        -11    1    4    4    0    0  0.70730976499E-02 -0.61236500378E-01 -0.63069631257E-01  0.88192840961E-01  0.51100000000E-03 0.  1.
         11    1    4    4    0    0 -0.15384103151E-01 -0.26696966507E-01 -0.28286213234E-01  0.41830247795E-01  0.51100000000E-03 0. -1.
</event>
<event>
 8    1  0.1094134E+005  0.1043930E+01  0.7957747E-01            NaN
         13   -1    0    0    0    0  0.00000000000E+00  0.00000000000E+00  0.74505805969E-08  0.10566000000E+00  0.10566000000E+00 0.  1.
     999900   -1    0    0    0    0 -0.00000000000E+00 -0.00000000000E+00 -0.74505805969E-08  0.93827000000E+00  0.93827000000E+00 0. -1.
     999902    2    1    2    0    0 -0.13933610276E-01 -0.18712696690E-01 -0.23652851036E-02  0.10204799449E+01  0.10202104747E+01 0.  0.
     999903    2    3    3    0    0 -0.33035875525E-01 -0.83628871006E-01  0.95253076153E-01  0.13250001790E+00  0.19948661312E-01 0.  0.
         14    1    1    2    0    0  0.13933610276E-01  0.18712696690E-01  0.23652851036E-02  0.23450055147E-01  0.00000000000E+00 0. -1.
     999901    1    3    3    0    0  0.19102265249E-01  0.64916174316E-01 -0.97618361257E-01  0.88797992696E+00  0.88000000000E+00 0. -1.
        -11    1    4    4    0    0 -0.22172691347E-01 -0.70553261123E-01  0.68545597507E-01  0.10083724984E+00  0.51100000000E-03 0. -1.
         11    1    4    4    0    0 -0.10863184178E-01 -0.13075609883E-01  0.26707478646E-01  0.31662768056E-01  0.51100000000E-03 0.  1.
</event>
<event>
 8    1  0.1094134E+005  0.1043930E+01  0.7957747E-01            NaN
         13   -1    0    0    0    0  0.00000000000E+00  0.00000000000E+00  0.74505805969E-08  0.10566000000E+00  0.10566000000E+00 0.  1.
     999900   -1    0    0    0    0 -0.00000000000E+00 -0.00000000000E+00 -0.74505805969E-08  0.93827000000E+00  0.93827000000E+00 0. -1.
     999902    2    1    2    0    0 -0.56517754895E-02 -0.15109948396E-02  0.22263493172E-01  0.10209106864E+01  0.10206511357E+01 0.  0.
     999903    2    3    3    0    0  0.12768423029E-01 -0.87555528105E-01 -0.91848351906E-01  0.12919073112E+00  0.20618490004E-01 0.  0.
         14    1    1    2    0    0  0.56517754895E-02  0.15109948396E-02 -0.22263493172E-01  0.23019313626E-01  0.00000000000E+00 0. -1.
     999901    1    3    3    0    0 -0.18420198519E-01  0.86044533265E-01  0.11411184508E+00  0.89171995526E+00  0.88000000000E+00 0.  1.
        -11    1    4    4    0    0  0.92412496672E-02 -0.64326856029E-01 -0.79370409799E-01  0.10258298190E+00  0.51100000000E-03 0. -1.
         11    1    4    4    0    0  0.35271733622E-02 -0.23228672075E-01 -0.12477942107E-01  0.26607749220E-01  0.51100000000E-03 0.  1.
</event>
<event>
 8    1  0.1094134E+005  0.1043930E+01  0.7957747E-01            NaN
         13   -1    0    0    0    0  0.00000000000E+00  0.00000000000E+00  0.74505805969E-08  0.10566000000E+00  0.10566000000E+00 0.  1.
     999900   -1    0    0    0    0 -0.00000000000E+00 -0.00000000000E+00 -0.74505805969E-08  0.93827000000E+00  0.93827000000E+00 0. -1.
     999902    2    1    2    0    0 -0.67291918882E-02  0.95363976916E-02 -0.21242088971E-01  0.10196926064E+01  0.10194045126E+01 0.  0.
     999903    2    3    3    0    0  0.64701026917E-01  0.11122205085E+00 -0.13633355258E-01  0.13092934150E+00  0.20001415198E-01 0.  0.
         14    1    1    2    0    0  0.67291918882E-02 -0.95363976916E-02  0.21242088971E-01  0.24237393594E-01  0.00000000000E+00 0.  1.
     999901    1    3    3    0    0 -0.71430218805E-01 -0.10168565316E+00 -0.76087337123E-02  0.88876326491E+00  0.88000000000E+00 0. -1.
        -11    1    4    4    0    0  0.28892371104E-01  0.33969423450E-01  0.57993133861E-03  0.44601438081E-01  0.51100000000E-03 0.  1.
         11    1    4    4    0    0  0.35808655813E-01  0.77252627403E-01 -0.14213286597E-01  0.86327903419E-01  0.51100000000E-03 0. -1.
</event>
<event>
 8    1  0.1094134E+005  0.1043930E+01  0.7957747E-01            NaN
         13   -1    0    0    0    0  0.00000000000E+00  0.00000000000E+00  0.74505805969E-08  0.10566000000E+00  0.10566000000E+00 0. -1.
     999900   -1    0    0    0    0 -0.00000000000E+00 -0.00000000000E+00 -0.74505805969E-08  0.93827000000E+00  0.93827000000E+00 0. -1.
     999902    2    1    2    0    0  0.16563587817E-01 -0.10693882590E-01 -0.13103223039E-01  0.10202571037E+01  0.10199824271E+01 0.  0.
     999903    2    3    3    0    0  0.13074521082E+00  0.84419178688E-02  0.72679559440E-02  0.13244033946E+00  0.17945590119E-01 0.  0.
         14    1    1    2    0    0 -0.16563587817E-01  0.10693882590E-01  0.13103223039E-01  0.23672896321E-01  0.00000000000E+00 0. -1.
     999901    1    3    3    0    0 -0.11418162300E+00 -0.19135800458E-01 -0.20371178983E-01  0.88781676422E+00  0.88000000000E+00 0.  1.
        -11    1    4    4    0    0  0.59990910798E-01 -0.49002579016E-02  0.15930820361E-02  0.60213959654E-01  0.51100000000E-03 0. -1.
         11    1    4    4    0    0  0.70754300019E-01  0.13342175770E-01  0.56748739079E-02  0.72226379809E-01  0.51100000000E-03 0.  1.
</event>
<event>
 8    1  0.1094134E+005  0.1043930E+01  0.7957747E-01            NaN
         13   -1    0    0    0    0  0.00000000000E+00  0.00000000000E+00  0.74505805969E-08  0.10566000000E+00  0.10566000000E+00 0. -1.
     999900   -1    0    0    0    0 -0.00000000000E+00 -0.00000000000E+00 -0.74505805969E-08  0.93827000000E+00  0.93827000000E+00 0.  1.
     999902    2    1    2    0    0 -0.83577550549E-02  0.77606004807E-02 -0.20343212488E-01  0.10206077942E+01  0.10203412881E+01 0.  0.
     999903    2    3    3    0    0 -0.10918775817E+00 -0.68422932926E-01  0.13023004331E-01  0.13095397123E+00  0.19382457388E-01 0.  0.
         14    1    1    2    0    0  0.83577550549E-02 -0.77606004807E-02  0.20343212488E-01  0.23322205807E-01  0.00000000000E+00 0. -1.
     999901    1    3    3    0    0  0.10083000311E+00  0.76183533407E-01 -0.33366216819E-01  0.88965382296E+00  0.88000000000E+00 0.  1.
        -11    1    4    4    0    0 -0.53315540128E-01 -0.22757776957E-01  0.24638743758E-02  0.58024090076E-01  0.51100000000E-03 0. -1.
         11    1    4    4    0    0 -0.55872218042E-01 -0.45665155969E-01  0.10559129955E-01  0.72929881153E-01  0.51100000000E-03 0.  1.
</event>
<event>
 7    1  0.1094134E+005  0.1043930E+01  0.7957747E-01            NaN
         13   -1    0    0    0    0  0.00000000000E+00  0.00000000000E+00  0.74505805969E-08  0.10566000000E+00  0.10566000000E+00 0. -1.
     999900   -1    0    0    0    0 -0.00000000000E+00 -0.00000000000E+00 -0.74505805969E-08  0.93827000000E+00  0.93827000000E+00 0. -1.
     999902    2    1    2    0    0 -0.94179981358E-02  0.19623518025E-01  0.81417556350E-02  0.10206906082E+01  0.10204260131E+01 0.  0.
         14    1    1    2    0    0  0.94179981358E-02 -0.19623518025E-01 -0.81417556350E-02  0.23239391846E-01  0.00000000000E+00 0.  1.
     999901    1    3    3    0    0 -0.25992248851E-01  0.42656713815E-01  0.13403408008E+00  0.89154939676E+00  0.88000000000E+00 0.  1.
        -11    1    3    3    0    0  0.83265961800E-02 -0.11420397947E-01 -0.52124090022E-01  0.54008699067E-01  0.51100000000E-03 0. -1.
         11    1    3    3    0    0  0.82476545356E-02 -0.11612797843E-01 -0.73768234418E-01  0.75132512331E-01  0.51100000000E-03 0.  1.
</event>
<event>
 8    1  0.1094134E+005  0.1043930E+01  0.7957747E-01            NaN
         13   -1    0    0    0    0  0.00000000000E+00  0.00000000000E+00  0.74505805969E-08  0.10566000000E+00  0.10566000000E+00 0.  1.
     999900   -1    0    0    0    0 -0.00000000000E+00 -0.00000000000E+00 -0.74505805969E-08  0.93827000000E+00  0.93827000000E+00 0.  1.
     999902    2    1    2    0    0 -0.66180555815E-03 -0.20650297102E-01 -0.10832341251E-01  0.10206016401E+01  0.10203349918E+01 0.  0.
     999903    2    3    3    0    0  0.45879413447E-01 -0.11044546217E+00 -0.56337540241E-01  0.13364054749E+00  0.19564171346E-01 0.  0.
         14    1    1    2    0    0  0.66180555815E-03  0.20650297102E-01  0.10832341251E-01  0.23328359865E-01  0.00000000000E+00 0. -1.
     999901    1    3    3    0    0 -0.46541219005E-01  0.89795165066E-01  0.45505198989E-01  0.88696109265E+00  0.88000000000E+00 0. -1.
        -11    1    4    4    0    0  0.18551905731E-01 -0.53176707020E-01 -0.16397217686E-01  0.58660593626E-01  0.51100000000E-03 0. -1.
         11    1    4    4    0    0  0.27327507716E-01 -0.57268755149E-01 -0.39940322555E-01  0.74979953861E-01  0.51100000000E-03 0.  1.
</event>
<event>
 8    1  0.1094134E+005  0.1043930E+01  0.7957747E-01            NaN
         13   -1    0    0    0    0  0.00000000000E+00  0.00000000000E+00  0.74505805969E-08  0.10566000000E+00  0.10566000000E+00 0.  1.
     999900   -1    0    0    0    0 -0.00000000000E+00 -0.00000000000E+00 -0.74505805969E-08  0.93827000000E+00  0.93827000000E+00 0.  1.
     999902    2    1    2    0    0 -0.19567436038E-01  0.61364858290E-02 -0.10291754287E-01  0.10209852573E+01  0.10207274045E+01 0.  0.
     999903    2    3    3    0    0 -0.71581617875E-01  0.10220268505E+00 -0.43762581399E-01  0.13359893443E+00  0.19083891141E-01 0.  0.
         14    1    1    2    0    0  0.19567436038E-01 -0.61364858290E-02  0.10291754287E-01  0.22944742704E-01  0.00000000000E+00 0.  1.
     999901    1    3    3    0    0  0.52014181837E-01 -0.96066199220E-01  0.33470827112E-01  0.88738632287E+00  0.88000000000E+00 0. -1.
        -11    1    4    4    0    0 -0.57343575249E-01  0.76868491991E-01 -0.41337966245E-01  0.10443246266E+00  0.51100000000E-03 0. -1.
         11    1    4    4    0    0 -0.14238042625E-01  0.25334193058E-01 -0.24246151539E-02  0.29166471767E-01  0.51100000000E-03 0.  1.
</event>
<event>
 8    1  0.1094134E+005  0.1043930E+01  0.7957747E-01            NaN
         13   -1    0    0    0    0  0.00000000000E+00  0.00000000000E+00  0.74505805969E-08  0.10566000000E+00  0.10566000000E+00 0. -1.
     999900   -1    0    0    0    0 -0.00000000000E+00 -0.00000000000E+00 -0.74505805969E-08  0.93827000000E+00  0.93827000000E+00 0.  1.
     999902    2    1    2    0    0  0.22345449071E-01  0.78226625611E-03 -0.97166335268E-02  0.10195508285E+01  0.10192593134E+01 0.  0.
     999903    2    3    3    0    0  0.93977444378E-01  0.90641749524E-01 -0.59011252361E-02  0.13207101040E+00  0.18980034224E-01 0.  0.
         14    1    1    2    0    0 -0.22345449071E-01 -0.78226625611E-03  0.97166335268E-02  0.24379171475E-01  0.00000000000E+00 0. -1.
     999901    1    3    3    0    0 -0.71631995307E-01 -0.89859483268E-01 -0.38155082907E-02  0.88747981813E+00  0.88000000000E+00 0. -1.
        -11    1    4    4    0    0  0.71170820299E-01  0.58223502457E-01  0.26367891431E-03  0.91954295974E-01  0.51100000000E-03 0.  1.
         11    1    4    4    0    0  0.22806624079E-01  0.32418247067E-01 -0.61648041504E-02  0.40116714422E-01  0.51100000000E-03 0. -1.
</event>
<event>
 8    1  0.1094134E+005  0.1043930E+01  0.7957747E-01            NaN
         13   -1    0    0    0    0  0.00000000000E+00  0.00000000000E+00  0.74505805969E-08  0.10566000000E+00  0.10566000000E+00 0.  1.
     999900   -1    0    0    0    0 -0.00000000000E+00 -0.00000000000E+00 -0.74505805969E-08  0.93827000000E+00  0.93827000000E+00 0.  1.
     999902    2    1    2    0    0  0.13956414406E-01 -0.18455765963E-01  0.91883393705E-03  0.10207731208E+01  0.10205104228E+01 0.  0.
     999903    2    3    3    0    0  0.58524289759E-02  0.18366274381E-02  0.12946594878E+00  0.13116544513E+00  0.20132510440E-01 0.  0.
         14    1    1    2    0    0 -0.13956414406E-01  0.18455765963E-01 -0.91883393705E-03  0.23156879240E-01  0.00000000000E+00 0. -1.
     999901    1    3    3    0    0  0.81039854299E-02 -0.20292393401E-01 -0.12854711484E+00  0.88960767563E+00  0.88000000000E+00 0.  1.
        -11    1    4    4    0    0  0.60143306611E-02 -0.86431776745E-02  0.62812017169E-01  0.63690559076E-01  0.51100000000E-03 0. -1.
         11    1    4    4    0    0 -0.16190168518E-03  0.10479805113E-01  0.66653931611E-01  0.67474886051E-01  0.51100000000E-03 0.  1.
</event>
<event>
 8    1  0.1094134E+005  0.1043930E+01  0.7957747E-01            NaN
         13   -1    0    0    0    0  0.00000000000E+00  0.00000000000E+00  0.74505805969E-08  0.10566000000E+00  0.10566000000E+00 0.  1.
     999900   -1    0    0    0    0 -0.00000000000E+00 -0.00000000000E+00 -0.74505805969E-08  0.93827000000E+00  0.93827000000E+00 0.  1.
     999902    2    1    2    0    0 -0.77392756629E-02 -0.16843321229E-01  0.15600095250E-01  0.10197028081E+01  0.10194149596E+01 0.  0.
     999903    2    3    3    0    0 -0.74695402964E-01 -0.98279472425E-01 -0.40539561654E-01  0.13163376187E+00  0.21112396402E-01 0.  0.
         14    1    1    2    0    0  0.77392756629E-02  0.16843321229E-01 -0.15600095250E-01  0.24227191947E-01  0.00000000000E+00 0. -1.
     999901    1    3    3    0    0  0.66956127301E-01  0.81436151196E-01  0.56139656904E-01  0.88806904618E+00  0.88000000000E+00 0. -1.
        -11    1    4    4    0    0 -0.52564434543E-01 -0.77397592205E-01 -0.38374595828E-01  0.10112506012E+00  0.51100000000E-03 0. -1.
         11    1    4    4    0    0 -0.22130968421E-01 -0.20881880220E-01 -0.21649658262E-02  0.30508701755E-01  0.51100000000E-03 0.  1.
</event>
<event>
 7    1  0.1094134E+005  0.1043930E+01  0.7957747E-01            NaN
         13   -1    0    0    0    0  0.00000000000E+00  0.00000000000E+00  0.74505805969E-08  0.10566000000E+00  0.10566000000E+00 0. -1.
     999900   -1    0    0    0    0 -0.00000000000E+00 -0.00000000000E+00 -0.74505805969E-08  0.93827000000E+00  0.93827000000E+00 0. -1.
     999903    2    1    2    0    0 -0.19631323747E-01 -0.46302692110E-01 -0.85402619223E-01  0.10128347320E+00  0.20866394140E-01 0.  0.
         14    1    1    2    0    0  0.58869161990E-02  0.13195786680E-01  0.59825184578E-01  0.61545408263E-01  0.00000000000E+00 0. -1.
     999901    1    1    2    0    0  0.13744407548E-01  0.33106905431E-01  0.25577434645E-01  0.88110111854E+00  0.88000000000E+00 0.  1.
        -11    1    3    3    0    0 -0.87745638803E-02 -0.10694206603E-01 -0.41350786767E-01  0.43606280665E-01  0.51100000000E-03 0.  1.
         11    1    3    3    0    0 -0.10856759866E-01 -0.35608485507E-01 -0.44051832456E-01  0.57677192534E-01  0.51100000000E-03 0. -1.
</event>
<event>
 8    1  0.1094134E+005  0.1043930E+01  0.7957747E-01            NaN
         13   -1    0    0    0    0  0.00000000000E+00  0.00000000000E+00  0.74505805969E-08  0.10566000000E+00  0.10566000000E+00 0.  1.
     999900   -1    0    0    0    0 -0.00000000000E+00 -0.00000000000E+00 -0.74505805969E-08  0.93827000000E+00  0.93827000000E+00 0.  1.
     999902    2    1    2    0    0  0.10808317474E-01  0.19918642730E-01 -0.49648808221E-02  0.10207303859E+01  0.10204667062E+01 0.  0.
     999903    2    3    3    0    0  0.67294037354E-01 -0.53022359459E-01 -0.97176387023E-01  0.13111586921E+00  0.20205516528E-01 0.  0.
         14    1    1    2    0    0 -0.10808317474E-01 -0.19918642730E-01  0.49648808221E-02  0.23199614143E-01  0.00000000000E+00 0.  1.
     999901    1    3    3    0    0 -0.56485719880E-01  0.72941002189E-01  0.92211506201E-01  0.88961451665E+00  0.88000000000E+00 0. -1.
        -11    1    4    4    0    0  0.29561540260E-01 -0.14085909526E-01 -0.27080724572E-01  0.42496167757E-01  0.51100000000E-03 0.  1.
         11    1    4    4    0    0  0.37732497094E-01 -0.38936449933E-01 -0.70095662451E-01  0.88619701454E-01  0.51100000000E-03 0. -1.
</event>
<event>
 8    1  0.1094134E+005  0.1043930E+01  0.7957747E-01            NaN
         13   -1    0    0    0    0  0.00000000000E+00  0.00000000000E+00  0.74505805969E-08  0.10566000000E+00  0.10566000000E+00 0. -1.
     999900   -1    0    0    0    0 -0.00000000000E+00 -0.00000000000E+00 -0.74505805969E-08  0.93827000000E+00  0.93827000000E+00 0.  1.
     999902    2    1    2    0    0  0.12260765781E-01 -0.16420096608E-01 -0.11350821487E-01  0.10205037946E+01  0.10202348787E+01 0.  0.
     999903    2    3    3    0    0  0.96792820227E-01 -0.39905628405E-02 -0.88932776784E-01  0.13296837486E+00  0.19666603344E-01 0.  0.
         14    1    1    2    0    0 -0.12260765781E-01  0.16420096608E-01  0.11350821487E-01  0.23426205382E-01  0.00000000000E+00 0. -1.
     999901    1    3    3    0    0 -0.84532054446E-01 -0.12429533767E-01  0.77581955296E-01  0.88753541976E+00  0.88000000000E+00 0.  1.
        -11    1    4    4    0    0  0.64024522399E-01 -0.33247957636E-02 -0.70774014546E-01  0.95495633362E-01  0.51100000000E-03 0.  1.
         11    1    4    4    0    0  0.32768297828E-01 -0.66576707685E-03 -0.18158762238E-01  0.37472741498E-01  0.51100000000E-03 0. -1.
</event>
<event>
 8    1  0.1094134E+005  0.1043930E+01  0.7957747E-01            NaN
         13   -1    0    0    0    0  0.00000000000E+00  0.00000000000E+00  0.74505805969E-08  0.10566000000E+00  0.10566000000E+00 0.  1.
     999900   -1    0    0    0    0 -0.00000000000E+00 -0.00000000000E+00 -0.74505805969E-08  0.93827000000E+00  0.93827000000E+00 0. -1.
     999902    2    1    2    0    0 -0.17260990750E-01  0.16463356399E-01 -0.71747085432E-03  0.10200658287E+01  0.10197866425E+01 0.  0.
     999903    2    3    3    0    0  0.11831100054E+00 -0.12152217463E-01  0.43097048079E-01  0.12814748721E+00  0.20475685255E-01 0.  0.
         14    1    1    2    0    0  0.17260990750E-01 -0.16463356399E-01  0.71747085432E-03  0.23864171262E-01  0.00000000000E+00 0.  1.
     999901    1    3    3    0    0 -0.13557199129E+00  0.28615573861E-01 -0.43814518934E-01  0.89191834153E+00  0.88000000000E+00 0.  1.
        -11    1    4    4    0    0  0.59125437430E-01 -0.32253142408E-02  0.31867842461E-01  0.67246118902E-01  0.51100000000E-03 0. -1.
         11    1    4    4    0    0  0.59185563109E-01 -0.89269032220E-02  0.11229205618E-01  0.60901368306E-01  0.51100000000E-03 0.  1.
</event>
<event>
 8    1  0.1094134E+005  0.1043930E+01  0.7957747E-01            NaN
         13   -1    0    0    0    0  0.00000000000E+00  0.00000000000E+00  0.74505805969E-08  0.10566000000E+00  0.10566000000E+00 0.  1.
     999900   -1    0    0    0    0 -0.00000000000E+00 -0.00000000000E+00 -0.74505805969E-08  0.93827000000E+00  0.93827000000E+00 0.  1.
     999902    2    1    2    0    0  0.16632371174E-01 -0.14783294840E-01 -0.69270085195E-02  0.10206240989E+01  0.10203579697E+01 0.  0.
     999903    2    3    3    0    0  0.53808339266E-02 -0.10639257067E+00 -0.77084678119E-01  0.13302004582E+00  0.20098570148E-01 0.  0.
         14    1    1    2    0    0 -0.16632371174E-01  0.14783294840E-01  0.69270085195E-02  0.23305901060E-01  0.00000000000E+00 0. -1.
     999901    1    3    3    0    0  0.11251537248E-01  0.91609275830E-01  0.70157669600E-01  0.88760405312E+00  0.88000000000E+00 0.  1.
        -11    1    4    4    0    0  0.20895545242E-02 -0.36358516887E-01 -0.15071734764E-01  0.39417334995E-01  0.51100000000E-03 0. -1.
         11    1    4    4    0    0  0.32912794024E-02 -0.70034053783E-01 -0.62012943355E-01  0.93602710826E-01  0.51100000000E-03 0.  1.
</event>
<event>
 8    1  0.1094134E+005  0.1043930E+01  0.7957747E-01            NaN
         13   -1    0    0    0    0  0.00000000000E+00  0.00000000000E+00  0.74505805969E-08  0.10566000000E+00  0.10566000000E+00 0. -1.
     999900   -1    0    0    0    0 -0.00000000000E+00 -0.00000000000E+00 -0.74505805969E-08  0.93827000000E+00  0.93827000000E+00 0. -1.
     999902    2    1    2    0    0  0.94961153245E-02 -0.13429982926E-01 -0.17224364200E-01  0.10201136323E+01  0.10198355767E+01 0.  0.
     999903    2    3    3    0    0 -0.55983532473E-01 -0.25562353742E-01 -0.11523252802E+00  0.13217197946E+00  0.20082499923E-01 0.  0.
         14    1    1    2    0    0 -0.94961153245E-02  0.13429982926E-01  0.17224364200E-01  0.23816367686E-01  0.00000000000E+00 0.  1.
     999901    1    3    3    0    0  0.65479647797E-01  0.12132370816E-01  0.98008163822E-01  0.88794165285E+00  0.88000000000E+00 0.  1.
        -11    1    4    4    0    0 -0.18791964740E-01 -0.59009457770E-02 -0.57162913282E-01  0.60463368048E-01  0.51100000000E-03 0.  1.
         11    1    4    4    0    0 -0.37191567733E-01 -0.19661407965E-01 -0.58069614740E-01  0.71708611412E-01  0.51100000000E-03 0. -1.
</event>
<event>
 8    1  0.1094134E+005  0.1043930E+01  0.7957747E-01            NaN
         13   -1    0    0    0    0  0.00000000000E+00  0.00000000000E+00  0.74505805969E-08  0.10566000000E+00  0.10566000000E+00 0. -1.
     999900   -1    0    0    0    0 -0.00000000000E+00 -0.00000000000E+00 -0.74505805969E-08  0.93827000000E+00  0.93827000000E+00 0. -1.
     999902    2    1    2    0    0  0.22112124748E-01 -0.69654326984E-02  0.28810794944E-02  0.10205684090E+01  0.10203009917E+01 0.  0.
     999903    2    3    3    0    0  0.85202710390E-01  0.51161746905E-01 -0.84660553146E-01  0.13207376726E+00  0.19976099118E-01 0.  0.
         14    1    1    2    0    0 -0.22112124748E-01  0.69654326984E-02 -0.28810794944E-02  0.23361590969E-01  0.00000000000E+00 0. -1.
     999901    1    3    3    0    0 -0.63090585642E-01 -0.58127179604E-01  0.87541632640E-01  0.88849464177E+00  0.88000000000E+00 0. -1.
        -11    1    4    4    0    0  0.42309507531E-01  0.33342065860E-01 -0.54851426397E-01  0.76881258328E-01  0.51100000000E-03 0. -1.
         11    1    4    4    0    0  0.42893202859E-01  0.17819681046E-01 -0.29809126749E-01  0.55192508935E-01  0.51100000000E-03 0.  1.
</event>
<event>
 8    1  0.1094134E+005  0.1043930E+01  0.7957747E-01            NaN
         13   -1    0    0    0    0  0.00000000000E+00  0.00000000000E+00  0.74505805969E-08  0.10566000000E+00  0.10566000000E+00 0.  1.
     999900   -1    0    0    0    0 -0.00000000000E+00 -0.00000000000E+00 -0.74505805969E-08  0.93827000000E+00  0.93827000000E+00 0.  1.
     999902    2    1    2    0    0 -0.36464245891E-02  0.22827194850E-01  0.95232335255E-02  0.10189286158E+01  0.10186218409E+01 0.  0.
     999903    2    3    3    0    0 -0.10569796344E+00  0.60239636007E-01 -0.42320212856E-01  0.13072709006E+00  0.22309155895E-01 0.  0.
         14    1    1    2    0    0  0.36464245891E-02 -0.22827194850E-01 -0.95232335255E-02  0.25001384238E-01  0.00000000000E+00 0. -1.
     999901    1    3    3    0    0  0.10205153885E+00 -0.37412441156E-01  0.51843446382E-01  0.88820152571E+00  0.88000000000E+00 0. -1.
        -11    1    4    4    0    0 -0.64404582455E-01  0.24699788190E-01 -0.27533796739E-01  0.74272477148E-01  0.51100000000E-03 0. -1.
         11    1    4    4    0    0 -0.41293380984E-01  0.35539847817E-01 -0.14786416118E-01  0.56454612908E-01  0.51100000000E-03 0.  1.
</event>
<event>
 7    1  0.1112012E+005  0.1043930E+01  0.7957747E-01            NaN
         13   -1    0    0    0    0  0.00000000000E+00  0.00000000000E+00  0.74505805969E-08  0.10566000000E+00  0.10566000000E+00 0. -1.
     999900   -1    0    0    0    0 -0.00000000000E+00 -0.00000000000E+00 -0.74505805969E-08  0.93827000000E+00  0.93827000000E+00 0. -1.
     999902    2    1    2    0    0 -0.16624394955E-01 -0.74537922519E-02 -0.15323432566E-01  0.10201237590E+01  0.10198459425E+01 0.  0.
         14    1    1    2    0    0  0.16624394955E-01  0.74537922519E-02  0.15323432566E-01  0.23806241034E-01  0.00000000000E+00 0. -1.
     999901    1    3    3    0    0  0.41432262177E-01 -0.12208819816E+00 -0.34939917658E-01  0.89008031004E+00  0.88000000000E+00 0.  1.
        -11    1    3    3    0    0 -0.19417889476E-01  0.37680443211E-01  0.82077104249E-02  0.43179831677E-01  0.51100000000E-03 0.  1.
         11    1    3    3    0    0 -0.38638767656E-01  0.76953962697E-01  0.11408774667E-01  0.86863617247E-01  0.51100000000E-03 0. -1.
</event>
<event>
 8    1  0.1094134E+005  0.1043930E+01  0.7957747E-01            NaN
         13   -1    0    0    0    0  0.00000000000E+00  0.00000000000E+00  0.74505805969E-08  0.10566000000E+00  0.10566000000E+00 0. -1.
     999900   -1    0    0    0    0 -0.00000000000E+00 -0.00000000000E+00 -0.74505805969E-08  0.93827000000E+00  0.93827000000E+00 0. -1.
     999902    2    1    2    0    0 -0.16667449326E-01  0.67586617671E-02 -0.69077205130E-02  0.10246634492E+01  0.10244823006E+01 0.  0.
     999903    2    3    3    0    0 -0.11905755656E+00  0.47186094089E-01 -0.44361951956E-01  0.13701434581E+00  0.20092758108E-01 0.  0.
         14    1    1    2    0    0  0.16667449326E-01 -0.67586617671E-02  0.69077205130E-02  0.19266550771E-01  0.00000000000E+00 0. -1.
     999901    1    3    3    0    0  0.10239010723E+00 -0.40427432322E-01  0.37454231443E-01  0.88764910342E+00  0.88000000000E+00 0. -1.
        -11    1    4    4    0    0 -0.66029749485E-01  0.16104130239E-01 -0.27080086405E-01  0.73163262834E-01  0.51100000000E-03 0. -1.
         11    1    4    4    0    0 -0.53027807072E-01  0.31081963850E-01 -0.17281865551E-01  0.63851082979E-01  0.51100000000E-03 0.  1.
</event>
<event>
 8    1  0.1094134E+005  0.1043930E+01  0.7957747E-01            NaN
         13   -1    0    0    0    0  0.00000000000E+00  0.00000000000E+00  0.74505805969E-08  0.10566000000E+00  0.10566000000E+00 0.  1.
     999900   -1    0    0    0    0 -0.00000000000E+00 -0.00000000000E+00 -0.74505805969E-08  0.93827000000E+00  0.93827000000E+00 0.  1.
     999902    2    1    2    0    0  0.21627581955E-01  0.34576163711E-02  0.85733596757E-02  0.10204095853E+01  0.10201384768E+01 0.  0.
     999903    2    3    3    0    0  0.12368558875E+00 -0.87108099002E-02  0.46376433182E-01  0.13362157245E+00  0.18164470695E-01 0.  0.
         14    1    1    2    0    0 -0.21627581955E-01 -0.34576163711E-02 -0.85733596757E-02  0.23520414714E-01  0.00000000000E+00 0. -1.
     999901    1    3    3    0    0 -0.10205800679E+00  0.12168426271E-01 -0.37803073506E-01  0.88678801284E+00  0.88000000000E+00 0.  1.
        -11    1    4    4    0    0  0.80284585321E-01  0.29421664726E-02  0.31234502484E-01  0.86198180086E-01  0.51100000000E-03 0.  1.
         11    1    4    4    0    0  0.43401003426E-01 -0.11652976373E-01  0.15141930698E-01  0.47423392361E-01  0.51100000000E-03 0. -1.
</event>
<event>
 8    1  0.1094134E+005  0.1043930E+01  0.7957747E-01            NaN
         13   -1    0    0    0    0  0.00000000000E+00  0.00000000000E+00  0.74505805969E-08  0.10566000000E+00  0.10566000000E+00 0.  1.
     999900   -1    0    0    0    0 -0.00000000000E+00 -0.00000000000E+00 -0.74505805969E-08  0.93827000000E+00  0.93827000000E+00 0. -1.
     999902    2    1    2    0    0 -0.21127145143E-01  0.81994899439E-02  0.74741838038E-02  0.10200668208E+01  0.10197876581E+01 0.  0.
     999903    2    3    3    0    0 -0.98014431535E-01 -0.56372957793E-01  0.64672209308E-01  0.13251238872E+00  0.24337200901E-01 0.  0.
         14    1    1    2    0    0  0.21127145143E-01 -0.81994899439E-02 -0.74741838038E-02  0.23863179184E-01  0.00000000000E+00 0. -1.
     999901    1    3    3    0    0  0.76887286392E-01  0.64572447737E-01 -0.57198025504E-01  0.88755443210E+00  0.88000000000E+00 0. -1.
        -11    1    4    4    0    0 -0.59064778665E-01 -0.23398610096E-01  0.26772348911E-01  0.68943185453E-01  0.51100000000E-03 0.  1.
         11    1    4    4    0    0 -0.38949652870E-01 -0.32974347697E-01  0.37899860397E-01  0.63569203265E-01  0.51100000000E-03 0. -1.
</event>
<event>
 8    1  0.1094134E+005  0.1043930E+01  0.7957747E-01            NaN
         13   -1    0    0    0    0  0.00000000000E+00  0.00000000000E+00  0.74505805969E-08  0.10566000000E+00  0.10566000000E+00 0. -1.
     999900   -1    0    0    0    0 -0.00000000000E+00 -0.00000000000E+00 -0.74505805969E-08  0.93827000000E+00  0.93827000000E+00 0.  1.
     999902    2    1    2    0    0 -0.14777732208E-01 -0.65783399125E-03  0.21255618371E-01  0.10180337565E+01  0.10177043352E+01 0.  0.
     999903    2    3    3    0    0 -0.94563535568E-02 -0.12725685817E+00 -0.78796333293E-02  0.12848078288E+00  0.12707964971E-01 0.  0.
         14    1    1    2    0    0  0.14777732208E-01  0.65783399125E-03 -0.21255618371E-01  0.25896243494E-01  0.00000000000E+00 0.  1.
     999901    1    3    3    0    0 -0.53213786513E-02  0.12659902418E+00  0.29135251701E-01  0.88955297363E+00  0.88000000000E+00 0. -1.
        -11    1    4    4    0    0 -0.81684479018E-02 -0.55149004925E-01  0.13638410827E-02  0.55769682345E-01  0.51100000000E-03 0. -1.
         11    1    4    4    0    0 -0.12879056550E-02 -0.72107853247E-01 -0.92434744121E-02  0.72711100536E-01  0.51100000000E-03 0.  1.
</event>
<event>
 8    1  0.1094134E+005  0.1043930E+01  0.7957747E-01            NaN
         13   -1    0    0    0    0  0.00000000000E+00  0.00000000000E+00  0.74505805969E-08  0.10566000000E+00  0.10566000000E+00 0. -1.
     999900   -1    0    0    0    0 -0.00000000000E+00 -0.00000000000E+00 -0.74505805969E-08  0.93827000000E+00  0.93827000000E+00 0.  1.
     999902    2    1    2    0    0 -0.95426784806E-02  0.16045389040E-02  0.22325768788E-01  0.10195973633E+01  0.10193069734E+01 0.  0.
     999903    2    3    3    0    0  0.49508752507E-01  0.10102593838E+00 -0.58416348338E-01  0.12836732808E+00  0.20207532376E-01 0.  0.
         14    1    1    2    0    0  0.95426784806E-02 -0.16045389040E-02 -0.22325768788E-01  0.24332636718E-01  0.00000000000E+00 0.  1.
     999901    1    3    3    0    0 -0.59051430988E-01 -0.99421399472E-01  0.80742117126E-01  0.89123003521E+00  0.88000000000E+00 0. -1.
        -11    1    4    4    0    0  0.17291245183E-01  0.58146159170E-01 -0.31517022739E-01  0.68363344195E-01  0.51100000000E-03 0.  1.
         11    1    4    4    0    0  0.32217507325E-01  0.42879779206E-01 -0.26899325598E-01  0.60003983882E-01  0.51100000000E-03 0. -1.
</event>
<event>
 8    1  0.1094134E+005  0.1043930E+01  0.7957747E-01            NaN
         13   -1    0    0    0    0  0.00000000000E+00  0.00000000000E+00  0.74505805969E-08  0.10566000000E+00  0.10566000000E+00 0.  1.
     999900   -1    0    0    0    0 -0.00000000000E+00 -0.00000000000E+00 -0.74505805969E-08  0.93827000000E+00  0.93827000000E+00 0.  1.
     999902    2    1    2    0    0 -0.37300953849E-02  0.20333969994E-01 -0.21547736577E-01  0.10140688396E+01  0.10136290853E+01 0.  0.
     999903    2    3    3    0    0  0.61990278150E-01  0.37613554882E-01 -0.10333520808E+00  0.12766772160E+00  0.19060635168E-01 0.  0.
         14    1    1    2    0    0  0.37300953849E-02 -0.20333969994E-01  0.21547736577E-01  0.29861160374E-01  0.00000000000E+00 0.  1.
     999901    1    3    3    0    0 -0.65720373534E-01 -0.17279584888E-01  0.81787471500E-01  0.88640111803E+00  0.88000000000E+00 0. -1.
        -11    1    4    4    0    0  0.20655063112E-01  0.18713736567E-01 -0.26902720681E-01  0.38740844976E-01  0.51100000000E-03 0.  1.
         11    1    4    4    0    0  0.41335215038E-01  0.18899818315E-01 -0.76432487396E-01  0.88926876619E-01  0.51100000000E-03 0. -1.
</event>
<event>
 8    1  0.1094134E+005  0.1043930E+01  0.7957747E-01            NaN
         13   -1    0    0    0    0  0.00000000000E+00  0.00000000000E+00  0.74505805969E-08  0.10566000000E+00  0.10566000000E+00 0.  1.
     999900   -1    0    0    0    0 -0.00000000000E+00 -0.00000000000E+00 -0.74505805969E-08  0.93827000000E+00  0.93827000000E+00 0.  1.
     999902    2    1    2    0    0 -0.35407531895E-02 -0.20100612283E-01 -0.11831301750E-01  0.10203386616E+01  0.10200658964E+01 0.  0.
     999903    2    3    3    0    0 -0.80984696732E-02 -0.12285334369E+00  0.44004743088E-01  0.13259063399E+00  0.22030196126E-01 0.  0.
         14    1    1    2    0    0  0.35407531895E-02  0.20100612283E-01  0.11831301750E-01  0.23591338419E-01  0.00000000000E+00 0. -1.
     999901    1    3    3    0    0  0.45577164837E-02  0.10275273140E+00 -0.55836044838E-01  0.88774802759E+00  0.88000000000E+00 0.  1.
        -11    1    4    4    0    0  0.23022789938E-02 -0.73301431406E-01  0.17327018659E-01  0.75358390583E-01  0.51100000000E-03 0. -1.
         11    1    4    4    0    0 -0.10400748667E-01 -0.49551912281E-01  0.26677724430E-01  0.57232243406E-01  0.51100000000E-03 0.  1.
</event>
<event>
 8    1  0.1094134E+005  0.1043930E+01  0.7957747E-01            NaN
         13   -1    0    0    0    0  0.00000000000E+00  0.00000000000E+00  0.74505805969E-08  0.10566000000E+00  0.10566000000E+00 0. -1.
     999900   -1    0    0    0    0 -0.00000000000E+00 -0.00000000000E+00 -0.74505805969E-08  0.93827000000E+00  0.93827000000E+00 0. -1.
     999902    2    1    2    0    0 -0.32738091525E-03 -0.16085637321E-01  0.17067672944E-01  0.10204745024E+01  0.10202049058E+01 0.  0.
     999903    2    3    3    0    0  0.67658421072E-01  0.10805464510E+00  0.75071476216E-02  0.12911358640E+00  0.18986644167E-01 0.  0.
         14    1    1    2    0    0  0.32738091525E-03  0.16085637321E-01 -0.17067672944E-01  0.23455497565E-01  0.00000000000E+00 0.  1.
     999901    1    3    3    0    0 -0.67985801988E-01 -0.12414028243E+00  0.95605253228E-02  0.89136091604E+00  0.88000000000E+00 0.  1.
        -11    1    4    4    0    0  0.43287253031E-01  0.51479620255E-01  0.53059905258E-02  0.67471121475E-01  0.51100000000E-03 0.  1.
         11    1    4    4    0    0  0.24371168042E-01  0.56575024849E-01  0.22011570958E-02  0.61642464924E-01  0.51100000000E-03 0. -1.
</event>
<event>
 8    1  0.1094134E+005  0.1043930E+01  0.7957747E-01            NaN
         13   -1    0    0    0    0  0.00000000000E+00  0.00000000000E+00  0.74505805969E-08  0.10566000000E+00  0.10566000000E+00 0. -1.
     999900   -1    0    0    0    0 -0.00000000000E+00 -0.00000000000E+00 -0.74505805969E-08  0.93827000000E+00  0.93827000000E+00 0.  1.
     999902    2    1    2    0    0  0.40140355759E-02 -0.23814796821E-01 -0.24673938559E-02  0.10196535698E+01  0.10193645361E+01 0.  0.
     999903    2    3    3    0    0 -0.87938492297E-01  0.66825647149E-01 -0.62022252291E-01  0.12824023213E+00  0.19998795313E-01 0.  0.
         14    1    1    2    0    0 -0.40140355759E-02  0.23814796821E-01  0.24673938559E-02  0.24276430167E-01  0.00000000000E+00 0. -1.
     999901    1    3    3    0    0  0.91952527873E-01 -0.90640443970E-01  0.59554858435E-01  0.89141333770E+00  0.88000000000E+00 0. -1.
        -11    1    4    4    0    0 -0.77249302125E-01  0.49281724222E-01 -0.48985596668E-01  0.10390376713E+00  0.51100000000E-03 0. -1.
         11    1    4    4    0    0 -0.10689190172E-01  0.17543922927E-01 -0.13036655622E-01  0.24336465007E-01  0.51100000000E-03 0.  1.
</event>
<event>
 8    1  0.1094134E+005  0.1043930E+01  0.7957747E-01            NaN
         13   -1    0    0    0    0  0.00000000000E+00  0.00000000000E+00  0.74505805969E-08  0.10566000000E+00  0.10566000000E+00 0.  1.
     999900   -1    0    0    0    0 -0.00000000000E+00 -0.00000000000E+00 -0.74505805969E-08  0.93827000000E+00  0.93827000000E+00 0. -1.
     999902    2    1    2    0    0 -0.22945336130E-01 -0.59157309622E-02 -0.17889500794E-02  0.10201669054E+01  0.10198901069E+01 0.  0.
     999903    2    3    3    0    0  0.48004130593E-01  0.10212057393E+00  0.58518922454E-01  0.12868347341E+00  0.20049036656E-01 0.  0.
         14    1    1    2    0    0  0.22945336130E-01  0.59157309622E-02  0.17889500794E-02  0.23763094607E-01  0.00000000000E+00 0.  1.
     999901    1    3    3    0    0 -0.70949466723E-01 -0.10803630489E+00 -0.60307872534E-01  0.89148343198E+00  0.88000000000E+00 0. -1.
        -11    1    4    4    0    0  0.84286349694E-02  0.39985784556E-01  0.23054182020E-01  0.46921863599E-01  0.51100000000E-03 0.  1.
         11    1    4    4    0    0  0.39575495624E-01  0.62134789374E-01  0.35464740434E-01  0.81761609815E-01  0.51100000000E-03 0. -1.
</event>
<event>
 8    1  0.1094134E+005  0.1043930E+01  0.7957747E-01            NaN
         13   -1    0    0    0    0  0.00000000000E+00  0.00000000000E+00  0.74505805969E-08  0.10566000000E+00  0.10566000000E+00 0. -1.
     999900   -1    0    0    0    0 -0.00000000000E+00 -0.00000000000E+00 -0.74505805969E-08  0.93827000000E+00  0.93827000000E+00 0. -1.
     999902    2    1    2    0    0  0.22380523488E-01 -0.55791471166E-03  0.20986431453E-02  0.10214443734E+01  0.10211968491E+01 0.  0.
     999903    2    3    3    0    0  0.10920054770E+00  0.58163998268E-01 -0.47229843674E-01  0.13385253067E+00  0.19443032756E-01 0.  0.
         14    1    1    2    0    0 -0.22380523488E-01  0.55791471166E-03 -0.20986431453E-02  0.22485626598E-01  0.00000000000E+00 0. -1.
     999901    1    3    3    0    0 -0.86820024207E-01 -0.58721912979E-01  0.49328486819E-01  0.88759184273E+00  0.88000000000E+00 0.  1.
        -11    1    4    4    0    0  0.66905452350E-01  0.35093906515E-01 -0.18602813921E-01  0.77809045974E-01  0.51100000000E-03 0. -1.
         11    1    4    4    0    0  0.42295095346E-01  0.23070091753E-01 -0.28627029753E-01  0.56043484700E-01  0.51100000000E-03 0.  1.
</event>
<event>
 8    1  0.1094134E+005  0.1043930E+01  0.7957747E-01            NaN
         13   -1    0    0    0    0  0.00000000000E+00  0.00000000000E+00  0.74505805969E-08  0.10566000000E+00  0.10566000000E+00 0. -1.
     999900   -1    0    0    0    0 -0.00000000000E+00 -0.00000000000E+00 -0.74505805969E-08  0.93827000000E+00  0.93827000000E+00 0.  1.
     999902    2    1    2    0    0 -0.25129076837E-02 -0.39556100473E-02 -0.22719766337E-01  0.10207319540E+01  0.10204683104E+01 0.  0.
     999903    2    3    3    0    0  0.65102103447E-01  0.10859385674E+00 -0.26910716680E-01  0.13098101342E+00  0.20023226725E-01 0.  0.
         14    1    1    2    0    0  0.25129076837E-02  0.39556100473E-02  0.22719766337E-01  0.23198046002E-01  0.00000000000E+00 0. -1.
     999901    1    3    3    0    0 -0.67615011131E-01 -0.11254946679E+00  0.41909503427E-02  0.88975094058E+00  0.88000000000E+00 0. -1.
        -11    1    4    4    0    0  0.63041577209E-01  0.94674235290E-01 -0.20793641966E-01  0.11562909648E+00  0.51100000000E-03 0.  1.
         11    1    4    4    0    0  0.20605262385E-02  0.13919621448E-01 -0.61170747140E-02  0.15351916939E-01  0.51100000000E-03 0. -1.
</event>
<event>
 8    1  0.1094134E+005  0.1043930E+01  0.7957747E-01            NaN
         13   -1    0    0    0    0  0.00000000000E+00  0.00000000000E+00  0.74505805969E-08  0.10566000000E+00  0.10566000000E+00 0. -1.
     999900   -1    0    0    0    0 -0.00000000000E+00 -0.00000000000E+00 -0.74505805969E-08  0.93827000000E+00  0.93827000000E+00 0. -1.
     999902    2    1    2    0    0 -0.12527163137E-01  0.13348362412E-01 -0.10397912016E-02  0.10255945218E+01  0.10254306088E+01 0.  0.
     999903    2    3    3    0    0 -0.80026870606E-01 -0.88336504188E-01 -0.61242759437E-01  0.13513373097E+00  0.17401484759E-01 0.  0.
         14    1    1    2    0    0  0.12527163137E-01 -0.13348362412E-01  0.10397912016E-02  0.18335478208E-01  0.00000000000E+00 0. -1.
     999901    1    3    3    0    0  0.67499707469E-01  0.10168486660E+00  0.60202968235E-01  0.89046079082E+00  0.88000000000E+00 0.  1.
        -11    1    4    4    0    0 -0.66114984315E-01 -0.65960517624E-01 -0.53662220282E-01  0.10771200510E+00  0.51100000000E-03 0.  1.
         11    1    4    4    0    0 -0.13911886291E-01 -0.22375986564E-01 -0.75805391551E-02  0.27421725872E-01  0.51100000000E-03 0. -1.
</event>
<event>
 8    1  0.1094134E+005  0.1043930E+01  0.7957747E-01            NaN
         13   -1    0    0    0    0  0.00000000000E+00  0.00000000000E+00  0.74505805969E-08  0.10566000000E+00  0.10566000000E+00 0. -1.
     999900   -1    0    0    0    0 -0.00000000000E+00 -0.00000000000E+00 -0.74505805969E-08  0.93827000000E+00  0.93827000000E+00 0.  1.
     999902    2    1    2    0    0  0.19052217120E-01 -0.26252625403E-02 -0.15848962218E-01  0.10190087524E+01  0.10187039652E+01 0.  0.
     999903    2    3    3    0    0  0.87236460470E-01  0.90531310266E-01  0.28421141738E-01  0.13036535920E+00  0.19525557821E-01 0.  0.
         14    1    1    2    0    0 -0.19052217120E-01  0.26252625403E-02  0.15848962218E-01  0.24921247641E-01  0.00000000000E+00 0. -1.
     999901    1    3    3    0    0 -0.68184243350E-01 -0.93156572806E-01 -0.44270103956E-01  0.88864339316E+00  0.88000000000E+00 0.  1.
        -11    1    4    4    0    0  0.62439084480E-01  0.55385438664E-01  0.12010211311E-01  0.84324921485E-01  0.51100000000E-03 0. -1.
         11    1    4    4    0    0  0.24797375989E-01  0.35145871602E-01  0.16410930427E-01  0.46040437716E-01  0.51100000000E-03 0.  1.
</event>
<event>
 8    1  0.1094134E+005  0.1043930E+01  0.7957747E-01            NaN
         13   -1    0    0    0    0  0.00000000000E+00  0.00000000000E+00  0.74505805969E-08  0.10566000000E+00  0.10566000000E+00 0. -1.
     999900   -1    0    0    0    0 -0.00000000000E+00 -0.00000000000E+00 -0.74505805969E-08  0.93827000000E+00  0.93827000000E+00 0.  1.
     999902    2    1    2    0    0 -0.12969516560E-01  0.13148910302E-01 -0.15186806487E-01  0.10200188877E+01  0.10197385890E+01 0.  0.
     999903    2    3    3    0    0 -0.12471753602E+00 -0.24560485459E-01  0.20454981064E-01  0.13143577090E+00  0.26443796724E-01 0.  0.
         14    1    1    2    0    0  0.12969516560E-01 -0.13148910302E-01  0.15186806487E-01  0.23911112337E-01  0.00000000000E+00 0.  1.
     999901    1    3    3    0    0  0.11174801946E+00  0.37709395761E-01 -0.35641787551E-01  0.88858311677E+00  0.88000000000E+00 0.  1.
        -11    1    4    4    0    0 -0.10040697332E+00 -0.87012355567E-02  0.14940212520E-01  0.10188593064E+00  0.51100000000E-03 0. -1.
         11    1    4    4    0    0 -0.24310562695E-01 -0.15859249902E-01  0.55147685440E-02  0.29549840255E-01  0.51100000000E-03 0.  1.
</event>
<event>
 8    1  0.1094134E+005  0.1043930E+01  0.7957747E-01            NaN
         13   -1    0    0    0    0  0.00000000000E+00  0.00000000000E+00  0.74505805969E-08  0.10566000000E+00  0.10566000000E+00 0. -1.
     999900   -1    0    0    0    0 -0.00000000000E+00 -0.00000000000E+00 -0.74505805969E-08  0.93827000000E+00  0.93827000000E+00 0. -1.
     999902    2    1    2    0    0  0.30640669460E-02  0.23319873654E-01 -0.19112569750E-02  0.10203321629E+01  0.10200592457E+01 0.  0.
     999903    2    3    3    0    0  0.97741496107E-01  0.85708878318E-01 -0.19185110574E-01  0.13288943824E+00  0.19802081831E-01 0.  0.
         14    1    1    2    0    0 -0.30640669460E-02 -0.23319873654E-01  0.19112569750E-02  0.23597837119E-01  0.00000000000E+00 0.  1.
     999901    1    3    3    0    0 -0.94677429161E-01 -0.62389004664E-01  0.17273853599E-01  0.88744272464E+00  0.88000000000E+00 0.  1.
        -11    1    4    4    0    0  0.73881181879E-01  0.68641172654E-01 -0.22604094511E-01  0.10335011286E+00  0.51100000000E-03 0. -1.
         11    1    4    4    0    0  0.23860314228E-01  0.17067705664E-01  0.34189839370E-02  0.29539325379E-01  0.51100000000E-03 0.  1.
</event>
<event>
 8    1  0.1094134E+005  0.1043930E+01  0.7957747E-01            NaN
         13   -1    0    0    0    0  0.00000000000E+00  0.00000000000E+00  0.74505805969E-08  0.10566000000E+00  0.10566000000E+00 0. -1.
     999900   -1    0    0    0    0 -0.00000000000E+00 -0.00000000000E+00 -0.74505805969E-08  0.93827000000E+00  0.93827000000E+00 0.  1.
     999902    2    1    2    0    0  0.17610921796E-02 -0.23011566698E-01 -0.71899923979E-02  0.10197570888E+01  0.10194705442E+01 0.  0.
     999903    2    3    3    0    0 -0.92697091084E-01 -0.43149126684E-01  0.78594967629E-01  0.13032641182E+00  0.18793798204E-01 0.  0.
         14    1    1    2    0    0 -0.17610921796E-02  0.23011566698E-01  0.71899923979E-02  0.24172911249E-01  0.00000000000E+00 0.  1.
     999901    1    3    3    0    0  0.94458183264E-01  0.20137559986E-01 -0.85784960027E-01  0.88943067694E+00  0.88000000000E+00 0.  1.
        -11    1    4    4    0    0 -0.44260685572E-01 -0.14100321235E-01  0.26465196724E-01  0.53464896006E-01  0.51100000000E-03 0. -1.
         11    1    4    4    0    0 -0.48436405512E-01 -0.29048805449E-01  0.52129770905E-01  0.76861515810E-01  0.51100000000E-03 0.  1.
</event>
<event>
 8    1  0.1094134E+005  0.1043930E+01  0.7957747E-01            NaN
         13   -1    0    0    0    0  0.00000000000E+00  0.00000000000E+00  0.74505805969E-08  0.10566000000E+00  0.10566000000E+00 0. -1.
     999900   -1    0    0    0    0 -0.00000000000E+00 -0.00000000000E+00 -0.74505805969E-08  0.93827000000E+00  0.93827000000E+00 0. -1.
     999902    2    1    2    0    0  0.47011135609E-02 -0.23218684478E-01 -0.38067858855E-02  0.10199362634E+01  0.10196540011E+01 0.  0.
     999903    2    3    3    0    0 -0.14058974575E-01  0.32733975278E-01 -0.12320915949E+00  0.12991403453E+00  0.20687955054E-01 0.  0.
         14    1    1    2    0    0 -0.47011135609E-02  0.23218684478E-01  0.38067858855E-02  0.23993736607E-01  0.00000000000E+00 0. -1.
     999901    1    3    3    0    0  0.18760088136E-01 -0.55952659756E-01  0.11940237360E+00  0.89002222886E+00  0.88000000000E+00 0.  1.
        -11    1    4    4    0    0 -0.10474377372E-01  0.25331259592E-01 -0.57628450031E-01  0.63817589016E-01  0.51100000000E-03 0. -1.
         11    1    4    4    0    0 -0.35845972034E-02  0.74027156862E-02 -0.65580709454E-01  0.66096445518E-01  0.51100000000E-03 0.  1.
</event>
<event>
 8    1  0.1094134E+005  0.1043930E+01  0.7957747E-01            NaN
         13   -1    0    0    0    0  0.00000000000E+00  0.00000000000E+00  0.74505805969E-08  0.10566000000E+00  0.10566000000E+00 0.  1.
     999900   -1    0    0    0    0 -0.00000000000E+00 -0.00000000000E+00 -0.74505805969E-08  0.93827000000E+00  0.93827000000E+00 0. -1.
     999902    2    1    2    0    0  0.21484568956E-01  0.41240325114E-02 -0.95387574736E-02  0.10200640778E+01  0.10197848502E+01 0.  0.
     999903    2    3    3    0    0 -0.12225299820E+00 -0.27553231585E-01 -0.16135643995E-01  0.12781553835E+00  0.19273730748E-01 0.  0.
         14    1    1    2    0    0 -0.21484568956E-01 -0.41240325114E-02  0.95387574736E-02  0.23865922180E-01  0.00000000000E+00 0.  1.
     999901    1    3    3    0    0  0.14373756716E+00  0.31677264096E-01  0.65968865217E-02  0.89224853947E+00  0.88000000000E+00 0. -1.
        -11    1    4    4    0    0 -0.87014025710E-01 -0.15499086266E-01 -0.33971390988E-02  0.88450347769E-01  0.51100000000E-03 0.  1.
         11    1    4    4    0    0 -0.35238972491E-01 -0.12054145319E-01 -0.12738504897E-01  0.39365190582E-01  0.51100000000E-03 0. -1.
</event>
<event>
 8    1  0.1094134E+005  0.1043930E+01  0.7957747E-01            NaN
         13   -1    0    0    0    0  0.00000000000E+00  0.00000000000E+00  0.74505805969E-08  0.10566000000E+00  0.10566000000E+00 0.  1.
     999900   -1    0    0    0    0 -0.00000000000E+00 -0.00000000000E+00 -0.74505805969E-08  0.93827000000E+00  0.93827000000E+00 0.  1.
     999902    2    1    2    0    0 -0.33043894673E-02  0.15558121402E-03 -0.24563412245E-01  0.10191448348E+01  0.10188434079E+01 0.  0.
     999903    2    3    3    0    0 -0.97160121645E-01  0.72769708311E-01 -0.44996693271E-01  0.13094484101E+00  0.19655261254E-01 0.  0.
         14    1    1    2    0    0  0.33043894673E-02 -0.15558121402E-03  0.24563412245E-01  0.24785165248E-01  0.00000000000E+00 0.  1.
     999901    1    3    3    0    0  0.93855732178E-01 -0.72614127097E-01  0.20433281025E-01  0.88819999375E+00  0.88000000000E+00 0.  1.
        -11    1    4    4    0    0 -0.59628782425E-01  0.38927403244E-01 -0.17174979380E-01  0.73254183871E-01  0.51100000000E-03 0. -1.
         11    1    4    4    0    0 -0.37531339220E-01  0.33842305067E-01 -0.27821713890E-01  0.57690657135E-01  0.51100000000E-03 0.  1.
</event>
<event>
 8    1  0.1094134E+005  0.1043930E+01  0.7957747E-01            NaN
         13   -1    0    0    0    0  0.00000000000E+00  0.00000000000E+00  0.74505805969E-08  0.10566000000E+00  0.10566000000E+00 0.  1.
     999900   -1    0    0    0    0 -0.00000000000E+00 -0.00000000000E+00 -0.74505805969E-08  0.93827000000E+00  0.93827000000E+00 0. -1.
     999902    2    1    2    0    0  0.63562940886E-02 -0.35019175051E-02 -0.22442434822E-01  0.10203433771E+01  0.10200707222E+01 0.  0.
     999903    2    3    3    0    0  0.12550568681E+00  0.22909379395E-01  0.20905762101E-01  0.13086420330E+00  0.20294623160E-01 0.  0.
         14    1    1    2    0    0 -0.63562940886E-02  0.35019175051E-02  0.22442434822E-01  0.23586622935E-01  0.00000000000E+00 0.  1.
     999901    1    3    3    0    0 -0.11914939272E+00 -0.26411296900E-01 -0.43348196923E-01  0.88947917377E+00  0.88000000000E+00 0.  1.
        -11    1    4    4    0    0  0.68656968958E-01  0.63060276979E-02  0.30913756614E-02  0.69017121762E-01  0.51100000000E-03 0. -1.
         11    1    4    4    0    0  0.56848717854E-01  0.16603351697E-01  0.17814386440E-01  0.61847081535E-01  0.51100000000E-03 0.  1.
</event>
<event>
 8    1  0.1094134E+005  0.1043930E+01  0.7957747E-01            NaN
         13   -1    0    0    0    0  0.00000000000E+00  0.00000000000E+00  0.74505805969E-08  0.10566000000E+00  0.10566000000E+00 0.  1.
     999900   -1    0    0    0    0 -0.00000000000E+00 -0.00000000000E+00 -0.74505805969E-08  0.93827000000E+00  0.93827000000E+00 0. -1.
     999902    2    1    2    0    0  0.99325389746E-02 -0.13047955117E-01 -0.18319183773E-01  0.10193434802E+01  0.10190469241E+01 0.  0.
     999903    2    3    3    0    0  0.11008799999E+00  0.64493615132E-01 -0.17732625661E-01  0.13027421654E+00  0.19445599693E-01 0.  0.
         14    1    1    2    0    0 -0.99325389746E-02  0.13047955117E-01  0.18319183773E-01  0.24586519830E-01  0.00000000000E+00 0.  1.
     999901    1    3    3    0    0 -0.10015546101E+00 -0.77541570248E-01 -0.58655811252E-03  0.88906926363E+00  0.88000000000E+00 0.  1.
        -11    1    4    4    0    0  0.56310501537E-01  0.41437132621E-01 -0.32309964688E-02  0.69990063598E-01  0.51100000000E-03 0.  1.
         11    1    4    4    0    0  0.53777498451E-01  0.23056482510E-01 -0.14501629192E-01  0.60284152939E-01  0.51100000000E-03 0. -1.
</event>
<event>
 8    1  0.1094134E+005  0.1043930E+01  0.7957747E-01            NaN
         13   -1    0    0    0    0  0.00000000000E+00  0.00000000000E+00  0.74505805969E-08  0.10566000000E+00  0.10566000000E+00 0.  1.
     999900   -1    0    0    0    0 -0.00000000000E+00 -0.00000000000E+00 -0.74505805969E-08  0.93827000000E+00  0.93827000000E+00 0.  1.
     999902    2    1    2    0    0 -0.82085395294E-02 -0.85422616351E-02 -0.20469972874E-01  0.10202789927E+01  0.10200048298E+01 0.  0.
     999903    2    3    3    0    0 -0.70845079051E-01 -0.10569760935E+00 -0.31988505510E-01  0.13264439772E+00  0.19500305485E-01 0.  0.
         14    1    1    2    0    0  0.82085395294E-02  0.85422616351E-02  0.20469972874E-01  0.23651007262E-01  0.00000000000E+00 0.  1.
     999901    1    3    3    0    0  0.62636539522E-01  0.97155347717E-01  0.11518532636E-01  0.88763459501E+00  0.88000000000E+00 0. -1.
        -11    1    4    4    0    0 -0.18853877514E-01 -0.39888064204E-01 -0.43451059506E-02  0.44335848136E-01  0.51100000000E-03 0.  1.
         11    1    4    4    0    0 -0.51991201537E-01 -0.65809545148E-01 -0.27643399560E-01  0.88308549587E-01  0.51100000000E-03 0. -1.
</event>
<event>
 8    1  0.1094134E+005  0.1043930E+01  0.7957747E-01            NaN
         13   -1    0    0    0    0  0.00000000000E+00  0.00000000000E+00  0.74505805969E-08  0.10566000000E+00  0.10566000000E+00 0. -1.
     999900   -1    0    0    0    0 -0.00000000000E+00 -0.00000000000E+00 -0.74505805969E-08  0.93827000000E+00  0.93827000000E+00 0. -1.
     999902    2    1    2    0    0 -0.83791139463E-02 -0.13477932370E-01  0.17699546532E-01  0.10201573653E+01  0.10198803419E+01 0.  0.
     999903    2    3    3    0    0  0.30526725547E-01  0.49862641099E-01 -0.11155332412E+00  0.12761493096E+00  0.20573345170E-01 0.  0.
         14    1    1    2    0    0  0.83791139463E-02  0.13477932370E-01 -0.17699546532E-01  0.23772634665E-01  0.00000000000E+00 0.  1.
     999901    1    3    3    0    0 -0.38905839494E-01 -0.63340573469E-01  0.12925287065E+00  0.89254243438E+00  0.88000000000E+00 0.  1.
        -11    1    4    4    0    0  0.18667095592E-01  0.45070982441E-01 -0.82125501080E-01  0.95523363449E-01  0.51100000000E-03 0.  1.
         11    1    4    4    0    0  0.11859629955E-01  0.47916586579E-02 -0.29427823038E-01  0.32091567508E-01  0.51100000000E-03 0. -1.
</event>
<event>
 8    1  0.1094134E+005  0.1043930E+01  0.7957747E-01            NaN
         13   -1    0    0    0    0  0.00000000000E+00  0.00000000000E+00  0.74505805969E-08  0.10566000000E+00  0.10566000000E+00 0. -1.
     999900   -1    0    0    0    0 -0.00000000000E+00 -0.00000000000E+00 -0.74505805969E-08  0.93827000000E+00  0.93827000000E+00 0. -1.
     999902    2    1    2    0    0 -0.19756447206E-01 -0.13958714358E-01  0.33089885173E-02  0.10195145885E+01  0.10192221955E+01 0.  0.
     999903    2    3    3    0    0  0.68214178225E-01 -0.90988675259E-01  0.59764603537E-01  0.12998680240E+00  0.19815343185E-01 0.  0.
         14    1    1    2    0    0  0.19756447206E-01  0.13958714358E-01 -0.33089885173E-02  0.24415411480E-01  0.00000000000E+00 0. -1.
     999901    1    3    3    0    0 -0.87970625431E-01  0.77029960901E-01 -0.56455615020E-01  0.88952778612E+00  0.88000000000E+00 0.  1.
        -11    1    4    4    0    0  0.31472543139E-01 -0.54234176073E-01  0.40027886511E-01  0.74393276883E-01  0.51100000000E-03 0. -1.
         11    1    4    4    0    0  0.36741635086E-01 -0.36754499186E-01  0.19736717026E-01  0.55593525515E-01  0.51100000000E-03 0.  1.
</event>
<event>
 8    1  0.1094134E+005  0.1043930E+01  0.7957747E-01            NaN
         13   -1    0    0    0    0  0.00000000000E+00  0.00000000000E+00  0.74505805969E-08  0.10566000000E+00  0.10566000000E+00 0.  1.
     999900   -1    0    0    0    0 -0.00000000000E+00 -0.00000000000E+00 -0.74505805969E-08  0.93827000000E+00  0.93827000000E+00 0.  1.
     999902    2    1    2    0    0  0.19439180307E-02 -0.20406114846E-01  0.12322597531E-01  0.10200127520E+01  0.10197323078E+01 0.  0.
     999903    2    3    3    0    0 -0.97128240271E-02 -0.14043194635E-01  0.12960504975E+00  0.13213238848E+00  0.19234055669E-01 0.  0.
         14    1    1    2    0    0 -0.19439180307E-02  0.20406114846E-01 -0.12322597531E-01  0.23917247967E-01  0.00000000000E+00 0. -1.
     999901    1    3    3    0    0  0.11656742058E-01 -0.63629202109E-02 -0.11728245222E+00  0.88788036356E+00  0.88000000000E+00 0.  1.
        -11    1    4    4    0    0  0.49645362380E-02 -0.84965635659E-02  0.42852527307E-01  0.43970881616E-01  0.51100000000E-03 0.  1.
         11    1    4    4    0    0 -0.14677360265E-01 -0.55466310690E-02  0.86752522444E-01  0.88161506861E-01  0.51100000000E-03 0. -1.
</event>
<event>
 8    1  0.1094134E+005  0.1043930E+01  0.7957747E-01            NaN
         13   -1    0    0    0    0  0.00000000000E+00  0.00000000000E+00  0.74505805969E-08  0.10566000000E+00  0.10566000000E+00 0.  1.
     999900   -1    0    0    0    0 -0.00000000000E+00 -0.00000000000E+00 -0.74505805969E-08  0.93827000000E+00  0.93827000000E+00 0. -1.
     999902    2    1    2    0    0 -0.15851126598E-01  0.14464305577E-01 -0.95809699956E-02  0.10204295886E+01  0.10201589464E+01 0.  0.
     999903    2    3    3    0    0 -0.90867031854E-01  0.85099211796E-01  0.41582592170E-01  0.13294190636E+00  0.21112677928E-01 0.  0.
         14    1    1    2    0    0  0.15851126598E-01 -0.14464305577E-01  0.95809699956E-02  0.23500411407E-01  0.00000000000E+00 0.  1.
     999901    1    3    3    0    0  0.75015905256E-01 -0.70634906219E-01 -0.51163562166E-01  0.88748768223E+00  0.88000000000E+00 0.  1.
        -11    1    4    4    0    0 -0.45340675365E-01  0.55583451308E-01  0.19286055295E-01  0.74279943132E-01  0.51100000000E-03 0. -1.
         11    1    4    4    0    0 -0.45526356488E-01  0.29515760488E-01  0.22296536876E-01  0.58661963230E-01  0.51100000000E-03 0.  1.
</event>
<event>
 8    1  0.1094134E+005  0.1043930E+01  0.7957747E-01            NaN
         13   -1    0    0    0    0  0.00000000000E+00  0.00000000000E+00  0.74505805969E-08  0.10566000000E+00  0.10566000000E+00 0. -1.
     999900   -1    0    0    0    0 -0.00000000000E+00 -0.00000000000E+00 -0.74505805969E-08  0.93827000000E+00  0.93827000000E+00 0.  1.
     999902    2    1    2    0    0  0.14382872889E-01 -0.18183909613E-01  0.42406185530E-02  0.10203608582E+01  0.10200886120E+01 0.  0.
     999903    2    3    3    0    0 -0.40512434310E-01 -0.60089627972E-01  0.10798865006E+00  0.13157897377E+00  0.19986422179E-01 0.  0.
         14    1    1    2    0    0 -0.14382872889E-01  0.18183909613E-01 -0.42406185530E-02  0.23569141840E-01  0.00000000000E+00 0.  1.
     999901    1    3    3    0    0  0.54895307199E-01  0.41905718359E-01 -0.10374803151E+00  0.88878188439E+00  0.88000000000E+00 0.  1.
        -11    1    4    4    0    0 -0.14525664748E-02 -0.13412743135E-01  0.27818493153E-01  0.30921534730E-01  0.51100000000E-03 0.  1.
         11    1    4    4    0    0 -0.39059867835E-01 -0.46676884837E-01  0.80170156910E-01  0.10065743904E+00  0.51100000000E-03 0. -1.
</event>
<event>
 8    1  0.1094134E+005  0.1043930E+01  0.7957747E-01            NaN
         13   -1    0    0    0    0  0.00000000000E+00  0.00000000000E+00  0.74505805969E-08  0.10566000000E+00  0.10566000000E+00 0. -1.
     999900   -1    0    0    0    0 -0.00000000000E+00 -0.00000000000E+00 -0.74505805969E-08  0.93827000000E+00  0.93827000000E+00 0.  1.
     999902    2    1    2    0    0  0.18746808203E-02 -0.16961983878E-01 -0.17976425219E-01  0.10191434071E+01  0.10188419450E+01 0.  0.
     999903    2    3    3    0    0  0.30546361407E-01  0.73798417237E-01 -0.10063228711E+00  0.13015999486E+00  0.20868168875E-01 0.  0.
         14    1    1    2    0    0 -0.18746808203E-02  0.16961983878E-01  0.17976425219E-01  0.24786592927E-01  0.00000000000E+00 0.  1.
     999901    1    3    3    0    0 -0.28671680587E-01 -0.90760401115E-01  0.82655861890E-01  0.88898341221E+00  0.88000000000E+00 0. -1.
        -11    1    4    4    0    0  0.17264767391E-01  0.19241273891E-01 -0.38898672974E-01  0.46708315043E-01  0.51100000000E-03 0.  1.
         11    1    4    4    0    0  0.13281594016E-01  0.54557143346E-01 -0.61733614135E-01  0.83451679821E-01  0.51100000000E-03 0. -1.
</event>
<event>
 8    1  0.1094134E+005  0.1043930E+01  0.7957747E-01            NaN
         13   -1    0    0    0    0  0.00000000000E+00  0.00000000000E+00  0.74505805969E-08  0.10566000000E+00  0.10566000000E+00 0.  1.
     999900   -1    0    0    0    0 -0.00000000000E+00 -0.00000000000E+00 -0.74505805969E-08  0.93827000000E+00  0.93827000000E+00 0.  1.
     999902    2    1    2    0    0 -0.23447794966E-01  0.12604624316E-02 -0.34314975565E-02  0.10201989438E+01  0.10199228999E+01 0.  0.
     999903    2    3    3    0    0 -0.63138277126E-01 -0.10106059330E-01 -0.11405979221E+00  0.13231204119E+00  0.20205582724E-01 0.  0.
         14    1    1    2    0    0  0.23447794966E-01 -0.12604624316E-02  0.34314975565E-02  0.23731056230E-01  0.00000000000E+00 0. -1.
     999901    1    3    3    0    0  0.39690482160E-01  0.11366521762E-01  0.11062829465E+00  0.88788690258E+00  0.88000000000E+00 0. -1.
        -11    1    4    4    0    0 -0.50991139992E-01 -0.13432144744E-01 -0.10221161589E+00  0.11501301845E+00  0.51100000000E-03 0.  1.
         11    1    4    4    0    0 -0.12147137134E-01  0.33260854136E-02 -0.11848176315E-01  0.17299022739E-01  0.51100000000E-03 0. -1.
</event>
<event>
 8    1  0.1094134E+005  0.1043930E+01  0.7957747E-01            NaN
         13   -1    0    0    0    0  0.00000000000E+00  0.00000000000E+00  0.74505805969E-08  0.10566000000E+00  0.10566000000E+00 0.  1.
     999900   -1    0    0    0    0 -0.00000000000E+00 -0.00000000000E+00 -0.74505805969E-08  0.93827000000E+00  0.93827000000E+00 0.  1.
     999902    2    1    2    0    0  0.54141913144E-02 -0.75057303730E-02  0.21702521147E-01  0.10203365924E+01  0.10200637789E+01 0.  0.
     999903    2    3    3    0    0  0.73355244724E-01  0.10047181096E+00 -0.30844744023E-01  0.12958614970E+00  0.19120544795E-01 0.  0.
         14    1    1    2    0    0 -0.54141913144E-02  0.75057303730E-02 -0.21702521147E-01  0.23593407557E-01  0.00000000000E+00 0. -1.
     999901    1    3    3    0    0 -0.67941053409E-01 -0.10797754134E+00  0.52547265170E-01  0.89075044274E+00  0.88000000000E+00 0. -1.
        -11    1    4    4    0    0  0.28525698060E-01  0.38359411575E-01 -0.23767491206E-02  0.47865122621E-01  0.51100000000E-03 0. -1.
         11    1    4    4    0    0  0.44829546664E-01  0.62112399389E-01 -0.28467994903E-01  0.81721027078E-01  0.51100000000E-03 0.  1.
</event>
<event>
 8    1  0.1094134E+005  0.1043930E+01  0.7957747E-01            NaN
         13   -1    0    0    0    0  0.00000000000E+00  0.00000000000E+00  0.74505805969E-08  0.10566000000E+00  0.10566000000E+00 0. -1.
     999900   -1    0    0    0    0 -0.00000000000E+00 -0.00000000000E+00 -0.74505805969E-08  0.93827000000E+00  0.93827000000E+00 0.  1.
     999902    2    1    2    0    0 -0.12345177609E-01 -0.18528694020E-01  0.83982674244E-02  0.10201340590E+01  0.10198564857E+01 0.  0.
     999903    2    3    3    0    0  0.10301450526E+00  0.41950322106E-01  0.61322940121E-01  0.12897381033E+00  0.22403636946E-01 0.  0.
         14    1    1    2    0    0  0.12345177609E-01  0.18528694020E-01 -0.83982674244E-02  0.23795940999E-01  0.00000000000E+00 0.  1.
     999901    1    3    3    0    0 -0.11535968287E+00 -0.60479016126E-01 -0.52924672697E-01  0.89116024867E+00  0.88000000000E+00 0.  1.
        -11    1    4    4    0    0  0.76831050568E-01  0.22695270176E-01  0.50552370318E-01  0.94730612188E-01  0.51100000000E-03 0. -1.
         11    1    4    4    0    0  0.26183454691E-01  0.19255051930E-01  0.10770569803E-01  0.34243198146E-01  0.51100000000E-03 0.  1.
</event>
<event>
 8    1  0.1094134E+005  0.1043930E+01  0.7957747E-01            NaN
         13   -1    0    0    0    0  0.00000000000E+00  0.00000000000E+00  0.74505805969E-08  0.10566000000E+00  0.10566000000E+00 0.  1.
     999900   -1    0    0    0    0 -0.00000000000E+00 -0.00000000000E+00 -0.74505805969E-08  0.93827000000E+00  0.93827000000E+00 0.  1.
     999902    2    1    2    0    0  0.23195944120E-01  0.38673844594E-02  0.22639732032E-02  0.10203051389E+01  0.10200315889E+01 0.  0.
     999903    2    3    3    0    0  0.66441196691E-01 -0.10772376583E+00  0.30675954074E-01  0.13175014493E+00  0.19956056417E-01 0.  0.
         14    1    1    2    0    0 -0.23195944120E-01 -0.38673844594E-02 -0.22639732032E-02  0.23624861076E-01  0.00000000000E+00 0. -1.
     999901    1    3    3    0    0 -0.43245252571E-01  0.11159115029E+00 -0.28411980871E-01  0.88855499399E+00  0.88000000000E+00 0.  1.
        -11    1    4    4    0    0  0.15546418678E-01 -0.39097021458E-01  0.41278862043E-02  0.42279649787E-01  0.51100000000E-03 0.  1.
         11    1    4    4    0    0  0.50894778013E-01 -0.68626744376E-01  0.26548067870E-01  0.89470495144E-01  0.51100000000E-03 0. -1.
</event>
<event>
 8    1  0.1094134E+005  0.1043930E+01  0.7957747E-01            NaN
         13   -1    0    0    0    0  0.00000000000E+00  0.00000000000E+00  0.74505805969E-08  0.10566000000E+00  0.10566000000E+00 0.  1.
     999900   -1    0    0    0    0 -0.00000000000E+00 -0.00000000000E+00 -0.74505805969E-08  0.93827000000E+00  0.93827000000E+00 0. -1.
     999902    2    1    2    0    0 -0.13251749436E-01 -0.16315325931E-01 -0.87884885366E-02  0.10211476328E+01  0.10208934576E+01 0.  0.
     999903    2    3    3    0    0  0.12647832562E+00  0.18138579946E-01  0.35091675668E-02  0.12937255028E+00  0.19979178529E-01 0.  0.
         14    1    1    2    0    0  0.13251749436E-01  0.16315325931E-01  0.87884885366E-02  0.22782367175E-01  0.00000000000E+00 0.  1.
     999901    1    3    3    0    0 -0.13973007505E+00 -0.34453905878E-01 -0.12297656103E-01  0.89177508255E+00  0.88000000000E+00 0.  1.
        -11    1    4    4    0    0  0.35762345775E-01  0.44802639020E-03  0.86624242750E-02  0.36802782752E-01  0.51100000000E-03 0.  1.
         11    1    4    4    0    0  0.90715979845E-01  0.17690553556E-01 -0.51532567082E-02  0.92569767527E-01  0.51100000000E-03 0. -1.
</event>
<event>
 8    1  0.1094134E+005  0.1043930E+01  0.7957747E-01            NaN
         13   -1    0    0    0    0  0.00000000000E+00  0.00000000000E+00  0.74505805969E-08  0.10566000000E+00  0.10566000000E+00 0.  1.
     999900   -1    0    0    0    0 -0.00000000000E+00 -0.00000000000E+00 -0.74505805969E-08  0.93827000000E+00  0.93827000000E+00 0.  1.
     999902    2    1    2    0    0 -0.17711440714E-02 -0.60440678447E-02 -0.23330397422E-01  0.10197644222E+01  0.10194780535E+01 0.  0.
     999903    2    3    3    0    0 -0.10975672190E-01  0.12724315520E+00 -0.62910941517E-02  0.12951695938E+00  0.20585892645E-01 0.  0.
         14    1    1    2    0    0  0.17711440714E-02  0.60440678447E-02  0.23330397422E-01  0.24165577819E-01  0.00000000000E+00 0.  1.
     999901    1    3    3    0    0  0.92045281191E-02 -0.13328722305E+00 -0.17039303271E-01  0.89024746280E+00  0.88000000000E+00 0. -1.
        -11    1    4    4    0    0 -0.23260674816E-02  0.58335711090E-01 -0.12772610803E-01  0.59765094211E-01  0.51100000000E-03 0.  1.
         11    1    4    4    0    0 -0.86496047089E-02  0.68907444112E-01  0.64815166514E-02  0.69751865170E-01  0.51100000000E-03 0. -1.
</event>
<event>
 8    1  0.1094134E+005  0.1043930E+01  0.7957747E-01            NaN
         13   -1    0    0    0    0  0.00000000000E+00  0.00000000000E+00  0.74505805969E-08  0.10566000000E+00  0.10566000000E+00 0.  1.
     999900   -1    0    0    0    0 -0.00000000000E+00 -0.00000000000E+00 -0.74505805969E-08  0.93827000000E+00  0.93827000000E+00 0. -1.
     999902    2    1    2    0    0 -0.14180121308E-01 -0.18240672345E-01 -0.86644050473E-04  0.10208257693E+01  0.10205642782E+01 0.  0.
     999903    2    3    3    0    0  0.11732523901E+00 -0.39069029603E-01  0.35236179926E-01  0.13010966295E+00  0.19883038876E-01 0.  0.
         14    1    1    2    0    0  0.14180121308E-01  0.18240672345E-01  0.86644050473E-04  0.23104230676E-01  0.00000000000E+00 0. -1.
     999901    1    3    3    0    0 -0.13150536032E+00  0.20828357258E-01 -0.35322823977E-01  0.89071610637E+00  0.88000000000E+00 0.  1.
        -11    1    4    4    0    0  0.84466508836E-01 -0.37273208460E-01  0.25270755789E-01  0.95722282688E-01  0.51100000000E-03 0.  1.
         11    1    4    4    0    0  0.32858730173E-01 -0.17958211430E-02  0.99654241374E-02  0.34387380263E-01  0.51100000000E-03 0. -1.
</event>
<event>
 8    1  0.1094134E+005  0.1043930E+01  0.7957747E-01            NaN
         13   -1    0    0    0    0  0.00000000000E+00  0.00000000000E+00  0.74505805969E-08  0.10566000000E+00  0.10566000000E+00 0.  1.
     999900   -1    0    0    0    0 -0.00000000000E+00 -0.00000000000E+00 -0.74505805969E-08  0.93827000000E+00  0.93827000000E+00 0.  1.
     999902    2    1    2    0    0 -0.20615668570E-01 -0.91993038091E-02 -0.62163995181E-02  0.10205146930E+01  0.10202460301E+01 0.  0.
     999903    2    3    3    0    0  0.95101946501E-01 -0.51619474665E-01 -0.68942703382E-01  0.12971470051E+00  0.19075030449E-01 0.  0.
         14    1    1    2    0    0  0.20615668570E-01  0.91993038091E-02  0.62163995181E-02  0.23415307047E-01  0.00000000000E+00 0.  1.
     999901    1    3    3    0    0 -0.11571761507E+00  0.42420170856E-01  0.62726303864E-01  0.89079999244E+00  0.88000000000E+00 0.  1.
        -11    1    4    4    0    0  0.30030059632E-01 -0.10088640185E-01 -0.28250079146E-01  0.42448948574E-01  0.51100000000E-03 0. -1.
         11    1    4    4    0    0  0.65071886869E-01 -0.41530834480E-01 -0.40692624236E-01  0.87265751939E-01  0.51100000000E-03 0.  1.
</event>
<event>
 8    1  0.1094134E+005  0.1043930E+01  0.7957747E-01            NaN
         13   -1    0    0    0    0  0.00000000000E+00  0.00000000000E+00  0.74505805969E-08  0.10566000000E+00  0.10566000000E+00 0. -1.
     999900   -1    0    0    0    0 -0.00000000000E+00 -0.00000000000E+00 -0.74505805969E-08  0.93827000000E+00  0.93827000000E+00 0. -1.
     999902    2    1    2    0    0  0.13173753860E-01 -0.14652926678E-01 -0.15057288231E-01  0.10191312504E+01  0.10188294890E+01 0.  0.
     999903    2    3    3    0    0  0.90139302516E-01  0.51382273346E-01  0.73609550863E-01  0.12888063871E+00  0.20654810202E-01 0.  0.
         14    1    1    2    0    0 -0.13173753860E-01  0.14652926678E-01  0.15057288231E-01  0.24798749562E-01  0.00000000000E+00 0.  1.
     999901    1    3    3    0    0 -0.76965548656E-01 -0.66035200024E-01 -0.88666839094E-01  0.89025061173E+00  0.88000000000E+00 0.  1.
        -11    1    4    4    0    0  0.59881450128E-01  0.44540362441E-01  0.49003248898E-01  0.89281641334E-01  0.51100000000E-03 0. -1.
         11    1    4    4    0    0  0.30257852388E-01  0.68419109046E-02  0.24606301965E-01  0.39598997378E-01  0.51100000000E-03 0.  1.
</event>
<event>
 8    1  0.1094134E+005  0.1043930E+01  0.7957747E-01            NaN
         13   -1    0    0    0    0  0.00000000000E+00  0.00000000000E+00  0.74505805969E-08  0.10566000000E+00  0.10566000000E+00 0.  1.
     999900   -1    0    0    0    0 -0.00000000000E+00 -0.00000000000E+00 -0.74505805969E-08  0.93827000000E+00  0.93827000000E+00 0.  1.
     999902    2    1    2    0    0 -0.17640983821E-01  0.71112443636E-02 -0.15408312712E-01  0.10194516380E+01  0.10191577169E+01 0.  0.
     999903    2    3    3    0    0 -0.89950589778E-01 -0.68330971294E-01  0.61163500616E-01  0.12996670297E+00  0.19751957707E-01 0.  0.
         14    1    1    2    0    0  0.17640983821E-01 -0.71112443636E-02  0.15408312712E-01  0.24478362021E-01  0.00000000000E+00 0.  1.
     999901    1    3    3    0    0  0.72309605956E-01  0.75442215657E-01 -0.76571813328E-01  0.88948493501E+00  0.88000000000E+00 0.  1.
        -11    1    4    4    0    0 -0.62510065959E-02 -0.12151387012E-01  0.49300713893E-02  0.14536093515E-01  0.51100000000E-03 0. -1.
         11    1    4    4    0    0 -0.83699583182E-01 -0.56179584282E-01  0.56233429227E-01  0.11543060945E+00  0.51100000000E-03 0.  1.
</event>
<event>
 8    1  0.1094134E+005  0.1043930E+01  0.7957747E-01            NaN
         13   -1    0    0    0    0  0.00000000000E+00  0.00000000000E+00  0.74505805969E-08  0.10566000000E+00  0.10566000000E+00 0.  1.
     999900   -1    0    0    0    0 -0.00000000000E+00 -0.00000000000E+00 -0.74505805969E-08  0.93827000000E+00  0.93827000000E+00 0.  1.
     999902    2    1    2    0    0 -0.11812439667E-01 -0.17849813671E-01 -0.92660686382E-02  0.10206059865E+01  0.10203394386E+01 0.  0.
     999903    2    3    3    0    0  0.98617444117E-01 -0.48123110264E-03 -0.82976538513E-01  0.13047697321E+00  0.20334766426E-01 0.  0.
         14    1    1    2    0    0  0.11812439667E-01  0.17849813671E-01  0.92660686382E-02  0.23324013526E-01  0.00000000000E+00 0. -1.
     999901    1    3    3    0    0 -0.11042988378E+00 -0.17368582568E-01  0.73710469875E-01  0.89012901327E+00  0.88000000000E+00 0. -1.
        -11    1    4    4    0    0  0.54816671731E-01  0.97572297596E-02 -0.47430906624E-01  0.73143851802E-01  0.51100000000E-03 0. -1.
         11    1    4    4    0    0  0.43800772386E-01 -0.10238460862E-01 -0.35545631890E-01  0.57333121404E-01  0.51100000000E-03 0.  1.
</event>
<event>
 8    1  0.1094134E+005  0.1043930E+01  0.7957747E-01            NaN
         13   -1    0    0    0    0  0.00000000000E+00  0.00000000000E+00  0.74505805969E-08  0.10566000000E+00  0.10566000000E+00 0.  1.
     999900   -1    0    0    0    0 -0.00000000000E+00 -0.00000000000E+00 -0.74505805969E-08  0.93827000000E+00  0.93827000000E+00 0.  1.
     999902    2    1    2    0    0 -0.22938362588E-01 -0.11137867443E-02 -0.74105165278E-02  0.10197985940E+01  0.10195130444E+01 0.  0.
     999903    2    3    3    0    0  0.21964832607E-02  0.11309377788E+00 -0.61874092000E-01  0.13039350671E+00  0.19468851932E-01 0.  0.
         14    1    1    2    0    0  0.22938362588E-01  0.11137867443E-02  0.74105165278E-02  0.24131405975E-01  0.00000000000E+00 0.  1.
     999901    1    3    3    0    0 -0.25134845849E-01 -0.11420756463E+00  0.54463575472E-01  0.88940508732E+00  0.88000000000E+00 0. -1.
        -11    1    4    4    0    0  0.22997065152E-02  0.10409509451E+00 -0.50052352512E-01  0.11552738404E+00  0.51100000000E-03 0.  1.
         11    1    4    4    0    0 -0.10322325450E-03  0.89986833767E-02 -0.11821739488E-01  0.14866122664E-01  0.51100000000E-03 0. -1.
</event>
<event>
 8    1  0.1094134E+005  0.1043930E+01  0.7957747E-01            NaN
         13   -1    0    0    0    0  0.00000000000E+00  0.00000000000E+00  0.74505805969E-08  0.10566000000E+00  0.10566000000E+00 0. -1.
     999900   -1    0    0    0    0 -0.00000000000E+00 -0.00000000000E+00 -0.74505805969E-08  0.93827000000E+00  0.93827000000E+00 0.  1.
     999902    2    1    2    0    0  0.32282515740E-02 -0.83526421238E-02  0.34107554839E-01  0.10086665127E+01  0.10080499096E+01 0.  0.
     999903    2    3    3    0    0  0.64649029892E-01 -0.32009218960E-01 -0.90412132667E-01  0.11746659226E+00  0.20492910948E-01 0.  0.
         14    1    1    2    0    0 -0.32282515740E-02  0.83526421238E-02 -0.34107554839E-01  0.35263487289E-01  0.00000000000E+00 0.  1.
     999901    1    3    3    0    0 -0.61420778318E-01  0.23656576836E-01  0.12451968751E+00  0.89119992045E+00  0.88000000000E+00 0.  1.
        -11    1    4    4    0    0  0.11490439930E-01 -0.13608652755E-01 -0.14444971027E-01  0.22937827895E-01  0.51100000000E-03 0. -1.
         11    1    4    4    0    0  0.53158589963E-01 -0.18400566205E-01 -0.75967161640E-01  0.94528764364E-01  0.51100000000E-03 0.  1.
</event>
<event>
 8    1  0.1094134E+005  0.1043930E+01  0.7957747E-01            NaN
         13   -1    0    0    0    0  0.00000000000E+00  0.00000000000E+00  0.74505805969E-08  0.10566000000E+00  0.10566000000E+00 0. -1.
     999900   -1    0    0    0    0 -0.00000000000E+00 -0.00000000000E+00 -0.74505805969E-08  0.93827000000E+00  0.93827000000E+00 0. -1.
     999902    2    1    2    0    0 -0.35917080930E-02 -0.45999936392E-02 -0.22257894167E-01  0.10209196945E+01  0.10206603492E+01 0.  0.
     999903    2    3    3    0    0  0.97737636512E-01 -0.68482896932E-01  0.47678025218E-01  0.13005511764E+00  0.19964638024E-01 0.  0.
         14    1    1    2    0    0  0.35917080930E-02  0.45999936392E-02  0.22257894167E-01  0.23010305545E-01  0.00000000000E+00 0. -1.
     999901    1    3    3    0    0 -0.10132934461E+00  0.63882903292E-01 -0.69935919385E-01  0.89086457682E+00  0.88000000000E+00 0. -1.
        -11    1    4    4    0    0  0.14517165326E-01 -0.17754047354E-01  0.14310313919E-01  0.27037020768E-01  0.51100000000E-03 0.  1.
         11    1    4    4    0    0  0.83220471187E-01 -0.50728849578E-01  0.33367711299E-01  0.10301809687E+00  0.51100000000E-03 0. -1.
</event>
<event>
 8    1  0.1094134E+005  0.1043930E+01  0.7957747E-01            NaN
         13   -1    0    0    0    0  0.00000000000E+00  0.00000000000E+00  0.74505805969E-08  0.10566000000E+00  0.10566000000E+00 0. -1.
     999900   -1    0    0    0    0 -0.00000000000E+00 -0.00000000000E+00 -0.74505805969E-08  0.93827000000E+00  0.93827000000E+00 0. -1.
     999902    2    1    2    0    0  0.23897915070E-01 -0.13044461692E-01 -0.29756832541E-02  0.10165416263E+01  0.10161726009E+01 0.  0.
     999903    2    3    3    0    0 -0.30719563095E-01 -0.99147270234E-01  0.71337790593E-01  0.12754260772E+00  0.20103822176E-01 0.  0.
         14    1    1    2    0    0 -0.23897915070E-01  0.13044461692E-01  0.29756832541E-02  0.27388373744E-01  0.00000000000E+00 0.  1.
     999901    1    3    3    0    0  0.54617478165E-01  0.86102808542E-01 -0.74313473847E-01  0.88899901853E+00  0.88000000000E+00 0.  1.
        -11    1    4    4    0    0 -0.36736454601E-02 -0.45179410601E-01  0.32024381243E-01  0.55502224534E-01  0.51100000000E-03 0.  1.
         11    1    4    4    0    0 -0.27045917634E-01 -0.53967859633E-01  0.39313409350E-01  0.72040383187E-01  0.51100000000E-03 0. -1.
</event>
<event>
 8    1  0.1094134E+005  0.1043930E+01  0.7957747E-01            NaN
         13   -1    0    0    0    0  0.00000000000E+00  0.00000000000E+00  0.74505805969E-08  0.10566000000E+00  0.10566000000E+00 0. -1.
     999900   -1    0    0    0    0 -0.00000000000E+00 -0.00000000000E+00 -0.74505805969E-08  0.93827000000E+00  0.93827000000E+00 0. -1.
     999902    2    1    2    0    0 -0.54907043128E-02 -0.16245608496E-01  0.16133242449E-01  0.10203853798E+01  0.10201137065E+01 0.  0.
     999903    2    3    3    0    0 -0.20596200269E-01 -0.11738070673E+00  0.56939840236E-01  0.13352481435E+00  0.19603491097E-01 0.  0.
         14    1    1    2    0    0  0.54907043128E-02  0.16245608496E-01 -0.16133242449E-01  0.23544620217E-01  0.00000000000E+00 0.  1.
     999901    1    3    3    0    0  0.15105495956E-01  0.10113509823E+00 -0.40806597788E-01  0.88686056544E+00  0.88000000000E+00 0.  1.
        -11    1    4    4    0    0  0.35922118219E-02 -0.10745400794E-01  0.38903992639E-02  0.11990160609E-01  0.51100000000E-03 0. -1.
         11    1    4    4    0    0 -0.24188412091E-01 -0.10663530593E+00  0.53049440972E-01  0.12153465374E+00  0.51100000000E-03 0.  1.
</event>
<event>
 8    1  0.1094134E+005  0.1043930E+01  0.7957747E-01            NaN
         13   -1    0    0    0    0  0.00000000000E+00  0.00000000000E+00  0.74505805969E-08  0.10566000000E+00  0.10566000000E+00 0.  1.
     999900   -1    0    0    0    0 -0.00000000000E+00 -0.00000000000E+00 -0.74505805969E-08  0.93827000000E+00  0.93827000000E+00 0.  1.
     999902    2    1    2    0    0  0.92298759050E-02  0.19999425401E-01  0.69413669958E-02  0.10208356240E+01  0.10205743584E+01 0.  0.
     999903    2    3    3    0    0  0.94650963436E-01 -0.82706305359E-01  0.28671536619E-01  0.13048882104E+00  0.20152855356E-01 0.  0.
         14    1    1    2    0    0 -0.92298759050E-02 -0.19999425401E-01 -0.69413669958E-02  0.23094375968E-01  0.00000000000E+00 0. -1.
     999901    1    3    3    0    0 -0.85421087531E-01  0.10270573076E+00 -0.21730169623E-01  0.89034680299E+00  0.88000000000E+00 0.  1.
        -11    1    4    4    0    0  0.16779778421E-01 -0.26031093906E-01  0.77395470600E-02  0.31927112671E-01  0.51100000000E-03 0. -1.
         11    1    4    4    0    0  0.77871185015E-01 -0.56675211452E-01  0.20931989559E-01  0.98561708369E-01  0.51100000000E-03 0.  1.
</event>
<event>
 8    1  0.1094134E+005  0.1043930E+01  0.7957747E-01            NaN
         13   -1    0    0    0    0  0.00000000000E+00  0.00000000000E+00  0.74505805969E-08  0.10566000000E+00  0.10566000000E+00 0. -1.
     999900   -1    0    0    0    0 -0.00000000000E+00 -0.00000000000E+00 -0.74505805969E-08  0.93827000000E+00  0.93827000000E+00 0.  1.
     999902    2    1    2    0    0 -0.18138945337E-02  0.78566971963E-02 -0.21971800695E-01  0.10205253438E+01  0.10202569282E+01 0.  0.
     999903    2    3    3    0    0  0.12373762157E+00  0.50497507846E-02  0.32855483497E-01  0.12992044085E+00  0.21525314850E-01 0.  0.
         14    1    1    2    0    0  0.18138945337E-02 -0.78566971963E-02  0.21971800695E-01  0.23404656161E-01  0.00000000000E+00 0. -1.
     999901    1    3    3    0    0 -0.12555151610E+00  0.28069464118E-02 -0.54827284192E-01  0.89060490299E+00  0.88000000000E+00 0.  1.
        -11    1    4    4    0    0  0.20022585234E-01  0.67278715870E-02  0.11351246959E-01  0.23984997479E-01  0.51100000000E-03 0.  1.
         11    1    4    4    0    0  0.10371503633E+00 -0.16781208025E-02  0.21504236538E-01  0.10593544337E+00  0.51100000000E-03 0. -1.
</event>
<event>
 8    1  0.1094134E+005  0.1043930E+01  0.7957747E-01            NaN
         13   -1    0    0    0    0  0.00000000000E+00  0.00000000000E+00  0.74505805969E-08  0.10566000000E+00  0.10566000000E+00 0.  1.
     999900   -1    0    0    0    0 -0.00000000000E+00 -0.00000000000E+00 -0.74505805969E-08  0.93827000000E+00  0.93827000000E+00 0. -1.
     999902    2    1    2    0    0 -0.10259096950E-01 -0.89795824210E-02 -0.20866941503E-01  0.10190038848E+01  0.10186989771E+01 0.  0.
     999903    2    3    3    0    0  0.20876142220E-01 -0.52284024583E-01 -0.11756447327E+00  0.13210192265E+00  0.21449476745E-01 0.  0.
         14    1    1    2    0    0  0.10259096950E-01  0.89795824210E-02  0.20866941503E-01  0.24926115188E-01  0.00000000000E+00 0.  1.
     999901    1    3    3    0    0 -0.31135239170E-01  0.43304442162E-01  0.96697531769E-01  0.88690196216E+00  0.88000000000E+00 0.  1.
        -11    1    4    4    0    0  0.17635578369E-01 -0.47646322054E-01 -0.11527851876E+00  0.12597850467E+00  0.51100000000E-03 0. -1.
         11    1    4    4    0    0  0.32405638514E-02 -0.46377025293E-02 -0.22859545134E-02  0.61234179886E-02  0.51100000000E-03 0.  1.
</event>
<event>
 8    1  0.1094134E+005  0.1043930E+01  0.7957747E-01            NaN
         13   -1    0    0    0    0  0.00000000000E+00  0.00000000000E+00  0.74505805969E-08  0.10566000000E+00  0.10566000000E+00 0. -1.
     999900   -1    0    0    0    0 -0.00000000000E+00 -0.00000000000E+00 -0.74505805969E-08  0.93827000000E+00  0.93827000000E+00 0.  1.
     999902    2    1    2    0    0  0.32374350158E-04 -0.21974830645E-01 -0.48880153651E-02  0.10214180715E+01  0.10211699613E+01 0.  0.
     999903    2    3    3    0    0  0.10302164885E+00 -0.55893614392E-02 -0.79971576145E-01  0.13208527927E+00  0.20158544462E-01 0.  0.
         14    1    1    2    0    0 -0.32374350158E-04  0.21974830645E-01  0.48880153651E-02  0.22511928486E-01  0.00000000000E+00 0.  1.
     999901    1    3    3    0    0 -0.10298927450E+00 -0.16385469205E-01  0.75083560780E-01  0.88933279225E+00  0.88000000000E+00 0. -1.
        -11    1    4    4    0    0  0.52350900492E-01 -0.10520292994E-02 -0.28095442558E-01  0.59425066778E-01  0.51100000000E-03 0. -1.
         11    1    4    4    0    0  0.50670748360E-01 -0.45373321399E-02 -0.51876133587E-01  0.72660212491E-01  0.51100000000E-03 0.  1.
</event>
<event>
 8    1  0.1094134E+005  0.1043930E+01  0.7957747E-01            NaN
         13   -1    0    0    0    0  0.00000000000E+00  0.00000000000E+00  0.74505805969E-08  0.10566000000E+00  0.10566000000E+00 0.  1.
     999900   -1    0    0    0    0 -0.00000000000E+00 -0.00000000000E+00 -0.74505805969E-08  0.93827000000E+00  0.93827000000E+00 0. -1.
     999902    2    1    2    0    0 -0.10123196545E-01  0.18749238616E-01 -0.10865740351E-01  0.10200118611E+01  0.10197313957E+01 0.  0.
     999903    2    3    3    0    0 -0.13587020315E-01  0.91751246051E-01 -0.93345486260E-01  0.13313858959E+00  0.20238724258E-01 0.  0.
         14    1    1    2    0    0  0.10123196545E-01 -0.18749238616E-01  0.10865740351E-01  0.23918138940E-01  0.00000000000E+00 0. -1.
     999901    1    3    3    0    0  0.34638237702E-02 -0.73002007434E-01  0.82479745909E-01  0.88687327147E+00  0.88000000000E+00 0.  1.
        -11    1    4    4    0    0 -0.88189220778E-02  0.11956219544E-01 -0.17256349214E-01  0.22776463325E-01  0.51100000000E-03 0.  1.
         11    1    4    4    0    0 -0.47680982376E-02  0.79795026507E-01 -0.76089137047E-01  0.11036212626E+00  0.51100000000E-03 0. -1.
</event>
<event>
 8    1  0.1094134E+005  0.1043930E+01  0.7957747E-01            NaN
         13   -1    0    0    0    0  0.00000000000E+00  0.00000000000E+00  0.74505805969E-08  0.10566000000E+00  0.10566000000E+00 0. -1.
     999900   -1    0    0    0    0 -0.00000000000E+00 -0.00000000000E+00 -0.74505805969E-08  0.93827000000E+00  0.93827000000E+00 0.  1.
     999902    2    1    2    0    0 -0.88547919729E-03  0.93338345508E-02  0.21458333511E-01  0.10205128136E+01  0.10202441071E+01 0.  0.
     999903    2    3    3    0    0  0.62456917002E-01 -0.60722452804E-02  0.11544315606E+00  0.13311056361E+00  0.21296976781E-01 0.  0.
         14    1    1    2    0    0  0.88547919729E-03 -0.93338345508E-02 -0.21458333511E-01  0.23417186379E-01  0.00000000000E+00 0.  1.
     999901    1    3    3    0    0 -0.63342396199E-01  0.15406079831E-01 -0.93984822548E-01  0.88740225001E+00  0.88000000000E+00 0.  1.
        -11    1    4    4    0    0  0.16587690657E-01 -0.11279142912E-01  0.36973686348E-01  0.42067625906E-01  0.51100000000E-03 0. -1.
         11    1    4    4    0    0  0.45869226345E-01  0.52068976318E-02  0.78469469711E-01  0.91042937706E-01  0.51100000000E-03 0.  1.
</event>
<event>
 8    1  0.1094134E+005  0.1043930E+01  0.7957747E-01            NaN
         13   -1    0    0    0    0  0.00000000000E+00  0.00000000000E+00  0.74505805969E-08  0.10566000000E+00  0.10566000000E+00 0. -1.
     999900   -1    0    0    0    0 -0.00000000000E+00 -0.00000000000E+00 -0.74505805969E-08  0.93827000000E+00  0.93827000000E+00 0.  1.
     999902    2    1    2    0    0  0.56486451991E-02 -0.42475836980E-02  0.19711431949E-01  0.10229898541E+01  0.10227755139E+01 0.  0.
     999903    2    3    3    0    0 -0.49762860951E-01 -0.39941548236E-01  0.11744694269E+00  0.13512909692E+00  0.19859981931E-01 0.  0.
         14    1    1    2    0    0 -0.56486451991E-02  0.42475836980E-02 -0.19711431949E-01  0.20940145876E-01  0.00000000000E+00 0.  1.
     999901    1    3    3    0    0  0.55411506150E-01  0.35693964538E-01 -0.97735510741E-01  0.88786075720E+00  0.88000000000E+00 0.  1.
        -11    1    4    4    0    0 -0.22018244954E-01 -0.61090627152E-02  0.35258726154E-01  0.42018598848E-01  0.51100000000E-03 0. -1.
         11    1    4    4    0    0 -0.27744615997E-01 -0.33832485521E-01  0.82188216536E-01  0.93110498075E-01  0.51100000000E-03 0.  1.
</event>
<event>
 8    1  0.1094134E+005  0.1043930E+01  0.7957747E-01            NaN
         13   -1    0    0    0    0  0.00000000000E+00  0.00000000000E+00  0.74505805969E-08  0.10566000000E+00  0.10566000000E+00 0. -1.
     999900   -1    0    0    0    0 -0.00000000000E+00 -0.00000000000E+00 -0.74505805969E-08  0.93827000000E+00  0.93827000000E+00 0. -1.
     999902    2    1    2    0    0 -0.58268230496E-02  0.69920346796E-02 -0.22011823322E-01  0.10201106637E+01  0.10198325379E+01 0.  0.
     999903    2    3    3    0    0 -0.43704830034E-01  0.38557554496E-02  0.11877329386E+00  0.12811008697E+00  0.19496667165E-01 0.  0.
         14    1    1    2    0    0  0.58268230496E-02 -0.69920346796E-02  0.22011823322E-01  0.23819336300E-01  0.00000000000E+00 0. -1.
     999901    1    3    3    0    0  0.37878006984E-01  0.31362792300E-02 -0.14078511719E+00  0.89200057673E+00  0.88000000000E+00 0. -1.
        -11    1    4    4    0    0 -0.27681317271E-01 -0.37516702700E-02  0.52132502537E-01  0.59147183344E-01  0.51100000000E-03 0. -1.
         11    1    4    4    0    0 -0.16023512762E-01  0.76074257196E-02  0.66640791327E-01  0.68962903629E-01  0.51100000000E-03 0.  1.
</event>
<event>
 8    1  0.1094134E+005  0.1043930E+01  0.7957747E-01            NaN
         13   -1    0    0    0    0  0.00000000000E+00  0.00000000000E+00  0.74505805969E-08  0.10566000000E+00  0.10566000000E+00 0. -1.
     999900   -1    0    0    0    0 -0.00000000000E+00 -0.00000000000E+00 -0.74505805969E-08  0.93827000000E+00  0.93827000000E+00 0.  1.
     999902    2    1    2    0    0  0.74476254538E-02  0.19390656877E-01 -0.13551399334E-01  0.10191286871E+01  0.10188268625E+01 0.  0.
     999903    2    3    3    0    0 -0.96988761962E-01 -0.77787931636E-01  0.17023928061E-01  0.12711664246E+00  0.20274230185E-01 0.  0.
         14    1    1    2    0    0 -0.74476254538E-02 -0.19390656877E-01  0.13551399334E-01  0.24801312927E-01  0.00000000000E+00 0. -1.
     999901    1    3    3    0    0  0.10443638742E+00  0.97178588512E-01 -0.30575327395E-01  0.89201204461E+00  0.88000000000E+00 0. -1.
        -11    1    4    4    0    0 -0.89394986488E-01 -0.77556773614E-01  0.15678319495E-01  0.11938420149E+00  0.51100000000E-03 0. -1.
         11    1    4    4    0    0 -0.75937754745E-02 -0.23115802222E-03  0.13456085660E-02  0.77324409730E-02  0.51100000000E-03 0.  1.
</event>
<event>
 8    1  0.1094134E+005  0.1043930E+01  0.7957747E-01            NaN
         13   -1    0    0    0    0  0.00000000000E+00  0.00000000000E+00  0.74505805969E-08  0.10566000000E+00  0.10566000000E+00 0.  1.
     999900   -1    0    0    0    0 -0.00000000000E+00 -0.00000000000E+00 -0.74505805969E-08  0.93827000000E+00  0.93827000000E+00 0.  1.
     999902    2    1    2    0    0  0.95168187627E-03  0.23572141982E-01  0.28150941768E-02  0.10201712894E+01  0.10198945942E+01 0.  0.
     999903    2    3    3    0    0 -0.10938396053E+00  0.59005620882E-01 -0.38178495665E-01  0.13162755953E+00  0.20535403085E-01 0.  0.
         14    1    1    2    0    0 -0.95168187627E-03 -0.23572141982E-01 -0.28150941768E-02  0.23758710639E-01  0.00000000000E+00 0. -1.
     999901    1    3    3    0    0  0.11033564241E+00 -0.35433478901E-01  0.40993589842E-01  0.88854372983E+00  0.88000000000E+00 0.  1.
        -11    1    4    4    0    0 -0.77659643569E-01  0.52005306270E-01 -0.29120844613E-01  0.97897174788E-01  0.51100000000E-03 0. -1.
         11    1    4    4    0    0 -0.31724316962E-01  0.70003146122E-02 -0.90576510520E-02  0.33730384743E-01  0.51100000000E-03 0.  1.
</event>
<event>
 8    1  0.1094134E+005  0.1043930E+01  0.7957747E-01            NaN
         13   -1    0    0    0    0  0.00000000000E+00  0.00000000000E+00  0.74505805969E-08  0.10566000000E+00  0.10566000000E+00 0.  1.
     999900   -1    0    0    0    0 -0.00000000000E+00 -0.00000000000E+00 -0.74505805969E-08  0.93827000000E+00  0.93827000000E+00 0.  1.
     999902    2    1    2    0    0  0.70124551778E-02 -0.70178391755E-02  0.20294586756E-01  0.10213402934E+01  0.10210904465E+01 0.  0.
     999903    2    3    3    0    0 -0.11175689739E+00 -0.38861787270E-01 -0.49780404843E-01  0.13003187279E+00  0.20745038212E-01 0.  0.
         14    1    1    2    0    0 -0.70124551778E-02  0.70178391755E-02 -0.20294586756E-01  0.22589706637E-01  0.00000000000E+00 0. -1.
     999901    1    3    3    0    0  0.11876935257E+00  0.31843948095E-01  0.70074991600E-01  0.89130842057E+00  0.88000000000E+00 0. -1.
        -11    1    4    4    0    0 -0.46864172760E-01 -0.13510264637E-01 -0.99523872135E-02  0.49780408508E-01  0.51100000000E-03 0. -1.
         11    1    4    4    0    0 -0.64892724631E-01 -0.25351522633E-01 -0.39828017630E-01  0.80251464280E-01  0.51100000000E-03 0.  1.
</event>
<event>
 8    1  0.1094134E+005  0.1043930E+01  0.7957747E-01            NaN
         13   -1    0    0    0    0  0.00000000000E+00  0.00000000000E+00  0.74505805969E-08  0.10566000000E+00  0.10566000000E+00 0. -1.
     999900   -1    0    0    0    0 -0.00000000000E+00 -0.00000000000E+00 -0.74505805969E-08  0.93827000000E+00  0.93827000000E+00 0.  1.
     999902    2    1    2    0    0  0.19387241491E-01 -0.11283335525E-01 -0.95708053994E-02  0.10195419064E+01  0.10192501753E+01 0.  0.
     999903    2    3    3    0    0 -0.11437682619E+00  0.51963310486E-01  0.17543790028E-02  0.12711755452E+00  0.19327462726E-01 0.  0.
         14    1    1    2    0    0 -0.19387241491E-01  0.11283335525E-01  0.95708053994E-02  0.24388093595E-01  0.00000000000E+00 0. -1.
     999901    1    3    3    0    0  0.13376406768E+00 -0.63246646011E-01 -0.11325184402E-01  0.89242435188E+00  0.88000000000E+00 0.  1.
        -11    1    4    4    0    0 -0.43223631498E-01  0.30074456397E-01  0.58544901418E-03  0.52662691908E-01  0.51100000000E-03 0.  1.
         11    1    4    4    0    0 -0.71153194693E-01  0.21888854089E-01  0.11689299886E-02  0.74454862613E-01  0.51100000000E-03 0. -1.
</event>
<event>
 8    1  0.1094134E+005  0.1043930E+01  0.7957747E-01            NaN
         13   -1    0    0    0    0  0.00000000000E+00  0.00000000000E+00  0.74505805969E-08  0.10566000000E+00  0.10566000000E+00 0. -1.
     999900   -1    0    0    0    0 -0.00000000000E+00 -0.00000000000E+00 -0.74505805969E-08  0.93827000000E+00  0.93827000000E+00 0. -1.
     999902    2    1    2    0    0  0.18079684584E-01  0.14414475367E-01  0.65955961595E-03  0.10207980499E+01  0.10205359237E+01 0.  0.
     999903    2    3    3    0    0  0.91477008161E-01 -0.79590112988E-01  0.46956417369E-01  0.13154700058E+00  0.19926844283E-01 0.  0.
         14    1    1    2    0    0 -0.18079684584E-01 -0.14414475367E-01 -0.65955961595E-03  0.23131950061E-01  0.00000000000E+00 0.  1.
     999901    1    3    3    0    0 -0.73397323577E-01  0.94004588355E-01 -0.46296857753E-01  0.88925104935E+00  0.88000000000E+00 0.  1.
        -11    1    4    4    0    0  0.54296936139E-02 -0.52680602052E-02 -0.18618447568E-02  0.78077921313E-02  0.51100000000E-03 0. -1.
         11    1    4    4    0    0  0.86047314547E-01 -0.74322052783E-01  0.48818262126E-01  0.12373920845E+00  0.51100000000E-03 0.  1.
</event>
<event>
 8    1  0.1094134E+005  0.1043930E+01  0.7957747E-01            NaN
         13   -1    0    0    0    0  0.00000000000E+00  0.00000000000E+00  0.74505805969E-08  0.10566000000E+00  0.10566000000E+00 0.  1.
     999900   -1    0    0    0    0 -0.00000000000E+00 -0.00000000000E+00 -0.74505805969E-08  0.93827000000E+00  0.93827000000E+00 0. -1.
     999902    2    1    2    0    0 -0.14258485863E-01 -0.14115475654E-01  0.10531301074E-01  0.10212703580E+01  0.10210189444E+01 0.  0.
     999903    2    3    3    0    0 -0.38330142981E-01 -0.41026792561E-01 -0.11668043575E+00  0.13139031575E+00  0.22286619725E-01 0.  0.
         14    1    1    2    0    0  0.14258485863E-01  0.14115475654E-01 -0.10531301074E-01  0.22659641974E-01  0.00000000000E+00 0. -1.
     999901    1    3    3    0    0  0.24071657118E-01  0.26911316906E-01  0.12721173682E+00  0.88988004227E+00  0.88000000000E+00 0.  1.
        -11    1    4    4    0    0 -0.32685818021E-01 -0.27219135337E-01 -0.10172647747E+00  0.11026232978E+00  0.51100000000E-03 0. -1.
         11    1    4    4    0    0 -0.56443249601E-02 -0.13807657224E-01 -0.14953958274E-01  0.21127985974E-01  0.51100000000E-03 0.  1.
</event>
<event>
 8    1  0.1094134E+005  0.1043930E+01  0.7957747E-01            NaN
         13   -1    0    0    0    0  0.00000000000E+00  0.00000000000E+00  0.74505805969E-08  0.10566000000E+00  0.10566000000E+00 0. -1.
     999900   -1    0    0    0    0 -0.00000000000E+00 -0.00000000000E+00 -0.74505805969E-08  0.93827000000E+00  0.93827000000E+00 0.  1.
     999902    2    1    2    0    0 -0.18499079684E-01  0.31615890790E-02  0.80576416971E-02  0.10235060634E+01  0.10233022646E+01 0.  0.
     999903    2    3    3    0    0 -0.13603454320E-01  0.73782967755E-01 -0.10835045852E+00  0.13302181762E+00  0.18055519954E-01 0.  0.
         14    1    1    2    0    0  0.18499079684E-01 -0.31615890790E-02 -0.80576416971E-02  0.20423936554E-01  0.00000000000E+00 0.  1.
     999901    1    3    3    0    0 -0.48956253644E-02 -0.70621378676E-01  0.11640810022E+00  0.89048424583E+00  0.88000000000E+00 0. -1.
        -11    1    4    4    0    0 -0.14205968371E-01  0.36286776588E-01 -0.64083092269E-01  0.75002956797E-01  0.51100000000E-03 0.  1.
         11    1    4    4    0    0  0.60251405085E-03  0.37496191167E-01 -0.44267366249E-01  0.58018860820E-01  0.51100000000E-03 0. -1.
</event>
<event>
 8    1  0.1094134E+005  0.1043930E+01  0.7957747E-01            NaN
         13   -1    0    0    0    0  0.00000000000E+00  0.00000000000E+00  0.74505805969E-08  0.10566000000E+00  0.10566000000E+00 0.  1.
     999900   -1    0    0    0    0 -0.00000000000E+00 -0.00000000000E+00 -0.74505805969E-08  0.93827000000E+00  0.93827000000E+00 0.  1.
     999902    2    1    2    0    0  0.91094340777E-02  0.21466069989E-01 -0.37411843719E-02  0.10203128365E+01  0.10200394669E+01 0.  0.
     999903    2    3    3    0    0 -0.19970045206E-02  0.49768756392E-01  0.11971834789E+00  0.13117468576E+00  0.19834268900E-01 0.  0.
         14    1    1    2    0    0 -0.91094340777E-02 -0.21466069989E-01  0.37411843719E-02  0.23617163473E-01  0.00000000000E+00 0.  1.
     999901    1    3    3    0    0  0.11106438598E-01 -0.28302686403E-01 -0.12345953227E+00  0.88913815076E+00  0.88000000000E+00 0.  1.
        -11    1    4    4    0    0 -0.84511039442E-02  0.28172667199E-01  0.51284123695E-01  0.59122269908E-01  0.51100000000E-03 0. -1.
         11    1    4    4    0    0  0.64540994236E-02  0.21596089193E-01  0.68434224199E-01  0.72052415855E-01  0.51100000000E-03 0.  1.
</event>
<event>
 8    1  0.1094134E+005  0.1043930E+01  0.7957747E-01            NaN
         13   -1    0    0    0    0  0.00000000000E+00  0.00000000000E+00  0.74505805969E-08  0.10566000000E+00  0.10566000000E+00 0. -1.
     999900   -1    0    0    0    0 -0.00000000000E+00 -0.00000000000E+00 -0.74505805969E-08  0.93827000000E+00  0.93827000000E+00 0. -1.
     999902    2    1    2    0    0 -0.15018735461E-01  0.17776873426E-01  0.24513501635E-02  0.10205293855E+01  0.10202610636E+01 0.  0.
     999903    2    3    3    0    0  0.50764346881E-01 -0.11233636612E+00  0.19316620206E-01  0.12837395821E+00  0.30170569466E-01 0.  0.
         14    1    1    2    0    0  0.15018735461E-01 -0.17776873426E-01 -0.24513501635E-02  0.23400614549E-01  0.00000000000E+00 0. -1.
     999901    1    3    3    0    0 -0.65783082342E-01  0.13011323955E+00 -0.16865270043E-01  0.89215542724E+00  0.88000000000E+00 0.  1.
        -11    1    4    4    0    0  0.41582036582E-01 -0.59492884956E-01  0.17694781537E-01  0.74711682764E-01  0.51100000000E-03 0. -1.
         11    1    4    4    0    0  0.91823102985E-02 -0.52843481165E-01  0.16218386693E-02  0.53662275443E-01  0.51100000000E-03 0.  1.
</event>
<event>
 8    1  0.1094134E+005  0.1043930E+01  0.7957747E-01            NaN
         13   -1    0    0    0    0  0.00000000000E+00  0.00000000000E+00  0.74505805969E-08  0.10566000000E+00  0.10566000000E+00 0.  1.
     999900   -1    0    0    0    0 -0.00000000000E+00 -0.00000000000E+00 -0.74505805969E-08  0.93827000000E+00  0.93827000000E+00 0.  1.
     999902    2    1    2    0    0  0.22436894432E-02  0.22399997301E-01  0.64048978015E-02  0.10205245148E+01  0.10202560799E+01 0.  0.
     999903    2    3    3    0    0 -0.21529400222E-04 -0.82569123179E-01 -0.95680195493E-01  0.12842305547E+00  0.22806157087E-01 0.  0.
         14    1    1    2    0    0 -0.22436894432E-02 -0.22399997301E-01 -0.64048978015E-02  0.23405485195E-01  0.00000000000E+00 0. -1.
     999901    1    3    3    0    0  0.22652188434E-02  0.10496912048E+00  0.10208509329E+00  0.89210145933E+00  0.88000000000E+00 0.  1.
        -11    1    4    4    0    0  0.50645504432E-02 -0.77817410104E-01 -0.82595673014E-01  0.11359359713E+00  0.51100000000E-03 0.  1.
         11    1    4    4    0    0 -0.50860798434E-02 -0.47517130753E-02 -0.13084522478E-01  0.14829458345E-01  0.51100000000E-03 0. -1.
</event>
<event>
 8    1  0.1094134E+005  0.1043930E+01  0.7957747E-01            NaN
         13   -1    0    0    0    0  0.00000000000E+00  0.00000000000E+00  0.74505805969E-08  0.10566000000E+00  0.10566000000E+00 0.  1.
     999900   -1    0    0    0    0 -0.00000000000E+00 -0.00000000000E+00 -0.74505805969E-08  0.93827000000E+00  0.93827000000E+00 0.  1.
     999902    2    1    2    0    0  0.63978919049E-02  0.14697606700E-01  0.17633903859E-01  0.10200991958E+01  0.10198207990E+01 0.  0.
     999903    2    3    3    0    0  0.63132990321E-01  0.48423679263E-01 -0.10054851559E+00  0.12974903792E+00  0.19854009026E-01 0.  0.
         14    1    1    2    0    0 -0.63978919049E-02 -0.14697606700E-01 -0.17633903859E-01  0.23830804200E-01  0.00000000000E+00 0. -1.
     999901    1    3    3    0    0 -0.56735098416E-01 -0.33726072563E-01  0.11818241945E+00  0.89035015788E+00  0.88000000000E+00 0. -1.
        -11    1    4    4    0    0  0.22264264014E-01  0.18447388530E-01 -0.52342518159E-01  0.59799698359E-01  0.51100000000E-03 0. -1.
         11    1    4    4    0    0  0.40868726307E-01  0.29976290733E-01 -0.48205997432E-01  0.69949339565E-01  0.51100000000E-03 0.  1.
</event>
<event>
 8    1  0.1094134E+005  0.1043930E+01  0.7957747E-01            NaN
         13   -1    0    0    0    0  0.00000000000E+00  0.00000000000E+00  0.74505805969E-08  0.10566000000E+00  0.10566000000E+00 0. -1.
     999900   -1    0    0    0    0 -0.00000000000E+00 -0.00000000000E+00 -0.74505805969E-08  0.93827000000E+00  0.93827000000E+00 0. -1.
     999902    2    1    2    0    0 -0.20867313948E-01  0.66439033145E-02 -0.67451303229E-02  0.10210153098E+01  0.10207581398E+01 0.  0.
     999903    2    3    3    0    0  0.54500714411E-01 -0.84719731326E-01 -0.79775090396E-01  0.13008263644E+00  0.20240220089E-01 0.  0.
         14    1    1    2    0    0  0.20867313948E-01 -0.66439033145E-02  0.67451303229E-02  0.22914690173E-01  0.00000000000E+00 0. -1.
     999901    1    3    3    0    0 -0.75368028359E-01  0.91363634640E-01  0.73029960073E-01  0.89093267338E+00  0.88000000000E+00 0.  1.
        -11    1    4    4    0    0  0.69206071426E-02 -0.23920097692E-01 -0.13485095730E-01  0.28322690632E-01  0.51100000000E-03 0.  1.
         11    1    4    4    0    0  0.47580107269E-01 -0.60799633634E-01 -0.66289994666E-01  0.10175994581E+00  0.51100000000E-03 0. -1.
</event>
<event>
 8    1  0.1094134E+005  0.1043930E+01  0.7957747E-01            NaN
         13   -1    0    0    0    0  0.00000000000E+00  0.00000000000E+00  0.74505805969E-08  0.10566000000E+00  0.10566000000E+00 0. -1.
     999900   -1    0    0    0    0 -0.00000000000E+00 -0.00000000000E+00 -0.74505805969E-08  0.93827000000E+00  0.93827000000E+00 0.  1.
     999902    2    1    2    0    0  0.26264082606E-02 -0.60418615696E-02 -0.22470251039E-01  0.10205138882E+01  0.10202452066E+01 0.  0.
     999903    2    3    3    0    0  0.12196157578E+00 -0.29651509858E-01  0.30130426406E-01  0.13058966164E+00  0.19798462750E-01 0.  0.
         14    1    1    2    0    0 -0.26264082606E-02  0.60418615696E-02  0.22470251039E-01  0.23416111832E-01  0.00000000000E+00 0. -1.
     999901    1    3    3    0    0 -0.11933516752E+00  0.23609648288E-01 -0.52600677445E-01  0.88992422653E+00  0.88000000000E+00 0. -1.
        -11    1    4    4    0    0  0.94967008762E-01 -0.22596735349E-01  0.31705452566E-01  0.10263937863E+00  0.51100000000E-03 0. -1.
         11    1    4    4    0    0  0.26994567019E-01 -0.70547745095E-02 -0.15750261600E-02  0.27950283009E-01  0.51100000000E-03 0.  1.
</event>
<event>
 8    1  0.1094134E+005  0.1043930E+01  0.7957747E-01            NaN
         13   -1    0    0    0    0  0.00000000000E+00  0.00000000000E+00  0.74505805969E-08  0.10566000000E+00  0.10566000000E+00 0. -1.
     999900   -1    0    0    0    0 -0.00000000000E+00 -0.00000000000E+00 -0.74505805969E-08  0.93827000000E+00  0.93827000000E+00 0.  1.
     999902    2    1    2    0    0  0.13838667877E-01  0.53132428087E-02 -0.18893618058E-01  0.10199152528E+01  0.10196324901E+01 0.  0.
     999903    2    3    3    0    0  0.12934661880E+00 -0.21837309053E-01 -0.12198937724E-01  0.13192648155E+00  0.69546093516E-02 0.  0.
         14    1    1    2    0    0 -0.13838667877E-01 -0.53132428087E-02  0.18893618058E-01  0.24014747158E-01  0.00000000000E+00 0. -1.
     999901    1    3    3    0    0 -0.11550795092E+00  0.27150551861E-01 -0.66946803336E-02  0.88798877129E+00  0.88000000000E+00 0. -1.
        -11    1    4    4    0    0  0.47685874692E-01 -0.74099872819E-02 -0.12238499474E-02  0.48276386426E-01  0.51100000000E-03 0. -1.
         11    1    4    4    0    0  0.81660744108E-01 -0.14427321771E-01 -0.10975087777E-01  0.83650095126E-01  0.51100000000E-03 0.  1.
</event>
<event>
 8    1  0.1094134E+005  0.1043930E+01  0.7957747E-01            NaN
         13   -1    0    0    0    0  0.00000000000E+00  0.00000000000E+00  0.74505805969E-08  0.10566000000E+00  0.10566000000E+00 0.  1.
     999900   -1    0    0    0    0 -0.00000000000E+00 -0.00000000000E+00 -0.74505805969E-08  0.93827000000E+00  0.93827000000E+00 0.  1.
     999902    2    1    2    0    0  0.19619918086E-01 -0.91705330152E-02  0.15809101991E-02  0.10222150480E+01  0.10219843763E+01 0.  0.
     999903    2    3    3    0    0  0.10073243820E+00  0.61913382009E-01  0.59385122461E-01  0.13374811515E+00  0.19536492982E-01 0.  0.
         14    1    1    2    0    0 -0.19619918086E-01  0.91705330152E-02 -0.15809101991E-02  0.21714951958E-01  0.00000000000E+00 0.  1.
     999901    1    3    3    0    0 -0.81112520113E-01 -0.71083915024E-01 -0.57804212262E-01  0.88846693290E+00  0.88000000000E+00 0.  1.
        -11    1    4    4    0    0  0.20630507892E-01  0.20542947734E-01  0.90500299495E-02  0.30492535489E-01  0.51100000000E-03 0. -1.
         11    1    4    4    0    0  0.80101930308E-01  0.41370434275E-01  0.50335092511E-01  0.10325557966E+00  0.51100000000E-03 0.  1.
</event>
<event>
 8    1  0.1094134E+005  0.1043930E+01  0.7957747E-01            NaN
         13   -1    0    0    0    0  0.00000000000E+00  0.00000000000E+00  0.74505805969E-08  0.10566000000E+00  0.10566000000E+00 0.  1.
     999900   -1    0    0    0    0 -0.00000000000E+00 -0.00000000000E+00 -0.74505805969E-08  0.93827000000E+00  0.93827000000E+00 0. -1.
     999902    2    1    2    0    0  0.20973013094E-01 -0.76105128821E-02 -0.82582682267E-02  0.10201395360E+01  0.10198620920E+01 0.  0.
     999903    2    3    3    0    0 -0.50852985541E-02  0.12675649369E+00 -0.16523970237E-01  0.12952073430E+00  0.20236355083E-01 0.  0.
         14    1    1    2    0    0 -0.20973013094E-01  0.76105128821E-02  0.82582682267E-02  0.23790464028E-01  0.00000000000E+00 0.  1.
     999901    1    3    3    0    0  0.26058311648E-01 -0.13436700657E+00  0.82657020100E-02  0.89061880167E+00  0.88000000000E+00 0.  1.
        -11    1    4    4    0    0  0.17926585285E-02  0.42130864184E-01 -0.14483972183E-01  0.44590020326E-01  0.51100000000E-03 0.  1.
         11    1    4    4    0    0 -0.68779570826E-02  0.84625629507E-01 -0.20399980540E-02  0.84930713975E-01  0.51100000000E-03 0. -1.
</event>
<event>
 8    1  0.1094134E+005  0.1043930E+01  0.7957747E-01            NaN
         13   -1    0    0    0    0  0.00000000000E+00  0.00000000000E+00  0.74505805969E-08  0.10566000000E+00  0.10566000000E+00 0. -1.
     999900   -1    0    0    0    0 -0.00000000000E+00 -0.00000000000E+00 -0.74505805969E-08  0.93827000000E+00  0.93827000000E+00 0.  1.
     999902    2    1    2    0    0 -0.18911817115E-02  0.17855461053E-01  0.14673692631E-01  0.10207413969E+01  0.10204779704E+01 0.  0.
     999903    2    3    3    0    0 -0.11672536585E+00  0.57600694109E-01  0.13518506587E-01  0.13239016691E+00  0.20043833947E-01 0.  0.
         14    1    1    2    0    0  0.18911817115E-02 -0.17855461053E-01 -0.14673692631E-01  0.23188603086E-01  0.00000000000E+00 0.  1.
     999901    1    3    3    0    0  0.11483418414E+00 -0.39745233057E-01  0.11551860442E-02  0.88835123001E+00  0.88000000000E+00 0.  1.
        -11    1    4    4    0    0 -0.34588993721E-01  0.93526310112E-02 -0.19236927187E-02  0.35886374965E-01  0.51100000000E-03 0. -1.
         11    1    4    4    0    0 -0.82136372128E-01  0.48248063098E-01  0.15442199305E-01  0.96503791943E-01  0.51100000000E-03 0.  1.
</event>
<event>
 8    1  0.1094134E+005  0.1043930E+01  0.7957747E-01            NaN
         13   -1    0    0    0    0  0.00000000000E+00  0.00000000000E+00  0.74505805969E-08  0.10566000000E+00  0.10566000000E+00 0. -1.
     999900   -1    0    0    0    0 -0.00000000000E+00 -0.00000000000E+00 -0.74505805969E-08  0.93827000000E+00  0.93827000000E+00 0.  1.
     999902    2    1    2    0    0 -0.82657250778E-02  0.66173781756E-02 -0.21078236771E-01  0.10203417832E+01  0.10200690911E+01 0.  0.
     999903    2    3    3    0    0 -0.30595217291E-01 -0.10361811813E+00  0.67055545469E-01  0.12881610528E+00  0.20600026125E-01 0.  0.
         14    1    1    2    0    0  0.82657250778E-02 -0.66173781756E-02  0.21078236771E-01  0.23588216769E-01  0.00000000000E+00 0.  1.
     999901    1    3    3    0    0  0.22329492213E-01  0.11023549631E+00 -0.88133782240E-01  0.89152567795E+00  0.88000000000E+00 0.  1.
        -11    1    4    4    0    0 -0.11454126495E-01 -0.64062773454E-01  0.31580525357E-01  0.72338279349E-01  0.51100000000E-03 0. -1.
         11    1    4    4    0    0 -0.19141090796E-01 -0.39555344676E-01  0.35475020112E-01  0.56477825934E-01  0.51100000000E-03 0.  1.
</event>
<event>
 8    1  0.1094134E+005  0.1043930E+01  0.7957747E-01            NaN
         13   -1    0    0    0    0  0.00000000000E+00  0.00000000000E+00  0.74505805969E-08  0.10566000000E+00  0.10566000000E+00 0. -1.
     999900   -1    0    0    0    0 -0.00000000000E+00 -0.00000000000E+00 -0.74505805969E-08  0.93827000000E+00  0.93827000000E+00 0. -1.
     999902    2    1    2    0    0  0.16712547543E-01  0.15583337281E-01 -0.41595749904E-02  0.10207039002E+01  0.10204396113E+01 0.  0.
     999903    2    3    3    0    0 -0.55341588154E-01  0.11634026470E+00  0.18614102988E-01  0.13173686074E+00  0.20257519079E-01 0.  0.
         14    1    1    2    0    0 -0.16712547543E-01 -0.15583337281E-01  0.41595749904E-02  0.23226099765E-01  0.00000000000E+00 0. -1.
     999901    1    3    3    0    0  0.72054135697E-01 -0.10075692742E+00 -0.22773677978E-01  0.88896703949E+00  0.88000000000E+00 0. -1.
        -11    1    4    4    0    0 -0.28066238913E-01  0.52417479630E-01  0.18377694622E-01  0.62235895736E-01  0.51100000000E-03 0.  1.
         11    1    4    4    0    0 -0.27275349241E-01  0.63922785068E-01  0.23640836515E-03  0.69500965007E-01  0.51100000000E-03 0. -1.
</event>
<event>
 8    1  0.1094134E+005  0.1043930E+01  0.7957747E-01            NaN
         13   -1    0    0    0    0  0.00000000000E+00  0.00000000000E+00  0.74505805969E-08  0.10566000000E+00  0.10566000000E+00 0.  1.
     999900   -1    0    0    0    0 -0.00000000000E+00 -0.00000000000E+00 -0.74505805969E-08  0.93827000000E+00  0.93827000000E+00 0. -1.
     999902    2    1    2    0    0  0.10887590986E-01 -0.19983247676E-01 -0.11027913261E-01  0.10186419654E+01  0.10183280262E+01 0.  0.
     999903    2    3    3    0    0  0.29681336769E-01  0.60392641328E-01 -0.10842845172E+00  0.12942863139E+00  0.21605291070E-01 0.  0.
         14    1    1    2    0    0 -0.10887590986E-01  0.19983247676E-01  0.11027913261E-01  0.25288034642E-01  0.00000000000E+00 0.  1.
     999901    1    3    3    0    0 -0.18793745783E-01 -0.80375889004E-01  0.97400538459E-01  0.88921333397E+00  0.88000000000E+00 0. -1.
        -11    1    4    4    0    0  0.19496767043E-01  0.32985422885E-01 -0.79707367016E-01  0.88440304871E-01  0.51100000000E-03 0.  1.
         11    1    4    4    0    0  0.10184569725E-01  0.27407218444E-01 -0.28721084704E-01  0.40988326520E-01  0.51100000000E-03 0. -1.
</event>
<event>
 8    1  0.1094134E+005  0.1043930E+01  0.7957747E-01            NaN
         13   -1    0    0    0    0  0.00000000000E+00  0.00000000000E+00  0.74505805969E-08  0.10566000000E+00  0.10566000000E+00 0. -1.
     999900   -1    0    0    0    0 -0.00000000000E+00 -0.00000000000E+00 -0.74505805969E-08  0.93827000000E+00  0.93827000000E+00 0. -1.
     999902    2    1    2    0    0  0.23973298284E-01  0.42455748578E-02  0.22032905254E-02  0.10194841737E+01  0.10191910429E+01 0.  0.
     999903    2    3    3    0    0 -0.12047401928E+00  0.34995727358E-01  0.51618510349E-02  0.12717293171E+00  0.20189591347E-01 0.  0.
         14    1    1    2    0    0 -0.23973298284E-01 -0.42455748578E-02 -0.22032905254E-02  0.24445826343E-01  0.00000000000E+00 0. -1.
     999901    1    3    3    0    0  0.14444731756E+00 -0.30750152500E-01 -0.29585605096E-02  0.89231124195E+00  0.88000000000E+00 0. -1.
        -11    1    4    4    0    0 -0.61492023860E-01  0.22035358821E-01  0.11930554234E-01  0.66403503538E-01  0.51100000000E-03 0.  1.
         11    1    4    4    0    0 -0.58981995417E-01  0.12960368538E-01 -0.67687031995E-02  0.60769428169E-01  0.51100000000E-03 0. -1.
</event>
<event>
 8    1  0.1094134E+005  0.1043930E+01  0.7957747E-01            NaN
         13   -1    0    0    0    0  0.00000000000E+00  0.00000000000E+00  0.74505805969E-08  0.10566000000E+00  0.10566000000E+00 0. -1.
     999900   -1    0    0    0    0 -0.00000000000E+00 -0.00000000000E+00 -0.74505805969E-08  0.93827000000E+00  0.93827000000E+00 0.  1.
     999902    2    1    2    0    0 -0.25267910809E-01 -0.39169080818E-03  0.21177758452E-01  0.10109585246E+01  0.10104207145E+01 0.  0.
     999903    2    3    3    0    0 -0.90224764345E-01  0.10614162988E-01  0.85338763053E-01  0.12616637037E+00  0.19546866142E-01 0.  0.
         14    1    1    2    0    0  0.25267910809E-01  0.39169080818E-03 -0.21177758452E-01  0.32971475421E-01  0.00000000000E+00 0.  1.
     999901    1    3    3    0    0  0.64956853536E-01 -0.11005853796E-01 -0.64161004601E-01  0.88479215421E+00  0.88000000000E+00 0.  1.
        -11    1    4    4    0    0 -0.21482586054E-01  0.37108103459E-03  0.10128010518E-01  0.23758723088E-01  0.51100000000E-03 0.  1.
         11    1    4    4    0    0 -0.68742178290E-01  0.10243081953E-01  0.75210752535E-01  0.10240764728E+00  0.51100000000E-03 0. -1.
</event>
<event>
 8    1  0.1094134E+005  0.1043930E+01  0.7957747E-01            NaN
         13   -1    0    0    0    0  0.00000000000E+00  0.00000000000E+00  0.74505805969E-08  0.10566000000E+00  0.10566000000E+00 0. -1.
     999900   -1    0    0    0    0 -0.00000000000E+00 -0.00000000000E+00 -0.74505805969E-08  0.93827000000E+00  0.93827000000E+00 0. -1.
     999902    2    1    2    0    0  0.20236173469E-01 -0.51968714401E-02  0.95971364994E-02  0.10209383663E+01  0.10206794466E+01 0.  0.
     999903    2    3    3    0    0 -0.35999414191E-01  0.12304842564E+00 -0.49261797272E-02  0.12974802513E+00  0.19323817029E-01 0.  0.
         14    1    1    2    0    0 -0.20236173469E-01  0.51968714401E-02 -0.95971364994E-02  0.22991633662E-01  0.00000000000E+00 0.  1.
     999901    1    3    3    0    0  0.56235587661E-01 -0.12824529708E+00  0.14523316227E-01  0.89119034120E+00  0.88000000000E+00 0.  1.
        -11    1    4    4    0    0 -0.39900236137E-03  0.22819744373E-01 -0.50613348803E-02  0.23383288219E-01  0.51100000000E-03 0.  1.
         11    1    4    4    0    0 -0.35600411830E-01  0.10022868127E+00  0.13515515305E-03  0.10636473691E+00  0.51100000000E-03 0. -1.
</event>
<event>
 8    1  0.1094134E+005  0.1043930E+01  0.7957747E-01            NaN
         13   -1    0    0    0    0  0.00000000000E+00  0.00000000000E+00  0.74505805969E-08  0.10566000000E+00  0.10566000000E+00 0. -1.
     999900   -1    0    0    0    0 -0.00000000000E+00 -0.00000000000E+00 -0.74505805969E-08  0.93827000000E+00  0.93827000000E+00 0.  1.
     999902    2    1    2    0    0 -0.10525194921E-02  0.23552949712E-01  0.79669740414E-04  0.10203534102E+01  0.10200809900E+01 0.  0.
     999903    2    3    3    0    0  0.26772370654E-01 -0.12063300650E+00 -0.25762198687E-01  0.12781118903E+00  0.20073043425E-01 0.  0.
         14    1    1    2    0    0  0.10525194921E-02 -0.23552949712E-01 -0.79669740414E-04  0.23576589759E-01  0.00000000000E+00 0.  1.
     999901    1    3    3    0    0 -0.27824890146E-01  0.14418595621E+00  0.25841868428E-01  0.89254222121E+00  0.88000000000E+00 0. -1.
        -11    1    4    4    0    0  0.28307732103E-01 -0.90640607525E-01 -0.16523175219E-01  0.96386326155E-01  0.51100000000E-03 0.  1.
         11    1    4    4    0    0 -0.15353614493E-02 -0.29992398975E-01 -0.92390234688E-02  0.31424862875E-01  0.51100000000E-03 0. -1.
</event>
<event>
 8    1  0.2063359E+005  0.1043930E+01  0.7957747E-01            NaN
         13   -1    0    0    0    0  0.00000000000E+00  0.00000000000E+00  0.74505805969E-08  0.10566000000E+00  0.10566000000E+00 0. -1.
     999900   -1    0    0    0    0 -0.00000000000E+00 -0.00000000000E+00 -0.74505805969E-08  0.93827000000E+00  0.93827000000E+00 0.  1.
     999902    2    1    2    0    0  0.19367097707E-02  0.22834663659E-01 -0.56754849374E-02  0.10203210221E+01  0.10200478441E+01 0.  0.
     999903    2    3    3    0    0 -0.61997744481E-01 -0.89641044662E-01 -0.66057724553E-01  0.12881419975E+00  0.18714643331E-01 0.  0.
         14    1    1    2    0    0 -0.19367097707E-02 -0.22834663659E-01  0.56754849374E-02  0.23608977920E-01  0.00000000000E+00 0.  1.
     999901    1    3    3    0    0  0.63934454251E-01  0.11247570832E+00  0.60382239615E-01  0.89150682233E+00  0.88000000000E+00 0.  1.
        -11    1    4    4    0    0 -0.21944832596E-01 -0.47346675090E-01 -0.27902497476E-01  0.59178491077E-01  0.51100000000E-03 0.  1.
         11    1    4    4    0    0 -0.40052911885E-01 -0.42294369572E-01 -0.38155227076E-01  0.69635708672E-01  0.51100000000E-03 0. -1.
</event>
<event>
 8    1  0.1094134E+005  0.1043930E+01  0.7957747E-01            NaN
         13   -1    0    0    0    0  0.00000000000E+00  0.00000000000E+00  0.74505805969E-08  0.10566000000E+00  0.10566000000E+00 0. -1.
     999900   -1    0    0    0    0 -0.00000000000E+00 -0.00000000000E+00 -0.74505805969E-08  0.93827000000E+00  0.93827000000E+00 0.  1.
     999902    2    1    2    0    0 -0.21004110581E-01 -0.85311022398E-03 -0.12575470650E-01  0.10194342265E+01  0.10191398821E+01 0.  0.
     999903    2    3    3    0    0  0.80709128080E-01 -0.95145927035E-01  0.20356508499E-01  0.12796283968E+00  0.19834064513E-01 0.  0.
         14    1    1    2    0    0  0.21004110581E-01  0.85311022398E-03  0.12575470650E-01  0.24495773522E-01  0.00000000000E+00 0. -1.
     999901    1    3    3    0    0 -0.10171323866E+00  0.94292816811E-01 -0.32931979149E-01  0.89147138679E+00  0.88000000000E+00 0. -1.
        -11    1    4    4    0    0  0.36957032574E-01 -0.49660820419E-01  0.87944038619E-03  0.61911661889E-01  0.51100000000E-03 0.  1.
         11    1    4    4    0    0  0.43752095506E-01 -0.45485106616E-01  0.19477068113E-01  0.66051177796E-01  0.51100000000E-03 0. -1.
</event>
<event>
 8    1  0.1094134E+005  0.1043930E+01  0.7957747E-01            NaN
         13   -1    0    0    0    0  0.00000000000E+00  0.00000000000E+00  0.74505805969E-08  0.10566000000E+00  0.10566000000E+00 0. -1.
     999900   -1    0    0    0    0 -0.00000000000E+00 -0.00000000000E+00 -0.74505805969E-08  0.93827000000E+00  0.93827000000E+00 0. -1.
     999902    2    1    2    0    0  0.82874077959E-02 -0.59577946129E-02  0.21531476690E-01  0.10201018458E+01  0.10198235116E+01 0.  0.
     999903    2    3    3    0    0 -0.17618193831E-01 -0.95819570202E-01 -0.82452455034E-01  0.12905813364E+00  0.19125996165E-01 0.  0.
         14    1    1    2    0    0 -0.82874077959E-02  0.59577946129E-02 -0.21531476690E-01  0.23828154211E-01  0.00000000000E+00 0.  1.
     999901    1    3    3    0    0  0.25905601627E-01  0.89861775590E-01  0.10398393172E+00  0.89104371215E+00  0.88000000000E+00 0.  1.
        -11    1    4    4    0    0 -0.13810541396E-01 -0.27596252762E-01 -0.28236089698E-01  0.41830874991E-01  0.51100000000E-03 0. -1.
         11    1    4    4    0    0 -0.38076524347E-02 -0.68223317441E-01 -0.54216365336E-01  0.87227258646E-01  0.51100000000E-03 0.  1.
</event>
<event>
 8    1  0.1094134E+005  0.1043930E+01  0.7957747E-01            NaN
         13   -1    0    0    0    0  0.00000000000E+00  0.00000000000E+00  0.74505805969E-08  0.10566000000E+00  0.10566000000E+00 0.  1.
     999900   -1    0    0    0    0 -0.00000000000E+00 -0.00000000000E+00 -0.74505805969E-08  0.93827000000E+00  0.93827000000E+00 0. -1.
     999902    2    1    2    0    0 -0.17252145549E-01 -0.55324171470E-02  0.15050403141E-01  0.10203766818E+01  0.10201048053E+01 0.  0.
     999903    2    3    3    0    0 -0.14520308229E-01  0.45448573835E-01 -0.11800541399E+00  0.12891138527E+00  0.20407236596E-01 0.  0.
         14    1    1    2    0    0  0.17252145549E-01  0.55324171470E-02 -0.15050403141E-01  0.23553318243E-01  0.00000000000E+00 0.  1.
     999901    1    3    3    0    0 -0.27318373196E-02 -0.50980990982E-01  0.13305581713E+00  0.89146529649E+00  0.88000000000E+00 0.  1.
        -11    1    4    4    0    0 -0.35603951496E-02  0.34047203171E-01 -0.63324459472E-01  0.71987059572E-01  0.51100000000E-03 0.  1.
         11    1    4    4    0    0 -0.10959913079E-01  0.11401370665E-01 -0.54680954517E-01  0.56924325694E-01  0.51100000000E-03 0. -1.
</event>
<event>
 8    1  0.1094134E+005  0.1043930E+01  0.7957747E-01            NaN
         13   -1    0    0    0    0  0.00000000000E+00  0.00000000000E+00  0.74505805969E-08  0.10566000000E+00  0.10566000000E+00 0.  1.
     999900   -1    0    0    0    0 -0.00000000000E+00 -0.00000000000E+00 -0.74505805969E-08  0.93827000000E+00  0.93827000000E+00 0. -1.
     999902    2    1    2    0    0  0.52106114735E-02  0.17797478689E-01 -0.16718993422E-01  0.10189615106E+01  0.10186555525E+01 0.  0.
     999903    2    3    3    0    0  0.54216195657E-01  0.56399080722E-02 -0.11843487005E+00  0.13166478837E+00  0.18373720845E-01 0.  0.
         14    1    1    2    0    0 -0.52106114735E-02 -0.17797478689E-01  0.16718993422E-01  0.24968489355E-01  0.00000000000E+00 0. -1.
     999901    1    3    3    0    0 -0.49005584183E-01  0.12157570617E-01  0.10171587663E+00  0.88729672228E+00  0.88000000000E+00 0.  1.
        -11    1    4    4    0    0  0.43288572612E-01  0.21815084646E-02 -0.73888530815E-01  0.85664669525E-01  0.51100000000E-03 0. -1.
         11    1    4    4    0    0  0.10927623045E-01  0.34583996076E-02 -0.44546339236E-01  0.46000118843E-01  0.51100000000E-03 0.  1.
</event>
<event>
 8    1  0.1094134E+005  0.1043930E+01  0.7957747E-01            NaN
         13   -1    0    0    0    0  0.00000000000E+00  0.00000000000E+00  0.74505805969E-08  0.10566000000E+00  0.10566000000E+00 0.  1.
     999900   -1    0    0    0    0 -0.00000000000E+00 -0.00000000000E+00 -0.74505805969E-08  0.93827000000E+00  0.93827000000E+00 0. -1.
     999902    2    1    2    0    0  0.75962986414E-02  0.12604649929E-01 -0.18356676118E-01  0.10204023883E+01  0.10201311120E+01 0.  0.
     999903    2    3    3    0    0  0.11439524019E+00 -0.50430278164E-01 -0.35692028578E-01  0.13153798330E+00  0.19970884146E-01 0.  0.
         14    1    1    2    0    0 -0.75962986414E-02 -0.12604649929E-01  0.18356676118E-01  0.23527611672E-01  0.00000000000E+00 0. -1.
     999901    1    3    3    0    0 -0.10679894155E+00  0.63034928094E-01  0.17335352459E-01  0.88886440503E+00  0.88000000000E+00 0.  1.
        -11    1    4    4    0    0  0.86042746834E-01 -0.43535948173E-01 -0.34201285943E-01  0.10231677354E+00  0.51100000000E-03 0.  1.
         11    1    4    4    0    0  0.28352493355E-01 -0.68943299910E-02 -0.14907426345E-02  0.29221209764E-01  0.51100000000E-03 0. -1.
</event>
<event>
 7    1  0.1094134E+005  0.1043930E+01  0.7957747E-01            NaN
         13   -1    0    0    0    0  0.00000000000E+00  0.00000000000E+00  0.74505805969E-08  0.10566000000E+00  0.10566000000E+00 0.  1.
     999900   -1    0    0    0    0 -0.00000000000E+00 -0.00000000000E+00 -0.74505805969E-08  0.93827000000E+00  0.93827000000E+00 0. -1.
     999903    2    1    2    0    0  0.20745269605E-02  0.73064258581E-01  0.43975247727E-01  0.87749483262E-01  0.20578140247E-01 0.  0.
         14    1    1    2    0    0 -0.34993205711E-01 -0.48174432498E-01 -0.45950137786E-01  0.75211139833E-01  0.00000000000E+00 0. -1.
     999901    1    1    2    0    0  0.32918678751E-01 -0.24889826083E-01  0.19748900591E-02  0.88096937690E+00  0.88000000000E+00 0. -1.
        -11    1    3    3    0    0  0.36779250060E-02  0.34067829640E-01  0.92256906250E-02  0.35489697622E-01  0.51100000000E-03 0.  1.
         11    1    3    3    0    0 -0.16033980455E-02  0.38996428940E-01  0.34749557102E-01  0.52259785640E-01  0.51100000000E-03 0. -1.
</event>
<event>
 8    1  0.1094134E+005  0.1043930E+01  0.7957747E-01            NaN
         13   -1    0    0    0    0  0.00000000000E+00  0.00000000000E+00  0.74505805969E-08  0.10566000000E+00  0.10566000000E+00 0.  1.
     999900   -1    0    0    0    0 -0.00000000000E+00 -0.00000000000E+00 -0.74505805969E-08  0.93827000000E+00  0.93827000000E+00 0. -1.
     999902    2    1    2    0    0 -0.92563553903E-02 -0.87718954980E-02 -0.20812657974E-01  0.10195211287E+01  0.10192288943E+01 0.  0.
     999903    2    3    3    0    0 -0.78948350961E-02  0.58778718282E-01  0.11070175839E+00  0.12718656092E+00  0.20106611423E-01 0.  0.
         14    1    1    2    0    0  0.92563553903E-02  0.87718954980E-02  0.20812657974E-01  0.24408871290E-01  0.00000000000E+00 0.  1.
     999901    1    3    3    0    0 -0.13615202942E-02 -0.67550613780E-01 -0.13151441637E+00  0.89233456779E+00  0.88000000000E+00 0. -1.
        -11    1    4    4    0    0  0.37790544962E-02  0.30223358411E-01  0.42095367713E-01  0.51961656541E-01  0.51100000000E-03 0. -1.
         11    1    4    4    0    0 -0.11673889592E-01  0.28555359871E-01  0.68606390681E-01  0.75224904379E-01  0.51100000000E-03 0.  1.
</event>
<event>
 8    1  0.1094134E+005  0.1043930E+01  0.7957747E-01            NaN
         13   -1    0    0    0    0  0.00000000000E+00  0.00000000000E+00  0.74505805969E-08  0.10566000000E+00  0.10566000000E+00 0. -1.
     999900   -1    0    0    0    0 -0.00000000000E+00 -0.00000000000E+00 -0.74505805969E-08  0.93827000000E+00  0.93827000000E+00 0. -1.
     999902    2    1    2    0    0 -0.37660901662E-02 -0.60778869489E-02 -0.22798975617E-01  0.10200361214E+01  0.10197562314E+01 0.  0.
     999903    2    3    3    0    0 -0.37562543398E-01  0.20443797051E-01 -0.12442424171E+00  0.13314644694E+00  0.20437487659E-01 0.  0.
         14    1    1    2    0    0  0.37660901662E-02  0.60778869489E-02  0.22798975617E-01  0.23893878590E-01  0.00000000000E+00 0. -1.
     999901    1    3    3    0    0  0.33796453232E-01 -0.26521684000E-01  0.10162526610E+00  0.88688967447E+00  0.88000000000E+00 0.  1.
        -11    1    4    4    0    0 -0.10428485694E-01  0.57675079783E-02 -0.66068004365E-01  0.67136128753E-01  0.51100000000E-03 0. -1.
         11    1    4    4    0    0 -0.27134057704E-01  0.14676289072E-01 -0.58356237350E-01  0.66010318186E-01  0.51100000000E-03 0.  1.
</event>
<event>
 8    1  0.1094134E+005  0.1043930E+01  0.7957747E-01            NaN
         13   -1    0    0    0    0  0.00000000000E+00  0.00000000000E+00  0.74505805969E-08  0.10566000000E+00  0.10566000000E+00 0. -1.
     999900   -1    0    0    0    0 -0.00000000000E+00 -0.00000000000E+00 -0.74505805969E-08  0.93827000000E+00  0.93827000000E+00 0.  1.
     999902    2    1    2    0    0  0.15637058065E-01 -0.49715736539E-02  0.15192371081E-01  0.10215683751E+01  0.10213236033E+01 0.  0.
     999903    2    3    3    0    0  0.21812207879E-02 -0.10341963583E+00 -0.77943882468E-01  0.13109241122E+00  0.20238395849E-01 0.  0.
         14    1    1    2    0    0 -0.15637058065E-01  0.49715736539E-02 -0.15192371081E-01  0.22361624909E-01  0.00000000000E+00 0. -1.
     999901    1    3    3    0    0  0.13455837277E-01  0.98448062175E-01  0.93136253549E-01  0.89047596387E+00  0.88000000000E+00 0. -1.
        -11    1    4    4    0    0 -0.42023897964E-02 -0.83777923648E-01 -0.55473635021E-01  0.10056831446E+00  0.51100000000E-03 0.  1.
         11    1    4    4    0    0  0.63836105843E-02 -0.19641712181E-01 -0.22470247448E-01  0.30524096757E-01  0.51100000000E-03 0. -1.
</event>
<event>
 8    1  0.1094134E+005  0.1043930E+01  0.7957747E-01            NaN
         13   -1    0    0    0    0  0.00000000000E+00  0.00000000000E+00  0.74505805969E-08  0.10566000000E+00  0.10566000000E+00 0. -1.
     999900   -1    0    0    0    0 -0.00000000000E+00 -0.00000000000E+00 -0.74505805969E-08  0.93827000000E+00  0.93827000000E+00 0.  1.
     999902    2    1    2    0    0 -0.15356857051E-01  0.20651273987E-01 -0.20069117097E-01  0.10112944728E+01  0.10107677444E+01 0.  0.
     999903    2    3    3    0    0  0.90256803794E-01  0.76000735056E-01 -0.28560470905E-01  0.12321231933E+00  0.21051669176E-01 0.  0.
         14    1    1    2    0    0  0.15356857051E-01 -0.20651273987E-01  0.20069117097E-01  0.32635527219E-01  0.00000000000E+00 0. -1.
     999901    1    3    3    0    0 -0.10561366085E+00 -0.55349461069E-01  0.84913538079E-02  0.88808215346E+00  0.88000000000E+00 0.  1.
        -11    1    4    4    0    0  0.79873949566E-01  0.57792691879E-01 -0.20190347265E-01  0.10063674427E+00  0.51100000000E-03 0.  1.
         11    1    4    4    0    0  0.10382854227E-01  0.18208043177E-01 -0.83701236397E-02  0.22575575054E-01  0.51100000000E-03 0. -1.
</event>
<event>
 8    1  0.1094134E+005  0.1043930E+01  0.7957747E-01            NaN
         13   -1    0    0    0    0  0.00000000000E+00  0.00000000000E+00  0.74505805969E-08  0.10566000000E+00  0.10566000000E+00 0. -1.
     999900   -1    0    0    0    0 -0.00000000000E+00 -0.00000000000E+00 -0.74505805969E-08  0.93827000000E+00  0.93827000000E+00 0.  1.
     999902    2    1    2    0    0  0.21169828766E-01  0.10759707517E-01 -0.32167301403E-02  0.10199658537E+01  0.10196842954E+01 0.  0.
     999903    2    3    3    0    0 -0.82848804398E-01 -0.87663842198E-01  0.37770045615E-01  0.12744863426E+00  0.16361675022E-01 0.  0.
         14    1    1    2    0    0 -0.21169828766E-01 -0.10759707517E-01  0.32167301403E-02  0.23964146316E-01  0.00000000000E+00 0.  1.
     999901    1    3    3    0    0  0.10401863316E+00  0.98423549715E-01 -0.40986775756E-01  0.89251721943E+00  0.88000000000E+00 0.  1.
        -11    1    4    4    0    0 -0.58566811097E-01 -0.57227759519E-01  0.18268218427E-01  0.83899205879E-01  0.51100000000E-03 0.  1.
         11    1    4    4    0    0 -0.24281993302E-01 -0.30436082679E-01  0.19501827189E-01  0.43549428380E-01  0.51100000000E-03 0. -1.
</event>
<event>
 8    1  0.1094134E+005  0.1043930E+01  0.7957747E-01            NaN
         13   -1    0    0    0    0  0.00000000000E+00  0.00000000000E+00  0.74505805969E-08  0.10566000000E+00  0.10566000000E+00 0. -1.
     999900   -1    0    0    0    0 -0.00000000000E+00 -0.00000000000E+00 -0.74505805969E-08  0.93827000000E+00  0.93827000000E+00 0.  1.
     999902    2    1    2    0    0 -0.11159111583E-01 -0.15112698893E-01  0.13108700244E-01  0.10210224148E+01  0.10207654060E+01 0.  0.
     999903    2    3    3    0    0 -0.62374963982E-01  0.50240687538E-01  0.10360882168E+00  0.13249306768E+00  0.20121188776E-01 0.  0.
         14    1    1    2    0    0  0.11159111583E-01  0.15112698893E-01 -0.13108700244E-01  0.22907585234E-01  0.00000000000E+00 0. -1.
     999901    1    3    3    0    0  0.51215852398E-01 -0.65353386431E-01 -0.90500121434E-01  0.88852934709E+00  0.88000000000E+00 0.  1.
        -11    1    4    4    0    0 -0.13905401464E-01  0.38635674468E-02  0.27333775511E-01  0.30914135084E-01  0.51100000000E-03 0.  1.
         11    1    4    4    0    0 -0.48469562518E-01  0.46377120092E-01  0.76275046167E-01  0.10157893260E+00  0.51100000000E-03 0. -1.
</event>
<event>
 8    1  0.1094134E+005  0.1043930E+01  0.7957747E-01            NaN
         13   -1    0    0    0    0  0.00000000000E+00  0.00000000000E+00  0.74505805969E-08  0.10566000000E+00  0.10566000000E+00 0. -1.
     999900   -1    0    0    0    0 -0.00000000000E+00 -0.00000000000E+00 -0.74505805969E-08  0.93827000000E+00  0.93827000000E+00 0.  1.
     999902    2    1    2    0    0 -0.13065685390E-01 -0.12646717599E-01  0.10113040371E-01  0.10231231457E+01  0.10229115534E+01 0.  0.
     999903    2    3    3    0    0 -0.58858905785E-02  0.12727621377E+00 -0.24779080186E-01  0.13135667612E+00  0.20166686524E-01 0.  0.
         14    1    1    2    0    0  0.13065685390E-01  0.12646717599E-01 -0.10113040371E-01  0.20806854310E-01  0.00000000000E+00 0.  1.
     999901    1    3    3    0    0 -0.71797948119E-02 -0.13992293137E+00  0.34892120557E-01  0.89176646957E+00  0.88000000000E+00 0. -1.
        -11    1    4    4    0    0 -0.75511329755E-02  0.59842808159E-01 -0.20719101809E-01  0.63778708033E-01  0.51100000000E-03 0. -1.
         11    1    4    4    0    0  0.16652423969E-02  0.67433405615E-01 -0.40599783764E-02  0.67577968085E-01  0.51100000000E-03 0.  1.
</event>
<event>
 8    1  0.1094134E+005  0.1043930E+01  0.7957747E-01            NaN
         13   -1    0    0    0    0  0.00000000000E+00  0.00000000000E+00  0.74505805969E-08  0.10566000000E+00  0.10566000000E+00 0. -1.
     999900   -1    0    0    0    0 -0.00000000000E+00 -0.00000000000E+00 -0.74505805969E-08  0.93827000000E+00  0.93827000000E+00 0. -1.
     999902    2    1    2    0    0 -0.17259942518E-01 -0.13489328254E-02 -0.16075867706E-01  0.10203046162E+01  0.10200310540E+01 0.  0.
     999903    2    3    3    0    0 -0.33378545240E-02 -0.43402764680E-01 -0.12365490942E+00  0.13264725017E+00  0.20243890452E-01 0.  0.
         14    1    1    2    0    0  0.17259942518E-01  0.13489328254E-02  0.16075867706E-01  0.23625383764E-01  0.00000000000E+00 0. -1.
     999901    1    3    3    0    0 -0.13922087994E-01  0.42053831854E-01  0.10757904171E+00  0.88765736606E+00  0.88000000000E+00 0.  1.
        -11    1    4    4    0    0  0.62576570750E-02 -0.22314180380E-01 -0.79087044754E-01  0.82414214108E-01  0.51100000000E-03 0.  1.
         11    1    4    4    0    0 -0.95955115990E-02 -0.21088584300E-01 -0.44567864665E-01  0.50233036066E-01  0.51100000000E-03 0. -1.
</event>
<event>
 8    1  0.1094134E+005  0.1043930E+01  0.7957747E-01            NaN
         13   -1    0    0    0    0  0.00000000000E+00  0.00000000000E+00  0.74505805969E-08  0.10566000000E+00  0.10566000000E+00 0. -1.
     999900   -1    0    0    0    0 -0.00000000000E+00 -0.00000000000E+00 -0.74505805969E-08  0.93827000000E+00  0.93827000000E+00 0. -1.
     999902    2    1    2    0    0 -0.92903915039E-02 -0.17390644919E-01  0.11795571592E-01  0.10209543300E+01  0.10206957737E+01 0.  0.
     999903    2    3    3    0    0 -0.60662041503E-01 -0.10106662417E+00 -0.57769047924E-01  0.13276518781E+00  0.19874264687E-01 0.  0.
         14    1    1    2    0    0  0.92903915039E-02  0.17390644919E-01 -0.11795571592E-01  0.22975670049E-01  0.00000000000E+00 0.  1.
     999901    1    3    3    0    0  0.51371649999E-01  0.83675979247E-01  0.69564619517E-01  0.88818914214E+00  0.88000000000E+00 0. -1.
        -11    1    4    4    0    0 -0.33591413387E-01 -0.44629809595E-01 -0.36166762275E-01  0.66546966664E-01  0.51100000000E-03 0.  1.
         11    1    4    4    0    0 -0.27070628116E-01 -0.56436814572E-01 -0.21602285649E-01  0.66218221147E-01  0.51100000000E-03 0. -1.
</event>
<event>
 8    1  0.1920305E+005  0.1043930E+01  0.7957747E-01            NaN
         13   -1    0    0    0    0  0.00000000000E+00  0.00000000000E+00  0.74505805969E-08  0.10566000000E+00  0.10566000000E+00 0.  1.
     999900   -1    0    0    0    0 -0.00000000000E+00 -0.00000000000E+00 -0.74505805969E-08  0.93827000000E+00  0.93827000000E+00 0. -1.
     999902    2    1    2    0    0  0.62675920393E-02 -0.22500717074E-01  0.43500025370E-02  0.10201710543E+01  0.10198943536E+01 0.  0.
     999903    2    3    3    0    0 -0.67918101494E-01 -0.10350490159E+00 -0.40451929464E-01  0.13221136594E+00  0.22745406661E-01 0.  0.
         14    1    1    2    0    0 -0.62675920393E-02  0.22500717074E-01 -0.43500025370E-02  0.23758945702E-01  0.00000000000E+00 0.  1.
     999901    1    3    3    0    0  0.74185693533E-01  0.81004184512E-01  0.44801932001E-01  0.88795968836E+00  0.88000000000E+00 0.  1.
        -11    1    4    4    0    0 -0.29046380354E-01 -0.47267485831E-01 -0.64448731839E-02  0.55854318900E-01  0.51100000000E-03 0. -1.
         11    1    4    4    0    0 -0.38871721140E-01 -0.56237415755E-01 -0.34007056280E-01  0.76357047042E-01  0.51100000000E-03 0.  1.
</event>
<event>
 8    1  0.1094134E+005  0.1043930E+01  0.7957747E-01            NaN
         13   -1    0    0    0    0  0.00000000000E+00  0.00000000000E+00  0.74505805969E-08  0.10566000000E+00  0.10566000000E+00 0.  1.
     999900   -1    0    0    0    0 -0.00000000000E+00 -0.00000000000E+00 -0.74505805969E-08  0.93827000000E+00  0.93827000000E+00 0.  1.
     999902    2    1    2    0    0 -0.16076791018E-01 -0.33892793289E-02  0.17786220210E-01  0.10197163664E+01  0.10194288439E+01 0.  0.
     999903    2    3    3    0    0 -0.62962567134E-01 -0.87955436183E-01  0.72775877763E-01  0.13271378841E+00  0.24822925596E-01 0.  0.
         14    1    1    2    0    0  0.16076791018E-01  0.33892793289E-02 -0.17786220210E-01  0.24213633622E-01  0.00000000000E+00 0. -1.
     999901    1    3    3    0    0  0.46885776116E-01  0.84566156855E-01 -0.54989657554E-01  0.88700257797E+00  0.88000000000E+00 0. -1.
        -11    1    4    4    0    0 -0.31609754902E-01 -0.57831792389E-01  0.54595336839E-01  0.85583904687E-01  0.51100000000E-03 0.  1.
         11    1    4    4    0    0 -0.31352812232E-01 -0.30123643794E-01  0.18180540925E-01  0.47129883721E-01  0.51100000000E-03 0. -1.
</event>
<event>
 8    1  0.1094134E+005  0.1043930E+01  0.7957747E-01            NaN
         13   -1    0    0    0    0  0.00000000000E+00  0.00000000000E+00  0.74505805969E-08  0.10566000000E+00  0.10566000000E+00 0.  1.
     999900   -1    0    0    0    0 -0.00000000000E+00 -0.00000000000E+00 -0.74505805969E-08  0.93827000000E+00  0.93827000000E+00 0. -1.
     999902    2    1    2    0    0 -0.35578415269E-02 -0.24533980683E-01 -0.69194458509E-02  0.10181918343E+01  0.10178664737E+01 0.  0.
     999903    2    3    3    0    0 -0.61715622144E-01  0.52500310500E-01  0.95990214089E-01  0.12695280484E+00  0.18379141336E-01 0.  0.
         14    1    1    2    0    0  0.35578415269E-02  0.24533980683E-01  0.69194458509E-02  0.25738165734E-01  0.00000000000E+00 0.  1.
     999901    1    3    3    0    0  0.58157780618E-01 -0.77034291183E-01 -0.10290965994E+00  0.89123902943E+00  0.88000000000E+00 0.  1.
        -11    1    4    4    0    0 -0.99612634665E-02  0.17374233973E-01  0.17613753922E-01  0.26675760987E-01  0.51100000000E-03 0. -1.
         11    1    4    4    0    0 -0.51754358678E-01  0.35126076527E-01  0.78376460167E-01  0.10027704385E+00  0.51100000000E-03 0.  1.
</event>
<event>
 8    1  0.1094134E+005  0.1043930E+01  0.7957747E-01            NaN
         13   -1    0    0    0    0  0.00000000000E+00  0.00000000000E+00  0.74505805969E-08  0.10566000000E+00  0.10566000000E+00 0.  1.
     999900   -1    0    0    0    0 -0.00000000000E+00 -0.00000000000E+00 -0.74505805969E-08  0.93827000000E+00  0.93827000000E+00 0.  1.
     999902    2    1    2    0    0 -0.11291934580E-01  0.71737644873E-02 -0.17105599434E-01  0.10222142864E+01  0.10219835983E+01 0.  0.
     999903    2    3    3    0    0  0.49470516504E-01 -0.11808845275E+00 -0.21176540126E-01  0.13126015121E+00  0.19712096965E-01 0.  0.
         14    1    1    2    0    0  0.11291934580E-01 -0.71737644873E-02  0.17105599434E-01  0.21715713561E-01  0.00000000000E+00 0.  1.
     999901    1    3    3    0    0 -0.60762451084E-01  0.12526221724E+00  0.40709406922E-02  0.89095413523E+00  0.88000000000E+00 0. -1.
        -11    1    4    4    0    0  0.30428561941E-01 -0.52848980703E-01 -0.37619370624E-02  0.61100944630E-01  0.51100000000E-03 0. -1.
         11    1    4    4    0    0  0.19041954563E-01 -0.65239472048E-01 -0.17414603064E-01  0.70159206577E-01  0.51100000000E-03 0.  1.
</event>
<event>
 8    1  0.1094134E+005  0.1043930E+01  0.7957747E-01            NaN
         13   -1    0    0    0    0  0.00000000000E+00  0.00000000000E+00  0.74505805969E-08  0.10566000000E+00  0.10566000000E+00 0. -1.
     999900   -1    0    0    0    0 -0.00000000000E+00 -0.00000000000E+00 -0.74505805969E-08  0.93827000000E+00  0.93827000000E+00 0. -1.
     999902    2    1    2    0    0 -0.20160883525E-01 -0.12746040488E-01 -0.13457135242E-02  0.10200399661E+01  0.10197601673E+01 0.  0.
     999903    2    3    3    0    0  0.27124312581E-02 -0.12693844664E+00  0.29539508365E-01  0.13182997347E+00  0.19642627980E-01 0.  0.
         14    1    1    2    0    0  0.20160883525E-01  0.12746040488E-01  0.13457135242E-02  0.23890033854E-01  0.00000000000E+00 0. -1.
     999901    1    3    3    0    0 -0.22873314784E-01  0.11419240615E+00 -0.30885221889E-01  0.88820999267E+00  0.88000000000E+00 0. -1.
        -11    1    4    4    0    0  0.10353317796E-01 -0.50090143028E-01  0.92608289669E-02  0.51983051970E-01  0.51100000000E-03 0. -1.
         11    1    4    4    0    0 -0.76408865382E-02 -0.76848303608E-01  0.20278679398E-01  0.79846921504E-01  0.51100000000E-03 0.  1.
</event>
<event>
 7    1  0.1094134E+005  0.1043930E+01  0.7957747E-01            NaN
         13   -1    0    0    0    0  0.00000000000E+00  0.00000000000E+00  0.74505805969E-08  0.10566000000E+00  0.10566000000E+00 0. -1.
     999900   -1    0    0    0    0 -0.00000000000E+00 -0.00000000000E+00 -0.74505805969E-08  0.93827000000E+00  0.93827000000E+00 0.  1.
     999903    2    1    2    0    0  0.31493727995E-01 -0.10779918828E+00  0.22477957019E-01  0.11616209081E+00  0.19386925810E-01 0.  0.
         14    1    1    2    0    0 -0.16597766600E-01  0.33174580882E-01  0.22419254645E-01  0.43343530678E-01  0.00000000000E+00 0. -1.
     999901    1    1    2    0    0 -0.14895961396E-01  0.74624607397E-01 -0.44897211664E-01  0.88442437851E+00  0.88000000000E+00 0. -1.
        -11    1    3    3    0    0  0.29821278646E-01 -0.10717689836E+00  0.19947312952E-01  0.11302368166E+00  0.51100000000E-03 0.  1.
         11    1    3    3    0    0  0.16724493488E-02 -0.62228992268E-03  0.25306440670E-02  0.31384091457E-02  0.51100000000E-03 0. -1.
</event>
<event>
 8    1  0.1094134E+005  0.1043930E+01  0.7957747E-01            NaN
         13   -1    0    0    0    0  0.00000000000E+00  0.00000000000E+00  0.74505805969E-08  0.10566000000E+00  0.10566000000E+00 0.  1.
     999900   -1    0    0    0    0 -0.00000000000E+00 -0.00000000000E+00 -0.74505805969E-08  0.93827000000E+00  0.93827000000E+00 0.  1.
     999902    2    1    2    0    0  0.22299095311E-01  0.91776116295E-02  0.16187478536E-02  0.10197618691E+01  0.10194754392E+01 0.  0.
     999903    2    3    3    0    0 -0.72572819280E-01  0.86221585664E-01 -0.59985631901E-01  0.12918253309E+00  0.19719910956E-01 0.  0.
         14    1    1    2    0    0 -0.22299095311E-01 -0.91776116295E-02 -0.16187478536E-02  0.24168130906E-01  0.00000000000E+00 0.  1.
     999901    1    3    3    0    0  0.94871914591E-01 -0.77043974034E-01  0.61604379755E-01  0.89057933600E+00  0.88000000000E+00 0. -1.
        -11    1    4    4    0    0 -0.40442171248E-01  0.38074490231E-01 -0.20960636919E-01  0.59370408814E-01  0.51100000000E-03 0.  1.
         11    1    4    4    0    0 -0.32130648032E-01  0.48147095432E-01 -0.39024994982E-01  0.69812124276E-01  0.51100000000E-03 0. -1.
</event>
<event>
 8    1  0.1094134E+005  0.1043930E+01  0.7957747E-01            NaN
         13   -1    0    0    0    0  0.00000000000E+00  0.00000000000E+00  0.74505805969E-08  0.10566000000E+00  0.10566000000E+00 0. -1.
     999900   -1    0    0    0    0 -0.00000000000E+00 -0.00000000000E+00 -0.74505805969E-08  0.93827000000E+00  0.93827000000E+00 0. -1.
     999902    2    1    2    0    0  0.10853785366E-01 -0.20135563337E-01  0.78366014008E-02  0.10197503001E+01  0.10194635926E+01 0.  0.
     999903    2    3    3    0    0  0.68228089709E-01  0.40393959468E-01 -0.10016346230E+00  0.12923379393E+00  0.19542521012E-01 0.  0.
         14    1    1    2    0    0 -0.10853785366E-01  0.20135563337E-01 -0.78366014008E-02  0.24179699940E-01  0.00000000000E+00 0. -1.
     999901    1    3    3    0    0 -0.57374304343E-01 -0.60529522805E-01  0.10800006370E+00  0.89051650613E+00  0.88000000000E+00 0.  1.
        -11    1    4    4    0    0  0.59369891983E-02  0.11234462346E-02 -0.17337688774E-02  0.63069047641E-02  0.51100000000E-03 0.  1.
         11    1    4    4    0    0  0.62291100510E-01  0.39270513234E-01 -0.98429693420E-01  0.12292688917E+00  0.51100000000E-03 0. -1.
</event>
<event>
 8    1  0.1094134E+005  0.1043930E+01  0.7957747E-01            NaN
         13   -1    0    0    0    0  0.00000000000E+00  0.00000000000E+00  0.74505805969E-08  0.10566000000E+00  0.10566000000E+00 0.  1.
     999900   -1    0    0    0    0 -0.00000000000E+00 -0.00000000000E+00 -0.74505805969E-08  0.93827000000E+00  0.93827000000E+00 0. -1.
     999902    2    1    2    0    0 -0.18512476592E-01  0.13894812977E-01  0.35068570982E-02  0.10205189841E+01  0.10202504209E+01 0.  0.
     999903    2    3    3    0    0  0.41666262346E-01  0.26238458106E-01  0.11945382286E+00  0.13079006752E+00  0.20304971415E-01 0.  0.
         14    1    1    2    0    0  0.18512476592E-01 -0.13894812977E-01 -0.35068570982E-02  0.23411015868E-01  0.00000000000E+00 0. -1.
     999901    1    3    3    0    0 -0.60178738939E-01 -0.12343645129E-01 -0.11594696576E+00  0.88972891662E+00  0.88000000000E+00 0. -1.
        -11    1    4    4    0    0  0.36084187982E-01  0.14716232425E-01  0.74934229933E-01  0.84463223096E-01  0.51100000000E-03 0. -1.
         11    1    4    4    0    0  0.55820743641E-02  0.11522225681E-01  0.44519592923E-01  0.46326844420E-01  0.51100000000E-03 0.  1.
</event>
<event>
 8    1  0.1094134E+005  0.1043930E+01  0.7957747E-01            NaN
         13   -1    0    0    0    0  0.00000000000E+00  0.00000000000E+00  0.74505805969E-08  0.10566000000E+00  0.10566000000E+00 0. -1.
     999900   -1    0    0    0    0 -0.00000000000E+00 -0.00000000000E+00 -0.74505805969E-08  0.93827000000E+00  0.93827000000E+00 0.  1.
     999902    2    1    2    0    0 -0.16889514776E-01 -0.82188211011E-02 -0.14505895376E-01  0.10201976227E+01  0.10199215478E+01 0.  0.
     999903    2    3    3    0    0 -0.95618266824E-01  0.25976214441E-01  0.83255497556E-01  0.13063323114E+00  0.17774885038E-01 0.  0.
         14    1    1    2    0    0  0.16889514776E-01  0.82188211011E-02  0.14505895376E-01  0.23732377258E-01  0.00000000000E+00 0.  1.
     999901    1    3    3    0    0  0.78728752048E-01 -0.34195035542E-01 -0.97761392932E-01  0.88956439160E+00  0.88000000000E+00 0.  1.
        -11    1    4    4    0    0 -0.70829007745E-01  0.17056139731E-01  0.50750154735E-01  0.88789073468E-01  0.51100000000E-03 0.  1.
         11    1    4    4    0    0 -0.24789259079E-01  0.89200747099E-02  0.32505342821E-01  0.41844157673E-01  0.51100000000E-03 0. -1.
</event>
<event>
 8    1  0.1094134E+005  0.1043930E+01  0.7957747E-01            NaN
         13   -1    0    0    0    0  0.00000000000E+00  0.00000000000E+00  0.74505805969E-08  0.10566000000E+00  0.10566000000E+00 0.  1.
     999900   -1    0    0    0    0 -0.00000000000E+00 -0.00000000000E+00 -0.74505805969E-08  0.93827000000E+00  0.93827000000E+00 0.  1.
     999902    2    1    2    0    0 -0.83956802075E-02 -0.10637626114E-01  0.19190246723E-01  0.10204371904E+01  0.10201667253E+01 0.  0.
     999903    2    3    3    0    0  0.12305374459E+00  0.20880090232E-01 -0.25803074545E-01  0.12897955442E+00  0.19792033124E-01 0.  0.
         14    1    1    2    0    0  0.83956802075E-02  0.10637626114E-01 -0.19190246723E-01  0.23492809640E-01  0.00000000000E+00 0. -1.
     999901    1    3    3    0    0 -0.13144942480E+00 -0.31517716346E-01  0.44993321268E-01  0.89145763594E+00  0.88000000000E+00 0. -1.
        -11    1    4    4    0    0  0.20708560536E-01  0.10594195611E-01 -0.16839574552E-02  0.23327629409E-01  0.51100000000E-03 0. -1.
         11    1    4    4    0    0  0.10234518406E+00  0.10285894621E-01 -0.24119117090E-01  0.10565192501E+00  0.51100000000E-03 0.  1.
</event>
<event>
 8    1  0.1094134E+005  0.1043930E+01  0.7957747E-01            NaN
         13   -1    0    0    0    0  0.00000000000E+00  0.00000000000E+00  0.74505805969E-08  0.10566000000E+00  0.10566000000E+00 0. -1.
     999900   -1    0    0    0    0 -0.00000000000E+00 -0.00000000000E+00 -0.74505805969E-08  0.93827000000E+00  0.93827000000E+00 0.  1.
     999902    2    1    2    0    0  0.99371186953E-03  0.22927552158E-01  0.51162222110E-02  0.10204175386E+01  0.10201466156E+01 0.  0.
     999903    2    3    3    0    0 -0.57043361727E-01 -0.98759402584E-01  0.55017866370E-01  0.12875269632E+00  0.23300782709E-01 0.  0.
         14    1    1    2    0    0 -0.99371186953E-03 -0.22927552158E-01 -0.51162222110E-02  0.23512461397E-01  0.00000000000E+00 0. -1.
     999901    1    3    3    0    0  0.58037073597E-01  0.12168695474E+00 -0.49901644159E-01  0.89166484228E+00  0.88000000000E+00 0.  1.
        -11    1    4    4    0    0 -0.29610788367E-01 -0.54739642062E-01  0.17232917863E-01  0.64579112566E-01  0.51100000000E-03 0. -1.
         11    1    4    4    0    0 -0.27432573360E-01 -0.44019760522E-01  0.37784948508E-01  0.64173583758E-01  0.51100000000E-03 0.  1.
</event>
<event>
 8    1  0.1094134E+005  0.1043930E+01  0.7957747E-01            NaN
         13   -1    0    0    0    0  0.00000000000E+00  0.00000000000E+00  0.74505805969E-08  0.10566000000E+00  0.10566000000E+00 0. -1.
     999900   -1    0    0    0    0 -0.00000000000E+00 -0.00000000000E+00 -0.74505805969E-08  0.93827000000E+00  0.93827000000E+00 0.  1.
     999902    2    1    2    0    0 -0.19510923249E-02 -0.86051392412E-02  0.22665392627E-01  0.10196076809E+01  0.10193175402E+01 0.  0.
     999903    2    3    3    0    0  0.53212862864E-01  0.77951358969E-01 -0.83269078935E-01  0.12733126545E+00  0.19274037330E-01 0.  0.
         14    1    1    2    0    0  0.19510923249E-02  0.86051392412E-02 -0.22665392627E-01  0.24322319083E-01  0.00000000000E+00 0.  1.
     999901    1    3    3    0    0 -0.55163955189E-01 -0.86556498210E-01  0.10593447156E+00  0.89227641547E+00  0.88000000000E+00 0. -1.
        -11    1    4    4    0    0  0.91855162691E-02  0.28734244649E-01 -0.23187041279E-01  0.38051682341E-01  0.51100000000E-03 0.  1.
         11    1    4    4    0    0  0.44027346595E-01  0.49217114320E-01 -0.60082037656E-01  0.89279583109E-01  0.51100000000E-03 0. -1.
</event>
<event>
 8    1  0.1094134E+005  0.1043930E+01  0.7957747E-01            NaN
         13   -1    0    0    0    0  0.00000000000E+00  0.00000000000E+00  0.74505805969E-08  0.10566000000E+00  0.10566000000E+00 0.  1.
     999900   -1    0    0    0    0 -0.00000000000E+00 -0.00000000000E+00 -0.74505805969E-08  0.93827000000E+00  0.93827000000E+00 0. -1.
     999902    2    1    2    0    0 -0.46186268241E-02 -0.13130447784E-02 -0.24900720260E-01  0.10185705507E+01  0.10182548134E+01 0.  0.
     999903    2    3    3    0    0  0.44991456410E-01 -0.10603169080E+00 -0.56147706743E-01  0.13042443131E+00  0.24310835157E-01 0.  0.
         14    1    1    2    0    0  0.46186268241E-02  0.13130447784E-02  0.24900720260E-01  0.25359449319E-01  0.00000000000E+00 0.  1.
     999901    1    3    3    0    0 -0.49610083234E-01  0.10471864603E+00  0.31246986484E-01  0.88814611937E+00  0.88000000000E+00 0. -1.
        -11    1    4    4    0    0  0.15042408522E-01 -0.35144494172E-01 -0.63331950677E-02  0.38752806421E-01  0.51100000000E-03 0.  1.
         11    1    4    4    0    0  0.29949047888E-01 -0.70887196632E-01 -0.49814511676E-01  0.91671624891E-01  0.51100000000E-03 0. -1.
</event>
<event>
 8    1  0.1094134E+005  0.1043930E+01  0.7957747E-01            NaN
         13   -1    0    0    0    0  0.00000000000E+00  0.00000000000E+00  0.74505805969E-08  0.10566000000E+00  0.10566000000E+00 0. -1.
     999900   -1    0    0    0    0 -0.00000000000E+00 -0.00000000000E+00 -0.74505805969E-08  0.93827000000E+00  0.93827000000E+00 0.  1.
     999902    2    1    2    0    0  0.24114065930E-01  0.10064814121E-02 -0.20479132125E-02  0.10197082096E+01  0.10194204911E+01 0.  0.
     999903    2    3    3    0    0  0.72594774565E-01 -0.13631939141E-01  0.10701874571E+00  0.13153018774E+00  0.19782499722E-01 0.  0.
         14    1    1    2    0    0 -0.24114065930E-01 -0.10064814121E-02  0.20479132125E-02  0.24221790377E-01  0.00000000000E+00 0. -1.
     999901    1    3    3    0    0 -0.48480708635E-01  0.14638420554E-01 -0.10906665892E+00  0.88817802188E+00  0.88000000000E+00 0.  1.
        -11    1    4    4    0    0  0.68388000675E-01 -0.91285508145E-02  0.10357567883E+00  0.12445252686E+00  0.51100000000E-03 0. -1.
         11    1    4    4    0    0  0.42067738902E-02 -0.45033883270E-02  0.34430668785E-02  0.70776608789E-02  0.51100000000E-03 0.  1.
</event>
<event>
 8    1  0.1094134E+005  0.1043930E+01  0.7957747E-01            NaN
         13   -1    0    0    0    0  0.00000000000E+00  0.00000000000E+00  0.74505805969E-08  0.10566000000E+00  0.10566000000E+00 0.  1.
     999900   -1    0    0    0    0 -0.00000000000E+00 -0.00000000000E+00 -0.74505805969E-08  0.93827000000E+00  0.93827000000E+00 0.  1.
     999902    2    1    2    0    0  0.14258833957E-01  0.19281537735E-01  0.76649091115E-03  0.10199366769E+01  0.10196544245E+01 0.  0.
     999903    2    3    3    0    0  0.72646737353E-01 -0.98017733030E-01  0.38293724420E-01  0.12944436398E+00  0.20109937827E-01 0.  0.
         14    1    1    2    0    0 -0.14258833957E-01 -0.19281537735E-01 -0.76649091115E-03  0.23993323062E-01  0.00000000000E+00 0.  1.
     999901    1    3    3    0    0 -0.58387903395E-01  0.11729927077E+00 -0.37527233509E-01  0.89049231296E+00  0.88000000000E+00 0.  1.
        -11    1    4    4    0    0  0.37342072367E-01 -0.66742486086E-01  0.23324439015E-01  0.79957991433E-01  0.51100000000E-03 0.  1.
         11    1    4    4    0    0  0.35304664985E-01 -0.31275246944E-01  0.14969285405E-01  0.49486372545E-01  0.51100000000E-03 0. -1.
</event>
<event>
 8    1  0.1094134E+005  0.1043930E+01  0.7957747E-01            NaN
         13   -1    0    0    0    0  0.00000000000E+00  0.00000000000E+00  0.74505805969E-08  0.10566000000E+00  0.10566000000E+00 0. -1.
     999900   -1    0    0    0    0 -0.00000000000E+00 -0.00000000000E+00 -0.74505805969E-08  0.93827000000E+00  0.93827000000E+00 0. -1.
     999902    2    1    2    0    0  0.13742985408E-01 -0.15078523664E-01 -0.13218321442E-01  0.10196204228E+01  0.10193305896E+01 0.  0.
     999903    2    3    3    0    0 -0.11414682470E-01  0.39328812928E-01 -0.12215973337E+00  0.13087901056E+00  0.23005748115E-01 0.  0.
         14    1    1    2    0    0 -0.13742985408E-01  0.15078523664E-01  0.13218321442E-01  0.24309577239E-01  0.00000000000E+00 0. -1.
     999901    1    3    3    0    0  0.25157667878E-01 -0.54407336592E-01  0.10894141193E+00  0.88874141220E+00  0.88000000000E+00 0.  1.
        -11    1    4    4    0    0 -0.20345250034E-03 -0.36444721488E-03 -0.28859535555E-01  0.28867076889E-01  0.51100000000E-03 0. -1.
         11    1    4    4    0    0 -0.11211229969E-01  0.39693260143E-01 -0.93300197813E-01  0.10201193367E+00  0.51100000000E-03 0.  1.
</event>
<event>
 8    1  0.1094134E+005  0.1043930E+01  0.7957747E-01            NaN
         13   -1    0    0    0    0  0.00000000000E+00  0.00000000000E+00  0.74505805969E-08  0.10566000000E+00  0.10566000000E+00 0. -1.
     999900   -1    0    0    0    0 -0.00000000000E+00 -0.00000000000E+00 -0.74505805969E-08  0.93827000000E+00  0.93827000000E+00 0. -1.
     999902    2    1    2    0    0  0.13381844231E-01 -0.10666831607E-01  0.17622007018E-01  0.10193659982E+01  0.10190699918E+01 0.  0.
     999903    2    3    3    0    0  0.56067676665E-01  0.88426523988E-01  0.76021052772E-01  0.13085487171E+00  0.19518260004E-01 0.  0.
         14    1    1    2    0    0 -0.13381844231E-01  0.10666831607E-01 -0.17622007018E-01  0.24564001768E-01  0.00000000000E+00 0.  1.
     999901    1    3    3    0    0 -0.42685832434E-01 -0.99093355595E-01 -0.58399045754E-01  0.88851112652E+00  0.88000000000E+00 0. -1.
        -11    1    4    4    0    0  0.30191110431E-01  0.41991403094E-01  0.26118038899E-01  0.57941299259E-01  0.51100000000E-03 0.  1.
         11    1    4    4    0    0  0.25876566234E-01  0.46435120894E-01  0.49903013873E-01  0.72913572448E-01  0.51100000000E-03 0. -1.
</event>
<event>
 8    1  0.1094134E+005  0.1043930E+01  0.7957747E-01            NaN
         13   -1    0    0    0    0  0.00000000000E+00  0.00000000000E+00  0.74505805969E-08  0.10566000000E+00  0.10566000000E+00 0. -1.
     999900   -1    0    0    0    0 -0.00000000000E+00 -0.00000000000E+00 -0.74505805969E-08  0.93827000000E+00  0.93827000000E+00 0.  1.
     999902    2    1    2    0    0  0.11457705504E-01 -0.13344252288E-01 -0.14713367964E-01  0.10209989887E+01  0.10207414479E+01 0.  0.
     999903    2    3    3    0    0 -0.10558141127E+00 -0.46228460310E-01  0.56191661306E-01  0.12981603933E+00  0.20253303850E-01 0.  0.
         14    1    1    2    0    0 -0.11457705504E-01  0.13344252288E-01  0.14713367964E-01  0.22931011347E-01  0.00000000000E+00 0. -1.
     999901    1    3    3    0    0  0.11703911678E+00  0.32884208021E-01 -0.70905029270E-01  0.89118294933E+00  0.88000000000E+00 0.  1.
        -11    1    4    4    0    0 -0.35894997232E-01 -0.69434841329E-02  0.12359511484E-01  0.38596391584E-01  0.51100000000E-03 0. -1.
         11    1    4    4    0    0 -0.69686414043E-01 -0.39284976177E-01  0.43832149821E-01  0.91219647743E-01  0.51100000000E-03 0.  1.
</event>
<event>
 8    1  0.1094134E+005  0.1043930E+01  0.7957747E-01            NaN
         13   -1    0    0    0    0  0.00000000000E+00  0.00000000000E+00  0.74505805969E-08  0.10566000000E+00  0.10566000000E+00 0.  1.
     999900   -1    0    0    0    0 -0.00000000000E+00 -0.00000000000E+00 -0.74505805969E-08  0.93827000000E+00  0.93827000000E+00 0.  1.
     999902    2    1    2    0    0  0.25101266598E-02 -0.23389387013E-02  0.23396290668E-01  0.10202834826E+01  0.10200094250E+01 0.  0.
     999903    2    3    3    0    0 -0.29745381758E-01 -0.10567389636E+00 -0.65014709307E-01  0.12925315972E+00  0.20681072625E-01 0.  0.
         14    1    1    2    0    0 -0.25101266598E-02  0.23389387013E-02 -0.23396290668E-01  0.23646517442E-01  0.00000000000E+00 0. -1.
     999901    1    3    3    0    0  0.32255508418E-01  0.10333495765E+00  0.88410999975E-01  0.89103032284E+00  0.88000000000E+00 0.  1.
        -11    1    4    4    0    0 -0.14496635275E-01 -0.48262017578E-01 -0.18063176028E-01  0.53534234133E-01  0.51100000000E-03 0. -1.
         11    1    4    4    0    0 -0.15248746483E-01 -0.57411878778E-01 -0.46951533279E-01  0.75718925589E-01  0.51100000000E-03 0.  1.
</event>
<event>
 8    1  0.1094134E+005  0.1043930E+01  0.7957747E-01            NaN
         13   -1    0    0    0    0  0.00000000000E+00  0.00000000000E+00  0.74505805969E-08  0.10566000000E+00  0.10566000000E+00 0.  1.
     999900   -1    0    0    0    0 -0.00000000000E+00 -0.00000000000E+00 -0.74505805969E-08  0.93827000000E+00  0.93827000000E+00 0.  1.
     999902    2    1    2    0    0 -0.22443517678E-01 -0.74905955584E-02  0.60991411753E-02  0.10194960067E+01  0.10192031630E+01 0.  0.
     999903    2    3    3    0    0 -0.11249340318E+00 -0.14863490121E-01 -0.63953212541E-01  0.13210056284E+00  0.22019450735E-01 0.  0.
         14    1    1    2    0    0  0.22443517678E-01  0.74905955584E-02 -0.60991411753E-02  0.24433993343E-01  0.00000000000E+00 0. -1.
     999901    1    3    3    0    0  0.90049885498E-01  0.73728945623E-02  0.70052353716E-01  0.88739544382E+00  0.88000000000E+00 0.  1.
        -11    1    4    4    0    0 -0.34038617663E-01  0.16251455698E-02 -0.10190104417E-01  0.35572010620E-01  0.51100000000E-03 0.  1.
         11    1    4    4    0    0 -0.78454785514E-01 -0.16488635690E-01 -0.53763108124E-01  0.96528552217E-01  0.51100000000E-03 0. -1.
</event>
<event>
 8    1  0.1094134E+005  0.1043930E+01  0.7957747E-01            NaN
         13   -1    0    0    0    0  0.00000000000E+00  0.00000000000E+00  0.74505805969E-08  0.10566000000E+00  0.10566000000E+00 0. -1.
     999900   -1    0    0    0    0 -0.00000000000E+00 -0.00000000000E+00 -0.74505805969E-08  0.93827000000E+00  0.93827000000E+00 0.  1.
     999902    2    1    2    0    0 -0.36218095200E-02 -0.23506276793E-01  0.66740450258E-03  0.10201369762E+01  0.10198594718E+01 0.  0.
     999903    2    3    3    0    0 -0.91526718463E-01 -0.93267002356E-01  0.13263270333E-01  0.13292083135E+00  0.20399979047E-01 0.  0.
         14    1    1    2    0    0  0.36218095200E-02  0.23506276793E-01 -0.66740450258E-03  0.23793023802E-01  0.00000000000E+00 0. -1.
     999901    1    3    3    0    0  0.87904908943E-01  0.69760725562E-01 -0.12595865831E-01  0.88721614485E+00  0.88000000000E+00 0.  1.
        -11    1    4    4    0    0 -0.67674649148E-01 -0.65371693674E-01  0.61096498200E-03  0.94095434907E-01  0.51100000000E-03 0.  1.
         11    1    4    4    0    0 -0.23852069315E-01 -0.27895308682E-01  0.12652305351E-01  0.38825396440E-01  0.51100000000E-03 0. -1.
</event>
<event>
 8    1  0.1094134E+005  0.1043930E+01  0.7957747E-01            NaN
         13   -1    0    0    0    0  0.00000000000E+00  0.00000000000E+00  0.74505805969E-08  0.10566000000E+00  0.10566000000E+00 0.  1.
     999900   -1    0    0    0    0 -0.00000000000E+00 -0.00000000000E+00 -0.74505805969E-08  0.93827000000E+00  0.93827000000E+00 0. -1.
     999902    2    1    2    0    0 -0.19191798038E-01 -0.98489654707E-02 -0.87413092845E-02  0.10206547402E+01  0.10203893183E+01 0.  0.
     999903    2    3    3    0    0  0.53405275168E-01  0.83951309308E-01  0.78879720576E-01  0.12838444957E+00  0.18989755749E-01 0.  0.
         14    1    1    2    0    0  0.19191798038E-01  0.98489654707E-02  0.87413092845E-02  0.23275259843E-01  0.00000000000E+00 0.  1.
     999901    1    3    3    0    0 -0.72597073205E-01 -0.93800274779E-01 -0.87621029861E-01  0.89227029058E+00  0.88000000000E+00 0. -1.
        -11    1    4    4    0    0  0.14293143707E-01  0.13490280135E-01  0.23302784639E-01  0.30488727558E-01  0.51100000000E-03 0.  1.
         11    1    4    4    0    0  0.39112131460E-01  0.70461029173E-01  0.55576935937E-01  0.97895722014E-01  0.51100000000E-03 0. -1.
</event>
<event>
 8    1  0.1094134E+005  0.1043930E+01  0.7957747E-01            NaN
         13   -1    0    0    0    0  0.00000000000E+00  0.00000000000E+00  0.74505805969E-08  0.10566000000E+00  0.10566000000E+00 0. -1.
     999900   -1    0    0    0    0 -0.00000000000E+00 -0.00000000000E+00 -0.74505805969E-08  0.93827000000E+00  0.93827000000E+00 0.  1.
     999902    2    1    2    0    0 -0.64362111028E-02  0.14966018646E-01 -0.14554775088E-01  0.10220839934E+01  0.10218504986E+01 0.  0.
     999903    2    3    3    0    0  0.12122242668E+00 -0.30611255057E-01 -0.34947955095E-01  0.13147190191E+00  0.20774401542E-01 0.  0.
         14    1    1    2    0    0  0.64362111028E-02 -0.14966018646E-01  0.14554775088E-01  0.21846006622E-01  0.00000000000E+00 0. -1.
     999901    1    3    3    0    0 -0.12765863779E+00  0.45577273702E-01  0.20393180007E-01  0.89061209147E+00  0.88000000000E+00 0. -1.
        -11    1    4    4    0    0  0.53089384190E-01 -0.15430608366E-01 -0.25993606964E-01  0.61094313256E-01  0.51100000000E-03 0. -1.
         11    1    4    4    0    0  0.68133042493E-01 -0.15180646691E-01 -0.89543481310E-02  0.70377588654E-01  0.51100000000E-03 0.  1.
</event>
<event>
 8    1  0.1094134E+005  0.1043930E+01  0.7957747E-01            NaN
         13   -1    0    0    0    0  0.00000000000E+00  0.00000000000E+00  0.74505805969E-08  0.10566000000E+00  0.10566000000E+00 0. -1.
     999900   -1    0    0    0    0 -0.00000000000E+00 -0.00000000000E+00 -0.74505805969E-08  0.93827000000E+00  0.93827000000E+00 0.  1.
     999902    2    1    2    0    0 -0.20199589855E-02 -0.52348307260E-02 -0.22938979964E-01  0.10203147403E+01  0.10200414153E+01 0.  0.
     999903    2    3    3    0    0 -0.80672527110E-01  0.85422138253E-01  0.50206524086E-01  0.12916089433E+00  0.18890294570E-01 0.  0.
         14    1    1    2    0    0  0.20199589855E-02  0.52348307260E-02  0.22938979964E-01  0.23615259660E-01  0.00000000000E+00 0. -1.
     999901    1    3    3    0    0  0.78652568125E-01 -0.90656968979E-01 -0.73145504050E-01  0.89115384601E+00  0.88000000000E+00 0. -1.
        -11    1    4    4    0    0 -0.37301476617E-01  0.27795468046E-01  0.14842516671E-01  0.48831850506E-01  0.51100000000E-03 0.  1.
         11    1    4    4    0    0 -0.43371050493E-01  0.57626670207E-01  0.35364007415E-01  0.80329043823E-01  0.51100000000E-03 0. -1.
</event>
<event>
 8    1  0.1094134E+005  0.1043930E+01  0.7957747E-01            NaN
         13   -1    0    0    0    0  0.00000000000E+00  0.00000000000E+00  0.74505805969E-08  0.10566000000E+00  0.10566000000E+00 0.  1.
     999900   -1    0    0    0    0 -0.00000000000E+00 -0.00000000000E+00 -0.74505805969E-08  0.93827000000E+00  0.93827000000E+00 0. -1.
     999902    2    1    2    0    0 -0.22538002523E-01 -0.24136936873E-02 -0.85424445972E-02  0.10197068533E+01  0.10194191022E+01 0.  0.
     999903    2    3    3    0    0  0.12510890966E-01 -0.11190849738E+00  0.61222395462E-01  0.12949077289E+00  0.18429443255E-01 0.  0.
         14    1    1    2    0    0  0.22538002523E-01  0.24136936873E-02  0.85424445972E-02  0.24223146671E-01  0.00000000000E+00 0.  1.
     999901    1    3    3    0    0 -0.35048893489E-01  0.10949480369E+00 -0.69764840060E-01  0.89021608044E+00  0.88000000000E+00 0. -1.
        -11    1    4    4    0    0  0.13252643621E-01 -0.57776964916E-01  0.39059523050E-01  0.70990969142E-01  0.51100000000E-03 0.  1.
         11    1    4    4    0    0 -0.74175265470E-03 -0.54131532461E-01  0.22162872412E-01  0.58499803744E-01  0.51100000000E-03 0. -1.
</event>
<event>
 8    1  0.1094134E+005  0.1043930E+01  0.7957747E-01            NaN
         13   -1    0    0    0    0  0.00000000000E+00  0.00000000000E+00  0.74505805969E-08  0.10566000000E+00  0.10566000000E+00 0. -1.
     999900   -1    0    0    0    0 -0.00000000000E+00 -0.00000000000E+00 -0.74505805969E-08  0.93827000000E+00  0.93827000000E+00 0.  1.
     999902    2    1    2    0    0  0.94508199363E-02  0.13942249355E-01 -0.16711333789E-01  0.10202029481E+01  0.10199269985E+01 0.  0.
     999903    2    3    3    0    0 -0.12422647982E+00 -0.27456978392E-02 -0.29925853480E-01  0.12985316764E+00  0.22946269687E-01 0.  0.
         14    1    1    2    0    0 -0.94508199363E-02 -0.13942249355E-01  0.16711333789E-01  0.23727051893E-01  0.00000000000E+00 0. -1.
     999901    1    3    3    0    0  0.13367729976E+00  0.16687947194E-01  0.13214519691E-01  0.89034978047E+00  0.88000000000E+00 0.  1.
        -11    1    4    4    0    0 -0.27156773403E-01 -0.10160370280E-01 -0.64223749967E-02  0.29702381849E-01  0.51100000000E-03 0. -1.
         11    1    4    4    0    0 -0.97069706422E-01  0.74146724404E-02 -0.23503478483E-01  0.10015078579E+00  0.51100000000E-03 0.  1.
</event>
<event>
 8    1  0.1094134E+005  0.1043930E+01  0.7957747E-01            NaN
         13   -1    0    0    0    0  0.00000000000E+00  0.00000000000E+00  0.74505805969E-08  0.10566000000E+00  0.10566000000E+00 0.  1.
     999900   -1    0    0    0    0 -0.00000000000E+00 -0.00000000000E+00 -0.74505805969E-08  0.93827000000E+00  0.93827000000E+00 0. -1.
     999902    2    1    2    0    0 -0.11927516186E-01  0.16754454129E-01  0.11715926859E-01  0.10202606038E+01  0.10199860094E+01 0.  0.
     999903    2    3    3    0    0  0.40721537045E-01  0.40278416934E-01  0.11733305239E+00  0.13207127889E+00  0.19879212116E-01 0.  0.
         14    1    1    2    0    0  0.11927516186E-01 -0.16754454129E-01 -0.11715926859E-01  0.23669396226E-01  0.00000000000E+00 0. -1.
     999901    1    3    3    0    0 -0.52649053230E-01 -0.23523962805E-01 -0.10561712553E+00  0.88818932488E+00  0.88000000000E+00 0. -1.
        -11    1    4    4    0    0  0.12837274202E-02 -0.16553165145E-02  0.10458837996E-01  0.10678784672E-01  0.51100000000E-03 0. -1.
         11    1    4    4    0    0  0.39437809624E-01  0.41933733448E-01  0.10687421440E+00  0.12139249422E+00  0.51100000000E-03 0.  1.
</event>
<event>
 8    1  0.1094134E+005  0.1043930E+01  0.7957747E-01            NaN
         13   -1    0    0    0    0  0.00000000000E+00  0.00000000000E+00  0.74505805969E-08  0.10566000000E+00  0.10566000000E+00 0. -1.
     999900   -1    0    0    0    0 -0.00000000000E+00 -0.00000000000E+00 -0.74505805969E-08  0.93827000000E+00  0.93827000000E+00 0.  1.
     999902    2    1    2    0    0 -0.19540948371E-01  0.11094682946E-01 -0.12751071330E-01  0.10180933889E+01  0.10177655025E+01 0.  0.
     999903    2    3    3    0    0 -0.68498593126E-01  0.57351876732E-01  0.91404975288E-01  0.12939486803E+00  0.20170952877E-01 0.  0.
         14    1    1    2    0    0  0.19540948371E-01 -0.11094682946E-01  0.12751071330E-01  0.25836611097E-01  0.00000000000E+00 0. -1.
     999901    1    3    3    0    0  0.48957644754E-01 -0.46257193786E-01 -0.10415604662E+00  0.88869852087E+00  0.88000000000E+00 0.  1.
        -11    1    4    4    0    0 -0.12286426207E-01  0.16021548815E-02  0.11598342223E-01  0.16979571034E-01  0.51100000000E-03 0. -1.
         11    1    4    4    0    0 -0.56212166919E-01  0.55749721851E-01  0.79806633065E-01  0.11241529699E+00  0.51100000000E-03 0.  1.
</event>
<event>
 8    1  0.1094134E+005  0.1043930E+01  0.7957747E-01            NaN
         13   -1    0    0    0    0  0.00000000000E+00  0.00000000000E+00  0.74505805969E-08  0.10566000000E+00  0.10566000000E+00 0. -1.
     999900   -1    0    0    0    0 -0.00000000000E+00 -0.00000000000E+00 -0.74505805969E-08  0.93827000000E+00  0.93827000000E+00 0. -1.
     999902    2    1    2    0    0  0.29807920501E-02  0.21120428040E-01  0.92109590654E-02  0.10206964172E+01  0.10204319560E+01 0.  0.
     999903    2    3    3    0    0  0.10580716470E+00 -0.61216775958E-01  0.40684277299E-01  0.13033511537E+00  0.19732767620E-01 0.  0.
         14    1    1    2    0    0 -0.29807920501E-02 -0.21120428040E-01 -0.92109590654E-02  0.23233582779E-01  0.00000000000E+00 0. -1.
     999901    1    3    3    0    0 -0.10282637265E+00  0.82337203998E-01 -0.31473318234E-01  0.89036130185E+00  0.88000000000E+00 0. -1.
        -11    1    4    4    0    0  0.21362153165E-01 -0.57172815846E-02  0.23005712153E-02  0.22239214138E-01  0.51100000000E-03 0.  1.
         11    1    4    4    0    0  0.84445011537E-01 -0.55499494373E-01  0.38383706084E-01  0.10809590123E+00  0.51100000000E-03 0. -1.
</event>
<event>
 8    1  0.1094134E+005  0.1043930E+01  0.7957747E-01            NaN
         13   -1    0    0    0    0  0.00000000000E+00  0.00000000000E+00  0.74505805969E-08  0.10566000000E+00  0.10566000000E+00 0.  1.
     999900   -1    0    0    0    0 -0.00000000000E+00 -0.00000000000E+00 -0.74505805969E-08  0.93827000000E+00  0.93827000000E+00 0. -1.
     999902    2    1    2    0    0  0.15658928537E-01 -0.11729612874E-01 -0.12446363969E-01  0.10207416875E+01  0.10204782676E+01 0.  0.
     999903    2    3    3    0    0 -0.70424073810E-01  0.21178939257E-01 -0.10651554099E+00  0.13094268425E+00  0.19807282674E-01 0.  0.
         14    1    1    2    0    0 -0.15658928537E-01  0.11729612874E-01  0.12446363969E-01  0.23188312512E-01  0.00000000000E+00 0.  1.
     999901    1    3    3    0    0  0.86083002347E-01 -0.32908552132E-01  0.94069177019E-01  0.88979900324E+00  0.88000000000E+00 0.  1.
        -11    1    4    4    0    0 -0.31629391414E-01  0.45077326506E-02 -0.31565754502E-01  0.44915432016E-01  0.51100000000E-03 0. -1.
         11    1    4    4    0    0 -0.38794682396E-01  0.16671206607E-01 -0.74949786485E-01  0.86027252235E-01  0.51100000000E-03 0.  1.
</event>
<event>
 8    1  0.1094134E+005  0.1043930E+01  0.7957747E-01            NaN
         13   -1    0    0    0    0  0.00000000000E+00  0.00000000000E+00  0.74505805969E-08  0.10566000000E+00  0.10566000000E+00 0. -1.
     999900   -1    0    0    0    0 -0.00000000000E+00 -0.00000000000E+00 -0.74505805969E-08  0.93827000000E+00  0.93827000000E+00 0. -1.
     999902    2    1    2    0    0 -0.19706153329E-01 -0.81223579787E-02  0.10630614485E-01  0.10201116217E+01  0.10198335186E+01 0.  0.
     999903    2    3    3    0    0  0.37304329016E-01 -0.97505828635E-01 -0.74281118447E-01  0.12969059644E+00  0.20074029637E-01 0.  0.
         14    1    1    2    0    0  0.19706153329E-01  0.81223579787E-02 -0.10630614485E-01  0.23818378251E-01  0.00000000000E+00 0.  1.
     999901    1    3    3    0    0 -0.57010482345E-01  0.89383470656E-01  0.84911732933E-01  0.89042102531E+00  0.88000000000E+00 0.  1.
        -11    1    4    4    0    0  0.28998561862E-02 -0.20397412835E-01 -0.23081827125E-01  0.30943423869E-01  0.51100000000E-03 0.  1.
         11    1    4    4    0    0  0.34404472830E-01 -0.77108415799E-01 -0.51199291322E-01  0.98747172570E-01  0.51100000000E-03 0. -1.
</event>
<event>
 8    1  0.1094134E+005  0.1043930E+01  0.7957747E-01            NaN
         13   -1    0    0    0    0  0.00000000000E+00  0.00000000000E+00  0.74505805969E-08  0.10566000000E+00  0.10566000000E+00 0. -1.
     999900   -1    0    0    0    0 -0.00000000000E+00 -0.00000000000E+00 -0.74505805969E-08  0.93827000000E+00  0.93827000000E+00 0. -1.
     999902    2    1    2    0    0  0.40796176717E-02 -0.17579173385E-01 -0.14398958936E-01  0.10208431935E+01  0.10205821011E+01 0.  0.
     999903    2    3    3    0    0  0.10205532416E+00  0.16144798157E-01  0.74563570078E-01  0.13030915320E+00  0.27291129101E-01 0.  0.
         14    1    1    2    0    0 -0.40796176717E-02  0.17579173385E-01  0.14398958936E-01  0.23086806528E-01  0.00000000000E+00 0.  1.
     999901    1    3    3    0    0 -0.97975706487E-01 -0.33723971542E-01 -0.88962529014E-01  0.89053404027E+00  0.88000000000E+00 0. -1.
        -11    1    4    4    0    0  0.62852025185E-01  0.60421619122E-03  0.32573108529E-01  0.70795555421E-01  0.51100000000E-03 0. -1.
         11    1    4    4    0    0  0.39203298974E-01  0.15540581966E-01  0.41990461549E-01  0.59513597777E-01  0.51100000000E-03 0.  1.
</event>
<event>
 8    1  0.1094134E+005  0.1043930E+01  0.7957747E-01            NaN
         13   -1    0    0    0    0  0.00000000000E+00  0.00000000000E+00  0.74505805969E-08  0.10566000000E+00  0.10566000000E+00 0. -1.
     999900   -1    0    0    0    0 -0.00000000000E+00 -0.00000000000E+00 -0.74505805969E-08  0.93827000000E+00  0.93827000000E+00 0. -1.
     999902    2    1    2    0    0 -0.10434320551E-01  0.61311762979E-02 -0.21347938218E-01  0.10193902194E+01  0.10190948035E+01 0.  0.
     999903    2    3    3    0    0  0.10939205653E+00 -0.40604991509E-02 -0.67232347549E-01  0.13002662109E+00  0.20090394460E-01 0.  0.
         14    1    1    2    0    0  0.10434320551E-01 -0.61311762979E-02  0.21347938218E-01  0.24539780649E-01  0.00000000000E+00 0. -1.
     999901    1    3    3    0    0 -0.11982637708E+00  0.10191675449E-01  0.45884409331E-01  0.88936359826E+00  0.88000000000E+00 0. -1.
        -11    1    4    4    0    0  0.59564043560E-01  0.92474171441E-03 -0.25352516545E-01  0.64743661069E-01  0.51100000000E-03 0. -1.
         11    1    4    4    0    0  0.49828012972E-01 -0.49852408653E-02 -0.41879831003E-01  0.65282960020E-01  0.51100000000E-03 0.  1.
</event>
<event>
 8    1  0.1094134E+005  0.1043930E+01  0.7957747E-01            NaN
         13   -1    0    0    0    0  0.00000000000E+00  0.00000000000E+00  0.74505805969E-08  0.10566000000E+00  0.10566000000E+00 0. -1.
     999900   -1    0    0    0    0 -0.00000000000E+00 -0.00000000000E+00 -0.74505805969E-08  0.93827000000E+00  0.93827000000E+00 0. -1.
     999902    2    1    2    0    0 -0.19681181662E-03 -0.35269307059E-02  0.24806486563E-01  0.10188732694E+01  0.10185651178E+01 0.  0.
     999903    2    3    3    0    0 -0.36095373719E-01  0.40052066667E-01  0.11930558075E+00  0.13201481697E+00  0.16942439421E-01 0.  0.
         14    1    1    2    0    0  0.19681181662E-03  0.35269307059E-02 -0.24806486563E-01  0.25056730647E-01  0.00000000000E+00 0.  1.
     999901    1    3    3    0    0  0.35898561902E-01 -0.43578997373E-01 -0.94499094188E-01  0.88685845238E+00  0.88000000000E+00 0. -1.
        -11    1    4    4    0    0 -0.37484334048E-02 -0.56605298408E-03  0.15246464099E-01  0.15718999888E-01  0.51100000000E-03 0.  1.
         11    1    4    4    0    0 -0.32346940314E-01  0.40618119651E-01  0.10405911665E+00  0.11629581708E+00  0.51100000000E-03 0. -1.
</event>
<event>
 8    1  0.1094134E+005  0.1043930E+01  0.7957747E-01            NaN
         13   -1    0    0    0    0  0.00000000000E+00  0.00000000000E+00  0.74505805969E-08  0.10566000000E+00  0.10566000000E+00 0.  1.
     999900   -1    0    0    0    0 -0.00000000000E+00 -0.00000000000E+00 -0.74505805969E-08  0.93827000000E+00  0.93827000000E+00 0.  1.
     999902    2    1    2    0    0  0.13837181938E-01 -0.11275938751E-01 -0.14558931944E-01  0.10208957451E+01  0.10206358535E+01 0.  0.
     999903    2    3    3    0    0  0.38113903481E-01  0.51402354430E-01 -0.11442443377E+00  0.13270035777E+00  0.20531980647E-01 0.  0.
         14    1    1    2    0    0 -0.13837181938E-01  0.11275938751E-01  0.14558931944E-01  0.23034254884E-01  0.00000000000E+00 0.  1.
     999901    1    3    3    0    0 -0.24276721544E-01 -0.62678293181E-01  0.99865501828E-01  0.88819538734E+00  0.88000000000E+00 0. -1.
        -11    1    4    4    0    0  0.36027224521E-02  0.12146166254E-01 -0.10870457833E-01  0.16701405277E-01  0.51100000000E-03 0. -1.
         11    1    4    4    0    0  0.34511181029E-01  0.39256188176E-01 -0.10355397594E+00  0.11599895249E+00  0.51100000000E-03 0.  1.
</event>
<event>
 8    1  0.1094134E+005  0.1043930E+01  0.7957747E-01            NaN
         13   -1    0    0    0    0  0.00000000000E+00  0.00000000000E+00  0.74505805969E-08  0.10566000000E+00  0.10566000000E+00 0.  1.
     999900   -1    0    0    0    0 -0.00000000000E+00 -0.00000000000E+00 -0.74505805969E-08  0.93827000000E+00  0.93827000000E+00 0. -1.
     999902    2    1    2    0    0  0.20076023639E-01 -0.92178263784E-02  0.58065821528E-02  0.10210885586E+01  0.10208330486E+01 0.  0.
     999903    2    3    3    0    0 -0.65774536563E-01 -0.93117441604E-01  0.61761573335E-01  0.13117821192E+00  0.19901852923E-01 0.  0.
         14    1    1    2    0    0 -0.20076023639E-01  0.92178263784E-02 -0.58065821528E-02  0.22841441386E-01  0.00000000000E+00 0.  1.
     999901    1    3    3    0    0  0.85850560202E-01  0.83899615226E-01 -0.55954991182E-01  0.88991034670E+00  0.88000000000E+00 0. -1.
        -11    1    4    4    0    0 -0.50296573065E-01 -0.60097067827E-01  0.34411724335E-01  0.85591066801E-01  0.51100000000E-03 0. -1.
         11    1    4    4    0    0 -0.15477963498E-01 -0.33020373777E-01  0.27349848999E-01  0.45587145115E-01  0.51100000000E-03 0.  1.
</event>
<event>
 8    1  0.1094134E+005  0.1043930E+01  0.7957747E-01            NaN
         13   -1    0    0    0    0  0.00000000000E+00  0.00000000000E+00  0.74505805969E-08  0.10566000000E+00  0.10566000000E+00 0. -1.
     999900   -1    0    0    0    0 -0.00000000000E+00 -0.00000000000E+00 -0.74505805969E-08  0.93827000000E+00  0.93827000000E+00 0. -1.
     999902    2    1    2    0    0  0.13716374341E-01 -0.10292928466E-01 -0.16197214506E-01  0.10203411666E+01  0.10200684601E+01 0.  0.
     999903    2    3    3    0    0  0.45515206288E-03  0.12754160709E+00  0.71919460388E-02  0.12920634405E+00  0.19377475387E-01 0.  0.
         14    1    1    2    0    0 -0.13716374341E-01  0.10292928466E-01  0.16197214506E-01  0.23588833359E-01  0.00000000000E+00 0. -1.
     999901    1    3    3    0    0  0.13261222278E-01 -0.13783453555E+00 -0.23389160545E-01  0.89113482259E+00  0.88000000000E+00 0. -1.
        -11    1    4    4    0    0  0.84464087327E-02  0.74179055450E-01 -0.75710101925E-03  0.74663969965E-01  0.51100000000E-03 0.  1.
         11    1    4    4    0    0 -0.79912566698E-02  0.53362551638E-01  0.79490470581E-02  0.54542374083E-01  0.51100000000E-03 0. -1.
</event>
<event>
 8    1  0.1094134E+005  0.1043930E+01  0.7957747E-01            NaN
         13   -1    0    0    0    0  0.00000000000E+00  0.00000000000E+00  0.74505805969E-08  0.10566000000E+00  0.10566000000E+00 0.  1.
     999900   -1    0    0    0    0 -0.00000000000E+00 -0.00000000000E+00 -0.74505805969E-08  0.93827000000E+00  0.93827000000E+00 0.  1.
     999902    2    1    2    0    0 -0.19356036886E-02 -0.20916985421E-01 -0.10527331669E-01  0.10204333715E+01  0.10201628174E+01 0.  0.
     999903    2    3    3    0    0 -0.10484065533E+00 -0.10618192334E-02 -0.76905967525E-01  0.13173218401E+00  0.21122262972E-01 0.  0.
         14    1    1    2    0    0  0.19356036886E-02  0.20916985421E-01  0.10527331669E-01  0.23496628541E-01  0.00000000000E+00 0. -1.
     999901    1    3    3    0    0  0.10290505164E+00 -0.19855166187E-01  0.66378635855E-01  0.88870118745E+00  0.88000000000E+00 0. -1.
        -11    1    4    4    0    0 -0.51082192400E-01 -0.97708213034E-02 -0.31344056616E-01  0.60725368138E-01  0.51100000000E-03 0.  1.
         11    1    4    4    0    0 -0.53758462928E-01  0.87090020700E-02 -0.45561910909E-01  0.71006815870E-01  0.51100000000E-03 0. -1.
</event>
<event>
 8    1  0.1094134E+005  0.1043930E+01  0.7957747E-01            NaN
         13   -1    0    0    0    0  0.00000000000E+00  0.00000000000E+00  0.74505805969E-08  0.10566000000E+00  0.10566000000E+00 0. -1.
     999900   -1    0    0    0    0 -0.00000000000E+00 -0.00000000000E+00 -0.74505805969E-08  0.93827000000E+00  0.93827000000E+00 0.  1.
     999902    2    1    2    0    0 -0.41065749339E-02 -0.10797585113E-01  0.20745678913E-01  0.10201847901E+01  0.10199084130E+01 0.  0.
     999903    2    3    3    0    0  0.27200098563E-01 -0.61973275386E-01 -0.10718167524E+00  0.12891352550E+00  0.23457479074E-01 0.  0.
         14    1    1    2    0    0  0.41065749339E-02  0.10797585113E-01 -0.20745678913E-01  0.23745209949E-01  0.00000000000E+00 0.  1.
     999901    1    3    3    0    0 -0.31306673497E-01  0.51175690273E-01  0.12792735415E+00  0.89127126455E+00  0.88000000000E+00 0. -1.
        -11    1    4    4    0    0  0.15302308257E-01 -0.54861161887E-01 -0.93145611389E-01  0.10918000624E+00  0.51100000000E-03 0. -1.
         11    1    4    4    0    0  0.11897790307E-01 -0.71121134995E-02 -0.14036063852E-01  0.19733519252E-01  0.51100000000E-03 0.  1.
</event>
<event>
 8    1  0.1094134E+005  0.1043930E+01  0.7957747E-01            NaN
         13   -1    0    0    0    0  0.00000000000E+00  0.00000000000E+00  0.74505805969E-08  0.10566000000E+00  0.10566000000E+00 0.  1.
     999900   -1    0    0    0    0 -0.00000000000E+00 -0.00000000000E+00 -0.74505805969E-08  0.93827000000E+00  0.93827000000E+00 0.  1.
     999902    2    1    2    0    0 -0.91243317088E-02 -0.11036924850E-02  0.22407779028E-01  0.10197105837E+01  0.10194229222E+01 0.  0.
     999903    2    3    3    0    0 -0.30985323718E-01 -0.38914613108E-01 -0.11585388356E+00  0.12784520368E+00  0.21162144686E-01 0.  0.
         14    1    1    2    0    0  0.91243317088E-02  0.11036924850E-02 -0.22407779028E-01  0.24219416327E-01  0.00000000000E+00 0. -1.
     999901    1    3    3    0    0  0.21860992009E-01  0.37810920623E-01  0.13826166259E+00  0.89186537999E+00  0.88000000000E+00 0. -1.
        -11    1    4    4    0    0 -0.40330363863E-02 -0.19035436537E-01 -0.30814097784E-01  0.36446988489E-01  0.51100000000E-03 0. -1.
         11    1    4    4    0    0 -0.26952287331E-01 -0.19879176571E-01 -0.85039785779E-01  0.91398215190E-01  0.51100000000E-03 0.  1.
</event>
<event>
 8    1  0.1094134E+005  0.1043930E+01  0.7957747E-01            NaN
         13   -1    0    0    0    0  0.00000000000E+00  0.00000000000E+00  0.74505805969E-08  0.10566000000E+00  0.10566000000E+00 0.  1.
     999900   -1    0    0    0    0 -0.00000000000E+00 -0.00000000000E+00 -0.74505805969E-08  0.93827000000E+00  0.93827000000E+00 0.  1.
     999902    2    1    2    0    0 -0.23600519264E-02  0.20489681596E-03  0.23895951802E-01  0.10199169131E+01  0.10196341900E+01 0.  0.
     999903    2    3    3    0    0  0.10622301242E+00 -0.70858612883E-01 -0.10010698808E-01  0.12975402624E+00  0.20775510723E-01 0.  0.
         14    1    1    2    0    0  0.23600519264E-02 -0.20489681596E-03 -0.23895951802E-01  0.24013086855E-01  0.00000000000E+00 0. -1.
     999901    1    3    3    0    0 -0.10858306435E+00  0.71063509699E-01  0.33906650610E-01  0.89016288691E+00  0.88000000000E+00 0.  1.
        -11    1    4    4    0    0  0.73976129615E-01 -0.38835202698E-01 -0.18125935132E-02  0.83571450494E-01  0.51100000000E-03 0. -1.
         11    1    4    4    0    0  0.32246882808E-01 -0.32023410185E-01 -0.81981052949E-02  0.46182575742E-01  0.51100000000E-03 0.  1.
</event>
<event>
 8    1  0.1094134E+005  0.1043930E+01  0.7957747E-01            NaN
         13   -1    0    0    0    0  0.00000000000E+00  0.00000000000E+00  0.74505805969E-08  0.10566000000E+00  0.10566000000E+00 0.  1.
     999900   -1    0    0    0    0 -0.00000000000E+00 -0.00000000000E+00 -0.74505805969E-08  0.93827000000E+00  0.93827000000E+00 0.  1.
     999902    2    1    2    0    0 -0.21053626511E-01 -0.79638317543E-02 -0.67054720491E-02  0.10204429576E+01  0.10201726268E+01 0.  0.
     999903    2    3    3    0    0 -0.51979354099E-01  0.20701911547E-02  0.11851210546E+00  0.13098440097E+00  0.20140884102E-01 0.  0.
         14    1    1    2    0    0  0.21053626511E-01  0.79638317543E-02  0.67054720491E-02  0.23487042404E-01  0.00000000000E+00 0.  1.
     999901    1    3    3    0    0  0.30925727588E-01 -0.10034022909E-01 -0.12521757751E+00  0.88945855663E+00  0.88000000000E+00 0.  1.
        -11    1    4    4    0    0 -0.18723854157E-01  0.31791226454E-03  0.67586868927E-01  0.70135082199E-01  0.51100000000E-03 0. -1.
         11    1    4    4    0    0 -0.33255499942E-01  0.17522788902E-02  0.50925236533E-01  0.60849318768E-01  0.51100000000E-03 0.  1.
</event>
<event>
 8    1  0.1094134E+005  0.1043930E+01  0.7957747E-01            NaN
         13   -1    0    0    0    0  0.00000000000E+00  0.00000000000E+00  0.74505805969E-08  0.10566000000E+00  0.10566000000E+00 0.  1.
     999900   -1    0    0    0    0 -0.00000000000E+00 -0.00000000000E+00 -0.74505805969E-08  0.93827000000E+00  0.93827000000E+00 0. -1.
     999902    2    1    2    0    0  0.51568751163E-02  0.70014655415E-02 -0.22728014414E-01  0.10195953227E+01  0.10193048835E+01 0.  0.
     999903    2    3    3    0    0  0.79748658825E-01 -0.50850645890E-01 -0.89984563649E-01  0.13199504981E+00  0.19489348581E-01 0.  0.
         14    1    1    2    0    0 -0.51568751163E-02 -0.70014655415E-02  0.22728014414E-01  0.24334677312E-01  0.00000000000E+00 0.  1.
     999901    1    3    3    0    0 -0.74591783709E-01  0.57852111432E-01  0.67256549235E-01  0.88760027288E+00  0.88000000000E+00 0.  1.
        -11    1    4    4    0    0  0.82037089191E-02 -0.65990197273E-02 -0.29431374092E-02  0.10943997451E-01  0.51100000000E-03 0.  1.
         11    1    4    4    0    0  0.71544949906E-01 -0.44251626163E-01 -0.87041426239E-01  0.12105105236E+00  0.51100000000E-03 0. -1.
</event>
<event>
 8    1  0.1094134E+005  0.1043930E+01  0.7957747E-01            NaN
         13   -1    0    0    0    0  0.00000000000E+00  0.00000000000E+00  0.74505805969E-08  0.10566000000E+00  0.10566000000E+00 0.  1.
     999900   -1    0    0    0    0 -0.00000000000E+00 -0.00000000000E+00 -0.74505805969E-08  0.93827000000E+00  0.93827000000E+00 0. -1.
     999902    2    1    2    0    0 -0.21740608989E-01 -0.10283601145E-01  0.98741345780E-03  0.10198596548E+01  0.10195755656E+01 0.  0.
     999903    2    3    3    0    0  0.86962768013E-01 -0.59680803162E-01 -0.71317868736E-01  0.12885765619E+00  0.19842778792E-01 0.  0.
         14    1    1    2    0    0  0.21740608989E-01  0.10283601145E-01 -0.98741345780E-03  0.24070345179E-01  0.00000000000E+00 0.  1.
     999901    1    3    3    0    0 -0.10870337700E+00  0.49397202017E-01  0.72305282194E-01  0.89100199864E+00  0.88000000000E+00 0.  1.
        -11    1    4    4    0    0  0.66526071467E-01 -0.41012756052E-01 -0.61619538825E-01  0.99523831466E-01  0.51100000000E-03 0.  1.
         11    1    4    4    0    0  0.20436696546E-01 -0.18668047110E-01 -0.96983299114E-02  0.29333824720E-01  0.51100000000E-03 0. -1.
</event>
<event>
 8    1  0.1094134E+005  0.1043930E+01  0.7957747E-01            NaN
         13   -1    0    0    0    0  0.00000000000E+00  0.00000000000E+00  0.74505805969E-08  0.10566000000E+00  0.10566000000E+00 0.  1.
     999900   -1    0    0    0    0 -0.00000000000E+00 -0.00000000000E+00 -0.74505805969E-08  0.93827000000E+00  0.93827000000E+00 0.  1.
     999902    2    1    2    0    0 -0.17217018393E-01 -0.15000949866E-01  0.26979880689E-02  0.10209357973E+01  0.10206768190E+01 0.  0.
     999903    2    3    3    0    0  0.56480856348E-01 -0.29235263258E-01 -0.11160730936E+00  0.13037434884E+00  0.22282091063E-01 0.  0.
         14    1    1    2    0    0  0.17217018393E-01  0.15000949866E-01 -0.26979880689E-02  0.22994202723E-01  0.00000000000E+00 0.  1.
     999901    1    3    3    0    0 -0.73697874741E-01  0.14234313392E-01  0.11430529743E+00  0.89056144844E+00  0.88000000000E+00 0. -1.
        -11    1    4    4    0    0  0.42534578013E-01 -0.21233630088E-01 -0.61412687043E-01  0.77664899564E-01  0.51100000000E-03 0.  1.
         11    1    4    4    0    0  0.13946278335E-01 -0.80016331709E-02 -0.50194622315E-01  0.52709449278E-01  0.51100000000E-03 0. -1.
</event>
<event>
 8    1  0.1094134E+005  0.1043930E+01  0.7957747E-01            NaN
         13   -1    0    0    0    0  0.00000000000E+00  0.00000000000E+00  0.74505805969E-08  0.10566000000E+00  0.10566000000E+00 0. -1.
     999900   -1    0    0    0    0 -0.00000000000E+00 -0.00000000000E+00 -0.74505805969E-08  0.93827000000E+00  0.93827000000E+00 0. -1.
     999902    2    1    2    0    0 -0.12184235937E-01 -0.16202776957E-01 -0.12666454090E-01  0.10200255099E+01  0.10197453683E+01 0.  0.
     999903    2    3    3    0    0  0.23084067022E-01 -0.11730904864E+00 -0.53746990531E-01  0.13258315020E+00  0.19881289712E-01 0.  0.
         14    1    1    2    0    0  0.12184235937E-01  0.16202776957E-01  0.12666454090E-01  0.23904490074E-01  0.00000000000E+00 0. -1.
     999901    1    3    3    0    0 -0.35268302959E-01  0.10110627169E+00  0.41080536440E-01  0.88744235973E+00  0.88000000000E+00 0.  1.
        -11    1    4    4    0    0  0.11615913326E-01 -0.68153030251E-01 -0.20401174467E-01  0.72084908375E-01  0.51100000000E-03 0. -1.
         11    1    4    4    0    0  0.11468153695E-01 -0.49156018394E-01 -0.33345816063E-01  0.60498241821E-01  0.51100000000E-03 0.  1.
</event>
<event>
 8    1  0.1094134E+005  0.1043930E+01  0.7957747E-01            NaN
         13   -1    0    0    0    0  0.00000000000E+00  0.00000000000E+00  0.74505805969E-08  0.10566000000E+00  0.10566000000E+00 0.  1.
     999900   -1    0    0    0    0 -0.00000000000E+00 -0.00000000000E+00 -0.74505805969E-08  0.93827000000E+00  0.93827000000E+00 0.  1.
     999902    2    1    2    0    0 -0.21235891482E-01 -0.94308900093E-02  0.91901142363E-02  0.10189427438E+01  0.10186363199E+01 0.  0.
     999903    2    3    3    0    0 -0.10185270793E+00 -0.70595119044E-01  0.42462463424E-01  0.13251892685E+00  0.20014000799E-01 0.  0.
         14    1    1    2    0    0  0.21235891482E-01  0.94308900093E-02 -0.91901142363E-02  0.24987256213E-01  0.00000000000E+00 0.  1.
     999901    1    3    3    0    0  0.80616816451E-01  0.61164229035E-01 -0.33272349188E-01  0.88642381693E+00  0.88000000000E+00 0.  1.
        -11    1    4    4    0    0 -0.54883667119E-01 -0.29381286459E-01  0.13784959561E-01  0.63763336970E-01  0.51100000000E-03 0.  1.
         11    1    4    4    0    0 -0.46969040814E-01 -0.41213832584E-01  0.28677503863E-01  0.68755589883E-01  0.51100000000E-03 0. -1.
</event>
<event>
 8    1  0.1094134E+005  0.1043930E+01  0.7957747E-01            NaN
         13   -1    0    0    0    0  0.00000000000E+00  0.00000000000E+00  0.74505805969E-08  0.10566000000E+00  0.10566000000E+00 0.  1.
     999900   -1    0    0    0    0 -0.00000000000E+00 -0.00000000000E+00 -0.74505805969E-08  0.93827000000E+00  0.93827000000E+00 0. -1.
     999902    2    1    2    0    0 -0.32585108463E-02  0.18370954785E-02  0.23530327718E-01  0.10201041918E+01  0.10198259131E+01 0.  0.
     999903    2    3    3    0    0  0.52666296987E-01 -0.21268885269E-02 -0.11441783008E+00  0.12759481286E+00  0.20266571881E-01 0.  0.
         14    1    1    2    0    0  0.32585108463E-02 -0.18370954785E-02 -0.23530327718E-01  0.23825808176E-01  0.00000000000E+00 0. -1.
     999901    1    3    3    0    0 -0.55924807833E-01  0.39639840054E-02  0.13794815780E+00  0.89250937896E+00  0.88000000000E+00 0.  1.
        -11    1    4    4    0    0  0.25026474507E-01  0.23715763677E-02 -0.75999946027E-01  0.80051244324E-01  0.51100000000E-03 0. -1.
         11    1    4    4    0    0  0.27639822480E-01 -0.44984648946E-02 -0.38417884050E-01  0.47543568535E-01  0.51100000000E-03 0.  1.
</event>
<event>
 8    1  0.1094134E+005  0.1043930E+01  0.7957747E-01            NaN
         13   -1    0    0    0    0  0.00000000000E+00  0.00000000000E+00  0.74505805969E-08  0.10566000000E+00  0.10566000000E+00 0.  1.
     999900   -1    0    0    0    0 -0.00000000000E+00 -0.00000000000E+00 -0.74505805969E-08  0.93827000000E+00  0.93827000000E+00 0. -1.
     999902    2    1    2    0    0  0.68064055364E-02 -0.21529883836E-01 -0.14380261288E-01  0.10171595878E+01  0.10168072443E+01 0.  0.
     999903    2    3    3    0    0 -0.19502297681E-01  0.10923406816E+00  0.53767227519E-01  0.12450319297E+00  0.17254247095E-01 0.  0.
         14    1    1    2    0    0 -0.68064055364E-02  0.21529883836E-01  0.14380261288E-01  0.26770412194E-01  0.00000000000E+00 0.  1.
     999901    1    3    3    0    0  0.26308703217E-01 -0.13076395200E+00 -0.68147488807E-01  0.89265639483E+00  0.88000000000E+00 0.  1.
        -11    1    4    4    0    0 -0.22350091748E-01  0.10327714949E+00  0.50367914101E-01  0.11705931872E+00  0.51100000000E-03 0. -1.
         11    1    4    4    0    0  0.28477940669E-02  0.59569186741E-02  0.33993134184E-02  0.74438742503E-02  0.51100000000E-03 0.  1.
</event>
<event>
 8    1  0.1094134E+005  0.1043930E+01  0.7957747E-01            NaN
         13   -1    0    0    0    0  0.00000000000E+00  0.00000000000E+00  0.74505805969E-08  0.10566000000E+00  0.10566000000E+00 0. -1.
     999900   -1    0    0    0    0 -0.00000000000E+00 -0.00000000000E+00 -0.74505805969E-08  0.93827000000E+00  0.93827000000E+00 0.  1.
     999902    2    1    2    0    0 -0.23331435389E-01 -0.29902656871E-02  0.14307461241E-02  0.10203642494E+01  0.10200920826E+01 0.  0.
     999903    2    3    3    0    0 -0.81693738616E-01  0.72029133305E-01  0.72385656037E-01  0.13240666715E+00  0.20731119887E-01 0.  0.
         14    1    1    2    0    0  0.23331435389E-01  0.29902656871E-02 -0.14307461241E-02  0.23565750585E-01  0.00000000000E+00 0.  1.
     999901    1    3    3    0    0  0.58362303228E-01 -0.75019398992E-01 -0.70954909913E-01  0.88795758227E+00  0.88000000000E+00 0. -1.
        -11    1    4    4    0    0 -0.64038058890E-01  0.66579309604E-01  0.60761536353E-01  0.11057080480E+00  0.51100000000E-03 0.  1.
         11    1    4    4    0    0 -0.17655679726E-01  0.54498237008E-02  0.11624119684E-01  0.21835862346E-01  0.51100000000E-03 0. -1.
</event>
<event>
 8    1  0.1094134E+005  0.1043930E+01  0.7957747E-01            NaN
         13   -1    0    0    0    0  0.00000000000E+00  0.00000000000E+00  0.74505805969E-08  0.10566000000E+00  0.10566000000E+00 0.  1.
     999900   -1    0    0    0    0 -0.00000000000E+00 -0.00000000000E+00 -0.74505805969E-08  0.93827000000E+00  0.93827000000E+00 0.  1.
     999902    2    1    2    0    0 -0.77865614587E-02  0.18318910691E-02 -0.23397665420E-01  0.10192027456E+01  0.10189027429E+01 0.  0.
     999903    2    3    3    0    0  0.10749357043E+00 -0.35073891191E-01  0.55009109756E-01  0.12746333971E+00  0.20877147507E-01 0.  0.
         14    1    1    2    0    0  0.77865614587E-02 -0.18318910691E-02  0.23397665420E-01  0.24727254424E-01  0.00000000000E+00 0.  1.
     999901    1    3    3    0    0 -0.11528013189E+00  0.36905782260E-01 -0.78406775177E-01  0.89173940586E+00  0.88000000000E+00 0.  1.
        -11    1    4    4    0    0  0.71790090964E-01 -0.18749539250E-01  0.45593389070E-01  0.87088349569E-01  0.51100000000E-03 0.  1.
         11    1    4    4    0    0  0.35703479465E-01 -0.16324351941E-01  0.94157206864E-02  0.40374990146E-01  0.51100000000E-03 0. -1.
</event>
<event>
 8    1  0.1094134E+005  0.1043930E+01  0.7957747E-01            NaN
         13   -1    0    0    0    0  0.00000000000E+00  0.00000000000E+00  0.74505805969E-08  0.10566000000E+00  0.10566000000E+00 0.  1.
     999900   -1    0    0    0    0 -0.00000000000E+00 -0.00000000000E+00 -0.74505805969E-08  0.93827000000E+00  0.93827000000E+00 0. -1.
     999902    2    1    2    0    0 -0.12713924544E-01 -0.56593417650E-02 -0.18937856532E-01  0.10204286290E+01  0.10201579645E+01 0.  0.
     999903    2    3    3    0    0  0.62249375424E-01 -0.22973163077E-01  0.10772971565E+00  0.12803637304E+00  0.19618109605E-01 0.  0.
         14    1    1    2    0    0  0.12713924544E-01  0.56593417650E-02  0.18937856532E-01  0.23501370950E-01  0.00000000000E+00 0.  1.
     999901    1    3    3    0    0 -0.74963299968E-01  0.17313821312E-01 -0.12666757218E+00  0.89239225601E+00  0.88000000000E+00 0. -1.
        -11    1    4    4    0    0  0.46901587733E-01 -0.13726089810E-01  0.92057771662E-01  0.10422599924E+00  0.51100000000E-03 0.  1.
         11    1    4    4    0    0  0.15347787691E-01 -0.92470732672E-02  0.15671943985E-01  0.23810373796E-01  0.51100000000E-03 0. -1.
</event>
<event>
 8    1  0.1094134E+005  0.1043930E+01  0.7957747E-01            NaN
         13   -1    0    0    0    0  0.00000000000E+00  0.00000000000E+00  0.74505805969E-08  0.10566000000E+00  0.10566000000E+00 0. -1.
     999900   -1    0    0    0    0 -0.00000000000E+00 -0.00000000000E+00 -0.74505805969E-08  0.93827000000E+00  0.93827000000E+00 0.  1.
     999902    2    1    2    0    0 -0.95135361373E-02  0.13384727995E-01  0.17240586280E-01  0.10201204194E+01  0.10198425241E+01 0.  0.
     999903    2    3    3    0    0  0.89451223863E-01 -0.39338172796E-02 -0.89259275969E-01  0.12802391318E+00  0.20147149463E-01 0.  0.
         14    1    1    2    0    0  0.95135361373E-02 -0.13384727995E-01 -0.17240586280E-01  0.23809580606E-01  0.00000000000E+00 0.  1.
     999901    1    3    3    0    0 -0.98964760001E-01  0.17318545275E-01  0.10649986225E+00  0.89209650621E+00  0.88000000000E+00 0. -1.
        -11    1    4    4    0    0  0.34928323457E-01  0.44058030636E-02 -0.45980103982E-01  0.57912260907E-01  0.51100000000E-03 0. -1.
         11    1    4    4    0    0  0.54522900406E-01 -0.83396203431E-02 -0.43279171987E-01  0.70111652277E-01  0.51100000000E-03 0.  1.
</event>
<event>
 8    1  0.1094134E+005  0.1043930E+01  0.7957747E-01            NaN
         13   -1    0    0    0    0  0.00000000000E+00  0.00000000000E+00  0.74505805969E-08  0.10566000000E+00  0.10566000000E+00 0.  1.
     999900   -1    0    0    0    0 -0.00000000000E+00 -0.00000000000E+00 -0.74505805969E-08  0.93827000000E+00  0.93827000000E+00 0. -1.
     999902    2    1    2    0    0  0.12353167993E-01  0.11777362995E-01 -0.16053989084E-01  0.10204984485E+01  0.10202294084E+01 0.  0.
     999903    2    3    3    0    0  0.64010279002E-01 -0.10515672294E+00  0.34568904022E-01  0.12982189957E+00  0.22438009850E-01 0.  0.
         14    1    1    2    0    0 -0.12353167993E-01 -0.11777362995E-01  0.16053989084E-01  0.23431551466E-01  0.00000000000E+00 0.  1.
     999901    1    3    3    0    0 -0.51657111009E-01  0.11693408593E+00 -0.50622893106E-01  0.89067654897E+00  0.88000000000E+00 0.  1.
        -11    1    4    4    0    0  0.53281372119E-01 -0.74619850853E-01  0.32875466454E-01  0.97406797359E-01  0.51100000000E-03 0. -1.
         11    1    4    4    0    0  0.10728906884E-01 -0.30536872083E-01  0.16934375676E-02  0.32415102210E-01  0.51100000000E-03 0.  1.
</event>
<event>
 8    1  0.1094134E+005  0.1043930E+01  0.7957747E-01            NaN
         13   -1    0    0    0    0  0.00000000000E+00  0.00000000000E+00  0.74505805969E-08  0.10566000000E+00  0.10566000000E+00 0.  1.
     999900   -1    0    0    0    0 -0.00000000000E+00 -0.00000000000E+00 -0.74505805969E-08  0.93827000000E+00  0.93827000000E+00 0.  1.
     999902    2    1    2    0    0 -0.10024546568E-02 -0.16922296796E-01  0.17471118490E-01  0.10195864377E+01  0.10192957838E+01 0.  0.
     999903    2    3    3    0    0  0.10978624669E+00  0.37336952115E-01 -0.51314669161E-01  0.12832346471E+00  0.19663376325E-01 0.  0.
         14    1    1    2    0    0  0.10024546568E-02  0.16922296796E-01 -0.17471118490E-01  0.24343562300E-01  0.00000000000E+00 0. -1.
     999901    1    3    3    0    0 -0.11078870135E+00 -0.54259248911E-01  0.68785787651E-01  0.89126297299E+00  0.88000000000E+00 0. -1.
        -11    1    4    4    0    0  0.31301486566E-01  0.20229812891E-01 -0.15328837212E-01  0.40302143393E-01  0.51100000000E-03 0. -1.
         11    1    4    4    0    0  0.78484760125E-01  0.17107139224E-01 -0.35985831949E-01  0.88021321317E-01  0.51100000000E-03 0.  1.
</event>
<event>
 8    1  0.1094134E+005  0.1043930E+01  0.7957747E-01            NaN
         13   -1    0    0    0    0  0.00000000000E+00  0.00000000000E+00  0.74505805969E-08  0.10566000000E+00  0.10566000000E+00 0. -1.
     999900   -1    0    0    0    0 -0.00000000000E+00 -0.00000000000E+00 -0.74505805969E-08  0.93827000000E+00  0.93827000000E+00 0. -1.
     999902    2    1    2    0    0 -0.22051255354E-01 -0.89925939558E-02 -0.20486971370E-02  0.10200276619E+01  0.10197475713E+01 0.  0.
     999903    2    3    3    0    0  0.30062445235E-01 -0.10920900138E+00  0.61618728709E-01  0.13052628062E+00  0.20245631849E-01 0.  0.
         14    1    1    2    0    0  0.22051255354E-01  0.89925939558E-02  0.20486971370E-02  0.23902338143E-01  0.00000000000E+00 0. -1.
     999901    1    3    3    0    0 -0.52113700589E-01  0.10021640743E+00 -0.63667425846E-01  0.88950138124E+00  0.88000000000E+00 0. -1.
        -11    1    4    4    0    0  0.10986792653E-01 -0.41466951470E-01  0.34692107627E-01  0.55172648383E-01  0.51100000000E-03 0.  1.
         11    1    4    4    0    0  0.19075652582E-01 -0.67742049911E-01  0.26926621082E-01  0.75353632238E-01  0.51100000000E-03 0. -1.
</event>
<event>
 8    1  0.1094134E+005  0.1043930E+01  0.7957747E-01            NaN
         13   -1    0    0    0    0  0.00000000000E+00  0.00000000000E+00  0.74505805969E-08  0.10566000000E+00  0.10566000000E+00 0. -1.
     999900   -1    0    0    0    0 -0.00000000000E+00 -0.00000000000E+00 -0.74505805969E-08  0.93827000000E+00  0.93827000000E+00 0. -1.
     999902    2    1    2    0    0  0.11985540847E-01  0.57421081546E-02 -0.21261416929E-01  0.10188566507E+01  0.10185480852E+01 0.  0.
     999903    2    3    3    0    0 -0.59118362422E-02  0.52257713390E-01 -0.11951420602E+00  0.13198708407E+00  0.19264643891E-01 0.  0.
         14    1    1    2    0    0 -0.11985540847E-01 -0.57421081546E-02  0.21261416929E-01  0.25073349303E-01  0.00000000000E+00 0. -1.
     999901    1    3    3    0    0  0.17897377090E-01 -0.46515605235E-01  0.98252789095E-01  0.88686956662E+00  0.88000000000E+00 0.  1.
        -11    1    4    4    0    0  0.32911987247E-02  0.38835786207E-01 -0.93476623144E-01  0.10127778866E+00  0.51100000000E-03 0. -1.
         11    1    4    4    0    0 -0.92030349669E-02  0.13421927182E-01 -0.26037582880E-01  0.30709295418E-01  0.51100000000E-03 0.  1.
</event>
<event>
 8    1  0.1094134E+005  0.1043930E+01  0.7957747E-01            NaN
         13   -1    0    0    0    0  0.00000000000E+00  0.00000000000E+00  0.74505805969E-08  0.10566000000E+00  0.10566000000E+00 0. -1.
     999900   -1    0    0    0    0 -0.00000000000E+00 -0.00000000000E+00 -0.74505805969E-08  0.93827000000E+00  0.93827000000E+00 0. -1.
     999902    2    1    2    0    0 -0.46641554019E-02  0.23261750917E-01  0.10350571655E-01  0.10180456855E+01  0.10177165716E+01 0.  0.
     999903    2    3    3    0    0  0.27126974041E-01 -0.59266720877E-02  0.12496907673E+00  0.12956381085E+00  0.19962784868E-01 0.  0.
         14    1    1    2    0    0  0.46641554019E-02 -0.23261750917E-01 -0.10350571655E-01  0.25884314457E-01  0.00000000000E+00 0.  1.
     999901    1    3    3    0    0 -0.31791129443E-01  0.29188423005E-01 -0.11461850508E+00  0.88848187469E+00  0.88000000000E+00 0. -1.
        -11    1    4    4    0    0  0.22839575786E-01  0.41025746394E-02  0.81082548226E-01  0.84339303344E-01  0.51100000000E-03 0.  1.
         11    1    4    4    0    0  0.42873982555E-02 -0.10029246727E-01  0.43886528508E-01  0.45224507507E-01  0.51100000000E-03 0. -1.
</event>
<event>
 8    1  0.1094134E+005  0.1043930E+01  0.7957747E-01            NaN
         13   -1    0    0    0    0  0.00000000000E+00  0.00000000000E+00  0.74505805969E-08  0.10566000000E+00  0.10566000000E+00 0.  1.
     999900   -1    0    0    0    0 -0.00000000000E+00 -0.00000000000E+00 -0.74505805969E-08  0.93827000000E+00  0.93827000000E+00 0. -1.
     999902    2    1    2    0    0 -0.19582265907E-01 -0.47064281772E-03 -0.14162089559E-01  0.10197587066E+01  0.10194722009E+01 0.  0.
     999903    2    3    3    0    0 -0.33413160063E-01  0.11470887027E+00 -0.50939503668E-01  0.13138367768E+00  0.19805896623E-01 0.  0.
         14    1    1    2    0    0  0.19582265907E-01  0.47064281772E-03  0.14162089559E-01  0.24171293375E-01  0.00000000000E+00 0.  1.
     999901    1    3    3    0    0  0.13830894155E-01 -0.11517951309E+00  0.36777414108E-01  0.88837502895E+00  0.88000000000E+00 0.  1.
        -11    1    4    4    0    0 -0.32385878705E-01  0.10625951371E+00 -0.52242548645E-01  0.12275778755E+00  0.51100000000E-03 0. -1.
         11    1    4    4    0    0 -0.10272813578E-02  0.84493565620E-02  0.13030449770E-02  0.86258901287E-02  0.51100000000E-03 0.  1.
</event>
<event>
 8    1  0.1094134E+005  0.1043930E+01  0.7957747E-01            NaN
         13   -1    0    0    0    0  0.00000000000E+00  0.00000000000E+00  0.74505805969E-08  0.10566000000E+00  0.10566000000E+00 0.  1.
     999900   -1    0    0    0    0 -0.00000000000E+00 -0.00000000000E+00 -0.74505805969E-08  0.93827000000E+00  0.93827000000E+00 0.  1.
     999902    2    1    2    0    0  0.17840554379E-01  0.10000309455E-01 -0.16021367659E-01  0.10179497038E+01  0.10176181129E+01 0.  0.
     999903    2    3    3    0    0  0.55855364667E-01 -0.10952913331E+00  0.29727226264E-01  0.12787928672E+00  0.18786995116E-01 0.  0.
         14    1    1    2    0    0 -0.17840554379E-01 -0.10000309455E-01  0.16021367659E-01  0.25980296215E-01  0.00000000000E+00 0. -1.
     999901    1    3    3    0    0 -0.38014810288E-01  0.11952944276E+00 -0.45748593923E-01  0.89007041707E+00  0.88000000000E+00 0.  1.
        -11    1    4    4    0    0  0.16770088882E-01 -0.49779902442E-01  0.17959766765E-01  0.55516564299E-01  0.51100000000E-03 0.  1.
         11    1    4    4    0    0  0.39085275785E-01 -0.59749230865E-01  0.11767459500E-01  0.72362722422E-01  0.51100000000E-03 0. -1.
</event>
<event>
 8    1  0.1094134E+005  0.1043930E+01  0.7957747E-01            NaN
         13   -1    0    0    0    0  0.00000000000E+00  0.00000000000E+00  0.74505805969E-08  0.10566000000E+00  0.10566000000E+00 0. -1.
     999900   -1    0    0    0    0 -0.00000000000E+00 -0.00000000000E+00 -0.74505805969E-08  0.93827000000E+00  0.93827000000E+00 0. -1.
     999902    2    1    2    0    0  0.19116237787E-01  0.44093450862E-02  0.13998043476E-01  0.10198298321E+01  0.10195450301E+01 0.  0.
     999903    2    3    3    0    0  0.68814050225E-02 -0.42478420060E-01 -0.11931492838E+00  0.12847103672E+00  0.20420216345E-01 0.  0.
         14    1    1    2    0    0 -0.19116237787E-01 -0.44093450862E-02 -0.13998043476E-01  0.24100167891E-01  0.00000000000E+00 0.  1.
     999901    1    3    3    0    0  0.12234832765E-01  0.46887765146E-01  0.13331297186E+00  0.89135879539E+00  0.88000000000E+00 0.  1.
        -11    1    4    4    0    0  0.11653027539E-01 -0.19224189214E-01 -0.42667809545E-01  0.48230338938E-01  0.51100000000E-03 0.  1.
         11    1    4    4    0    0 -0.47716225164E-02 -0.23254230846E-01 -0.76647118835E-01  0.80240697781E-01  0.51100000000E-03 0. -1.
</event>
<event>
 8    1  0.1523875E+005  0.1043930E+01  0.7957747E-01            NaN
         13   -1    0    0    0    0  0.00000000000E+00  0.00000000000E+00  0.74505805969E-08  0.10566000000E+00  0.10566000000E+00 0. -1.
     999900   -1    0    0    0    0 -0.00000000000E+00 -0.00000000000E+00 -0.74505805969E-08  0.93827000000E+00  0.93827000000E+00 0. -1.
     999902    2    1    2    0    0 -0.15907171000E-02  0.13964591735E-01 -0.18867299276E-01  0.10204030966E+01  0.10201318367E+01 0.  0.
     999903    2    3    3    0    0 -0.47648623369E-01 -0.11401109740E+00 -0.38922886853E-01  0.12972844534E+00  0.67495756245E-02 0.  0.
         14    1    1    2    0    0  0.15907171000E-02 -0.13964591735E-01  0.18867299276E-01  0.23526903434E-01  0.00000000000E+00 0. -1.
     999901    1    3    3    0    0  0.46057906269E-01  0.12797568913E+00  0.20055587577E-01  0.89067465122E+00  0.88000000000E+00 0. -1.
        -11    1    4    4    0    0 -0.21036150918E-01 -0.51400561547E-01 -0.14047755725E-01  0.57289946192E-01  0.51100000000E-03 0.  1.
         11    1    4    4    0    0 -0.26612472451E-01 -0.62610535852E-01 -0.24875131127E-01  0.72438499151E-01  0.51100000000E-03 0. -1.
</event>
<event>
 8    1  0.1094134E+005  0.1043930E+01  0.7957747E-01            NaN
         13   -1    0    0    0    0  0.00000000000E+00  0.00000000000E+00  0.74505805969E-08  0.10566000000E+00  0.10566000000E+00 0.  1.
     999900   -1    0    0    0    0 -0.00000000000E+00 -0.00000000000E+00 -0.74505805969E-08  0.93827000000E+00  0.93827000000E+00 0.  1.
     999902    2    1    2    0    0 -0.14603365083E-01  0.88605419557E-02 -0.19441128607E-01  0.10180509553E+01  0.10177219770E+01 0.  0.
     999903    2    3    3    0    0 -0.12392643969E+00 -0.20356187776E-01 -0.30578826110E-01  0.13073522777E+00  0.19608629139E-01 0.  0.
         14    1    1    2    0    0  0.14603365083E-01 -0.88605419557E-02  0.19441128607E-01  0.25879044747E-01  0.00000000000E+00 0.  1.
     999901    1    3    3    0    0  0.10932307461E+00  0.29216729732E-01  0.11137697503E-01  0.88731572749E+00  0.88000000000E+00 0.  1.
        -11    1    4    4    0    0 -0.76123434531E-01 -0.31042058312E-02 -0.15837204680E-01  0.77817038955E-01  0.51100000000E-03 0. -1.
         11    1    4    4    0    0 -0.47803005164E-01 -0.17251981945E-01 -0.14741621431E-01  0.52918188812E-01  0.51100000000E-03 0.  1.
</event>
<event>
 8    1  0.1094134E+005  0.1043930E+01  0.7957747E-01            NaN
         13   -1    0    0    0    0  0.00000000000E+00  0.00000000000E+00  0.74505805969E-08  0.10566000000E+00  0.10566000000E+00 0.  1.
     999900   -1    0    0    0    0 -0.00000000000E+00 -0.00000000000E+00 -0.74505805969E-08  0.93827000000E+00  0.93827000000E+00 0. -1.
     999902    2    1    2    0    0 -0.23368756508E-01 -0.32439595369E-02 -0.23601989194E-02  0.10202193991E+01  0.10199438366E+01 0.  0.
     999903    2    3    3    0    0  0.72646062074E-01 -0.89757355040E-01  0.53919071421E-01  0.12900070025E+00  0.20002031953E-01 0.  0.
         14    1    1    2    0    0  0.23368756508E-01  0.32439595369E-02  0.23601989194E-02  0.23710600860E-01  0.00000000000E+00 0.  1.
     999901    1    3    3    0    0 -0.96014818582E-01  0.86513395504E-01 -0.56279270340E-01  0.89121869889E+00  0.88000000000E+00 0. -1.
        -11    1    4    4    0    0  0.71056218639E-02 -0.20336435457E-01  0.12679024605E-01  0.25001585051E-01  0.51100000000E-03 0. -1.
         11    1    4    4    0    0  0.65540440210E-01 -0.69420919584E-01  0.41240046816E-01  0.10399911519E+00  0.51100000000E-03 0.  1.
</event>
<event>
 8    1  0.1094134E+005  0.1043930E+01  0.7957747E-01            NaN
         13   -1    0    0    0    0  0.00000000000E+00  0.00000000000E+00  0.74505805969E-08  0.10566000000E+00  0.10566000000E+00 0.  1.
     999900   -1    0    0    0    0 -0.00000000000E+00 -0.00000000000E+00 -0.74505805969E-08  0.93827000000E+00  0.93827000000E+00 0. -1.
     999902    2    1    2    0    0 -0.58031225731E-03 -0.10463889014E-01 -0.20028625033E-01  0.10213252316E+01  0.10210750477E+01 0.  0.
     999903    2    3    3    0    0  0.12847598552E+00 -0.57973292186E-02 -0.21196336858E-01  0.13189919847E+00  0.20209551692E-01 0.  0.
         14    1    1    2    0    0  0.58031225731E-03  0.10463889014E-01  0.20028625033E-01  0.22604768442E-01  0.00000000000E+00 0.  1.
     999901    1    3    3    0    0 -0.12905629778E+00 -0.46665597956E-02  0.11677118251E-02  0.88942603308E+00  0.88000000000E+00 0.  1.
        -11    1    4    4    0    0  0.62751448287E-01 -0.94647563859E-02 -0.18116438332E-01  0.65998426757E-01  0.51100000000E-03 0. -1.
         11    1    4    4    0    0  0.65724537236E-01  0.36674271673E-02 -0.30798985260E-02  0.65900771717E-01  0.51100000000E-03 0.  1.
</event>
<event>
 8    1  0.1094134E+005  0.1043930E+01  0.7957747E-01            NaN
         13   -1    0    0    0    0  0.00000000000E+00  0.00000000000E+00  0.74505805969E-08  0.10566000000E+00  0.10566000000E+00 0. -1.
     999900   -1    0    0    0    0 -0.00000000000E+00 -0.00000000000E+00 -0.74505805969E-08  0.93827000000E+00  0.93827000000E+00 0.  1.
     999902    2    1    2    0    0 -0.16085664449E-01  0.60278924963E-02 -0.15969234395E-01  0.10204757779E+01  0.10202062109E+01 0.  0.
     999903    2    3    3    0    0  0.70370972975E-01  0.60603453618E-01 -0.90841708378E-01  0.13139809319E+00  0.19707625062E-01 0.  0.
         14    1    1    2    0    0  0.16085664449E-01 -0.60278924963E-02  0.15969234395E-01  0.23454222133E-01  0.00000000000E+00 0. -1.
     999901    1    3    3    0    0 -0.86456637424E-01 -0.54575561122E-01  0.74872473983E-01  0.88907768467E+00  0.88000000000E+00 0. -1.
        -11    1    4    4    0    0  0.34808799293E-01  0.20155880308E-01 -0.30269363793E-01  0.50342899446E-01  0.51100000000E-03 0. -1.
         11    1    4    4    0    0  0.35562173682E-01  0.40447573310E-01 -0.60572344585E-01  0.81055193746E-01  0.51100000000E-03 0.  1.
</event>
<event>
 8    1  0.1094134E+005  0.1043930E+01  0.7957747E-01            NaN
         13   -1    0    0    0    0  0.00000000000E+00  0.00000000000E+00  0.74505805969E-08  0.10566000000E+00  0.10566000000E+00 0.  1.
     999900   -1    0    0    0    0 -0.00000000000E+00 -0.00000000000E+00 -0.74505805969E-08  0.93827000000E+00  0.93827000000E+00 0.  1.
     999902    2    1    2    0    0  0.21242791388E-01 -0.91596350699E-02 -0.14021204066E-02  0.10207541280E+01  0.10204909940E+01 0.  0.
     999903    2    3    3    0    0 -0.10322687119E+00  0.25022160161E-01  0.69705147429E-01  0.12850005234E+00  0.19275903054E-01 0.  0.
         14    1    1    2    0    0 -0.21242791388E-01  0.91596350699E-02  0.14021204066E-02  0.23175871984E-01  0.00000000000E+00 0. -1.
     999901    1    3    3    0    0  0.12446966257E+00 -0.34181795231E-01 -0.71107267835E-01  0.89225407568E+00  0.88000000000E+00 0. -1.
        -11    1    4    4    0    0 -0.68659506935E-01  0.19331840201E-01  0.56725891898E-01  0.91136907293E-01  0.51100000000E-03 0.  1.
         11    1    4    4    0    0 -0.34567364251E-01  0.56903199598E-02  0.12979255530E-01  0.37363145045E-01  0.51100000000E-03 0. -1.
</event>
<event>
 8    1  0.1094134E+005  0.1043930E+01  0.7957747E-01            NaN
         13   -1    0    0    0    0  0.00000000000E+00  0.00000000000E+00  0.74505805969E-08  0.10566000000E+00  0.10566000000E+00 0.  1.
     999900   -1    0    0    0    0 -0.00000000000E+00 -0.00000000000E+00 -0.74505805969E-08  0.93827000000E+00  0.93827000000E+00 0. -1.
     999902    2    1    2    0    0 -0.16952651114E-01 -0.89825761334E-02  0.15174864129E-01  0.10194686927E+01  0.10191751860E+01 0.  0.
     999903    2    3    3    0    0  0.93820291583E-01  0.79432956219E-01 -0.25658585656E-01  0.12719333059E+00  0.20197491985E-01 0.  0.
         14    1    1    2    0    0  0.16952651114E-01  0.89825761334E-02 -0.15174864129E-01  0.24461307306E-01  0.00000000000E+00 0. -1.
     999901    1    3    3    0    0 -0.11077294270E+00 -0.88415532352E-01  0.40833449785E-01  0.89227536210E+00  0.88000000000E+00 0.  1.
        -11    1    4    4    0    0  0.12237974168E-01  0.55612521921E-02 -0.82110935931E-02  0.15760035428E-01  0.51100000000E-03 0. -1.
         11    1    4    4    0    0  0.81582317415E-01  0.73871704027E-01 -0.17447492063E-01  0.11143329516E+00  0.51100000000E-03 0.  1.
</event>
<event>
 8    1  0.1094134E+005  0.1043930E+01  0.7957747E-01            NaN
         13   -1    0    0    0    0  0.00000000000E+00  0.00000000000E+00  0.74505805969E-08  0.10566000000E+00  0.10566000000E+00 0. -1.
     999900   -1    0    0    0    0 -0.00000000000E+00 -0.00000000000E+00 -0.74505805969E-08  0.93827000000E+00  0.93827000000E+00 0. -1.
     999902    2    1    2    0    0  0.21849237882E-01 -0.17883201947E-02 -0.64420534381E-02  0.10210807694E+01  0.10208250831E+01 0.  0.
     999903    2    3    3    0    0  0.59245891614E-01 -0.10752465334E-01 -0.11733546531E+00  0.13328788007E+00  0.19296537735E-01 0.  0.
         14    1    1    2    0    0 -0.21849237882E-01  0.17883201947E-02  0.64420534381E-02  0.22849230570E-01  0.00000000000E+00 0. -1.
     999901    1    3    3    0    0 -0.37396653731E-01  0.89641451392E-02  0.11089341187E+00  0.88779288936E+00  0.88000000000E+00 0.  1.
        -11    1    4    4    0    0  0.18728797381E-01  0.11502127404E-02 -0.53944863927E-01  0.57117425587E-01  0.51100000000E-03 0. -1.
         11    1    4    4    0    0  0.40517094233E-01 -0.11902678074E-01 -0.63390601385E-01  0.76170454478E-01  0.51100000000E-03 0.  1.
</event>
<event>
 8    1  0.1094134E+005  0.1043930E+01  0.7957747E-01            NaN
         13   -1    0    0    0    0  0.00000000000E+00  0.00000000000E+00  0.74505805969E-08  0.10566000000E+00  0.10566000000E+00 0.  1.
     999900   -1    0    0    0    0 -0.00000000000E+00 -0.00000000000E+00 -0.74505805969E-08  0.93827000000E+00  0.93827000000E+00 0.  1.
     999902    2    1    2    0    0  0.32245916702E-02 -0.62098244030E-04 -0.23322353140E-01  0.10203857013E+01  0.10201140354E+01 0.  0.
     999903    2    3    3    0    0 -0.11013400362E+00  0.18701681763E-01  0.60956098695E-01  0.12892335880E+00  0.20647876920E-01 0.  0.
         14    1    1    2    0    0 -0.32245916702E-02  0.62098244030E-04  0.23322353140E-01  0.23544298749E-01  0.00000000000E+00 0.  1.
     999901    1    3    3    0    0  0.11335859529E+00 -0.18763780007E-01 -0.84278451835E-01  0.89146234245E+00  0.88000000000E+00 0. -1.
        -11    1    4    4    0    0 -0.48077724323E-01  0.15057984388E-01  0.18632063967E-01  0.53718017449E-01  0.51100000000E-03 0. -1.
         11    1    4    4    0    0 -0.62056279298E-01  0.36436973746E-02  0.42324034728E-01  0.75205341350E-01  0.51100000000E-03 0.  1.
</event>
<event>
 8    1  0.1094134E+005  0.1043930E+01  0.7957747E-01            NaN
         13   -1    0    0    0    0  0.00000000000E+00  0.00000000000E+00  0.74505805969E-08  0.10566000000E+00  0.10566000000E+00 0. -1.
     999900   -1    0    0    0    0 -0.00000000000E+00 -0.00000000000E+00 -0.74505805969E-08  0.93827000000E+00  0.93827000000E+00 0.  1.
     999902    2    1    2    0    0  0.17619730273E-01 -0.17490964147E-01  0.83681394713E-02  0.10177304870E+01  0.10173932031E+01 0.  0.
     999903    2    3    3    0    0  0.12791329919E+00 -0.18137727448E-01  0.18905251530E-02  0.13082178308E+00  0.20493305670E-01 0.  0.
         14    1    1    2    0    0 -0.17619730273E-01  0.17490964147E-01 -0.83681394713E-02  0.26199512971E-01  0.00000000000E+00 0.  1.
     999901    1    3    3    0    0 -0.11029356892E+00  0.64676330109E-03  0.64776143183E-02  0.88690870395E+00  0.88000000000E+00 0.  1.
        -11    1    4    4    0    0  0.33329204797E-01 -0.91152000726E-02  0.84686463598E-02  0.35579514569E-01  0.51100000000E-03 0. -1.
         11    1    4    4    0    0  0.94584094393E-01 -0.90225273750E-02 -0.65781212068E-02  0.95242268515E-01  0.51100000000E-03 0.  1.
</event>
<event>
 8    1  0.1094134E+005  0.1043930E+01  0.7957747E-01            NaN
         13   -1    0    0    0    0  0.00000000000E+00  0.00000000000E+00  0.74505805969E-08  0.10566000000E+00  0.10566000000E+00 0. -1.
     999900   -1    0    0    0    0 -0.00000000000E+00 -0.00000000000E+00 -0.74505805969E-08  0.93827000000E+00  0.93827000000E+00 0. -1.
     999902    2    1    2    0    0 -0.76952066412E-02  0.13363812400E-01 -0.18089086005E-01  0.10201597934E+01  0.10198828273E+01 0.  0.
     999903    2    3    3    0    0 -0.82232751675E-01  0.14396128142E-01  0.97075474436E-01  0.12953092165E+00  0.19624932432E-01 0.  0.
         14    1    1    2    0    0  0.76952066412E-02 -0.13363812400E-01  0.18089086005E-01  0.23770206554E-01  0.00000000000E+00 0. -1.
     999901    1    3    3    0    0  0.74537545034E-01 -0.10323157418E-02 -0.11516456044E+00  0.89062887180E+00  0.88000000000E+00 0. -1.
        -11    1    4    4    0    0 -0.34356727682E-01  0.20254761460E-02  0.53522926727E-01  0.63635305429E-01  0.51100000000E-03 0. -1.
         11    1    4    4    0    0 -0.47876023993E-01  0.12370651996E-01  0.43552547710E-01  0.65895616221E-01  0.51100000000E-03 0.  1.
</event>
<event>
 8    1  0.1094134E+005  0.1043930E+01  0.7957747E-01            NaN
         13   -1    0    0    0    0  0.00000000000E+00  0.00000000000E+00  0.74505805969E-08  0.10566000000E+00  0.10566000000E+00 0.  1.
     999900   -1    0    0    0    0 -0.00000000000E+00 -0.00000000000E+00 -0.74505805969E-08  0.93827000000E+00  0.93827000000E+00 0. -1.
     999902    2    1    2    0    0  0.61064838769E-02  0.12857780964E-01  0.18917878216E-01  0.10202551654E+01  0.10199804433E+01 0.  0.
     999903    2    3    3    0    0 -0.10617830548E+00 -0.70060104692E-01  0.20292583686E-03  0.12905737641E+00  0.21760386064E-01 0.  0.
         14    1    1    2    0    0 -0.61064838769E-02 -0.12857780964E-01 -0.18917878216E-01  0.23674834590E-01  0.00000000000E+00 0. -1.
     999901    1    3    3    0    0  0.11228478936E+00  0.82917885656E-01  0.18714952379E-01  0.89119778900E+00  0.88000000000E+00 0.  1.
        -11    1    4    4    0    0 -0.73174052637E-01 -0.58418951117E-01  0.47899782483E-02  0.93757244209E-01  0.51100000000E-03 0.  1.
         11    1    4    4    0    0 -0.33004252844E-01 -0.11641153575E-01 -0.45870524114E-02  0.35300132198E-01  0.51100000000E-03 0. -1.
</event>
<event>
 8    1  0.1094134E+005  0.1043930E+01  0.7957747E-01            NaN
         13   -1    0    0    0    0  0.00000000000E+00  0.00000000000E+00  0.74505805969E-08  0.10566000000E+00  0.10566000000E+00 0.  1.
     999900   -1    0    0    0    0 -0.00000000000E+00 -0.00000000000E+00 -0.74505805969E-08  0.93827000000E+00  0.93827000000E+00 0. -1.
     999902    2    1    2    0    0  0.12835863186E-01 -0.93605906533E-02 -0.18247330043E-01  0.10197360938E+01  0.10194490453E+01 0.  0.
     999903    2    3    3    0    0  0.58505072126E-01 -0.23959061326E-01  0.11088269294E+00  0.12902101324E+00  0.18830033961E-01 0.  0.
         14    1    1    2    0    0 -0.12835863186E-01  0.93605906533E-02  0.18247330043E-01  0.24193906151E-01  0.00000000000E+00 0. -1.
     999901    1    3    3    0    0 -0.45669208940E-01  0.14598470673E-01 -0.12913002299E+00  0.89071508061E+00  0.88000000000E+00 0. -1.
        -11    1    4    4    0    0 -0.99316026119E-03 -0.99581655750E-03  0.67143065362E-02  0.68790298140E-02  0.51100000000E-03 0. -1.
         11    1    4    4    0    0  0.59498232388E-01 -0.22963244769E-01  0.10416838641E+00  0.12214198342E+00  0.51100000000E-03 0.  1.
</event>
<event>
 8    1  0.1094134E+005  0.1043930E+01  0.7957747E-01            NaN
         13   -1    0    0    0    0  0.00000000000E+00  0.00000000000E+00  0.74505805969E-08  0.10566000000E+00  0.10566000000E+00 0.  1.
     999900   -1    0    0    0    0 -0.00000000000E+00 -0.00000000000E+00 -0.74505805969E-08  0.93827000000E+00  0.93827000000E+00 0. -1.
     999902    2    1    2    0    0  0.76501562569E-03  0.46114905874E-02  0.23405002527E-01  0.10200627581E+01  0.10197834992E+01 0.  0.
     999903    2    3    3    0    0 -0.24450076041E-01 -0.45109838692E-01 -0.11405942704E+00  0.12764778686E+00  0.25528431785E-01 0.  0.
         14    1    1    2    0    0 -0.76501562569E-03 -0.46114905874E-02 -0.23405002527E-01  0.23867241936E-01  0.00000000000E+00 0. -1.
     999901    1    3    3    0    0  0.25215091667E-01  0.49721329280E-01  0.13746442956E+00  0.89241497120E+00  0.88000000000E+00 0.  1.
        -11    1    4    4    0    0 -0.20759477481E-01 -0.46085869127E-01 -0.89498467564E-01  0.10278667256E+00  0.51100000000E-03 0. -1.
         11    1    4    4    0    0 -0.36905985596E-02  0.97603043418E-03 -0.24560959472E-01  0.24861114302E-01  0.51100000000E-03 0.  1.
</event>
<event>
 8    1  0.1094134E+005  0.1043930E+01  0.7957747E-01            NaN
         13   -1    0    0    0    0  0.00000000000E+00  0.00000000000E+00  0.74505805969E-08  0.10566000000E+00  0.10566000000E+00 0. -1.
     999900   -1    0    0    0    0 -0.00000000000E+00 -0.00000000000E+00 -0.74505805969E-08  0.93827000000E+00  0.93827000000E+00 0. -1.
     999902    2    1    2    0    0  0.11111582684E-02  0.23326279475E-01 -0.35978540063E-02  0.10203017428E+01  0.10200281132E+01 0.  0.
     999903    2    3    3    0    0  0.11889828295E+00  0.52842501229E-01 -0.92324215959E-02  0.13194552905E+00  0.19880980942E-01 0.  0.
         14    1    1    2    0    0 -0.11111582684E-02 -0.23326279475E-01  0.35978540063E-02  0.23628257242E-01  0.00000000000E+00 0. -1.
     999901    1    3    3    0    0 -0.11778712468E+00 -0.29516221754E-01  0.56345675897E-02  0.88835621371E+00  0.88000000000E+00 0.  1.
        -11    1    4    4    0    0  0.56612065903E-01  0.15580912050E-01 -0.87037595413E-02  0.59360823590E-01  0.51100000000E-03 0. -1.
         11    1    4    4    0    0  0.62286217044E-01  0.37261589179E-01 -0.52866205459E-03  0.72584705457E-01  0.51100000000E-03 0.  1.
</event>
<event>
 8    1  0.1094134E+005  0.1043930E+01  0.7957747E-01            NaN
         13   -1    0    0    0    0  0.00000000000E+00  0.00000000000E+00  0.74505805969E-08  0.10566000000E+00  0.10566000000E+00 0.  1.
     999900   -1    0    0    0    0 -0.00000000000E+00 -0.00000000000E+00 -0.74505805969E-08  0.93827000000E+00  0.93827000000E+00 0. -1.
     999902    2    1    2    0    0 -0.24554626225E-02 -0.15059054716E-01  0.18948997321E-01  0.10196016436E+01  0.10193113571E+01 0.  0.
     999903    2    3    3    0    0  0.11760137217E+00  0.16149788783E-01  0.50015996898E-01  0.13035882302E+00  0.20023096138E-01 0.  0.
         14    1    1    2    0    0  0.24554626225E-02  0.15059054716E-01 -0.18948997321E-01  0.24328356400E-01  0.00000000000E+00 0. -1.
     999901    1    3    3    0    0 -0.12005683479E+00 -0.31208843499E-01 -0.31066999577E-01  0.88924282058E+00  0.88000000000E+00 0.  1.
        -11    1    4    4    0    0  0.10123550847E+00  0.18022572899E-01  0.48835838883E-01  0.11383602940E+00  0.51100000000E-03 0. -1.
         11    1    4    4    0    0  0.16365863705E-01 -0.18727841162E-02  0.11801580145E-02  0.16522793622E-01  0.51100000000E-03 0.  1.
</event>
<event>
 8    1  0.1094134E+005  0.1043930E+01  0.7957747E-01            NaN
         13   -1    0    0    0    0  0.00000000000E+00  0.00000000000E+00  0.74505805969E-08  0.10566000000E+00  0.10566000000E+00 0.  1.
     999900   -1    0    0    0    0 -0.00000000000E+00 -0.00000000000E+00 -0.74505805969E-08  0.93827000000E+00  0.93827000000E+00 0. -1.
     999902    2    1    2    0    0  0.15952100668E-01 -0.14221552853E-01  0.10338861675E-01  0.10201894410E+01  0.10199131734E+01 0.  0.
     999903    2    3    3    0    0 -0.12402029009E+00 -0.27472075046E-01 -0.84683950473E-02  0.12883005252E+00  0.19741364124E-01 0.  0.
         14    1    1    2    0    0 -0.15952100668E-01  0.14221552853E-01 -0.10338861675E-01  0.23740559008E-01  0.00000000000E+00 0. -1.
     999901    1    3    3    0    0  0.13997239075E+00  0.13250522193E-01  0.18807256722E-01  0.89135938847E+00  0.88000000000E+00 0.  1.
        -11    1    4    4    0    0 -0.14812900102E-01 -0.97121525082E-02 -0.35835526222E-02  0.18079017843E-01  0.51100000000E-03 0.  1.
         11    1    4    4    0    0 -0.10920738998E+00 -0.17759922538E-01 -0.48848424251E-02  0.11075103468E+00  0.51100000000E-03 0. -1.
</event>
<event>
 8    1  0.1094134E+005  0.1043930E+01  0.7957747E-01            NaN
         13   -1    0    0    0    0  0.00000000000E+00  0.00000000000E+00  0.74505805969E-08  0.10566000000E+00  0.10566000000E+00 0. -1.
     999900   -1    0    0    0    0 -0.00000000000E+00 -0.00000000000E+00 -0.74505805969E-08  0.93827000000E+00  0.93827000000E+00 0.  1.
     999902    2    1    2    0    0 -0.11667261872E-01 -0.12414633351E-01 -0.16489509992E-01  0.10202202539E+01  0.10199447114E+01 0.  0.
     999903    2    3    3    0    0 -0.10831868044E+00 -0.58463379803E-02  0.70076939317E-01  0.13068195266E+00  0.19996977945E-01 0.  0.
         14    1    1    2    0    0  0.11667261872E-01  0.12414633351E-01  0.16489509992E-01  0.23709746110E-01  0.00000000000E+00 0. -1.
     999901    1    3    3    0    0  0.96651418564E-01 -0.65682953711E-02 -0.86566449310E-01  0.88953830123E+00  0.88000000000E+00 0.  1.
        -11    1    4    4    0    0 -0.55206377960E-01 -0.12770086832E-01  0.33638012894E-01  0.65898378717E-01  0.51100000000E-03 0.  1.
         11    1    4    4    0    0 -0.53112302476E-01  0.69237488515E-02  0.36438926423E-01  0.64783573939E-01  0.51100000000E-03 0. -1.
</event>
<event>
 8    1  0.1094134E+005  0.1043930E+01  0.7957747E-01            NaN
         13   -1    0    0    0    0  0.00000000000E+00  0.00000000000E+00  0.74505805969E-08  0.10566000000E+00  0.10566000000E+00 0.  1.
     999900   -1    0    0    0    0 -0.00000000000E+00 -0.00000000000E+00 -0.74505805969E-08  0.93827000000E+00  0.93827000000E+00 0. -1.
     999902    2    1    2    0    0 -0.40301731739E-02 -0.22880986060E-01  0.55612064859E-02  0.10200404869E+01  0.10197607004E+01 0.  0.
     999903    2    3    3    0    0 -0.42923366754E-01  0.11887800017E+00  0.43204325346E-02  0.12784665694E+00  0.18753858717E-01 0.  0.
         14    1    1    2    0    0  0.40301731739E-02  0.22880986060E-01 -0.55612064859E-02  0.23889513107E-01  0.00000000000E+00 0. -1.
     999901    1    3    3    0    0  0.38893193580E-01 -0.14175898623E+00  0.12407739513E-02  0.89219382995E+00  0.88000000000E+00 0.  1.
        -11    1    4    4    0    0 -0.11196764325E-01  0.45891757281E-01  0.91349831091E-02  0.48115797355E-01  0.51100000000E-03 0. -1.
         11    1    4    4    0    0 -0.31726602429E-01  0.72986242886E-01 -0.48145505745E-02  0.79730859588E-01  0.51100000000E-03 0.  1.
</event>
<event>
 8    1  0.1094134E+005  0.1043930E+01  0.7957747E-01            NaN
         13   -1    0    0    0    0  0.00000000000E+00  0.00000000000E+00  0.74505805969E-08  0.10566000000E+00  0.10566000000E+00 0.  1.
     999900   -1    0    0    0    0 -0.00000000000E+00 -0.00000000000E+00 -0.74505805969E-08  0.93827000000E+00  0.93827000000E+00 0.  1.
     999902    2    1    2    0    0 -0.18022559578E-01 -0.17367890958E-02 -0.15337431682E-01  0.10202009903E+01  0.10199249947E+01 0.  0.
     999903    2    3    3    0    0 -0.84107916077E-01 -0.86236849100E-01 -0.52207197478E-01  0.13292036159E+00  0.20767651921E-01 0.  0.
         14    1    1    2    0    0  0.18022559578E-01  0.17367890958E-02  0.15337431682E-01  0.23729009686E-01  0.00000000000E+00 0.  1.
     999901    1    3    3    0    0  0.66085356500E-01  0.84500060005E-01  0.36869765797E-01  0.88728062873E+00  0.88000000000E+00 0. -1.
        -11    1    4    4    0    0 -0.48454036030E-01 -0.35217988616E-01 -0.23041385235E-01  0.64181515130E-01  0.51100000000E-03 0. -1.
         11    1    4    4    0    0 -0.35653880047E-01 -0.51018860484E-01 -0.29165812243E-01  0.68738846457E-01  0.51100000000E-03 0.  1.
</event>
<event>
 8    1  0.1094134E+005  0.1043930E+01  0.7957747E-01            NaN
         13   -1    0    0    0    0  0.00000000000E+00  0.00000000000E+00  0.74505805969E-08  0.10566000000E+00  0.10566000000E+00 0. -1.
     999900   -1    0    0    0    0 -0.00000000000E+00 -0.00000000000E+00 -0.74505805969E-08  0.93827000000E+00  0.93827000000E+00 0. -1.
     999902    2    1    2    0    0  0.14975153225E-01  0.16916392005E-01 -0.52817072799E-02  0.10207283629E+01  0.10204646367E+01 0.  0.
     999903    2    3    3    0    0  0.61645804270E-02  0.12856946540E+00 -0.28724524058E-01  0.13332000106E+00  0.19519603374E-01 0.  0.
         14    1    1    2    0    0 -0.14975153225E-01 -0.16916392005E-01  0.52817072799E-02  0.23201637105E-01  0.00000000000E+00 0.  1.
     999901    1    3    3    0    0  0.88105727979E-02 -0.11165307339E+00  0.23442816778E-01  0.88740836183E+00  0.88000000000E+00 0. -1.
        -11    1    4    4    0    0 -0.69510818326E-02  0.33505751383E-01 -0.76598220983E-02  0.35069743511E-01  0.51100000000E-03 0. -1.
         11    1    4    4    0    0  0.13115662260E-01  0.95063714017E-01 -0.21064701960E-01  0.98250257551E-01  0.51100000000E-03 0.  1.
</event>
<event>
 8    1  0.1094134E+005  0.1043930E+01  0.7957747E-01            NaN
         13   -1    0    0    0    0  0.00000000000E+00  0.00000000000E+00  0.74505805969E-08  0.10566000000E+00  0.10566000000E+00 0.  1.
     999900   -1    0    0    0    0 -0.00000000000E+00 -0.00000000000E+00 -0.74505805969E-08  0.93827000000E+00  0.93827000000E+00 0. -1.
     999902    2    1    2    0    0 -0.15288055702E-01  0.35432163376E-02  0.17192881048E-01  0.10206518087E+01  0.10203863193E+01 0.  0.
     999903    2    3    3    0    0  0.79706955302E-01 -0.56492644941E-01  0.82100260980E-01  0.13113434140E+00  0.30185178232E-01 0.  0.
         14    1    1    2    0    0  0.15288055702E-01 -0.35432163376E-02 -0.17192881048E-01  0.23278191250E-01  0.00000000000E+00 0. -1.
     999901    1    3    3    0    0 -0.94995011004E-01  0.60035861279E-01 -0.64907379932E-01  0.88951746735E+00  0.88000000000E+00 0. -1.
        -11    1    4    4    0    0  0.61146527967E-01 -0.30459440852E-01  0.67307409058E-01  0.95902157716E-01  0.51100000000E-03 0.  1.
         11    1    4    4    0    0  0.18560427335E-01 -0.26033204089E-01  0.14792851921E-01  0.35232183681E-01  0.51100000000E-03 0. -1.
</event>
<event>
 8    1  0.1094134E+005  0.1043930E+01  0.7957747E-01            NaN
         13   -1    0    0    0    0  0.00000000000E+00  0.00000000000E+00  0.74505805969E-08  0.10566000000E+00  0.10566000000E+00 0.  1.
     999900   -1    0    0    0    0 -0.00000000000E+00 -0.00000000000E+00 -0.74505805969E-08  0.93827000000E+00  0.93827000000E+00 0.  1.
     999902    2    1    2    0    0 -0.21504369350E-01 -0.69121701139E-03  0.73750623689E-02  0.10211856111E+01  0.10209322921E+01 0.  0.
     999903    2    3    3    0    0 -0.12263344663E+00 -0.26408940152E-01  0.43551827034E-01  0.13428243156E+00  0.19965355855E-01 0.  0.
         14    1    1    2    0    0  0.21504369350E-01  0.69121701139E-03 -0.73750623689E-02  0.22744388913E-01  0.00000000000E+00 0. -1.
     999901    1    3    3    0    0  0.10112907728E+00  0.25717723141E-01 -0.36176764666E-01  0.88690317953E+00  0.88000000000E+00 0.  1.
        -11    1    4    4    0    0 -0.64737007517E-01 -0.22545773737E-01  0.29161431632E-01  0.74497263517E-01  0.51100000000E-03 0.  1.
         11    1    4    4    0    0 -0.57896439115E-01 -0.38631664154E-02  0.14390395403E-01  0.59785168042E-01  0.51100000000E-03 0. -1.
</event>
<event>
 8    1  0.1094134E+005  0.1043930E+01  0.7957747E-01            NaN
         13   -1    0    0    0    0  0.00000000000E+00  0.00000000000E+00  0.74505805969E-08  0.10566000000E+00  0.10566000000E+00 0. -1.
     999900   -1    0    0    0    0 -0.00000000000E+00 -0.00000000000E+00 -0.74505805969E-08  0.93827000000E+00  0.93827000000E+00 0.  1.
     999902    2    1    2    0    0  0.12611295352E-01  0.14303513254E-01  0.14314713492E-01  0.10200857914E+01  0.10198070776E+01 0.  0.
     999903    2    3    3    0    0  0.21042843776E-01 -0.12542415217E+00  0.92306861656E-02  0.12900736677E+00  0.19587646362E-01 0.  0.
         14    1    1    2    0    0 -0.12611295352E-01 -0.14303513254E-01 -0.14314713492E-01  0.23844208610E-01  0.00000000000E+00 0.  1.
     999901    1    3    3    0    0 -0.84315484233E-02  0.13972766543E+00  0.50840273268E-02  0.89107842462E+00  0.88000000000E+00 0. -1.
        -11    1    4    4    0    0  0.11983893591E-01 -0.46497774253E-01 -0.50609638726E-02  0.48285931620E-01  0.51100000000E-03 0.  1.
         11    1    4    4    0    0  0.90589501847E-02 -0.78926377922E-01  0.14291650038E-01  0.80721435147E-01  0.51100000000E-03 0. -1.
</event>
<event>
 8    1  0.1094134E+005  0.1043930E+01  0.7957747E-01            NaN
         13   -1    0    0    0    0  0.00000000000E+00  0.00000000000E+00  0.74505805969E-08  0.10566000000E+00  0.10566000000E+00 0.  1.
     999900   -1    0    0    0    0 -0.00000000000E+00 -0.00000000000E+00 -0.74505805969E-08  0.93827000000E+00  0.93827000000E+00 0.  1.
     999902    2    1    2    0    0  0.14222141053E-01  0.16333774867E-01  0.89312528262E-02  0.10205029051E+01  0.10202339685E+01 0.  0.
     999903    2    3    3    0    0 -0.59675271919E-01  0.85034587179E-01 -0.76528996749E-01  0.13062421478E+00  0.20346475095E-01 0.  0.
         14    1    1    2    0    0 -0.14222141053E-01 -0.16333774867E-01 -0.89312528262E-02  0.23427094882E-01  0.00000000000E+00 0.  1.
     999901    1    3    3    0    0  0.73897412972E-01 -0.68700812312E-01  0.85460249575E-01  0.88987869034E+00  0.88000000000E+00 0. -1.
        -11    1    4    4    0    0 -0.26575503181E-01  0.54925892377E-01 -0.46814657250E-01  0.76908934963E-01  0.51100000000E-03 0. -1.
         11    1    4    4    0    0 -0.33099768738E-01  0.30108694803E-01 -0.29714339499E-01  0.53715279820E-01  0.51100000000E-03 0.  1.
</event>
<event>
 8    1  0.1237405E+005  0.1043930E+01  0.7957747E-01            NaN
         13   -1    0    0    0    0  0.00000000000E+00  0.00000000000E+00  0.74505805969E-08  0.10566000000E+00  0.10566000000E+00 0.  1.
     999900   -1    0    0    0    0 -0.00000000000E+00 -0.00000000000E+00 -0.74505805969E-08  0.93827000000E+00  0.93827000000E+00 0.  1.
     999902    2    1    2    0    0 -0.92999219567E-02 -0.26810124450E-03  0.21604680433E-01  0.10204071889E+01  0.10201360245E+01 0.  0.
     999903    2    3    3    0    0  0.89457631597E-01 -0.23859171234E-01  0.91605419117E-01  0.13180733721E+00  0.20240885030E-01 0.  0.
         14    1    1    2    0    0  0.92999219567E-02  0.26810124450E-03 -0.21604680433E-01  0.23522811127E-01  0.00000000000E+00 0. -1.
     999901    1    3    3    0    0 -0.98757553554E-01  0.23591069989E-01 -0.70000738684E-01  0.88859985167E+00  0.88000000000E+00 0. -1.
        -11    1    4    4    0    0  0.36978925883E-01 -0.81094863194E-03  0.42366171680E-01  0.56242797058E-01  0.51100000000E-03 0. -1.
         11    1    4    4    0    0  0.52478705714E-01 -0.23048222602E-01  0.49239247437E-01  0.75564540147E-01  0.51100000000E-03 0.  1.
</event>
<event>
 8    1  0.1094134E+005  0.1043930E+01  0.7957747E-01            NaN
         13   -1    0    0    0    0  0.00000000000E+00  0.00000000000E+00  0.74505805969E-08  0.10566000000E+00  0.10566000000E+00 0.  1.
     999900   -1    0    0    0    0 -0.00000000000E+00 -0.00000000000E+00 -0.74505805969E-08  0.93827000000E+00  0.93827000000E+00 0.  1.
     999902    2    1    2    0    0 -0.18016680369E-01 -0.10174406223E-02  0.14818920282E-01  0.10205797033E+01  0.10203125474E+01 0.  0.
     999903    2    3    3    0    0 -0.79125089739E-01 -0.10322909059E+00  0.10155765293E-01  0.13254636830E+00  0.23417412545E-01 0.  0.
         14    1    1    2    0    0  0.18016680369E-01  0.10174406223E-02 -0.14818920282E-01  0.23350296685E-01  0.00000000000E+00 0. -1.
     999901    1    3    3    0    0  0.61108409369E-01  0.10221164997E+00  0.46631549883E-02  0.88803333502E+00  0.88000000000E+00 0. -1.
        -11    1    4    4    0    0 -0.39648951006E-01 -0.63450047288E-01  0.14939071133E-01  0.76297999869E-01  0.51100000000E-03 0. -1.
         11    1    4    4    0    0 -0.39476138733E-01 -0.39779043303E-01 -0.47833058393E-02  0.56248368431E-01  0.51100000000E-03 0.  1.
</event>
<event>
 8    1  0.1094134E+005  0.1043930E+01  0.7957747E-01            NaN
         13   -1    0    0    0    0  0.00000000000E+00  0.00000000000E+00  0.74505805969E-08  0.10566000000E+00  0.10566000000E+00 0.  1.
     999900   -1    0    0    0    0 -0.00000000000E+00 -0.00000000000E+00 -0.74505805969E-08  0.93827000000E+00  0.93827000000E+00 0. -1.
     999902    2    1    2    0    0  0.63716431968E-02 -0.49872316217E-02 -0.22697980775E-01  0.10198329328E+01  0.10195482049E+01 0.  0.
     999903    2    3    3    0    0 -0.90620384537E-01  0.27699928644E-01 -0.88717678839E-01  0.13144422034E+00  0.20674050953E-01 0.  0.
         14    1    1    2    0    0 -0.63716431968E-02  0.49872316217E-02  0.22697980775E-01  0.24097067198E-01  0.00000000000E+00 0.  1.
     999901    1    3    3    0    0  0.96992027734E-01 -0.32687160266E-01  0.66019698064E-01  0.88838871246E+00  0.88000000000E+00 0. -1.
        -11    1    4    4    0    0 -0.51569130452E-01  0.12512793183E-01 -0.62603542974E-01  0.82069543210E-01  0.51100000000E-03 0.  1.
         11    1    4    4    0    0 -0.39051254085E-01  0.15187135461E-01 -0.26114135865E-01  0.49374677134E-01  0.51100000000E-03 0. -1.
</event>
<event>
 8    1  0.1094134E+005  0.1043930E+01  0.7957747E-01            NaN
         13   -1    0    0    0    0  0.00000000000E+00  0.00000000000E+00  0.74505805969E-08  0.10566000000E+00  0.10566000000E+00 0. -1.
     999900   -1    0    0    0    0 -0.00000000000E+00 -0.00000000000E+00 -0.74505805969E-08  0.93827000000E+00  0.93827000000E+00 0.  1.
     999902    2    1    2    0    0  0.21990608910E-01  0.75996458356E-03 -0.80775879021E-02  0.10204904639E+01  0.10202212383E+01 0.  0.
     999903    2    3    3    0    0  0.94085311240E-01  0.17853210404E-01 -0.90660416735E-01  0.13352386431E+00  0.20941066498E-01 0.  0.
         14    1    1    2    0    0 -0.21990608910E-01 -0.75996458356E-03  0.80775879021E-02  0.23439536103E-01  0.00000000000E+00 0. -1.
     999901    1    3    3    0    0 -0.72094702330E-01 -0.17093245821E-01  0.82582828833E-01  0.88696659958E+00  0.88000000000E+00 0. -1.
        -11    1    4    4    0    0  0.74109990913E-01  0.70845382733E-02 -0.61472055315E-01  0.96548206308E-01  0.51100000000E-03 0. -1.
         11    1    4    4    0    0  0.19975320327E-01  0.10768672131E-01 -0.29188361420E-01  0.36975658006E-01  0.51100000000E-03 0.  1.
</event>
<event>
 8    1  0.1094134E+005  0.1043930E+01  0.7957747E-01            NaN
         13   -1    0    0    0    0  0.00000000000E+00  0.00000000000E+00  0.74505805969E-08  0.10566000000E+00  0.10566000000E+00 0.  1.
     999900   -1    0    0    0    0 -0.00000000000E+00 -0.00000000000E+00 -0.74505805969E-08  0.93827000000E+00  0.93827000000E+00 0.  1.
     999902    2    1    2    0    0  0.22833554631E-01  0.37071251703E-02  0.65132699947E-02  0.10198980072E+01  0.10196148333E+01 0.  0.
     999903    2    3    3    0    0 -0.10280413187E+00 -0.68194010245E-01  0.27009044044E-01  0.12783596991E+00  0.19835175281E-01 0.  0.
         14    1    1    2    0    0 -0.22833554631E-01 -0.37071251703E-02 -0.65132699947E-02  0.24031992846E-01  0.00000000000E+00 0. -1.
     999901    1    3    3    0    0  0.12563768650E+00  0.71901135415E-01 -0.20495774049E-01  0.89206203725E+00  0.88000000000E+00 0. -1.
        -11    1    4    4    0    0 -0.59277364676E-01 -0.27448966692E-01  0.14222986392E-01  0.66856609234E-01  0.51100000000E-03 0.  1.
         11    1    4    4    0    0 -0.43526767196E-01 -0.40745043553E-01  0.12786057652E-01  0.60979360672E-01  0.51100000000E-03 0. -1.
</event>
<event>
 8    1  0.1094134E+005  0.1043930E+01  0.7957747E-01            NaN
         13   -1    0    0    0    0  0.00000000000E+00  0.00000000000E+00  0.74505805969E-08  0.10566000000E+00  0.10566000000E+00 0.  1.
     999900   -1    0    0    0    0 -0.00000000000E+00 -0.00000000000E+00 -0.74505805969E-08  0.93827000000E+00  0.93827000000E+00 0.  1.
     999902    2    1    2    0    0  0.11785469164E-02 -0.12234890725E-01 -0.20056410820E-01  0.10204067957E+01  0.10201356222E+01 0.  0.
     999903    2    3    3    0    0  0.41804185917E-01  0.10115018887E+00  0.63803666914E-01  0.12825258740E+00  0.19971669766E-01 0.  0.
         14    1    1    2    0    0 -0.11785469164E-02  0.12234890725E-01  0.20056410820E-01  0.23523204265E-01  0.00000000000E+00 0.  1.
     999901    1    3    3    0    0 -0.40625639000E-01 -0.11338507960E+00 -0.83860077734E-01  0.89215420834E+00  0.88000000000E+00 0.  1.
        -11    1    4    4    0    0  0.13893017223E-01  0.38412819012E-01  0.34977585791E-01  0.53779672933E-01  0.51100000000E-03 0.  1.
         11    1    4    4    0    0  0.27911168694E-01  0.62737369860E-01  0.28826081123E-01  0.74472914464E-01  0.51100000000E-03 0. -1.
</event>
<event>
 8    1  0.1094134E+005  0.1043930E+01  0.7957747E-01            NaN
         13   -1    0    0    0    0  0.00000000000E+00  0.00000000000E+00  0.74505805969E-08  0.10566000000E+00  0.10566000000E+00 0.  1.
     999900   -1    0    0    0    0 -0.00000000000E+00 -0.00000000000E+00 -0.74505805969E-08  0.93827000000E+00  0.93827000000E+00 0. -1.
     999902    2    1    2    0    0 -0.11595029943E-01 -0.10022855438E-01  0.14780228359E-01  0.10226378066E+01  0.10224161217E+01 0.  0.
     999903    2    3    3    0    0 -0.19583945757E-01 -0.40422583560E-01 -0.12197317690E+00  0.13152083328E+00  0.20068819353E-01 0.  0.
         14    1    1    2    0    0  0.11595029943E-01  0.10022855438E-01 -0.14780228359E-01  0.21292193425E-01  0.00000000000E+00 0.  1.
     999901    1    3    3    0    0  0.79889158142E-02  0.30399728122E-01  0.13675340526E+00  0.89111697330E+00  0.88000000000E+00 0.  1.
        -11    1    4    4    0    0 -0.39447011418E-02 -0.16990680487E-01 -0.72656471874E-01  0.74722606463E-01  0.51100000000E-03 0.  1.
         11    1    4    4    0    0 -0.15639244615E-01 -0.23431903073E-01 -0.49316705026E-01  0.56798226815E-01  0.51100000000E-03 0. -1.
</event>
<event>
 8    1  0.1094134E+005  0.1043930E+01  0.7957747E-01            NaN
         13   -1    0    0    0    0  0.00000000000E+00  0.00000000000E+00  0.74505805969E-08  0.10566000000E+00  0.10566000000E+00 0. -1.
     999900   -1    0    0    0    0 -0.00000000000E+00 -0.00000000000E+00 -0.74505805969E-08  0.93827000000E+00  0.93827000000E+00 0. -1.
     999902    2    1    2    0    0  0.22620146252E-01  0.30645750796E-03 -0.61715388036E-02  0.10204810592E+01  0.10202116150E+01 0.  0.
     999903    2    3    3    0    0  0.13699283980E-01  0.47551405531E-01  0.11893861828E+00  0.13033263434E+00  0.19783682837E-01 0.  0.
         14    1    1    2    0    0 -0.22620146252E-01 -0.30645750796E-03  0.61715388036E-02  0.23448940784E-01  0.00000000000E+00 0. -1.
     999901    1    3    3    0    0  0.89208622719E-02 -0.47244948023E-01 -0.12511015709E+00  0.89014842487E+00  0.88000000000E+00 0. -1.
        -11    1    4    4    0    0 -0.42853066422E-02  0.19178598144E-01  0.46329726896E-01  0.50327797439E-01  0.51100000000E-03 0.  1.
         11    1    4    4    0    0  0.17984590622E-01  0.28372807387E-01  0.72608891386E-01  0.80004836905E-01  0.51100000000E-03 0. -1.
</event>
<event>
 8    1  0.1094134E+005  0.1043930E+01  0.7957747E-01            NaN
         13   -1    0    0    0    0  0.00000000000E+00  0.00000000000E+00  0.74505805969E-08  0.10566000000E+00  0.10566000000E+00 0.  1.
     999900   -1    0    0    0    0 -0.00000000000E+00 -0.00000000000E+00 -0.74505805969E-08  0.93827000000E+00  0.93827000000E+00 0. -1.
     999902    2    1    2    0    0  0.21969525612E-01  0.22678326345E-01 -0.98504934519E-03  0.10123398613E+01  0.10118468550E+01 0.  0.
     999903    2    3    3    0    0  0.64668280961E-01  0.75233742538E-01  0.75525774302E-01  0.12642837496E+00  0.20925793469E-01 0.  0.
         14    1    1    2    0    0 -0.21969525612E-01 -0.22678326345E-01  0.98504934519E-03  0.31590138709E-01  0.00000000000E+00 0. -1.
     999901    1    3    3    0    0 -0.42698755349E-01 -0.52555416194E-01 -0.76510823647E-01  0.88591148633E+00  0.88000000000E+00 0. -1.
        -11    1    4    4    0    0  0.61053158652E-01  0.63047847192E-01  0.71126862857E-01  0.11296818560E+00  0.51100000000E-03 0.  1.
         11    1    4    4    0    0  0.36151223097E-02  0.12185895346E-01  0.43989114445E-02  0.13460189360E-01  0.51100000000E-03 0. -1.
</event>
<event>
 8    1  0.1094134E+005  0.1043930E+01  0.7957747E-01            NaN
         13   -1    0    0    0    0  0.00000000000E+00  0.00000000000E+00  0.74505805969E-08  0.10566000000E+00  0.10566000000E+00 0.  1.
     999900   -1    0    0    0    0 -0.00000000000E+00 -0.00000000000E+00 -0.74505805969E-08  0.93827000000E+00  0.93827000000E+00 0. -1.
     999902    2    1    2    0    0 -0.20057544956E-01  0.13161440466E-01 -0.41622086235E-02  0.10195814352E+01  0.10192906605E+01 0.  0.
     999903    2    3    3    0    0 -0.45822102807E-01  0.12146042131E+00  0.16937196938E-01  0.13231728822E+00  0.19201486168E-01 0.  0.
         14    1    1    2    0    0  0.20057544956E-01 -0.13161440466E-01  0.41622086235E-02  0.24348564751E-01  0.00000000000E+00 0. -1.
     999901    1    3    3    0    0  0.25764557851E-01 -0.10829898084E+00 -0.21099405561E-01  0.88726414703E+00  0.88000000000E+00 0. -1.
        -11    1    4    4    0    0 -0.31380983559E-01  0.59746234767E-01  0.38558645536E-02  0.67598132448E-01  0.51100000000E-03 0.  1.
         11    1    4    4    0    0 -0.14441119248E-01  0.61714186541E-01  0.13081332384E-01  0.64719155770E-01  0.51100000000E-03 0. -1.
</event>
<event>
 8    1  0.1094134E+005  0.1043930E+01  0.7957747E-01            NaN
         13   -1    0    0    0    0  0.00000000000E+00  0.00000000000E+00  0.74505805969E-08  0.10566000000E+00  0.10566000000E+00 0. -1.
     999900   -1    0    0    0    0 -0.00000000000E+00 -0.00000000000E+00 -0.74505805969E-08  0.93827000000E+00  0.93827000000E+00 0.  1.
     999902    2    1    2    0    0 -0.14478264404E-01  0.15291131600E-01 -0.12288526273E-01  0.10195487219E+01  0.10192571557E+01 0.  0.
     999903    2    3    3    0    0  0.42367345499E-01 -0.75871735230E-01  0.90677605270E-01  0.12705551970E+00  0.19213662269E-01 0.  0.
         14    1    1    2    0    0  0.14478264404E-01 -0.15291131600E-01  0.12288526273E-01  0.24381278139E-01  0.00000000000E+00 0. -1.
     999901    1    3    3    0    0 -0.56845609903E-01  0.91162866830E-01 -0.10296613154E+00  0.89249320216E+00  0.88000000000E+00 0.  1.
        -11    1    4    4    0    0  0.21583142351E-01 -0.35569081280E-01  0.56990889860E-01  0.70563547422E-01  0.51100000000E-03 0.  1.
         11    1    4    4    0    0  0.20784203149E-01 -0.40302653949E-01  0.33686715411E-01  0.56491972280E-01  0.51100000000E-03 0. -1.
</event>
<event>
 8    1  0.1094134E+005  0.1043930E+01  0.7957747E-01            NaN
         13   -1    0    0    0    0  0.00000000000E+00  0.00000000000E+00  0.74505805969E-08  0.10566000000E+00  0.10566000000E+00 0. -1.
     999900   -1    0    0    0    0 -0.00000000000E+00 -0.00000000000E+00 -0.74505805969E-08  0.93827000000E+00  0.93827000000E+00 0.  1.
     999902    2    1    2    0    0 -0.45491285738E-02  0.12675286951E-01  0.19766748705E-01  0.10200117679E+01  0.10197313004E+01 0.  0.
     999903    2    3    3    0    0 -0.11520160346E+00  0.32062382557E-01  0.52758231599E-01  0.13225714666E+00  0.20226616807E-01 0.  0.
         14    1    1    2    0    0  0.45491285738E-02 -0.12675286951E-01 -0.19766748705E-01  0.23918232051E-01  0.00000000000E+00 0.  1.
     999901    1    3    3    0    0  0.11065247488E+00 -0.19387095606E-01 -0.32991482895E-01  0.88775462129E+00  0.88000000000E+00 0.  1.
        -11    1    4    4    0    0 -0.95719253017E-01  0.27470170912E-01  0.51703771931E-01  0.11220662566E+00  0.51100000000E-03 0.  1.
         11    1    4    4    0    0 -0.19482350440E-01  0.45922116447E-02  0.10544596684E-02  0.20050521007E-01  0.51100000000E-03 0. -1.
</event>
<event>
 8    1  0.1094134E+005  0.1043930E+01  0.7957747E-01            NaN
         13   -1    0    0    0    0  0.00000000000E+00  0.00000000000E+00  0.74505805969E-08  0.10566000000E+00  0.10566000000E+00 0.  1.
     999900   -1    0    0    0    0 -0.00000000000E+00 -0.00000000000E+00 -0.74505805969E-08  0.93827000000E+00  0.93827000000E+00 0.  1.
     999902    2    1    2    0    0 -0.20862901738E-01 -0.92556360998E-02  0.60667503970E-02  0.10203136301E+01  0.10200402790E+01 0.  0.
     999903    2    3    3    0    0 -0.40625960538E-01 -0.60665542068E-01  0.10930339548E+00  0.13256853049E+00  0.17216455804E-01 0.  0.
         14    1    1    2    0    0  0.20862901738E-01  0.92556360998E-02 -0.60667503970E-02  0.23616369936E-01  0.00000000000E+00 0. -1.
     999901    1    3    3    0    0  0.19763058800E-01  0.51409905969E-01 -0.10323664508E+00  0.88774509957E+00  0.88000000000E+00 0.  1.
        -11    1    4    4    0    0 -0.57913016814E-02 -0.27603089795E-02  0.16954712728E-01  0.18135100924E-01  0.51100000000E-03 0. -1.
         11    1    4    4    0    0 -0.34834658857E-01 -0.57905233089E-01  0.92348682748E-01  0.11443342957E+00  0.51100000000E-03 0.  1.
</event>
<event>
 8    1  0.1094134E+005  0.1043930E+01  0.7957747E-01            NaN
         13   -1    0    0    0    0  0.00000000000E+00  0.00000000000E+00  0.74505805969E-08  0.10566000000E+00  0.10566000000E+00 0. -1.
     999900   -1    0    0    0    0 -0.00000000000E+00 -0.00000000000E+00 -0.74505805969E-08  0.93827000000E+00  0.93827000000E+00 0. -1.
     999902    2    1    2    0    0  0.10070769069E-01  0.10119041344E-01 -0.19342547914E-01  0.10198894187E+01  0.10196060401E+01 0.  0.
     999903    2    3    3    0    0 -0.51656662107E-01 -0.11426102500E+00  0.18211344564E-01  0.12821068091E+00  0.19553338715E-01 0.  0.
         14    1    1    2    0    0 -0.10070769069E-01 -0.10119041344E-01  0.19342547914E-01  0.24040581257E-01  0.00000000000E+00 0. -1.
     999901    1    3    3    0    0  0.61727431176E-01  0.12438006634E+00 -0.37553892478E-01  0.89167873783E+00  0.88000000000E+00 0. -1.
        -11    1    4    4    0    0 -0.11450302861E-01 -0.43827184950E-01  0.12035324523E-01  0.46872611765E-01  0.51100000000E-03 0.  1.
         11    1    4    4    0    0 -0.40206359246E-01 -0.70433840048E-01  0.61760200412E-02  0.81338069146E-01  0.51100000000E-03 0. -1.
</event>
<event>
 8    1  0.1094134E+005  0.1043930E+01  0.7957747E-01            NaN
         13   -1    0    0    0    0  0.00000000000E+00  0.00000000000E+00  0.74505805969E-08  0.10566000000E+00  0.10566000000E+00 0. -1.
     999900   -1    0    0    0    0 -0.00000000000E+00 -0.00000000000E+00 -0.74505805969E-08  0.93827000000E+00  0.93827000000E+00 0.  1.
     999902    2    1    2    0    0 -0.13695478997E-01 -0.19326020212E-01  0.13174356878E-02  0.10202066605E+01  0.10199307982E+01 0.  0.
     999903    2    3    3    0    0 -0.12298060345E+00  0.30629622474E-01 -0.29038215234E-01  0.13152208751E+00  0.19810072208E-01 0.  0.
         14    1    1    2    0    0  0.13695478997E-01  0.19326020212E-01 -0.13174356878E-02  0.23723339541E-01  0.00000000000E+00 0. -1.
     999901    1    3    3    0    0  0.10928512445E+00 -0.49955642686E-01  0.30355650922E-01  0.88868457295E+00  0.88000000000E+00 0. -1.
        -11    1    4    4    0    0 -0.25199621923E-01  0.11037130231E-01  0.47898446076E-03  0.27519624560E-01  0.51100000000E-03 0. -1.
         11    1    4    4    0    0 -0.97780981524E-01  0.19592492243E-01 -0.29517199695E-01  0.10400246295E+00  0.51100000000E-03 0.  1.
</event>
<event>
 8    1  0.1094134E+005  0.1043930E+01  0.7957747E-01            NaN
         13   -1    0    0    0    0  0.00000000000E+00  0.00000000000E+00  0.74505805969E-08  0.10566000000E+00  0.10566000000E+00 0. -1.
     999900   -1    0    0    0    0 -0.00000000000E+00 -0.00000000000E+00 -0.74505805969E-08  0.93827000000E+00  0.93827000000E+00 0. -1.
     999902    2    1    2    0    0  0.16216016674E-01  0.14704699948E-01 -0.23738173172E-01  0.10116393162E+01  0.10111238390E+01 0.  0.
     999903    2    3    3    0    0  0.37814677060E-01 -0.11384392534E+00  0.13826085594E-03  0.12171722109E+00  0.20607611617E-01 0.  0.
         14    1    1    2    0    0 -0.16216016674E-01 -0.14704699948E-01  0.23738173172E-01  0.32290683841E-01  0.00000000000E+00 0. -1.
     999901    1    3    3    0    0 -0.21598660386E-01  0.12854862528E+00 -0.23876434028E-01  0.88992209507E+00  0.88000000000E+00 0. -1.
        -11    1    4    4    0    0  0.19255865939E-01 -0.83100753034E-01 -0.49335592819E-02  0.85446618752E-01  0.51100000000E-03 0.  1.
         11    1    4    4    0    0  0.18558811121E-01 -0.30743172301E-01  0.50718201378E-02  0.36270602337E-01  0.51100000000E-03 0. -1.
</event>
<event>
 8    1  0.1094134E+005  0.1043930E+01  0.7957747E-01            NaN
         13   -1    0    0    0    0  0.00000000000E+00  0.00000000000E+00  0.74505805969E-08  0.10566000000E+00  0.10566000000E+00 0. -1.
     999900   -1    0    0    0    0 -0.00000000000E+00 -0.00000000000E+00 -0.74505805969E-08  0.93827000000E+00  0.93827000000E+00 0.  1.
     999902    2    1    2    0    0 -0.59122245537E-02  0.23241926015E-01  0.77888583653E-03  0.10199352467E+01  0.10196529602E+01 0.  0.
     999903    2    3    3    0    0 -0.31534945363E-01  0.59188096201E-01 -0.11150457765E+00  0.13170316712E+00  0.20365899963E-01 0.  0.
         14    1    1    2    0    0  0.59122245537E-02 -0.23241926015E-01 -0.77888583653E-03  0.23994753326E-01  0.00000000000E+00 0.  1.
     999901    1    3    3    0    0  0.25622720809E-01 -0.35946170186E-01  0.11228346349E+00  0.88823207955E+00  0.88000000000E+00 0. -1.
        -11    1    4    4    0    0 -0.19629958703E-01  0.17503940924E-01 -0.49334069863E-01  0.55909165589E-01  0.51100000000E-03 0. -1.
         11    1    4    4    0    0 -0.11904986660E-01  0.41684155276E-01 -0.62170507790E-01  0.75794001533E-01  0.51100000000E-03 0.  1.
</event>
<event>
 8    1  0.1094134E+005  0.1043930E+01  0.7957747E-01            NaN
         13   -1    0    0    0    0  0.00000000000E+00  0.00000000000E+00  0.74505805969E-08  0.10566000000E+00  0.10566000000E+00 0. -1.
     999900   -1    0    0    0    0 -0.00000000000E+00 -0.00000000000E+00 -0.74505805969E-08  0.93827000000E+00  0.93827000000E+00 0.  1.
     999902    2    1    2    0    0  0.57289039396E-03 -0.14926105702E-01  0.18056494778E-01  0.10204959684E+01  0.10202268707E+01 0.  0.
     999903    2    3    3    0    0  0.11995114878E+00  0.46130631537E-01  0.10188789250E-01  0.13030441902E+00  0.18950380775E-01 0.  0.
         14    1    1    2    0    0 -0.57289039396E-03  0.14926105702E-01 -0.18056494778E-01  0.23434031632E-01  0.00000000000E+00 0.  1.
     999901    1    3    3    0    0 -0.11937825838E+00 -0.61056737239E-01  0.78677055280E-02  0.89019154935E+00  0.88000000000E+00 0.  1.
        -11    1    4    4    0    0  0.83985564042E-01  0.41258684418E-01  0.60082855290E-02  0.93766809817E-01  0.51100000000E-03 0.  1.
         11    1    4    4    0    0  0.35965584735E-01  0.48719471188E-02  0.41805037214E-02  0.36537609205E-01  0.51100000000E-03 0. -1.
</event>
<event>
 8    1  0.1094134E+005  0.1043930E+01  0.7957747E-01            NaN
         13   -1    0    0    0    0  0.00000000000E+00  0.00000000000E+00  0.74505805969E-08  0.10566000000E+00  0.10566000000E+00 0. -1.
     999900   -1    0    0    0    0 -0.00000000000E+00 -0.00000000000E+00 -0.74505805969E-08  0.93827000000E+00  0.93827000000E+00 0. -1.
     999902    2    1    2    0    0 -0.17941274742E-01 -0.95586006617E-02 -0.12256023745E-01  0.10201925548E+01  0.10199163606E+01 0.  0.
     999903    2    3    3    0    0 -0.73333235435E-01 -0.53581045692E-01  0.92680483723E-01  0.13113804829E+00  0.18942644175E-01 0.  0.
         14    1    1    2    0    0  0.17941274742E-01  0.95586006617E-02  0.12256023745E-01  0.23737445187E-01  0.00000000000E+00 0.  1.
     999901    1    3    3    0    0  0.55391960693E-01  0.44022445030E-01 -0.10493650747E+00  0.88905450653E+00  0.88000000000E+00 0. -1.
        -11    1    4    4    0    0 -0.63099319494E-01 -0.43674353486E-01  0.67497140489E-01  0.10220126402E+00  0.51100000000E-03 0.  1.
         11    1    4    4    0    0 -0.10233915941E-01 -0.99066922058E-02  0.25183343234E-01  0.28936784261E-01  0.51100000000E-03 0. -1.
</event>
<event>
 8    1  0.1094134E+005  0.1043930E+01  0.7957747E-01            NaN
         13   -1    0    0    0    0  0.00000000000E+00  0.00000000000E+00  0.74505805969E-08  0.10566000000E+00  0.10566000000E+00 0. -1.
     999900   -1    0    0    0    0 -0.00000000000E+00 -0.00000000000E+00 -0.74505805969E-08  0.93827000000E+00  0.93827000000E+00 0. -1.
     999902    2    1    2    0    0 -0.51217190628E-02 -0.16777135076E-01 -0.15346724645E-01  0.10206227860E+01  0.10203566264E+01 0.  0.
     999903    2    3    3    0    0 -0.89185823870E-01 -0.10886030025E-01 -0.95974393139E-01  0.13292784979E+00  0.19649739989E-01 0.  0.
         14    1    1    2    0    0  0.51217190628E-02  0.16777135076E-01  0.15346724645E-01  0.23307214008E-01  0.00000000000E+00 0. -1.
     999901    1    3    3    0    0  0.84064104807E-01 -0.58911050508E-02  0.80627668495E-01  0.88769493620E+00  0.88000000000E+00 0.  1.
        -11    1    4    4    0    0 -0.30552739851E-01 -0.77584048910E-03 -0.20432599468E-01  0.36767160386E-01  0.51100000000E-03 0.  1.
         11    1    4    4    0    0 -0.58633084019E-01 -0.10110189536E-01 -0.75541793672E-01  0.96160689401E-01  0.51100000000E-03 0. -1.
</event>
<event>
 8    1  0.1094134E+005  0.1043930E+01  0.7957747E-01            NaN
         13   -1    0    0    0    0  0.00000000000E+00  0.00000000000E+00  0.74505805969E-08  0.10566000000E+00  0.10566000000E+00 0.  1.
     999900   -1    0    0    0    0 -0.00000000000E+00 -0.00000000000E+00 -0.74505805969E-08  0.93827000000E+00  0.93827000000E+00 0. -1.
     999902    2    1    2    0    0 -0.10571141809E-01  0.49092769728E-02 -0.19009609732E-01  0.10216316749E+01  0.10213883022E+01 0.  0.
     999903    2    3    3    0    0 -0.12890485625E-01  0.97949710203E-01  0.83512808661E-01  0.13080467272E+00  0.19369120921E-01 0.  0.
         14    1    1    2    0    0  0.10571141809E-01 -0.49092769728E-02  0.19009609732E-01  0.22298325087E-01  0.00000000000E+00 0.  1.
     999901    1    3    3    0    0  0.23193438169E-02 -0.93040433230E-01 -0.10252241839E+00  0.89082700220E+00  0.88000000000E+00 0. -1.
        -11    1    4    4    0    0 -0.13234035120E-01  0.93724148633E-01  0.73246505851E-01  0.11968570283E+00  0.51100000000E-03 0.  1.
         11    1    4    4    0    0  0.34354949494E-03  0.42255615703E-02  0.10266302810E-01  0.11118969881E-01  0.51100000000E-03 0. -1.
</event>
<event>
 8    1  0.1094134E+005  0.1043930E+01  0.7957747E-01            NaN
         13   -1    0    0    0    0  0.00000000000E+00  0.00000000000E+00  0.74505805969E-08  0.10566000000E+00  0.10566000000E+00 0.  1.
     999900   -1    0    0    0    0 -0.00000000000E+00 -0.00000000000E+00 -0.74505805969E-08  0.93827000000E+00  0.93827000000E+00 0. -1.
     999902    2    1    2    0    0 -0.13127779678E-01  0.58548467167E-02  0.18200764995E-01  0.10207376376E+01  0.10204741246E+01 0.  0.
     999903    2    3    3    0    0 -0.30428444424E-01  0.12021679370E+00  0.43181640354E-01  0.13281758932E+00  0.19947186609E-01 0.  0.
         14    1    1    2    0    0  0.13127779678E-01 -0.58548467167E-02 -0.18200764995E-01  0.23192362445E-01  0.00000000000E+00 0. -1.
     999901    1    3    3    0    0  0.17300664746E-01 -0.11436194698E+00 -0.24980875359E-01  0.88792004823E+00  0.88000000000E+00 0. -1.
        -11    1    4    4    0    0  0.20767997221E-02  0.20316110665E-01  0.49438361081E-02  0.21018089497E-01  0.51100000000E-03 0. -1.
         11    1    4    4    0    0 -0.32505244146E-01  0.99900683031E-01  0.38237804246E-01  0.11179949983E+00  0.51100000000E-03 0.  1.
</event>
<event>
 8    1  0.1094134E+005  0.1043930E+01  0.7957747E-01            NaN
         13   -1    0    0    0    0  0.00000000000E+00  0.00000000000E+00  0.74505805969E-08  0.10566000000E+00  0.10566000000E+00 0. -1.
     999900   -1    0    0    0    0 -0.00000000000E+00 -0.00000000000E+00 -0.74505805969E-08  0.93827000000E+00  0.93827000000E+00 0. -1.
     999902    2    1    2    0    0 -0.20500459642E-01  0.95713813853E-02  0.83055880587E-02  0.10198289009E+01  0.10195440766E+01 0.  0.
     999903    2    3    3    0    0  0.89852804220E-01  0.24452205005E-01 -0.85493070272E-01  0.12786619420E+00  0.19216185837E-01 0.  0.
         14    1    1    2    0    0  0.20500459642E-01 -0.95713813853E-02 -0.83055880587E-02  0.24101099148E-01  0.00000000000E+00 0.  1.
     999901    1    3    3    0    0 -0.11035326386E+00 -0.14880823620E-01  0.93798658331E-01  0.89196270665E+00  0.88000000000E+00 0.  1.
        -11    1    4    4    0    0  0.47805433658E-01  0.91641574211E-02 -0.56371370374E-01  0.74480425532E-01  0.51100000000E-03 0. -1.
         11    1    4    4    0    0  0.42047370562E-01  0.15288047584E-01 -0.29121699898E-01  0.53385768666E-01  0.51100000000E-03 0.  1.
</event>
<event>
 8    1  0.1094134E+005  0.1043930E+01  0.7957747E-01            NaN
         13   -1    0    0    0    0  0.00000000000E+00  0.00000000000E+00  0.74505805969E-08  0.10566000000E+00  0.10566000000E+00 0.  1.
     999900   -1    0    0    0    0 -0.00000000000E+00 -0.00000000000E+00 -0.74505805969E-08  0.93827000000E+00  0.93827000000E+00 0.  1.
     999902    2    1    2    0    0  0.15732119322E-01 -0.13135778746E-01 -0.11045508942E-01  0.10206479999E+01  0.10203824225E+01 0.  0.
     999903    2    3    3    0    0  0.74147660970E-01 -0.10651246550E+00 -0.25339120543E-01  0.13366666498E+00  0.19542910815E-01 0.  0.
         14    1    1    2    0    0 -0.15732119322E-01  0.13135778746E-01  0.11045508942E-01  0.23282000116E-01  0.00000000000E+00 0.  1.
     999901    1    3    3    0    0 -0.58415541648E-01  0.93376686753E-01  0.14293611601E-01  0.88698133490E+00  0.88000000000E+00 0.  1.
        -11    1    4    4    0    0  0.34926365434E-01 -0.64642472761E-01 -0.90862852027E-02  0.74035950638E-01  0.51100000000E-03 0. -1.
         11    1    4    4    0    0  0.39221295536E-01 -0.41869992737E-01 -0.16252835341E-01  0.59630714342E-01  0.51100000000E-03 0.  1.
</event>
<event>
 8    1  0.1094134E+005  0.1043930E+01  0.7957747E-01            NaN
         13   -1    0    0    0    0  0.00000000000E+00  0.00000000000E+00  0.74505805969E-08  0.10566000000E+00  0.10566000000E+00 0.  1.
     999900   -1    0    0    0    0 -0.00000000000E+00 -0.00000000000E+00 -0.74505805969E-08  0.93827000000E+00  0.93827000000E+00 0. -1.
     999902    2    1    2    0    0  0.33497103277E-02 -0.28808884079E-01  0.72156694463E-02  0.10140429084E+01  0.10136023785E+01 0.  0.
     999903    2    3    3    0    0 -0.71817550275E-01  0.46177663826E-01 -0.85893736380E-01  0.12278398925E+00  0.20199923358E-01 0.  0.
         14    1    1    2    0    0 -0.33497103277E-02  0.28808884079E-01 -0.72156694463E-02  0.29887091640E-01  0.00000000000E+00 0. -1.
     999901    1    3    3    0    0  0.75167260603E-01 -0.74986547905E-01  0.93109405827E-01  0.89125891911E+00  0.88000000000E+00 0. -1.
        -11    1    4    4    0    0 -0.20608727118E-01  0.88385806111E-02 -0.12015934680E-01  0.25445705883E-01  0.51100000000E-03 0. -1.
         11    1    4    4    0    0 -0.51208823157E-01  0.37339083215E-01 -0.73877801700E-01  0.97338283371E-01  0.51100000000E-03 0.  1.
</event>
<event>
 8    1  0.1094134E+005  0.1043930E+01  0.7957747E-01            NaN
         13   -1    0    0    0    0  0.00000000000E+00  0.00000000000E+00  0.74505805969E-08  0.10566000000E+00  0.10566000000E+00 0. -1.
     999900   -1    0    0    0    0 -0.00000000000E+00 -0.00000000000E+00 -0.74505805969E-08  0.93827000000E+00  0.93827000000E+00 0. -1.
     999902    2    1    2    0    0  0.66433265065E-02 -0.20115126325E-01 -0.39950753500E-02  0.10223728035E+01  0.10221455066E+01 0.  0.
     999903    2    3    3    0    0 -0.44226620864E-01  0.11043862946E+00  0.47388737507E-01  0.12980777454E+00  0.21252788453E-01 0.  0.
         14    1    1    2    0    0 -0.66433265065E-02  0.20115126325E-01  0.39950753500E-02  0.21557196505E-01  0.00000000000E+00 0.  1.
     999901    1    3    3    0    0  0.50869947371E-01 -0.13055375579E+00 -0.51383812857E-01  0.89256502896E+00  0.88000000000E+00 0.  1.
        -11    1    4    4    0    0 -0.16668005726E-01  0.63079730400E-01  0.33184209708E-01  0.73200599022E-01  0.51100000000E-03 0. -1.
         11    1    4    4    0    0 -0.27558615139E-01  0.47358899062E-01  0.14204527799E-01  0.56607175515E-01  0.51100000000E-03 0.  1.
</event>
<event>
 8    1  0.1094134E+005  0.1043930E+01  0.7957747E-01            NaN
         13   -1    0    0    0    0  0.00000000000E+00  0.00000000000E+00  0.74505805969E-08  0.10566000000E+00  0.10566000000E+00 0. -1.
     999900   -1    0    0    0    0 -0.00000000000E+00 -0.00000000000E+00 -0.74505805969E-08  0.93827000000E+00  0.93827000000E+00 0.  1.
     999902    2    1    2    0    0 -0.19853237149E-01 -0.11946721571E-01 -0.32174259106E-02  0.10205371162E+01  0.10202689736E+01 0.  0.
     999903    2    3    3    0    0 -0.20229933444E-01  0.10821539884E+00  0.65726483024E-01  0.12969911768E+00  0.19546554754E-01 0.  0.
         14    1    1    2    0    0  0.19853237149E-01  0.11946721571E-01  0.32174259106E-02  0.23392883770E-01  0.00000000000E+00 0.  1.
     999901    1    3    3    0    0  0.37669629515E-03 -0.12016212041E+00 -0.68943908935E-01  0.89083799855E+00  0.88000000000E+00 0.  1.
        -11    1    4    4    0    0 -0.16303667876E-01  0.57502734030E-01  0.44793351375E-01  0.74693235674E-01  0.51100000000E-03 0.  1.
         11    1    4    4    0    0 -0.39262655680E-02  0.50712664811E-01  0.20933131650E-01  0.55005882006E-01  0.51100000000E-03 0. -1.
</event>
<event>
 8    1  0.1094134E+005  0.1043930E+01  0.7957747E-01            NaN
         13   -1    0    0    0    0  0.00000000000E+00  0.00000000000E+00  0.74505805969E-08  0.10566000000E+00  0.10566000000E+00 0.  1.
     999900   -1    0    0    0    0 -0.00000000000E+00 -0.00000000000E+00 -0.74505805969E-08  0.93827000000E+00  0.93827000000E+00 0.  1.
     999902    2    1    2    0    0  0.11503409413E-01  0.15089468266E-01  0.14563127490E-01  0.10200112801E+01  0.10197308009E+01 0.  0.
     999903    2    3    3    0    0  0.11310097689E+00  0.15437875523E-01 -0.61182443079E-01  0.13093334279E+00  0.19237721739E-01 0.  0.
         14    1    1    2    0    0 -0.11503409413E-01 -0.15089468266E-01 -0.14563127490E-01  0.23918719927E-01  0.00000000000E+00 0.  1.
     999901    1    3    3    0    0 -0.10159756748E+00 -0.34840725685E-03  0.75745570569E-01  0.88907793728E+00  0.88000000000E+00 0. -1.
        -11    1    4    4    0    0  0.87493871141E-01  0.78334704476E-02 -0.38604434138E-01  0.95953656535E-01  0.51100000000E-03 0.  1.
         11    1    4    4    0    0  0.25607105752E-01  0.76044050756E-02 -0.22578008942E-01  0.34979686252E-01  0.51100000000E-03 0. -1.
</event>
<event>
 8    1  0.1094134E+005  0.1043930E+01  0.7957747E-01            NaN
         13   -1    0    0    0    0  0.00000000000E+00  0.00000000000E+00  0.74505805969E-08  0.10566000000E+00  0.10566000000E+00 0. -1.
     999900   -1    0    0    0    0 -0.00000000000E+00 -0.00000000000E+00 -0.74505805969E-08  0.93827000000E+00  0.93827000000E+00 0. -1.
     999902    2    1    2    0    0  0.19264695520E-01  0.15425521840E-01 -0.33704393866E-03  0.10192482493E+01  0.10189493633E+01 0.  0.
     999903    2    3    3    0    0  0.80101552496E-01 -0.21951748388E-01  0.98934644720E-01  0.13079281901E+00  0.20507550054E-01 0.  0.
         14    1    1    2    0    0 -0.19264695520E-01 -0.15425521840E-01  0.33704393866E-03  0.24681750670E-01  0.00000000000E+00 0. -1.
     999901    1    3    3    0    0 -0.60836856976E-01  0.37377270228E-01 -0.99271688659E-01  0.88845543032E+00  0.88000000000E+00 0. -1.
        -11    1    4    4    0    0  0.43743085160E-01 -0.19772393285E-01  0.66503475491E-01  0.82020597467E-01  0.51100000000E-03 0. -1.
         11    1    4    4    0    0  0.36358467335E-01 -0.21793551034E-02  0.32431169229E-01  0.48772221543E-01  0.51100000000E-03 0.  1.
</event>
<event>
 8    1  0.1094134E+005  0.1043930E+01  0.7957747E-01            NaN
         13   -1    0    0    0    0  0.00000000000E+00  0.00000000000E+00  0.74505805969E-08  0.10566000000E+00  0.10566000000E+00 0.  1.
     999900   -1    0    0    0    0 -0.00000000000E+00 -0.00000000000E+00 -0.74505805969E-08  0.93827000000E+00  0.93827000000E+00 0.  1.
     999902    2    1    2    0    0  0.22346560509E-01  0.42847458957E-02  0.85942551778E-02  0.10196073966E+01  0.10193172490E+01 0.  0.
     999903    2    3    3    0    0 -0.27350623638E-01  0.12521220791E+00 -0.60852246252E-02  0.12982722807E+00  0.19797110046E-01 0.  0.
         14    1    1    2    0    0 -0.22346560509E-01 -0.42847458957E-02 -0.85942551778E-02  0.24322603397E-01  0.00000000000E+00 0. -1.
     999901    1    3    3    0    0  0.49697184147E-01 -0.12092746202E+00  0.14679479803E-01  0.88978016853E+00  0.88000000000E+00 0.  1.
        -11    1    4    4    0    0 -0.63766415237E-02  0.70227387612E-02  0.11682242561E-02  0.95711172672E-02  0.51100000000E-03 0. -1.
         11    1    4    4    0    0 -0.20973982114E-01  0.11818946915E+00 -0.72534488812E-02  0.12025611081E+00  0.51100000000E-03 0.  1.
</event>
<event>
 8    1  0.1094134E+005  0.1043930E+01  0.7957747E-01            NaN
         13   -1    0    0    0    0  0.00000000000E+00  0.00000000000E+00  0.74505805969E-08  0.10566000000E+00  0.10566000000E+00 0. -1.
     999900   -1    0    0    0    0 -0.00000000000E+00 -0.00000000000E+00 -0.74505805969E-08  0.93827000000E+00  0.93827000000E+00 0. -1.
     999902    2    1    2    0    0  0.80124905577E-02 -0.22263392439E-01  0.79580916907E-02  0.10189662288E+01  0.10186603878E+01 0.  0.
     999903    2    3    3    0    0  0.12131829635E-01  0.12265928274E+00 -0.21097167321E-01  0.12663010448E+00  0.19940209624E-01 0.  0.
         14    1    1    2    0    0 -0.80124905577E-02  0.22263392439E-01 -0.79580916907E-02  0.24963771173E-01  0.00000000000E+00 0. -1.
     999901    1    3    3    0    0 -0.41193390771E-02 -0.14492267518E+00  0.29055259011E-01  0.89233612435E+00  0.88000000000E+00 0.  1.
        -11    1    4    4    0    0  0.91781371632E-02  0.94566596888E-01 -0.75896384715E-02  0.95314968299E-01  0.51100000000E-03 0.  1.
         11    1    4    4    0    0  0.29536924716E-02  0.28092685851E-01 -0.13507528849E-01  0.31315136183E-01  0.51100000000E-03 0. -1.
</event>
<event>
 8    1  0.1094134E+005  0.1043930E+01  0.7957747E-01            NaN
         13   -1    0    0    0    0  0.00000000000E+00  0.00000000000E+00  0.74505805969E-08  0.10566000000E+00  0.10566000000E+00 0.  1.
     999900   -1    0    0    0    0 -0.00000000000E+00 -0.00000000000E+00 -0.74505805969E-08  0.93827000000E+00  0.93827000000E+00 0.  1.
     999902    2    1    2    0    0  0.15427866922E-01 -0.16392202473E-01 -0.21581266129E-02  0.10213162677E+01  0.10210658831E+01 0.  0.
     999903    2    3    3    0    0  0.14472560537E-01 -0.11166506526E+00  0.68649960137E-01  0.13334576357E+00  0.19741677381E-01 0.  0.
         14    1    1    2    0    0 -0.15427866922E-01  0.16392202473E-01  0.21581266129E-02  0.22613732336E-01  0.00000000000E+00 0.  1.
     999901    1    3    3    0    0  0.95530638483E-03  0.95272862792E-01 -0.70808086750E-01  0.88797050410E+00  0.88000000000E+00 0.  1.
        -11    1    4    4    0    0  0.19154150549E-01 -0.98099009648E-01  0.59676304463E-01  0.11641228291E+00  0.51100000000E-03 0.  1.
         11    1    4    4    0    0 -0.46815900115E-02 -0.13566055617E-01  0.89736556739E-02  0.16933480658E-01  0.51100000000E-03 0. -1.
</event>
<event>
 8    1  0.1094134E+005  0.1043930E+01  0.7957747E-01            NaN
         13   -1    0    0    0    0  0.00000000000E+00  0.00000000000E+00  0.74505805969E-08  0.10566000000E+00  0.10566000000E+00 0.  1.
     999900   -1    0    0    0    0 -0.00000000000E+00 -0.00000000000E+00 -0.74505805969E-08  0.93827000000E+00  0.93827000000E+00 0. -1.
     999902    2    1    2    0    0  0.21644647884E-01 -0.36413190294E-03 -0.98213181303E-03  0.10222600218E+01  0.10220303147E+01 0.  0.
     999903    2    3    3    0    0  0.19386884865E-01  0.12115876302E+00  0.48056073225E-01  0.13255352126E+00  0.14344081054E-01 0.  0.
         14    1    1    2    0    0 -0.21644647884E-01  0.36413190294E-03  0.98213181303E-03  0.21669978241E-01  0.00000000000E+00 0.  1.
     999901    1    3    3    0    0  0.22577630192E-02 -0.12152289493E+00 -0.49038205038E-01  0.88970650050E+00  0.88000000000E+00 0.  1.
        -11    1    4    4    0    0  0.78042229155E-02  0.77747508716E-01  0.35984091830E-01  0.86027303763E-01  0.51100000000E-03 0.  1.
         11    1    4    4    0    0  0.11582661949E-01  0.43411254307E-01  0.12071981395E-01  0.46526217492E-01  0.51100000000E-03 0. -1.
</event>
<event>
 8    1  0.1094134E+005  0.1043930E+01  0.7957747E-01            NaN
         13   -1    0    0    0    0  0.00000000000E+00  0.00000000000E+00  0.74505805969E-08  0.10566000000E+00  0.10566000000E+00 0.  1.
     999900   -1    0    0    0    0 -0.00000000000E+00 -0.00000000000E+00 -0.74505805969E-08  0.93827000000E+00  0.93827000000E+00 0. -1.
     999902    2    1    2    0    0 -0.29351396618E-02  0.22996410570E-01 -0.81704787145E-02  0.10193493843E+01  0.10190529725E+01 0.  0.
     999903    2    3    3    0    0 -0.10796763312E+00 -0.39362536734E-01  0.54169788551E-01  0.12872781941E+00  0.20738042310E-01 0.  0.
         14    1    1    2    0    0  0.29351396618E-02 -0.22996410570E-01  0.81704787145E-02  0.24580615663E-01  0.00000000000E+00 0.  1.
     999901    1    3    3    0    0  0.10503249346E+00  0.62358947303E-01 -0.62340267266E-01  0.89062156493E+00  0.88000000000E+00 0. -1.
        -11    1    4    4    0    0 -0.87726686959E-01 -0.23607416466E-01  0.45808857530E-01  0.10174475056E+00  0.51100000000E-03 0. -1.
         11    1    4    4    0    0 -0.20240946160E-01 -0.15755120267E-01  0.83609310220E-02  0.26983068851E-01  0.51100000000E-03 0.  1.
</event>
<event>
 8    1  0.1094134E+005  0.1043930E+01  0.7957747E-01            NaN
         13   -1    0    0    0    0  0.00000000000E+00  0.00000000000E+00  0.74505805969E-08  0.10566000000E+00  0.10566000000E+00 0. -1.
     999900   -1    0    0    0    0 -0.00000000000E+00 -0.00000000000E+00 -0.74505805969E-08  0.93827000000E+00  0.93827000000E+00 0. -1.
     999902    2    1    2    0    0  0.12290402224E-01  0.18712833567E-01  0.54857091839E-02  0.10208796826E+01  0.10206194243E+01 0.  0.
     999903    2    3    3    0    0  0.67081669495E-01 -0.52403111882E-01 -0.95733734062E-01  0.13053989558E+00  0.25093425095E-01 0.  0.
         14    1    1    2    0    0 -0.12290402224E-01 -0.18712833567E-01 -0.54857091839E-02  0.23050317399E-01  0.00000000000E+00 0.  1.
     999901    1    3    3    0    0 -0.54791267271E-01  0.71115945448E-01  0.10121944325E+00  0.89033978702E+00  0.88000000000E+00 0.  1.
        -11    1    4    4    0    0  0.40409520762E-01 -0.32342662092E-01 -0.39362433714E-01  0.65027989884E-01  0.51100000000E-03 0. -1.
         11    1    4    4    0    0  0.26672148733E-01 -0.20060449790E-01 -0.56371300348E-01  0.65511905694E-01  0.51100000000E-03 0.  1.
</event>
<event>
 8    1  0.1094134E+005  0.1043930E+01  0.7957747E-01            NaN
         13   -1    0    0    0    0  0.00000000000E+00  0.00000000000E+00  0.74505805969E-08  0.10566000000E+00  0.10566000000E+00 0. -1.
     999900   -1    0    0    0    0 -0.00000000000E+00 -0.00000000000E+00 -0.74505805969E-08  0.93827000000E+00  0.93827000000E+00 0.  1.
     999902    2    1    2    0    0 -0.13100328211E-01  0.17883021589E-01 -0.63310252000E-02  0.10208756525E+01  0.10206153021E+01 0.  0.
     999903    2    3    3    0    0  0.48650554152E-01 -0.27751256578E-01  0.11454012005E+00  0.12930092616E+00  0.21500738245E-01 0.  0.
         14    1    1    2    0    0  0.13100328211E-01 -0.17883021589E-01  0.63310252000E-02  0.23054347539E-01  0.00000000000E+00 0. -1.
     999901    1    3    3    0    0 -0.61750882362E-01  0.45634278167E-01 -0.12087114525E+00  0.89157472630E+00  0.88000000000E+00 0. -1.
        -11    1    4    4    0    0  0.12209373987E-01 -0.17391881924E-01  0.52035592871E-01  0.56209522472E-01  0.51100000000E-03 0.  1.
         11    1    4    4    0    0  0.36441180164E-01 -0.10359374654E-01  0.62504527179E-01  0.73091403693E-01  0.51100000000E-03 0. -1.
</event>
<event>
 8    1  0.1094134E+005  0.1043930E+01  0.7957747E-01            NaN
         13   -1    0    0    0    0  0.00000000000E+00  0.00000000000E+00  0.74505805969E-08  0.10566000000E+00  0.10566000000E+00 0.  1.
     999900   -1    0    0    0    0 -0.00000000000E+00 -0.00000000000E+00 -0.74505805969E-08  0.93827000000E+00  0.93827000000E+00 0.  1.
     999902    2    1    2    0    0 -0.22894193414E-01  0.23530326789E-02  0.33693847357E-02  0.10206698708E+01  0.10204047979E+01 0.  0.
     999903    2    3    3    0    0 -0.26958648553E-01  0.94773339461E-01  0.85258678226E-01  0.13203952627E+00  0.21369129168E-01 0.  0.
         14    1    1    2    0    0  0.22894193414E-01 -0.23530326789E-02 -0.33693847357E-02  0.23260129157E-01  0.00000000000E+00 0.  1.
     999901    1    3    3    0    0  0.40644551389E-02 -0.92420306782E-01 -0.81889293491E-01  0.88863034457E+00  0.88000000000E+00 0.  1.
        -11    1    4    4    0    0 -0.17514070594E-02  0.20257294457E-01  0.82313830870E-02  0.21941791038E-01  0.51100000000E-03 0.  1.
         11    1    4    4    0    0 -0.25207241494E-01  0.74516045004E-01  0.77027295139E-01  0.11009773524E+00  0.51100000000E-03 0. -1.
</event>
<event>
 8    1  0.1094134E+005  0.1043930E+01  0.7957747E-01            NaN
         13   -1    0    0    0    0  0.00000000000E+00  0.00000000000E+00  0.74505805969E-08  0.10566000000E+00  0.10566000000E+00 0.  1.
     999900   -1    0    0    0    0 -0.00000000000E+00 -0.00000000000E+00 -0.74505805969E-08  0.93827000000E+00  0.93827000000E+00 0. -1.
     999902    2    1    2    0    0 -0.22843022549E-01 -0.45200084879E-04  0.10478578840E-01  0.10187982206E+01  0.10184881972E+01 0.  0.
     999903    2    3    3    0    0  0.83993034689E-01 -0.91889899068E-01  0.19646605465E-01  0.12754435968E+00  0.19570159769E-01 0.  0.
         14    1    1    2    0    0  0.22843022549E-01  0.45200084879E-04 -0.10478578840E-01  0.25131779418E-01  0.00000000000E+00 0. -1.
     999901    1    3    3    0    0 -0.10683605724E+00  0.91844698983E-01 -0.91680266251E-02  0.89125386090E+00  0.88000000000E+00 0. -1.
        -11    1    4    4    0    0  0.10701709391E-01 -0.18203450857E-01 -0.25322900718E-02  0.21273594454E-01  0.51100000000E-03 0.  1.
         11    1    4    4    0    0  0.73291325298E-01 -0.73686448211E-01  0.22178895537E-01  0.10627076523E+00  0.51100000000E-03 0. -1.
</event>
<event>
 8    1  0.1094134E+005  0.1043930E+01  0.7957747E-01            NaN
         13   -1    0    0    0    0  0.00000000000E+00  0.00000000000E+00  0.74505805969E-08  0.10566000000E+00  0.10566000000E+00 0.  1.
     999900   -1    0    0    0    0 -0.00000000000E+00 -0.00000000000E+00 -0.74505805969E-08  0.93827000000E+00  0.93827000000E+00 0.  1.
     999902    2    1    2    0    0 -0.52257403965E-02  0.59031053883E-02  0.22768908315E-01  0.10198348096E+01  0.10195501266E+01 0.  0.
     999903    2    3    3    0    0  0.97781442904E-01 -0.47434211780E-01 -0.64598848165E-01  0.12793320396E+00  0.19562169319E-01 0.  0.
         14    1    1    2    0    0  0.52257403965E-02 -0.59031053883E-02 -0.22768908315E-01  0.24095190428E-01  0.00000000000E+00 0. -1.
     999901    1    3    3    0    0 -0.10300718330E+00  0.53337317168E-01  0.87367756480E-01  0.89190160561E+00  0.88000000000E+00 0. -1.
        -11    1    4    4    0    0  0.55170428473E-01 -0.33799469364E-01 -0.29718502435E-01  0.71201339981E-01  0.51100000000E-03 0. -1.
         11    1    4    4    0    0  0.42611014432E-01 -0.13634742415E-01 -0.34880345730E-01  0.56731863982E-01  0.51100000000E-03 0.  1.
</event>
<event>
 8    1  0.1094134E+005  0.1043930E+01  0.7957747E-01            NaN
         13   -1    0    0    0    0  0.00000000000E+00  0.00000000000E+00  0.74505805969E-08  0.10566000000E+00  0.10566000000E+00 0. -1.
     999900   -1    0    0    0    0 -0.00000000000E+00 -0.00000000000E+00 -0.74505805969E-08  0.93827000000E+00  0.93827000000E+00 0. -1.
     999902    2    1    2    0    0 -0.72886699270E-02  0.46495693675E-02 -0.23184826351E-01  0.10191857203E+01  0.10188852993E+01 0.  0.
     999903    2    3    3    0    0  0.95504384252E-01  0.25017536102E-01 -0.83707551099E-01  0.13090408351E+00  0.19543808361E-01 0.  0.
         14    1    1    2    0    0  0.72886699270E-02 -0.46495693675E-02  0.23184826351E-01  0.24744279693E-01  0.00000000000E+00 0. -1.
     999901    1    3    3    0    0 -0.10279305418E+00 -0.20367966734E-01  0.60522724748E-01  0.88828163680E+00  0.88000000000E+00 0.  1.
        -11    1    4    4    0    0  0.54114778073E-01  0.19990134900E-01 -0.38251571028E-01  0.69220361934E-01  0.51100000000E-03 0.  1.
         11    1    4    4    0    0  0.41389606179E-01  0.50274012022E-02 -0.45455980071E-01  0.61683721578E-01  0.51100000000E-03 0. -1.
</event>
<event>
 8    1  0.1094134E+005  0.1043930E+01  0.7957747E-01            NaN
         13   -1    0    0    0    0  0.00000000000E+00  0.00000000000E+00  0.74505805969E-08  0.10566000000E+00  0.10566000000E+00 0.  1.
     999900   -1    0    0    0    0 -0.00000000000E+00 -0.00000000000E+00 -0.74505805969E-08  0.93827000000E+00  0.93827000000E+00 0. -1.
     999902    2    1    2    0    0  0.69571008933E-02 -0.17460796535E-02  0.22856774433E-01  0.10199741618E+01  0.10196928011E+01 0.  0.
     999903    2    3    3    0    0  0.75655615345E-01  0.10441216123E+00  0.10093452876E-01  0.13084427230E+00  0.19816010125E-01 0.  0.
         14    1    1    2    0    0 -0.69571008933E-02  0.17460796535E-02 -0.22856774433E-01  0.23955838212E-01  0.00000000000E+00 0. -1.
     999901    1    3    3    0    0 -0.68698514452E-01 -0.10615824089E+00  0.12763321556E-01  0.88912988948E+00  0.88000000000E+00 0.  1.
        -11    1    4    4    0    0  0.28686669289E-01  0.41595779890E-01 -0.56423576813E-02  0.50845169100E-01  0.51100000000E-03 0. -1.
         11    1    4    4    0    0  0.46968946056E-01  0.62816381342E-01  0.15735810558E-01  0.79999103204E-01  0.51100000000E-03 0.  1.
</event>
<event>
 8    1  0.1094134E+005  0.1043930E+01  0.7957747E-01            NaN
         13   -1    0    0    0    0  0.00000000000E+00  0.00000000000E+00  0.74505805969E-08  0.10566000000E+00  0.10566000000E+00 0.  1.
     999900   -1    0    0    0    0 -0.00000000000E+00 -0.00000000000E+00 -0.74505805969E-08  0.93827000000E+00  0.93827000000E+00 0.  1.
     999902    2    1    2    0    0  0.45998807998E-04 -0.23493681963E-01  0.45932237698E-02  0.10199914764E+01  0.10197105271E+01 0.  0.
     999903    2    3    3    0    0  0.10628595701E+00 -0.66314060164E-01 -0.31412230908E-01  0.13183782624E+00  0.26461763808E-01 0.  0.
         14    1    1    2    0    0 -0.45998807998E-04  0.23493681963E-01 -0.45932237698E-02  0.23938523610E-01  0.00000000000E+00 0.  1.
     999901    1    3    3    0    0 -0.10623995820E+00  0.42820378202E-01  0.36005454678E-01  0.88815365015E+00  0.88000000000E+00 0.  1.
        -11    1    4    4    0    0  0.19100846885E-01 -0.17818738221E-01  0.30112710056E-02  0.26299784364E-01  0.51100000000E-03 0.  1.
         11    1    4    4    0    0  0.87185110125E-01 -0.48495321944E-01 -0.34423501914E-01  0.10553804188E+00  0.51100000000E-03 0. -1.
</event>
<event>
 8    1  0.1094134E+005  0.1043930E+01  0.7957747E-01            NaN
         13   -1    0    0    0    0  0.00000000000E+00  0.00000000000E+00  0.74505805969E-08  0.10566000000E+00  0.10566000000E+00 0. -1.
     999900   -1    0    0    0    0 -0.00000000000E+00 -0.00000000000E+00 -0.74505805969E-08  0.93827000000E+00  0.93827000000E+00 0.  1.
     999902    2    1    2    0    0 -0.63563219161E-02 -0.17178211453E-01 -0.14182690874E-01  0.10207644545E+01  0.10205015576E+01 0.  0.
     999903    2    3    3    0    0 -0.32361287253E-01  0.10634051068E+00  0.61346392239E-01  0.12855496380E+00  0.20185186445E-01 0.  0.
         14    1    1    2    0    0  0.63563219161E-02  0.17178211453E-01  0.14182690874E-01  0.23165545481E-01  0.00000000000E+00 0. -1.
     999901    1    3    3    0    0  0.26004965337E-01 -0.12351872213E+00 -0.75529083114E-01  0.89220949072E+00  0.88000000000E+00 0.  1.
        -11    1    4    4    0    0 -0.27318751325E-01  0.60454159767E-01  0.30391085076E-01  0.72971904046E-01  0.51100000000E-03 0. -1.
         11    1    4    4    0    0 -0.50425359282E-02  0.45886350912E-01  0.30955307164E-01  0.55583059750E-01  0.51100000000E-03 0.  1.
</event>
<event>
 8    1  0.1094134E+005  0.1043930E+01  0.7957747E-01            NaN
         13   -1    0    0    0    0  0.00000000000E+00  0.00000000000E+00  0.74505805969E-08  0.10566000000E+00  0.10566000000E+00 0.  1.
     999900   -1    0    0    0    0 -0.00000000000E+00 -0.00000000000E+00 -0.74505805969E-08  0.93827000000E+00  0.93827000000E+00 0. -1.
     999902    2    1    2    0    0 -0.40974747846E-02  0.14781526761E-01 -0.18158477827E-01  0.10201599947E+01  0.10198830334E+01 0.  0.
     999903    2    3    3    0    0  0.96611572547E-01  0.18218087669E-01 -0.85322311417E-01  0.13186662951E+00  0.21052707313E-01 0.  0.
         14    1    1    2    0    0  0.40974747846E-02 -0.14781526761E-01  0.18158477827E-01  0.23770005259E-01  0.00000000000E+00 0.  1.
     999901    1    3    3    0    0 -0.10070904733E+00 -0.34365609074E-02  0.67163833590E-01  0.88829336523E+00  0.88000000000E+00 0.  1.
        -11    1    4    4    0    0  0.45350623720E-01  0.17614982416E-01 -0.48878745127E-01  0.68966365161E-01  0.51100000000E-03 0. -1.
         11    1    4    4    0    0  0.51260948827E-01  0.60310525258E-03 -0.36443566290E-01  0.62900264352E-01  0.51100000000E-03 0.  1.
</event>
<event>
 8    1  0.1094134E+005  0.1043930E+01  0.7957747E-01            NaN
         13   -1    0    0    0    0  0.00000000000E+00  0.00000000000E+00  0.74505805969E-08  0.10566000000E+00  0.10566000000E+00 0. -1.
     999900   -1    0    0    0    0 -0.00000000000E+00 -0.00000000000E+00 -0.74505805969E-08  0.93827000000E+00  0.93827000000E+00 0.  1.
     999902    2    1    2    0    0  0.22484942041E-02 -0.70935572181E-02  0.23811045785E-01  0.10189832531E+01  0.10186778342E+01 0.  0.
     999903    2    3    3    0    0 -0.23577550887E-01 -0.11960793997E+00  0.43997238733E-01  0.13121416525E+00  0.20480232800E-01 0.  0.
         14    1    1    2    0    0 -0.22484942041E-02  0.70935572181E-02 -0.23811045785E-01  0.24946746914E-01  0.00000000000E+00 0.  1.
     999901    1    3    3    0    0  0.25826045091E-01  0.11251438276E+00 -0.20186192948E-01  0.88776908784E+00  0.88000000000E+00 0. -1.
        -11    1    4    4    0    0 -0.20200103944E-01 -0.74359626291E-01  0.36340666498E-01  0.85195677027E-01  0.51100000000E-03 0.  1.
         11    1    4    4    0    0 -0.33774469436E-02 -0.45248313682E-01  0.76565722346E-02  0.46018488223E-01  0.51100000000E-03 0. -1.
</event>
<event>
 8    1  0.1094134E+005  0.1043930E+01  0.7957747E-01            NaN
         13   -1    0    0    0    0  0.00000000000E+00  0.00000000000E+00  0.74505805969E-08  0.10566000000E+00  0.10566000000E+00 0.  1.
     999900   -1    0    0    0    0 -0.00000000000E+00 -0.00000000000E+00 -0.74505805969E-08  0.93827000000E+00  0.93827000000E+00 0. -1.
     999902    2    1    2    0    0  0.30975500842E-02 -0.56244636745E-02 -0.20860280761E-01  0.10221038523E+01  0.10218707865E+01 0.  0.
     999903    2    3    3    0    0  0.20876645927E-01  0.32013143068E-01  0.12213606650E+00  0.12959018801E+00  0.20389272027E-01 0.  0.
         14    1    1    2    0    0 -0.30975500842E-02  0.56244636745E-02  0.20860280761E-01  0.21826147657E-01  0.00000000000E+00 0.  1.
     999901    1    3    3    0    0 -0.17779095843E-01 -0.37637606742E-01 -0.14299634726E+00  0.89251366433E+00  0.88000000000E+00 0. -1.
        -11    1    4    4    0    0  0.11697845593E-01  0.19425619736E-01  0.99852456346E-01  0.10239613495E+00  0.51100000000E-03 0. -1.
         11    1    4    4    0    0  0.91788003343E-02  0.12587523332E-01  0.22283610156E-01  0.27194053059E-01  0.51100000000E-03 0.  1.
</event>
<event>
 8    1  0.1094134E+005  0.1043930E+01  0.7957747E-01            NaN
         13   -1    0    0    0    0  0.00000000000E+00  0.00000000000E+00  0.74505805969E-08  0.10566000000E+00  0.10566000000E+00 0. -1.
     999900   -1    0    0    0    0 -0.00000000000E+00 -0.00000000000E+00 -0.74505805969E-08  0.93827000000E+00  0.93827000000E+00 0.  1.
     999902    2    1    2    0    0  0.88743428909E-02  0.21407342857E-01 -0.27724016189E-02  0.10205908805E+01  0.10203239832E+01 0.  0.
     999903    2    3    3    0    0 -0.79257280603E-01 -0.60721044234E-01 -0.79020422516E-01  0.12911681146E+00  0.21404721076E-01 0.  0.
         14    1    1    2    0    0 -0.88743428909E-02 -0.21407342857E-01  0.27724016189E-02  0.23339119535E-01  0.00000000000E+00 0. -1.
     999901    1    3    3    0    0  0.88131623494E-01  0.82128387091E-01  0.76248020897E-01  0.89147406901E+00  0.88000000000E+00 0. -1.
        -11    1    4    4    0    0 -0.27049080942E-01 -0.10032225879E-01 -0.28298553461E-01  0.40414942594E-01  0.51100000000E-03 0.  1.
         11    1    4    4    0    0 -0.52208199661E-01 -0.50688818355E-01 -0.50721869055E-01  0.88701868861E-01  0.51100000000E-03 0. -1.
</event>
<event>
 8    1  0.1094134E+005  0.1043930E+01  0.7957747E-01            NaN
         13   -1    0    0    0    0  0.00000000000E+00  0.00000000000E+00  0.74505805969E-08  0.10566000000E+00  0.10566000000E+00 0.  1.
     999900   -1    0    0    0    0 -0.00000000000E+00 -0.00000000000E+00 -0.74505805969E-08  0.93827000000E+00  0.93827000000E+00 0.  1.
     999902    2    1    2    0    0  0.58967175900E-02 -0.22475512757E-01 -0.46796569366E-02  0.10202272757E+01  0.10199518983E+01 0.  0.
     999903    2    3    3    0    0  0.12427160963E+00  0.22857564553E-01 -0.27608003674E-01  0.13084917156E+00  0.19834379611E-01 0.  0.
         14    1    1    2    0    0 -0.58967175900E-02  0.22475512757E-01  0.46796569366E-02  0.23702724339E-01  0.00000000000E+00 0.  1.
     999901    1    3    3    0    0 -0.11837489204E+00 -0.45333077310E-01  0.22928346737E-01  0.88937810410E+00  0.88000000000E+00 0.  1.
        -11    1    4    4    0    0  0.90739647898E-01  0.25402885167E-01 -0.21807785710E-01  0.96720374865E-01  0.51100000000E-03 0. -1.
         11    1    4    4    0    0  0.33531961733E-01 -0.25453206140E-02 -0.58002179635E-02  0.34128796699E-01  0.51100000000E-03 0.  1.
</event>
<event>
 8    1  0.1094134E+005  0.1043930E+01  0.7957747E-01            NaN
         13   -1    0    0    0    0  0.00000000000E+00  0.00000000000E+00  0.74505805969E-08  0.10566000000E+00  0.10566000000E+00 0. -1.
     999900   -1    0    0    0    0 -0.00000000000E+00 -0.00000000000E+00 -0.74505805969E-08  0.93827000000E+00  0.93827000000E+00 0.  1.
     999902    2    1    2    0    0 -0.20256676576E-02  0.23118076376E-01 -0.31955171385E-02  0.10205043706E+01  0.10202354680E+01 0.  0.
     999903    2    3    3    0    0  0.11821603108E+00  0.19375596507E-01  0.48584854802E-01  0.13081157010E+00  0.20018366909E-01 0.  0.
         14    1    1    2    0    0  0.20256676576E-02 -0.23118076376E-01  0.31955171385E-02  0.23425629438E-01  0.00000000000E+00 0. -1.
     999901    1    3    3    0    0 -0.12024169873E+00  0.37424798687E-02 -0.51780371940E-01  0.88969280046E+00  0.88000000000E+00 0.  1.
        -11    1    4    4    0    0  0.66258298969E-01  0.77387063103E-03  0.26449272939E-01  0.71348344185E-01  0.51100000000E-03 0.  1.
         11    1    4    4    0    0  0.51957732106E-01  0.18601725876E-01  0.22135581863E-01  0.59463225918E-01  0.51100000000E-03 0. -1.
</event>
<event>
 8    1  0.1094134E+005  0.1043930E+01  0.7957747E-01            NaN
         13   -1    0    0    0    0  0.00000000000E+00  0.00000000000E+00  0.74505805969E-08  0.10566000000E+00  0.10566000000E+00 0. -1.
     999900   -1    0    0    0    0 -0.00000000000E+00 -0.00000000000E+00 -0.74505805969E-08  0.93827000000E+00  0.93827000000E+00 0. -1.
     999902    2    1    2    0    0  0.22392519139E-01 -0.36383050046E-02 -0.71983049182E-02  0.10201292065E+01  0.10198515187E+01 0.  0.
     999903    2    3    3    0    0 -0.92149353924E-01 -0.15071798472E-01 -0.84544457645E-01  0.12926839090E+00  0.29049768160E-01 0.  0.
         14    1    1    2    0    0 -0.22392519139E-01  0.36383050046E-02  0.71983049182E-02  0.23800793482E-01  0.00000000000E+00 0. -1.
     999901    1    3    3    0    0  0.11454187306E+00  0.11433493467E-01  0.77346152727E-01  0.89086081562E+00  0.88000000000E+00 0.  1.
        -11    1    4    4    0    0 -0.70779637403E-01 -0.22519730339E-01 -0.71720340314E-01  0.10325194265E+00  0.51100000000E-03 0.  1.
         11    1    4    4    0    0 -0.21369716521E-01  0.74479318673E-02 -0.12824117331E-01  0.26016448251E-01  0.51100000000E-03 0. -1.
</event>
<event>
 8    1  0.1094134E+005  0.1043930E+01  0.7957747E-01            NaN
         13   -1    0    0    0    0  0.00000000000E+00  0.00000000000E+00  0.74505805969E-08  0.10566000000E+00  0.10566000000E+00 0. -1.
     999900   -1    0    0    0    0 -0.00000000000E+00 -0.00000000000E+00 -0.74505805969E-08  0.93827000000E+00  0.93827000000E+00 0. -1.
     999902    2    1    2    0    0 -0.58678135528E-02 -0.21334210771E-01 -0.49024122844E-02  0.10212669589E+01  0.10210154690E+01 0.  0.
     999903    2    3    3    0    0 -0.57807779155E-01 -0.92027222892E-01  0.74420196135E-01  0.13335517377E+00  0.20844368404E-01 0.  0.
         14    1    1    2    0    0  0.58678135528E-02  0.21334210771E-01  0.49024122844E-02  0.22663041088E-01  0.00000000000E+00 0. -1.
     999901    1    3    3    0    0  0.51939965603E-01  0.70693012120E-01 -0.79322608420E-01  0.88791178514E+00  0.88000000000E+00 0. -1.
        -11    1    4    4    0    0 -0.17830815591E-01 -0.28057196508E-01  0.34869812869E-01  0.48179967113E-01  0.51100000000E-03 0.  1.
         11    1    4    4    0    0 -0.39976963564E-01 -0.63970026384E-01  0.39550383267E-01  0.85175206656E-01  0.51100000000E-03 0. -1.
</event>
<event>
 8    1  0.1094134E+005  0.1043930E+01  0.7957747E-01            NaN
         13   -1    0    0    0    0  0.00000000000E+00  0.00000000000E+00  0.74505805969E-08  0.10566000000E+00  0.10566000000E+00 0. -1.
     999900   -1    0    0    0    0 -0.00000000000E+00 -0.00000000000E+00 -0.74505805969E-08  0.93827000000E+00  0.93827000000E+00 0.  1.
     999902    2    1    2    0    0  0.84343662867E-02 -0.39691064287E-02 -0.21893376493E-01  0.10201347846E+01  0.10198572285E+01 0.  0.
     999903    2    3    3    0    0 -0.11356749279E+00 -0.52028380056E-01  0.24843427451E-01  0.12919231945E+00  0.21654832430E-01 0.  0.
         14    1    1    2    0    0 -0.84343662867E-02  0.39691064287E-02  0.21893376493E-01  0.23795215375E-01  0.00000000000E+00 0. -1.
     999901    1    3    3    0    0  0.12200185908E+00  0.48059273627E-01 -0.46736803944E-01  0.89094246517E+00  0.88000000000E+00 0.  1.
        -11    1    4    4    0    0 -0.32907285814E-01 -0.22007711347E-01  0.15887677363E-01  0.42660382457E-01  0.51100000000E-03 0. -1.
         11    1    4    4    0    0 -0.80660206981E-01 -0.30020668709E-01  0.89557500879E-02  0.86531936997E-01  0.51100000000E-03 0.  1.
</event>
<event>
 8    1  0.1094134E+005  0.1043930E+01  0.7957747E-01            NaN
         13   -1    0    0    0    0  0.00000000000E+00  0.00000000000E+00  0.74505805969E-08  0.10566000000E+00  0.10566000000E+00 0. -1.
     999900   -1    0    0    0    0 -0.00000000000E+00 -0.00000000000E+00 -0.74505805969E-08  0.93827000000E+00  0.93827000000E+00 0.  1.
     999902    2    1    2    0    0 -0.13990966601E-01 -0.17994079677E-01  0.57963776658E-02  0.10204112406E+01  0.10201401707E+01 0.  0.
     999903    2    3    3    0    0 -0.16906298451E-01  0.12277096902E+00 -0.28556158747E-01  0.12855733168E+00  0.18788282630E-01 0.  0.
         14    1    1    2    0    0  0.13990966601E-01  0.17994079677E-01 -0.57963776658E-02  0.23518759404E-01  0.00000000000E+00 0.  1.
     999901    1    3    3    0    0  0.29153318492E-02 -0.14076504870E+00  0.34352536413E-01  0.89185390892E+00  0.88000000000E+00 0.  1.
        -11    1    4    4    0    0 -0.18033482883E-01  0.83212497256E-01 -0.25401664364E-01  0.88853991908E-01  0.51100000000E-03 0. -1.
         11    1    4    4    0    0  0.11271844321E-02  0.39558471765E-01 -0.31544943827E-02  0.39703339770E-01  0.51100000000E-03 0.  1.
</event>
<event>
 7    1  0.1094134E+005  0.1043930E+01  0.7957747E-01            NaN
         13   -1    0    0    0    0  0.00000000000E+00  0.00000000000E+00  0.74505805969E-08  0.10566000000E+00  0.10566000000E+00 0. -1.
     999900   -1    0    0    0    0 -0.00000000000E+00 -0.00000000000E+00 -0.74505805969E-08  0.93827000000E+00  0.93827000000E+00 0. -1.
     999902    2    1    2    0    0  0.29258139342E-02  0.10588192986E-01  0.20679601629E-01  0.10205138487E+01  0.10202451663E+01 0.  0.
         14    1    1    2    0    0 -0.29258139342E-02 -0.10588192986E-01 -0.20679601629E-01  0.23416151294E-01  0.00000000000E+00 0.  1.
     999901    1    3    3    0    0 -0.25977122030E-01 -0.76746966784E-01  0.10565788942E+00  0.89001600962E+00  0.88000000000E+00 0.  1.
        -11    1    3    3    0    0  0.18738170607E-01  0.10573619256E-01 -0.16326830323E-01  0.27013829259E-01  0.51100000000E-03 0.  1.
         11    1    3    3    0    0  0.10164765358E-01  0.76761540514E-01 -0.68651457467E-01  0.10348400983E+00  0.51100000000E-03 0. -1.
</event>
<event>
 8    1  0.1094134E+005  0.1043930E+01  0.7957747E-01            NaN
         13   -1    0    0    0    0  0.00000000000E+00  0.00000000000E+00  0.74505805969E-08  0.10566000000E+00  0.10566000000E+00 0.  1.
     999900   -1    0    0    0    0 -0.00000000000E+00 -0.00000000000E+00 -0.74505805969E-08  0.93827000000E+00  0.93827000000E+00 0.  1.
     999902    2    1    2    0    0  0.53039645099E-02 -0.10165251423E-01  0.20731937758E-01  0.10202387016E+01  0.10199635928E+01 0.  0.
     999903    2    3    3    0    0 -0.10917544356E+00  0.48832615424E-01  0.48132059714E-01  0.13044262956E+00  0.19866620958E-01 0.  0.
         14    1    1    2    0    0 -0.53039645099E-02  0.10165251423E-01 -0.20731937758E-01  0.23691298386E-01  0.00000000000E+00 0. -1.
     999901    1    3    3    0    0  0.11447940807E+00 -0.58997866847E-01 -0.27400121956E-01  0.88979607206E+00  0.88000000000E+00 0. -1.
        -11    1    4    4    0    0 -0.87934996573E-01  0.35390946817E-01  0.29930711444E-01  0.99404181740E-01  0.51100000000E-03 0.  1.
         11    1    4    4    0    0 -0.21240446985E-01  0.13441668607E-01  0.18201348270E-01  0.31038447817E-01  0.51100000000E-03 0. -1.
</event>
<event>
 8    1  0.1094134E+005  0.1043930E+01  0.7957747E-01            NaN
         13   -1    0    0    0    0  0.00000000000E+00  0.00000000000E+00  0.74505805969E-08  0.10566000000E+00  0.10566000000E+00 0.  1.
     999900   -1    0    0    0    0 -0.00000000000E+00 -0.00000000000E+00 -0.74505805969E-08  0.93827000000E+00  0.93827000000E+00 0. -1.
     999902    2    1    2    0    0 -0.19818898362E-01  0.11656153293E-01 -0.63395967755E-02  0.10200795256E+01  0.10198006636E+01 0.  0.
     999903    2    3    3    0    0  0.10004619919E+00  0.25460701001E-01 -0.75009091557E-01  0.12919585942E+00  0.20192003573E-01 0.  0.
         14    1    1    2    0    0  0.19818898362E-01 -0.11656153293E-01  0.63395967755E-02  0.23850474401E-01  0.00000000000E+00 0. -1.
     999901    1    3    3    0    0 -0.11986509755E+00 -0.13804547708E-01  0.68669494782E-01  0.89088366618E+00  0.88000000000E+00 0. -1.
        -11    1    4    4    0    0  0.31729330313E-01  0.30857598688E-02 -0.13654192733E-01  0.34683863918E-01  0.51100000000E-03 0. -1.
         11    1    4    4    0    0  0.68316868874E-01  0.22374941132E-01 -0.61354898824E-01  0.94511995504E-01  0.51100000000E-03 0.  1.
</event>
<event>
 8    1  0.1094134E+005  0.1043930E+01  0.7957747E-01            NaN
         13   -1    0    0    0    0  0.00000000000E+00  0.00000000000E+00  0.74505805969E-08  0.10566000000E+00  0.10566000000E+00 0.  1.
     999900   -1    0    0    0    0 -0.00000000000E+00 -0.00000000000E+00 -0.74505805969E-08  0.93827000000E+00  0.93827000000E+00 0. -1.
     999902    2    1    2    0    0 -0.51859066585E-02 -0.20880764567E-01  0.11628069612E-01  0.10194736724E+01  0.10191802867E+01 0.  0.
     999903    2    3    3    0    0 -0.29236941176E-01  0.12036887622E+00 -0.21642061402E-01  0.12726471991E+00  0.19607779589E-01 0.  0.
         14    1    1    2    0    0  0.51859066585E-02  0.20880764567E-01 -0.11628069612E-01  0.24456327600E-01  0.00000000000E+00 0. -1.
     999901    1    3    3    0    0  0.24051034517E-01 -0.14124964079E+00  0.33270131014E-01  0.89220895249E+00  0.88000000000E+00 0. -1.
        -11    1    4    4    0    0 -0.13043806368E-02  0.92862034379E-02  0.34530343785E-02  0.10005975742E-01  0.51100000000E-03 0.  1.
         11    1    4    4    0    0 -0.27932560539E-01  0.11108267278E+00 -0.25095095780E-01  0.11725874417E+00  0.51100000000E-03 0. -1.
</event>
<event>
 8    1  0.1094134E+005  0.1043930E+01  0.7957747E-01            NaN
         13   -1    0    0    0    0  0.00000000000E+00  0.00000000000E+00  0.74505805969E-08  0.10566000000E+00  0.10566000000E+00 0. -1.
     999900   -1    0    0    0    0 -0.00000000000E+00 -0.00000000000E+00 -0.74505805969E-08  0.93827000000E+00  0.93827000000E+00 0. -1.
     999902    2    1    2    0    0 -0.14968778327E-01  0.12695098848E-01  0.14035103613E-01  0.10198008891E+01  0.10195153944E+01 0.  0.
     999903    2    3    3    0    0  0.15797622585E-01  0.12764107674E+00 -0.16804837273E-01  0.13125699530E+00  0.20104400249E-01 0.  0.
         14    1    1    2    0    0  0.14968778327E-01 -0.12695098848E-01 -0.14035103613E-01  0.24129110899E-01  0.00000000000E+00 0.  1.
     999901    1    3    3    0    0 -0.30766400912E-01 -0.11494597789E+00  0.30839940886E-01  0.88854389380E+00  0.88000000000E+00 0.  1.
        -11    1    4    4    0    0  0.16981625974E-01  0.71629550779E-01 -0.36512221062E-02  0.73707263614E-01  0.51100000000E-03 0. -1.
         11    1    4    4    0    0 -0.11840033894E-02  0.56011525957E-01 -0.13153615167E-01  0.57549731685E-01  0.51100000000E-03 0.  1.
</event>
<event>
 8    1  0.1094134E+005  0.1043930E+01  0.7957747E-01            NaN
         13   -1    0    0    0    0  0.00000000000E+00  0.00000000000E+00  0.74505805969E-08  0.10566000000E+00  0.10566000000E+00 0.  1.
     999900   -1    0    0    0    0 -0.00000000000E+00 -0.00000000000E+00 -0.74505805969E-08  0.93827000000E+00  0.93827000000E+00 0. -1.
     999902    2    1    2    0    0  0.21927272653E-01  0.66665873050E-02  0.71571230587E-02  0.10199201461E+01  0.10196375000E+01 0.  0.
     999903    2    3    3    0    0  0.44405338948E-01  0.10866100045E+00  0.57515541430E-01  0.13231432479E+00  0.20493801309E-01 0.  0.
         14    1    1    2    0    0 -0.21927272653E-01 -0.66665873050E-02 -0.71571230587E-02  0.24009853868E-01  0.00000000000E+00 0. -1.
     999901    1    3    3    0    0 -0.22478066295E-01 -0.10199441315E+00 -0.50358418371E-01  0.88760582134E+00  0.88000000000E+00 0. -1.
        -11    1    4    4    0    0  0.10468104376E-01  0.52193004838E-01  0.23972503290E-01  0.58383499366E-01  0.51100000000E-03 0.  1.
         11    1    4    4    0    0  0.33937234573E-01  0.56467995616E-01  0.33543038140E-01  0.73930825425E-01  0.51100000000E-03 0. -1.
</event>
<event>
 8    1  0.1094134E+005  0.1043930E+01  0.7957747E-01            NaN
         13   -1    0    0    0    0  0.00000000000E+00  0.00000000000E+00  0.74505805969E-08  0.10566000000E+00  0.10566000000E+00 0.  1.
     999900   -1    0    0    0    0 -0.00000000000E+00 -0.00000000000E+00 -0.74505805969E-08  0.93827000000E+00  0.93827000000E+00 0.  1.
     999902    2    1    2    0    0 -0.17266026986E-01 -0.12291226486E-01 -0.92149456383E-02  0.10208192847E+01  0.10205576451E+01 0.  0.
     999903    2    3    3    0    0  0.11567457333E+00  0.50859701822E-01  0.11126153794E-01  0.12836480227E+00  0.19657440819E-01 0.  0.
         14    1    1    2    0    0  0.17266026986E-01  0.12291226486E-01  0.92149456383E-02  0.23110715254E-01  0.00000000000E+00 0.  1.
     999901    1    3    3    0    0 -0.13294060032E+00 -0.63150928308E-01 -0.20341099433E-01  0.89245448247E+00  0.88000000000E+00 0. -1.
        -11    1    4    4    0    0  0.47479450276E-01  0.13427752395E-01 -0.24021493888E-02  0.49402774979E-01  0.51100000000E-03 0.  1.
         11    1    4    4    0    0  0.68195123056E-01  0.37431949427E-01  0.13528303183E-01  0.78962027295E-01  0.51100000000E-03 0. -1.
</event>
<event>
 8    1  0.1094134E+005  0.1043930E+01  0.7957747E-01            NaN
         13   -1    0    0    0    0  0.00000000000E+00  0.00000000000E+00  0.74505805969E-08  0.10566000000E+00  0.10566000000E+00 0. -1.
     999900   -1    0    0    0    0 -0.00000000000E+00 -0.00000000000E+00 -0.74505805969E-08  0.93827000000E+00  0.93827000000E+00 0.  1.
     999902    2    1    2    0    0  0.35965147392E-02  0.20388517095E-01 -0.12342150460E-01  0.10198269872E+01  0.10195421171E+01 0.  0.
     999903    2    3    3    0    0  0.11818335696E+00 -0.42763279530E-01  0.23218838821E-01  0.12944343065E+00  0.20505690054E-01 0.  0.
         14    1    1    2    0    0 -0.35965147392E-02 -0.20388517095E-01  0.12342150460E-01  0.24103012790E-01  0.00000000000E+00 0. -1.
     999901    1    3    3    0    0 -0.11458684222E+00  0.63151796625E-01 -0.35560989281E-01  0.89038355656E+00  0.88000000000E+00 0.  1.
        -11    1    4    4    0    0  0.24662094240E-01 -0.17465745200E-01  0.21909037469E-02  0.30303998547E-01  0.51100000000E-03 0. -1.
         11    1    4    4    0    0  0.93521262720E-01 -0.25297534330E-01  0.21027935074E-01  0.99139432106E-01  0.51100000000E-03 0.  1.
</event>
<event>
 8    1  0.1094134E+005  0.1043930E+01  0.7957747E-01            NaN
         13   -1    0    0    0    0  0.00000000000E+00  0.00000000000E+00  0.74505805969E-08  0.10566000000E+00  0.10566000000E+00 0.  1.
     999900   -1    0    0    0    0 -0.00000000000E+00 -0.00000000000E+00 -0.74505805969E-08  0.93827000000E+00  0.93827000000E+00 0. -1.
     999902    2    1    2    0    0  0.22869372738E-02  0.12238082713E-01 -0.13481121778E-01  0.10255794852E+01  0.10254153007E+01 0.  0.
     999903    2    3    3    0    0  0.32972105620E-02 -0.13224582341E+00 -0.45356379155E-02  0.13375178797E+00  0.19212999953E-01 0.  0.
         14    1    1    2    0    0 -0.22869372738E-02 -0.12238082713E-01  0.13481121778E-01  0.18350514842E-01  0.00000000000E+00 0.  1.
     999901    1    3    3    0    0 -0.10102732882E-02  0.14448390613E+00 -0.89454838620E-02  0.89182769718E+00  0.88000000000E+00 0.  1.
        -11    1    4    4    0    0 -0.40521691222E-02 -0.10412094048E+00  0.73790505781E-03  0.10420362732E+00  0.51100000000E-03 0. -1.
         11    1    4    4    0    0  0.73493796842E-02 -0.28124882935E-01 -0.52735429733E-02  0.29548160659E-01  0.51100000000E-03 0.  1.
</event>
<event>
 8    1  0.1094134E+005  0.1043930E+01  0.7957747E-01            NaN
         13   -1    0    0    0    0  0.00000000000E+00  0.00000000000E+00  0.74505805969E-08  0.10566000000E+00  0.10566000000E+00 0. -1.
     999900   -1    0    0    0    0 -0.00000000000E+00 -0.00000000000E+00 -0.74505805969E-08  0.93827000000E+00  0.93827000000E+00 0.  1.
     999902    2    1    2    0    0 -0.11039463888E-01 -0.10714482217E-01 -0.17519311874E-01  0.10206148508E+01  0.10203485079E+01 0.  0.
     999903    2    3    3    0    0  0.97150052760E-01  0.80983284119E-01 -0.17690821424E-01  0.12925999373E+00  0.19968869742E-01 0.  0.
         14    1    1    2    0    0  0.11039463888E-01  0.10714482217E-01  0.17519311874E-01  0.23315149167E-01  0.00000000000E+00 0. -1.
     999901    1    3    3    0    0 -0.10818951665E+00 -0.91697766337E-01  0.17150954972E-03  0.89135485710E+00  0.88000000000E+00 0. -1.
        -11    1    4    4    0    0  0.77128031505E-01  0.53483954573E-01 -0.15870588018E-01  0.95191403633E-01  0.51100000000E-03 0.  1.
         11    1    4    4    0    0  0.20022021255E-01  0.27499329547E-01 -0.18202334055E-02  0.34068590099E-01  0.51100000000E-03 0. -1.
</event>
<event>
 8    1  0.1094134E+005  0.1043930E+01  0.7957747E-01            NaN
         13   -1    0    0    0    0  0.00000000000E+00  0.00000000000E+00  0.74505805969E-08  0.10566000000E+00  0.10566000000E+00 0.  1.
     999900   -1    0    0    0    0 -0.00000000000E+00 -0.00000000000E+00 -0.74505805969E-08  0.93827000000E+00  0.93827000000E+00 0. -1.
     999902    2    1    2    0    0  0.35663633186E-02 -0.24469427392E-01  0.15501375778E-02  0.10191535041E+01  0.10188522906E+01 0.  0.
     999903    2    3    3    0    0  0.99742928900E-01  0.54007397588E-01  0.57502661232E-01  0.12868215207E+00  0.19674586463E-01 0.  0.
         14    1    1    2    0    0 -0.35663633186E-02  0.24469427392E-01 -0.15501375778E-02  0.24776495933E-01  0.00000000000E+00 0. -1.
     999901    1    3    3    0    0 -0.96176565581E-01 -0.78476824980E-01 -0.55952523654E-01  0.89047135200E+00  0.88000000000E+00 0. -1.
        -11    1    4    4    0    0  0.67200196690E-01  0.28335079900E-01  0.43545694379E-01  0.84942520613E-01  0.51100000000E-03 0.  1.
         11    1    4    4    0    0  0.32542732209E-01  0.25672317687E-01  0.13956966853E-01  0.43739631455E-01  0.51100000000E-03 0. -1.
</event>
<event>
 8    1  0.1094134E+005  0.1043930E+01  0.7957747E-01            NaN
         13   -1    0    0    0    0  0.00000000000E+00  0.00000000000E+00  0.74505805969E-08  0.10566000000E+00  0.10566000000E+00 0.  1.
     999900   -1    0    0    0    0 -0.00000000000E+00 -0.00000000000E+00 -0.74505805969E-08  0.93827000000E+00  0.93827000000E+00 0. -1.
     999902    2    1    2    0    0  0.42265917130E-02  0.15518758772E-01 -0.14313514296E-01  0.10223992628E+01  0.10221725295E+01 0.  0.
     999903    2    3    3    0    0 -0.27223918595E-01  0.63647565107E-01 -0.11404413257E+00  0.13490181900E+00  0.20007056463E-01 0.  0.
         14    1    1    2    0    0 -0.42265917130E-02 -0.15518758772E-01  0.14313514296E-01  0.21530737165E-01  0.00000000000E+00 0.  1.
     999901    1    3    3    0    0  0.31450510308E-01 -0.48128806334E-01  0.99730618270E-01  0.88749744384E+00  0.88000000000E+00 0.  1.
        -11    1    4    4    0    0  0.95765190568E-04  0.22357015698E-01 -0.40036133042E-01  0.45858460417E-01  0.51100000000E-03 0. -1.
         11    1    4    4    0    0 -0.27319683786E-01  0.41290549409E-01 -0.74007999525E-01  0.89043358581E-01  0.51100000000E-03 0.  1.
</event>
<event>
 8    1  0.1094134E+005  0.1043930E+01  0.7957747E-01            NaN
         13   -1    0    0    0    0  0.00000000000E+00  0.00000000000E+00  0.74505805969E-08  0.10566000000E+00  0.10566000000E+00 0.  1.
     999900   -1    0    0    0    0 -0.00000000000E+00 -0.00000000000E+00 -0.74505805969E-08  0.93827000000E+00  0.93827000000E+00 0.  1.
     999902    2    1    2    0    0 -0.36021320706E-02  0.17305554716E-01 -0.17172797672E-01  0.10192852732E+01  0.10189872941E+01 0.  0.
     999903    2    3    3    0    0  0.75773561458E-01 -0.63374070602E-02  0.10080131667E+00  0.12755808284E+00  0.18120808786E-01 0.  0.
         14    1    1    2    0    0  0.36021320706E-02 -0.17305554716E-01  0.17172797672E-01  0.24644726806E-01  0.00000000000E+00 0.  1.
     999901    1    3    3    0    0 -0.79375693529E-01  0.23642961776E-01 -0.11797411434E+00  0.89172719036E+00  0.88000000000E+00 0.  1.
        -11    1    4    4    0    0  0.58652252528E-01  0.27408414910E-02  0.77954717284E-01  0.97595071630E-01  0.51100000000E-03 0. -1.
         11    1    4    4    0    0  0.17121308930E-01 -0.90782485512E-02  0.22846599385E-01  0.29963011209E-01  0.51100000000E-03 0.  1.
</event>
<event>
 8    1  0.1094134E+005  0.1043930E+01  0.7957747E-01            NaN
         13   -1    0    0    0    0  0.00000000000E+00  0.00000000000E+00  0.74505805969E-08  0.10566000000E+00  0.10566000000E+00 0. -1.
     999900   -1    0    0    0    0 -0.00000000000E+00 -0.00000000000E+00 -0.74505805969E-08  0.93827000000E+00  0.93827000000E+00 0. -1.
     999902    2    1    2    0    0 -0.13648208812E-01 -0.35589644340E-02  0.16304511429E-01  0.10223713144E+01  0.10221439857E+01 0.  0.
     999903    2    3    3    0    0 -0.13845373674E-01  0.93900028664E-01  0.92109956165E-01  0.13375173345E+00  0.19909103956E-01 0.  0.
         14    1    1    2    0    0  0.13648208812E-01  0.35589644340E-02 -0.16304511429E-01  0.21558685594E-01  0.00000000000E+00 0.  1.
     999901    1    3    3    0    0  0.19716486130E-03 -0.97458993098E-01 -0.75805444736E-01  0.88861958096E+00  0.88000000000E+00 0. -1.
        -11    1    4    4    0    0 -0.36271854897E-02  0.11638880210E-01  0.22116594463E-01  0.25259154355E-01  0.51100000000E-03 0. -1.
         11    1    4    4    0    0 -0.10218188184E-01  0.82261148454E-01  0.69993361702E-01  0.10849257909E+00  0.51100000000E-03 0.  1.
</event>
<event>
 8    1  0.1094134E+005  0.1043930E+01  0.7957747E-01            NaN
         13   -1    0    0    0    0  0.00000000000E+00  0.00000000000E+00  0.74505805969E-08  0.10566000000E+00  0.10566000000E+00 0.  1.
     999900   -1    0    0    0    0 -0.00000000000E+00 -0.00000000000E+00 -0.74505805969E-08  0.93827000000E+00  0.93827000000E+00 0. -1.
     999902    2    1    2    0    0 -0.18569149986E-01 -0.81499518994E-02  0.12558093067E-01  0.10200775211E+01  0.10197986117E+01 0.  0.
     999903    2    3    3    0    0  0.89058368839E-01 -0.34950937807E-01  0.85418955262E-01  0.13012770181E+00  0.21996812179E-01 0.  0.
         14    1    1    2    0    0  0.18569149986E-01  0.81499518994E-02 -0.12558093067E-01  0.23852478879E-01  0.00000000000E+00 0. -1.
     999901    1    3    3    0    0 -0.10762751883E+00  0.26800985908E-01 -0.72860862195E-01  0.88994981931E+00  0.88000000000E+00 0. -1.
        -11    1    4    4    0    0  0.24331338115E-01 -0.19905276685E-01  0.32042442436E-01  0.44891127104E-01  0.51100000000E-03 0. -1.
         11    1    4    4    0    0  0.64727030724E-01 -0.15045661122E-01  0.53376512826E-01  0.85236574705E-01  0.51100000000E-03 0.  1.
</event>
<event>
 8    1  0.1094134E+005  0.1043930E+01  0.7957747E-01            NaN
         13   -1    0    0    0    0  0.00000000000E+00  0.00000000000E+00  0.74505805969E-08  0.10566000000E+00  0.10566000000E+00 0.  1.
     999900   -1    0    0    0    0 -0.00000000000E+00 -0.00000000000E+00 -0.74505805969E-08  0.93827000000E+00  0.93827000000E+00 0.  1.
     999902    2    1    2    0    0 -0.15442717157E-01  0.18558117503E-01 -0.57239596376E-03  0.10197802821E+01  0.10194942937E+01 0.  0.
     999903    2    3    3    0    0 -0.29302804250E-01 -0.11334054361E+00 -0.49190574710E-01  0.12851540219E+00  0.19792998694E-01 0.  0.
         14    1    1    2    0    0  0.15442717157E-01 -0.18558117503E-01  0.57239596376E-03  0.24149717919E-01  0.00000000000E+00 0.  1.
     999901    1    3    3    0    0  0.13860087093E-01  0.13189866111E+00  0.48618178746E-01  0.89126487989E+00  0.88000000000E+00 0.  1.
        -11    1    4    4    0    0 -0.19042825755E-02 -0.15113412781E-03  0.25550132882E-03  0.19938745149E-02  0.51100000000E-03 0.  1.
         11    1    4    4    0    0 -0.27398521675E-01 -0.11318940948E+00 -0.49446076038E-01  0.12652152768E+00  0.51100000000E-03 0. -1.
</event>
<event>
 8    1  0.1094134E+005  0.1043930E+01  0.7957747E-01            NaN
         13   -1    0    0    0    0  0.00000000000E+00  0.00000000000E+00  0.74505805969E-08  0.10566000000E+00  0.10566000000E+00 0. -1.
     999900   -1    0    0    0    0 -0.00000000000E+00 -0.00000000000E+00 -0.74505805969E-08  0.93827000000E+00  0.93827000000E+00 0.  1.
     999902    2    1    2    0    0  0.47915349176E-02 -0.82149072822E-02  0.17108418676E-01  0.10243559994E+01  0.10241689666E+01 0.  0.
     999903    2    3    3    0    0 -0.51943194926E-01 -0.10771835253E+00  0.61249071922E-01  0.13583579007E+00  0.19964320224E-01 0.  0.
         14    1    1    2    0    0 -0.47915349176E-02  0.82149072822E-02 -0.17108418676E-01  0.19574000565E-01  0.00000000000E+00 0.  1.
     999901    1    3    3    0    0  0.56734729843E-01  0.99503445244E-01 -0.44140653246E-01  0.88852020937E+00  0.88000000000E+00 0.  1.
        -11    1    4    4    0    0 -0.35613672094E-01 -0.50987057198E-01  0.32330680519E-01  0.70096702244E-01  0.51100000000E-03 0. -1.
         11    1    4    4    0    0 -0.16329522832E-01 -0.56731295328E-01  0.28918391403E-01  0.65739087823E-01  0.51100000000E-03 0.  1.
</event>
<event>
 8    1  0.1094134E+005  0.1043930E+01  0.7957747E-01            NaN
         13   -1    0    0    0    0  0.00000000000E+00  0.00000000000E+00  0.74505805969E-08  0.10566000000E+00  0.10566000000E+00 0.  1.
     999900   -1    0    0    0    0 -0.00000000000E+00 -0.00000000000E+00 -0.74505805969E-08  0.93827000000E+00  0.93827000000E+00 0.  1.
     999902    2    1    2    0    0  0.53775666208E-02 -0.57115905338E-02  0.23258575730E-01  0.10193840872E+01  0.10190885219E+01 0.  0.
     999903    2    3    3    0    0 -0.60677793350E-01  0.48732364804E-01 -0.98260317034E-01  0.12691879593E+00  0.19916146028E-01 0.  0.
         14    1    1    2    0    0 -0.53775666208E-02  0.57115905338E-02 -0.23258575730E-01  0.24545912779E-01  0.00000000000E+00 0. -1.
     999901    1    3    3    0    0  0.66055359971E-01 -0.54443955338E-01  0.12151889276E+00  0.89246529129E+00  0.88000000000E+00 0. -1.
        -11    1    4    4    0    0 -0.18564447875E-01  0.87491928815E-02 -0.15081915206E-01  0.25473758817E-01  0.51100000000E-03 0. -1.
         11    1    4    4    0    0 -0.42113345475E-01  0.39983171922E-01 -0.83178401828E-01  0.10144503712E+00  0.51100000000E-03 0.  1.
</event>
<event>
 8    1  0.1094134E+005  0.1043930E+01  0.7957747E-01            NaN
         13   -1    0    0    0    0  0.00000000000E+00  0.00000000000E+00  0.74505805969E-08  0.10566000000E+00  0.10566000000E+00 0.  1.
     999900   -1    0    0    0    0 -0.00000000000E+00 -0.00000000000E+00 -0.74505805969E-08  0.93827000000E+00  0.93827000000E+00 0.  1.
     999902    2    1    2    0    0  0.23129148076E-01  0.46272590868E-02  0.37097977431E-02  0.10200525710E+01  0.10197730708E+01 0.  0.
     999903    2    3    3    0    0  0.44746095350E-01  0.43955236141E-01  0.11434619670E+00  0.13199041383E+00  0.20301251441E-01 0.  0.
         14    1    1    2    0    0 -0.23129148076E-01 -0.46272590868E-02 -0.37097977431E-02  0.23877429022E-01  0.00000000000E+00 0. -1.
     999901    1    3    3    0    0 -0.21616947274E-01 -0.39327977055E-01 -0.11063639895E+00  0.88806215715E+00  0.88000000000E+00 0.  1.
        -11    1    4    4    0    0  0.41914596037E-01  0.43306538769E-01  0.95594871775E-01  0.11300854079E+00  0.51100000000E-03 0.  1.
         11    1    4    4    0    0  0.28314993129E-02  0.64869737218E-03  0.18751324922E-01  0.18981873037E-01  0.51100000000E-03 0. -1.
</event>
<event>
 8    1  0.1094134E+005  0.1043930E+01  0.7957747E-01            NaN
         13   -1    0    0    0    0  0.00000000000E+00  0.00000000000E+00  0.74505805969E-08  0.10566000000E+00  0.10566000000E+00 0. -1.
     999900   -1    0    0    0    0 -0.00000000000E+00 -0.00000000000E+00 -0.74505805969E-08  0.93827000000E+00  0.93827000000E+00 0. -1.
     999902    2    1    2    0    0 -0.20407980697E-01 -0.10981288638E-01  0.61376064842E-02  0.10199561686E+01  0.10196743801E+01 0.  0.
     999903    2    3    3    0    0 -0.55685148524E-01 -0.11649374679E-01 -0.11609898429E+00  0.13080673856E+00  0.19871713637E-01 0.  0.
         14    1    1    2    0    0  0.20407980697E-01  0.10981288638E-01 -0.61376064842E-02  0.23973831351E-01  0.00000000000E+00 0. -1.
     999901    1    3    3    0    0  0.35277167826E-01  0.66808604126E-03  0.12223659077E+00  0.88914943009E+00  0.88000000000E+00 0.  1.
        -11    1    4    4    0    0 -0.17081951727E-01  0.24717625986E-02 -0.20893137087E-01  0.27105109915E-01  0.51100000000E-03 0. -1.
         11    1    4    4    0    0 -0.38603196796E-01 -0.14121137278E-01 -0.95205847201E-01  0.10370162864E+00  0.51100000000E-03 0.  1.
</event>
<event>
 7    1  0.1094134E+005  0.1043930E+01  0.7957747E-01            NaN
         13   -1    0    0    0    0  0.00000000000E+00  0.00000000000E+00  0.74505805969E-08  0.10566000000E+00  0.10566000000E+00 0. -1.
     999900   -1    0    0    0    0 -0.00000000000E+00 -0.00000000000E+00 -0.74505805969E-08  0.93827000000E+00  0.93827000000E+00 0. -1.
     999902    2    1    2    0    0 -0.10591581922E-01  0.19542353578E-01 -0.75446388139E-02  0.10204564667E+01  0.10201864504E+01 0.  0.
         14    1    1    2    0    0  0.10591581922E-01 -0.19542353578E-01  0.75446388139E-02  0.23473533304E-01  0.00000000000E+00 0. -1.
     999901    1    3    3    0    0  0.13381179685E-01  0.45990073805E-01 -0.10272284051E-01  0.88136239010E+00  0.88000000000E+00 0.  1.
        -11    1    3    3    0    0 -0.53037898980E-01  0.97875703551E-02  0.49474584699E-01  0.73190237832E-01  0.51100000000E-03 0. -1.
         11    1    3    3    0    0  0.29065137373E-01 -0.36235290583E-01 -0.46746939462E-01  0.65903838767E-01  0.51100000000E-03 0.  1.
</event>
<event>
 8    1  0.1094134E+005  0.1043930E+01  0.7957747E-01            NaN
         13   -1    0    0    0    0  0.00000000000E+00  0.00000000000E+00  0.74505805969E-08  0.10566000000E+00  0.10566000000E+00 0.  1.
     999900   -1    0    0    0    0 -0.00000000000E+00 -0.00000000000E+00 -0.74505805969E-08  0.93827000000E+00  0.93827000000E+00 0. -1.
     999902    2    1    2    0    0 -0.11337121627E-01 -0.37250798105E-03 -0.21030424101E-01  0.10200354854E+01  0.10197555804E+01 0.  0.
     999903    2    3    3    0    0 -0.10798095990E+00 -0.41923092238E-01 -0.61757672277E-01  0.13283472389E+00  0.20337660138E-01 0.  0.
         14    1    1    2    0    0  0.11337121627E-01  0.37250798105E-03  0.21030424101E-01  0.23894514577E-01  0.00000000000E+00 0.  1.
     999901    1    3    3    0    0  0.96643838277E-01  0.41550584256E-01  0.40727248176E-01  0.88720076154E+00  0.88000000000E+00 0.  1.
        -11    1    4    4    0    0 -0.39954632700E-01 -0.21206195462E-01 -0.14712711815E-01  0.47568901712E-01  0.51100000000E-03 0.  1.
         11    1    4    4    0    0 -0.68026327205E-01 -0.20716896776E-01 -0.47044960462E-01  0.85265822173E-01  0.51100000000E-03 0. -1.
</event>
<event>
 8    1  0.1094134E+005  0.1043930E+01  0.7957747E-01            NaN
         13   -1    0    0    0    0  0.00000000000E+00  0.00000000000E+00  0.74505805969E-08  0.10566000000E+00  0.10566000000E+00 0.  1.
     999900   -1    0    0    0    0 -0.00000000000E+00 -0.00000000000E+00 -0.74505805969E-08  0.93827000000E+00  0.93827000000E+00 0. -1.
     999902    2    1    2    0    0 -0.16299955907E-01 -0.18730971978E-01 -0.19388879041E-02  0.10190242344E+01  0.10187198305E+01 0.  0.
     999903    2    3    3    0    0 -0.56942843312E-01 -0.18942419804E-02 -0.11571712065E+00  0.13060946301E+00  0.20550042803E-01 0.  0.
         14    1    1    2    0    0  0.16299955907E-01  0.18730971978E-01  0.19388879041E-02  0.24905765600E-01  0.00000000000E+00 0. -1.
     999901    1    3    3    0    0  0.40642887405E-01 -0.16836729997E-01  0.11377823275E+00  0.88841477139E+00  0.88000000000E+00 0.  1.
        -11    1    4    4    0    0 -0.12905667364E-01  0.73334342002E-02 -0.20707297018E-01  0.25483107700E-01  0.51100000000E-03 0. -1.
         11    1    4    4    0    0 -0.44037175948E-01 -0.92276761806E-02 -0.95009823634E-01  0.10512635531E+00  0.51100000000E-03 0.  1.
</event>
<event>
 8    1  0.1094134E+005  0.1043930E+01  0.7957747E-01            NaN
         13   -1    0    0    0    0  0.00000000000E+00  0.00000000000E+00  0.74505805969E-08  0.10566000000E+00  0.10566000000E+00 0. -1.
     999900   -1    0    0    0    0 -0.00000000000E+00 -0.00000000000E+00 -0.74505805969E-08  0.93827000000E+00  0.93827000000E+00 0.  1.
     999902    2    1    2    0    0 -0.32802037817E-02  0.14935321074E-01  0.17789357222E-01  0.10204718504E+01  0.10202021921E+01 0.  0.
     999903    2    3    3    0    0  0.97675784409E-02 -0.87247947320E-01 -0.90661805301E-01  0.12785025105E+00  0.20457611147E-01 0.  0.
         14    1    1    2    0    0  0.32802037817E-02 -0.14935321074E-01 -0.17789357222E-01  0.23458149604E-01  0.00000000000E+00 0.  1.
     999901    1    3    3    0    0 -0.13047782223E-01  0.10218326839E+00  0.10845116252E+00  0.89262159934E+00  0.88000000000E+00 0. -1.
        -11    1    4    4    0    0 -0.28590516559E-02 -0.25195020007E-01 -0.36928692675E-01  0.44799025360E-01  0.51100000000E-03 0. -1.
         11    1    4    4    0    0  0.12626630097E-01 -0.62052927312E-01 -0.53733112626E-01  0.83051225693E-01  0.51100000000E-03 0.  1.
</event>
<event>
 8    1  0.1094134E+005  0.1043930E+01  0.7957747E-01            NaN
         13   -1    0    0    0    0  0.00000000000E+00  0.00000000000E+00  0.74505805969E-08  0.10566000000E+00  0.10566000000E+00 0. -1.
     999900   -1    0    0    0    0 -0.00000000000E+00 -0.00000000000E+00 -0.74505805969E-08  0.93827000000E+00  0.93827000000E+00 0.  1.
     999902    2    1    2    0    0 -0.14573822061E-01  0.26193506008E-02  0.17793957964E-01  0.10207808698E+01  0.10205183497E+01 0.  0.
     999903    2    3    3    0    0  0.14768626847E-01 -0.11273523271E+00 -0.58723629701E-01  0.12947699325E+00  0.19709948321E-01 0.  0.
         14    1    1    2    0    0  0.14573822061E-01 -0.26193506008E-02 -0.17793957964E-01  0.23149130158E-01  0.00000000000E+00 0. -1.
     999901    1    3    3    0    0 -0.29342448909E-01  0.11535458331E+00  0.76517587665E-01  0.89130387659E+00  0.88000000000E+00 0. -1.
        -11    1    4    4    0    0 -0.25079207692E-02 -0.24541558444E-01 -0.19359113809E-01  0.31362623709E-01  0.51100000000E-03 0. -1.
         11    1    4    4    0    0  0.17276547617E-01 -0.88193674270E-01 -0.39364515892E-01  0.98114369545E-01  0.51100000000E-03 0.  1.
</event>
<event>
 8    1  0.1094134E+005  0.1043930E+01  0.7957747E-01            NaN
         13   -1    0    0    0    0  0.00000000000E+00  0.00000000000E+00  0.74505805969E-08  0.10566000000E+00  0.10566000000E+00 0. -1.
     999900   -1    0    0    0    0 -0.00000000000E+00 -0.00000000000E+00 -0.74505805969E-08  0.93827000000E+00  0.93827000000E+00 0. -1.
     999902    2    1    2    0    0 -0.19385348304E-01  0.30628156248E-02  0.13032502682E-01  0.10203711653E+01  0.10200991600E+01 0.  0.
     999903    2    3    3    0    0  0.30459877120E-01 -0.69173945044E-01  0.10532484459E+00  0.13120269277E+00  0.20198636424E-01 0.  0.
         14    1    1    2    0    0  0.19385348304E-01 -0.30628156248E-02 -0.13032502682E-01  0.23558834746E-01  0.00000000000E+00 0.  1.
     999901    1    3    3    0    0 -0.49845225424E-01  0.72236760669E-01 -0.92292341912E-01  0.88916847249E+00  0.88000000000E+00 0. -1.
        -11    1    4    4    0    0 -0.16870387521E-02 -0.57985462448E-02  0.15658001330E-01  0.16789978111E-01  0.51100000000E-03 0.  1.
         11    1    4    4    0    0  0.32146915872E-01 -0.63375398800E-01  0.89666843264E-01  0.11441271466E+00  0.51100000000E-03 0. -1.
</event>
<event>
 8    1  0.1094134E+005  0.1043930E+01  0.7957747E-01            NaN
         13   -1    0    0    0    0  0.00000000000E+00  0.00000000000E+00  0.74505805969E-08  0.10566000000E+00  0.10566000000E+00 0. -1.
     999900   -1    0    0    0    0 -0.00000000000E+00 -0.00000000000E+00 -0.74505805969E-08  0.93827000000E+00  0.93827000000E+00 0. -1.
     999902    2    1    2    0    0  0.26621490674E-01  0.37177537135E-02  0.12387669008E-01  0.10143330440E+01  0.10139011512E+01 0.  0.
     999903    2    3    3    0    0 -0.19510516310E-01 -0.10688440954E+00 -0.55402001145E-01  0.12362745859E+00  0.20234365220E-01 0.  0.
         14    1    1    2    0    0 -0.26621490674E-01 -0.37177537135E-02 -0.12387669008E-01  0.29596955955E-01  0.00000000000E+00 0.  1.
     999901    1    3    3    0    0  0.46132006984E-01  0.11060216326E+00  0.67789670152E-01  0.89070558546E+00  0.88000000000E+00 0.  1.
        -11    1    4    4    0    0 -0.16504671961E-01 -0.52838846668E-01 -0.19594052839E-01  0.58724236405E-01  0.51100000000E-03 0.  1.
         11    1    4    4    0    0 -0.30058443493E-02 -0.54045562876E-01 -0.35807948305E-01  0.64903222182E-01  0.51100000000E-03 0. -1.
</event>
<event>
 8    1  0.1094134E+005  0.1043930E+01  0.7957747E-01            NaN
         13   -1    0    0    0    0  0.00000000000E+00  0.00000000000E+00  0.74505805969E-08  0.10566000000E+00  0.10566000000E+00 0.  1.
     999900   -1    0    0    0    0 -0.00000000000E+00 -0.00000000000E+00 -0.74505805969E-08  0.93827000000E+00  0.93827000000E+00 0.  1.
     999902    2    1    2    0    0 -0.13614931767E-02  0.20513591980E-01 -0.10118569421E-02  0.10233463906E+01  0.10231393601E+01 0.  0.
     999903    2    3    3    0    0  0.12241376815E+00 -0.46992476292E-02  0.48045893977E-01  0.13297418447E+00  0.19144509595E-01 0.  0.
         14    1    1    2    0    0  0.13614931767E-02 -0.20513591980E-01  0.10118569421E-02  0.20583609355E-01  0.00000000000E+00 0. -1.
     999901    1    3    3    0    0 -0.12377526133E+00  0.25212839609E-01 -0.49057750919E-01  0.89037220617E+00  0.88000000000E+00 0.  1.
        -11    1    4    4    0    0  0.54317144672E-01 -0.11432426270E-01  0.19630718141E-01  0.58878508740E-01  0.51100000000E-03 0. -1.
         11    1    4    4    0    0  0.68096623478E-01  0.67331786410E-02  0.28415175836E-01  0.74095675734E-01  0.51100000000E-03 0.  1.
</event>
<event>
 8    1  0.1094134E+005  0.1043930E+01  0.7957747E-01            NaN
         13   -1    0    0    0    0  0.00000000000E+00  0.00000000000E+00  0.74505805969E-08  0.10566000000E+00  0.10566000000E+00 0.  1.
     999900   -1    0    0    0    0 -0.00000000000E+00 -0.00000000000E+00 -0.74505805969E-08  0.93827000000E+00  0.93827000000E+00 0. -1.
     999902    2    1    2    0    0  0.23400781472E-01  0.15035854685E-02  0.63758196267E-02  0.10196296210E+01  0.10193400098E+01 0.  0.
     999903    2    3    3    0    0  0.30558825657E-01  0.12372586364E+00  0.22383263745E-01  0.13100947655E+00  0.20507103423E-01 0.  0.
         14    1    1    2    0    0 -0.23400781472E-01 -0.15035854685E-02 -0.63758196267E-02  0.24300378983E-01  0.00000000000E+00 0. -1.
     999901    1    3    3    0    0 -0.71580441848E-02 -0.12222227818E+00 -0.16007444118E-01  0.88862014446E+00  0.88000000000E+00 0.  1.
        -11    1    4    4    0    0  0.37155054766E-02  0.47647816165E-01  0.21957576808E-02  0.47845604177E-01  0.51100000000E-03 0.  1.
         11    1    4    4    0    0  0.26843320181E-01  0.76078047480E-01  0.20187506064E-01  0.83163872377E-01  0.51100000000E-03 0. -1.
</event>
<event>
 8    1  0.1094134E+005  0.1043930E+01  0.7957747E-01            NaN
         13   -1    0    0    0    0  0.00000000000E+00  0.00000000000E+00  0.74505805969E-08  0.10566000000E+00  0.10566000000E+00 0. -1.
     999900   -1    0    0    0    0 -0.00000000000E+00 -0.00000000000E+00 -0.74505805969E-08  0.93827000000E+00  0.93827000000E+00 0. -1.
     999902    2    1    2    0    0 -0.27721214815E-02  0.12900120478E-01  0.19909577823E-01  0.10200450873E+01  0.10197654098E+01 0.  0.
     999903    2    3    3    0    0 -0.11949136720E+00 -0.12755648537E-02 -0.45908418747E-01  0.12978875283E+00  0.21394474759E-01 0.  0.
         14    1    1    2    0    0  0.27721214815E-02 -0.12900120478E-01 -0.19909577823E-01  0.23884912705E-01  0.00000000000E+00 0.  1.
     999901    1    3    3    0    0  0.11671924571E+00  0.14175685331E-01  0.65817996570E-01  0.89025633446E+00  0.88000000000E+00 0. -1.
        -11    1    4    4    0    0 -0.28205215169E-01 -0.19462453299E-02 -0.16211962271E-02  0.28323337229E-01  0.51100000000E-03 0. -1.
         11    1    4    4    0    0 -0.91286152028E-01  0.67068047624E-03 -0.44287222520E-01  0.10146541560E+00  0.51100000000E-03 0.  1.
</event>
<event>
 8    1  0.1094134E+005  0.1043930E+01  0.7957747E-01            NaN
         13   -1    0    0    0    0  0.00000000000E+00  0.00000000000E+00  0.74505805969E-08  0.10566000000E+00  0.10566000000E+00 0. -1.
     999900   -1    0    0    0    0 -0.00000000000E+00 -0.00000000000E+00 -0.74505805969E-08  0.93827000000E+00  0.93827000000E+00 0.  1.
     999902    2    1    2    0    0  0.21642608419E-01 -0.11576330815E-01 -0.98562365710E-03  0.10193660958E+01  0.10190700918E+01 0.  0.
     999903    2    3    3    0    0 -0.12336142267E+00 -0.17287901487E-01 -0.18207772313E-01  0.12731486777E+00  0.18990535605E-01 0.  0.
         14    1    1    2    0    0 -0.21642608419E-01  0.11576330815E-01  0.98562365710E-03  0.24563904175E-01  0.00000000000E+00 0.  1.
     999901    1    3    3    0    0  0.14500403109E+00  0.57115706715E-02  0.17222148656E-01  0.89205122806E+00  0.88000000000E+00 0. -1.
        -11    1    4    4    0    0 -0.83905546898E-01 -0.14804681971E-01 -0.20758359898E-01  0.87695439079E-01  0.51100000000E-03 0.  1.
         11    1    4    4    0    0 -0.39455875768E-01 -0.24832195153E-02  0.25505875842E-02  0.39619428691E-01  0.51100000000E-03 0. -1.
</event>
<event>
 8    1  0.1094134E+005  0.1043930E+01  0.7957747E-01            NaN
         13   -1    0    0    0    0  0.00000000000E+00  0.00000000000E+00  0.74505805969E-08  0.10566000000E+00  0.10566000000E+00 0. -1.
     999900   -1    0    0    0    0 -0.00000000000E+00 -0.00000000000E+00 -0.74505805969E-08  0.93827000000E+00  0.93827000000E+00 0. -1.
     999902    2    1    2    0    0 -0.85250335634E-02 -0.20802272756E-01  0.66198048366E-02  0.10204942887E+01  0.10202251519E+01 0.  0.
     999903    2    3    3    0    0 -0.44903296261E-01  0.11502409985E+00 -0.29832468425E-01  0.12858568926E+00  0.19936242059E-01 0.  0.
         14    1    1    2    0    0  0.85250335634E-02  0.20802272756E-01 -0.66198048366E-02  0.23435711321E-01  0.00000000000E+00 0.  1.
     999901    1    3    3    0    0  0.36378262698E-01 -0.13582637261E+00  0.36452273262E-01  0.89190859942E+00  0.88000000000E+00 0.  1.
        -11    1    4    4    0    0 -0.12967067224E-01  0.60522674133E-01 -0.14047656799E-01  0.63472330185E-01  0.51100000000E-03 0. -1.
         11    1    4    4    0    0 -0.31936229037E-01  0.54501425721E-01 -0.15784811626E-01  0.65113359073E-01  0.51100000000E-03 0.  1.
</event>
<event>
 8    1  0.1094134E+005  0.1043930E+01  0.7957747E-01            NaN
         13   -1    0    0    0    0  0.00000000000E+00  0.00000000000E+00  0.74505805969E-08  0.10566000000E+00  0.10566000000E+00 0. -1.
     999900   -1    0    0    0    0 -0.00000000000E+00 -0.00000000000E+00 -0.74505805969E-08  0.93827000000E+00  0.93827000000E+00 0. -1.
     999902    2    1    2    0    0  0.14082149267E-02 -0.13463856486E-01 -0.19564533235E-01  0.10201386263E+01  0.10198611609E+01 0.  0.
     999903    2    3    3    0    0  0.83473045389E-01  0.85034434979E-01  0.44093960212E-01  0.12857317522E+00  0.19702274464E-01 0.  0.
         14    1    1    2    0    0 -0.14082149267E-02  0.13463856486E-01  0.19564533235E-01  0.23791373677E-01  0.00000000000E+00 0. -1.
     999901    1    3    3    0    0 -0.82064830463E-01 -0.98498291465E-01 -0.63658493447E-01  0.89156545111E+00  0.88000000000E+00 0. -1.
        -11    1    4    4    0    0  0.33501475826E-01  0.47990701719E-01  0.19731423651E-01  0.61766062965E-01  0.51100000000E-03 0.  1.
         11    1    4    4    0    0  0.49971569564E-01  0.37043733260E-01  0.24362536561E-01  0.66807112250E-01  0.51100000000E-03 0. -1.
</event>
<event>
 8    1  0.1094134E+005  0.1043930E+01  0.7957747E-01            NaN
         13   -1    0    0    0    0  0.00000000000E+00  0.00000000000E+00  0.74505805969E-08  0.10566000000E+00  0.10566000000E+00 0. -1.
     999900   -1    0    0    0    0 -0.00000000000E+00 -0.00000000000E+00 -0.74505805969E-08  0.93827000000E+00  0.93827000000E+00 0.  1.
     999902    2    1    2    0    0 -0.92952219912E-02  0.92079704011E-02  0.19034033489E-01  0.10208327642E+01  0.10205714331E+01 0.  0.
     999903    2    3    3    0    0  0.61419207065E-01  0.63056680359E-01 -0.92546067821E-01  0.12934505646E+00  0.20418252312E-01 0.  0.
         14    1    1    2    0    0  0.92952219912E-02 -0.92079704011E-02 -0.19034033489E-01  0.23097235800E-01  0.00000000000E+00 0.  1.
     999901    1    3    3    0    0 -0.70714429056E-01 -0.53848709958E-01  0.11158010131E+00  0.89148770774E+00  0.88000000000E+00 0. -1.
        -11    1    4    4    0    0  0.51648519706E-02  0.15671211841E-01 -0.21242228933E-01  0.26902713385E-01  0.51100000000E-03 0.  1.
         11    1    4    4    0    0  0.56254355094E-01  0.47385468517E-01 -0.71303838888E-01  0.10244234308E+00  0.51100000000E-03 0. -1.
</event>
<event>
 8    1  0.1094134E+005  0.1043930E+01  0.7957747E-01            NaN
         13   -1    0    0    0    0  0.00000000000E+00  0.00000000000E+00  0.74505805969E-08  0.10566000000E+00  0.10566000000E+00 0.  1.
     999900   -1    0    0    0    0 -0.00000000000E+00 -0.00000000000E+00 -0.74505805969E-08  0.93827000000E+00  0.93827000000E+00 0. -1.
     999902    2    1    2    0    0 -0.10820017568E-01 -0.19635404772E-01 -0.13529528762E-02  0.10214699826E+01  0.10212230280E+01 0.  0.
     999903    2    3    3    0    0  0.70246546831E-02 -0.10537220010E+00 -0.79435028829E-01  0.13368282285E+00  0.20212050705E-01 0.  0.
         14    1    1    2    0    0  0.10820017568E-01  0.19635404772E-01  0.13529528762E-02  0.22460017414E-01  0.00000000000E+00 0.  1.
     999901    1    3    3    0    0 -0.17844672251E-01  0.85736795328E-01  0.78082075953E-01  0.88778715973E+00  0.88000000000E+00 0. -1.
        -11    1    4    4    0    0  0.28694959229E-02 -0.41898478326E-01 -0.44167851511E-01  0.60948968170E-01  0.51100000000E-03 0.  1.
         11    1    4    4    0    0  0.41551587602E-02 -0.63473721774E-01 -0.35267177318E-01  0.72733854683E-01  0.51100000000E-03 0. -1.
</event>
<event>
 8    1  0.1094134E+005  0.1043930E+01  0.7957747E-01            NaN
         13   -1    0    0    0    0  0.00000000000E+00  0.00000000000E+00  0.74505805969E-08  0.10566000000E+00  0.10566000000E+00 0. -1.
     999900   -1    0    0    0    0 -0.00000000000E+00 -0.00000000000E+00 -0.74505805969E-08  0.93827000000E+00  0.93827000000E+00 0.  1.
     999902    2    1    2    0    0  0.15730798545E-01 -0.12356892112E-02  0.18126793418E-01  0.10198974057E+01  0.10196142175E+01 0.  0.
     999903    2    3    3    0    0  0.32493047430E-01 -0.10784367844E+00  0.65792971322E-01  0.13202449761E+00  0.20388618915E-01 0.  0.
         14    1    1    2    0    0 -0.15730798545E-01  0.12356892112E-02 -0.18126793418E-01  0.24032594331E-01  0.00000000000E+00 0.  1.
     999901    1    3    3    0    0 -0.16762248885E-01  0.10660798923E+00 -0.47666177904E-01  0.88787290806E+00  0.88000000000E+00 0.  1.
        -11    1    4    4    0    0  0.55688406727E-02 -0.43970806615E-01  0.33464041391E-01  0.55538698293E-01  0.51100000000E-03 0. -1.
         11    1    4    4    0    0  0.26924206758E-01 -0.63872871828E-01  0.32328929930E-01  0.76485799313E-01  0.51100000000E-03 0.  1.
</event>
<event>
 8    1  0.1094134E+005  0.1043930E+01  0.7957747E-01            NaN
         13   -1    0    0    0    0  0.00000000000E+00  0.00000000000E+00  0.74505805969E-08  0.10566000000E+00  0.10566000000E+00 0.  1.
     999900   -1    0    0    0    0 -0.00000000000E+00 -0.00000000000E+00 -0.74505805969E-08  0.93827000000E+00  0.93827000000E+00 0. -1.
     999902    2    1    2    0    0 -0.47145415735E-02  0.10734355661E-01  0.21281222696E-01  0.10196330098E+01  0.10193434803E+01 0.  0.
     999903    2    3    3    0    0 -0.73820624943E-01  0.94294489696E-01  0.52582305599E-01  0.13242519617E+00  0.20750861788E-01 0.  0.
         14    1    1    2    0    0  0.47145415735E-02 -0.10734355661E-01 -0.21281222696E-01  0.24296990208E-01  0.00000000000E+00 0. -1.
     999901    1    3    3    0    0  0.69106083369E-01 -0.83560134035E-01 -0.31301082903E-01  0.88720781362E+00  0.88000000000E+00 0. -1.
        -11    1    4    4    0    0 -0.46221224761E-01  0.47287894141E-01  0.36784709303E-01  0.75669825626E-01  0.51100000000E-03 0.  1.
         11    1    4    4    0    0 -0.27599400182E-01  0.47006595555E-01  0.15797596296E-01  0.56755370545E-01  0.51100000000E-03 0. -1.
</event>
<event>
 8    1  0.1094134E+005  0.1043930E+01  0.7957747E-01            NaN
         13   -1    0    0    0    0  0.00000000000E+00  0.00000000000E+00  0.74505805969E-08  0.10566000000E+00  0.10566000000E+00 0.  1.
     999900   -1    0    0    0    0 -0.00000000000E+00 -0.00000000000E+00 -0.74505805969E-08  0.93827000000E+00  0.93827000000E+00 0. -1.
     999902    2    1    2    0    0 -0.16799538601E-02 -0.93603239198E-04 -0.23338140148E-01  0.10205312865E+01  0.10202630087E+01 0.  0.
     999903    2    3    3    0    0  0.53012877284E-01  0.71628479915E-01 -0.96452983914E-01  0.13290459508E+00  0.20480453975E-01 0.  0.
         14    1    1    2    0    0  0.16799538601E-02  0.93603239198E-04  0.23338140148E-01  0.23398713471E-01  0.00000000000E+00 0.  1.
     999901    1    3    3    0    0 -0.54692831144E-01 -0.71722083155E-01  0.73114843766E-01  0.88762669145E+00  0.88000000000E+00 0. -1.
        -11    1    4    4    0    0  0.12986494649E-01  0.25004658010E-01 -0.43261636280E-01  0.51630536121E-01  0.51100000000E-03 0.  1.
         11    1    4    4    0    0  0.40026382635E-01  0.46623821906E-01 -0.53191347634E-01  0.81274058961E-01  0.51100000000E-03 0. -1.
</event>
<event>
 8    1  0.1094134E+005  0.1043930E+01  0.7957747E-01            NaN
         13   -1    0    0    0    0  0.00000000000E+00  0.00000000000E+00  0.74505805969E-08  0.10566000000E+00  0.10566000000E+00 0.  1.
     999900   -1    0    0    0    0 -0.00000000000E+00 -0.00000000000E+00 -0.74505805969E-08  0.93827000000E+00  0.93827000000E+00 0.  1.
     999902    2    1    2    0    0  0.11623244817E-01  0.36374068114E-02 -0.22533247266E-01  0.10183159847E+01  0.10179937951E+01 0.  0.
     999903    2    3    3    0    0 -0.24477912842E-03 -0.43794278595E-01 -0.12234687987E+00  0.13132479193E+00  0.18958987493E-01 0.  0.
         14    1    1    2    0    0 -0.11623244817E-01 -0.36374068114E-02  0.22533247266E-01  0.25614015319E-01  0.00000000000E+00 0.  1.
     999901    1    3    3    0    0  0.11868023946E-01  0.47431685406E-01  0.99813632600E-01  0.88699119276E+00  0.88000000000E+00 0. -1.
        -11    1    4    4    0    0  0.61928627164E-02 -0.39435903780E-01 -0.10330055330E+00  0.11074659132E+00  0.51100000000E-03 0. -1.
         11    1    4    4    0    0 -0.64376418449E-02 -0.43583748151E-02 -0.19046326564E-01  0.20578200605E-01  0.51100000000E-03 0.  1.
</event>
<event>
 8    1  0.1094134E+005  0.1043930E+01  0.7957747E-01            NaN
         13   -1    0    0    0    0  0.00000000000E+00  0.00000000000E+00  0.74505805969E-08  0.10566000000E+00  0.10566000000E+00 0. -1.
     999900   -1    0    0    0    0 -0.00000000000E+00 -0.00000000000E+00 -0.74505805969E-08  0.93827000000E+00  0.93827000000E+00 0. -1.
     999902    2    1    2    0    0  0.14391887961E-02 -0.21508327955E-01 -0.95971795491E-02  0.10203337018E+01  0.10200608206E+01 0.  0.
     999903    2    3    3    0    0 -0.46830002950E-02 -0.10768094922E+00 -0.77663238560E-01  0.13348749736E+00  0.13046685803E-01 0.  0.
         14    1    1    2    0    0 -0.14391887961E-02  0.21508327955E-01  0.95971795491E-02  0.23596298250E-01  0.00000000000E+00 0. -1.
     999901    1    3    3    0    0  0.61221890911E-02  0.86172621266E-01  0.68066059011E-01  0.88684620439E+00  0.88000000000E+00 0. -1.
        -11    1    4    4    0    0 -0.75608141095E-02 -0.34918292991E-01 -0.26678192089E-01  0.44591929197E-01  0.51100000000E-03 0.  1.
         11    1    4    4    0    0  0.28778138145E-02 -0.72762656230E-01 -0.50985046471E-01  0.88895568161E-01  0.51100000000E-03 0. -1.
</event>
<event>
 8    1  0.1094134E+005  0.1043930E+01  0.7957747E-01            NaN
         13   -1    0    0    0    0  0.00000000000E+00  0.00000000000E+00  0.74505805969E-08  0.10566000000E+00  0.10566000000E+00 0.  1.
     999900   -1    0    0    0    0 -0.00000000000E+00 -0.00000000000E+00 -0.74505805969E-08  0.93827000000E+00  0.93827000000E+00 0.  1.
     999902    2    1    2    0    0  0.13999993985E-01 -0.10381863736E-01 -0.15793178345E-01  0.10204096384E+01  0.10201385312E+01 0.  0.
     999903    2    3    3    0    0  0.88579187423E-01  0.78781220442E-03 -0.97672862100E-01  0.13339718059E+00  0.20197195473E-01 0.  0.
         14    1    1    2    0    0 -0.13999993985E-01  0.10381863736E-01  0.15793178345E-01  0.23520361572E-01  0.00000000000E+00 0. -1.
     999901    1    3    3    0    0 -0.74579193438E-01 -0.11169675941E-01  0.81879683755E-01  0.88701245784E+00  0.88000000000E+00 0. -1.
        -11    1    4    4    0    0  0.28949863100E-01 -0.89096585485E-02 -0.36250038617E-01  0.47241962382E-01  0.51100000000E-03 0. -1.
         11    1    4    4    0    0  0.59629324323E-01  0.96974707529E-02 -0.61422823483E-01  0.86155218205E-01  0.51100000000E-03 0.  1.
</event>
<event>
 8    1  0.1094134E+005  0.1043930E+01  0.7957747E-01            NaN
         13   -1    0    0    0    0  0.00000000000E+00  0.00000000000E+00  0.74505805969E-08  0.10566000000E+00  0.10566000000E+00 0.  1.
     999900   -1    0    0    0    0 -0.00000000000E+00 -0.00000000000E+00 -0.74505805969E-08  0.93827000000E+00  0.93827000000E+00 0. -1.
     999902    2    1    2    0    0 -0.16216357240E-01 -0.80930540707E-02  0.17301584766E-01  0.10188738111E+01  0.10185656731E+01 0.  0.
     999903    2    3    3    0    0 -0.36090273638E-01 -0.93346259336E-01  0.83827162990E-01  0.13203181046E+00  0.19732555193E-01 0.  0.
         14    1    1    2    0    0  0.16216357240E-01  0.80930540707E-02 -0.17301584766E-01  0.25056188891E-01  0.00000000000E+00 0. -1.
     999901    1    3    3    0    0  0.19873916398E-01  0.85253205265E-01 -0.66525578224E-01  0.88684200065E+00  0.88000000000E+00 0. -1.
        -11    1    4    4    0    0 -0.15842249798E-01 -0.24263874102E-01  0.15918745329E-01  0.33066297630E-01  0.51100000000E-03 0.  1.
         11    1    4    4    0    0 -0.20248023840E-01 -0.69082385234E-01  0.67908417661E-01  0.98965512828E-01  0.51100000000E-03 0. -1.
</event>
<event>
 8    1  0.1094134E+005  0.1043930E+01  0.7957747E-01            NaN
         13   -1    0    0    0    0  0.00000000000E+00  0.00000000000E+00  0.74505805969E-08  0.10566000000E+00  0.10566000000E+00 0. -1.
     999900   -1    0    0    0    0 -0.00000000000E+00 -0.00000000000E+00 -0.74505805969E-08  0.93827000000E+00  0.93827000000E+00 0.  1.
     999902    2    1    2    0    0  0.17749520088E-01 -0.13416665019E-01 -0.79503740817E-02  0.10203024565E+01  0.10200288437E+01 0.  0.
     999903    2    3    3    0    0  0.20143691813E-01  0.18193276597E-01 -0.12730272134E+00  0.13167998140E+00  0.19921621626E-01 0.  0.
         14    1    1    2    0    0 -0.17749520088E-01  0.13416665019E-01  0.79503740817E-02  0.23627543495E-01  0.00000000000E+00 0. -1.
     999901    1    3    3    0    0 -0.23941717249E-02 -0.31609941616E-01  0.11935234726E+00  0.88862247511E+00  0.88000000000E+00 0. -1.
        -11    1    4    4    0    0  0.47962116746E-02  0.69763856648E-02 -0.83471867471E-01  0.83901653044E-01  0.51100000000E-03 0. -1.
         11    1    4    4    0    0  0.15347480138E-01  0.11216890933E-01 -0.43830853866E-01  0.47778328355E-01  0.51100000000E-03 0.  1.
</event>
<event>
 8    1  0.1094134E+005  0.1043930E+01  0.7957747E-01            NaN
         13   -1    0    0    0    0  0.00000000000E+00  0.00000000000E+00  0.74505805969E-08  0.10566000000E+00  0.10566000000E+00 0. -1.
     999900   -1    0    0    0    0 -0.00000000000E+00 -0.00000000000E+00 -0.74505805969E-08  0.93827000000E+00  0.93827000000E+00 0. -1.
     999902    2    1    2    0    0  0.20997574730E-02 -0.23494317578E-01 -0.50632771330E-02  0.10198047287E+01  0.10195193259E+01 0.  0.
     999903    2    3    3    0    0  0.43420027613E-01 -0.12101919566E+00  0.27491393452E-01  0.13285587271E+00  0.19077779864E-01 0.  0.
         14    1    1    2    0    0 -0.20997574730E-02  0.23494317578E-01  0.50632771330E-02  0.24125271298E-01  0.00000000000E+00 0.  1.
     999901    1    3    3    0    0 -0.41320270140E-01  0.97524878078E-01 -0.32554670585E-01  0.88694885599E+00  0.88000000000E+00 0. -1.
        -11    1    4    4    0    0  0.22300004666E-02 -0.19263967576E-01 -0.10546832521E-02  0.19427990803E-01  0.51100000000E-03 0. -1.
         11    1    4    4    0    0  0.41190027146E-01 -0.10175522808E+00  0.28546076704E-01  0.11342788191E+00  0.51100000000E-03 0.  1.
</event>
<event>
 8    1  0.1094134E+005  0.1043930E+01  0.7957747E-01            NaN
         13   -1    0    0    0    0  0.00000000000E+00  0.00000000000E+00  0.74505805969E-08  0.10566000000E+00  0.10566000000E+00 0. -1.
     999900   -1    0    0    0    0 -0.00000000000E+00 -0.00000000000E+00 -0.74505805969E-08  0.93827000000E+00  0.93827000000E+00 0.  1.
     999902    2    1    2    0    0  0.11619356798E-01 -0.20503165117E-01  0.12720521036E-02  0.10203289969E+01  0.10200560056E+01 0.  0.
     999903    2    3    3    0    0  0.10517006454E+00 -0.53276719347E-01  0.57371712090E-01  0.13298858157E+00  0.22255295539E-01 0.  0.
         14    1    1    2    0    0 -0.11619356798E-01  0.20503165117E-01 -0.12720521036E-02  0.23601003130E-01  0.00000000000E+00 0.  1.
     999901    1    3    3    0    0 -0.93550707744E-01  0.32773554230E-01 -0.56099659986E-01  0.88734041530E+00  0.88000000000E+00 0. -1.
        -11    1    4    4    0    0  0.63932752902E-01 -0.21819281110E-01  0.26097833010E-01  0.72421239499E-01  0.51100000000E-03 0.  1.
         11    1    4    4    0    0  0.41237311639E-01 -0.31457438237E-01  0.31273879079E-01  0.60567342069E-01  0.51100000000E-03 0. -1.
</event>
<event>
 8    1  0.1094134E+005  0.1043930E+01  0.7957747E-01            NaN
         13   -1    0    0    0    0  0.00000000000E+00  0.00000000000E+00  0.74505805969E-08  0.10566000000E+00  0.10566000000E+00 0. -1.
     999900   -1    0    0    0    0 -0.00000000000E+00 -0.00000000000E+00 -0.74505805969E-08  0.93827000000E+00  0.93827000000E+00 0. -1.
     999902    2    1    2    0    0 -0.11446235177E-01  0.23082253712E-03 -0.20528043509E-01  0.10204253164E+01  0.10201545747E+01 0.  0.
     999903    2    3    3    0    0 -0.17564084155E-01  0.25124059361E-01  0.12299348409E+00  0.12843006410E+00  0.20668062950E-01 0.  0.
         14    1    1    2    0    0  0.11446235177E-01 -0.23082253712E-03  0.20528043509E-01  0.23504683556E-01  0.00000000000E+00 0. -1.
     999901    1    3    3    0    0  0.61178489781E-02 -0.24893236824E-01 -0.14352152760E+00  0.89199525234E+00  0.88000000000E+00 0. -1.
        -11    1    4    4    0    0 -0.80165312042E-02 -0.24237233642E-03  0.48416768072E-01  0.49079201995E-01  0.51100000000E-03 0.  1.
         11    1    4    4    0    0 -0.95475529508E-02  0.25366431698E-01  0.74576716016E-01  0.79350862107E-01  0.51100000000E-03 0. -1.
</event>
<event>
 8    1  0.1094134E+005  0.1043930E+01  0.7957747E-01            NaN
         13   -1    0    0    0    0  0.00000000000E+00  0.00000000000E+00  0.74505805969E-08  0.10566000000E+00  0.10566000000E+00 0. -1.
     999900   -1    0    0    0    0 -0.00000000000E+00 -0.00000000000E+00 -0.74505805969E-08  0.93827000000E+00  0.93827000000E+00 0.  1.
     999902    2    1    2    0    0 -0.60882584112E-04  0.13955260061E-01 -0.17033010662E-01  0.10219100899E+01  0.10216728221E+01 0.  0.
     999903    2    3    3    0    0 -0.84004834010E-01 -0.71840908989E-01  0.65150302345E-01  0.12996745352E+00  0.20713491650E-01 0.  0.
         14    1    1    2    0    0  0.60882584112E-04 -0.13955260061E-01  0.17033010662E-01  0.22019910133E-01  0.00000000000E+00 0. -1.
     999901    1    3    3    0    0  0.83943951426E-01  0.85796169049E-01 -0.82183313007E-01  0.89194263635E+00  0.88000000000E+00 0. -1.
        -11    1    4    4    0    0 -0.25525343340E-01 -0.14172204096E-01  0.93037733838E-02  0.30646628554E-01  0.51100000000E-03 0.  1.
         11    1    4    4    0    0 -0.58479490670E-01 -0.57668704892E-01  0.55846528961E-01  0.99320824961E-01  0.51100000000E-03 0. -1.
</event>
<event>
 8    1  0.1094134E+005  0.1043930E+01  0.7957747E-01            NaN
         13   -1    0    0    0    0  0.00000000000E+00  0.00000000000E+00  0.74505805969E-08  0.10566000000E+00  0.10566000000E+00 0.  1.
     999900   -1    0    0    0    0 -0.00000000000E+00 -0.00000000000E+00 -0.74505805969E-08  0.93827000000E+00  0.93827000000E+00 0. -1.
     999902    2    1    2    0    0 -0.72825455045E-02 -0.83731720073E-02  0.21174231108E-01  0.10200240689E+01  0.10197438931E+01 0.  0.
     999903    2    3    3    0    0  0.37043306153E-01  0.50281720907E-01 -0.10939487032E+00  0.12735757584E+00  0.18768497121E-01 0.  0.
         14    1    1    2    0    0  0.72825455045E-02  0.83731720073E-02 -0.21174231108E-01  0.23905931095E-01  0.00000000000E+00 0. -1.
     999901    1    3    3    0    0 -0.44325851657E-01 -0.58654892914E-01  0.13056910143E+00  0.89266649306E+00  0.88000000000E+00 0.  1.
        -11    1    4    4    0    0  0.30869258853E-01  0.38480756578E-01 -0.69017090845E-01  0.84836900690E-01  0.51100000000E-03 0. -1.
         11    1    4    4    0    0  0.61740473000E-02  0.11800964329E-01 -0.40377779475E-01  0.42520675153E-01  0.51100000000E-03 0.  1.
</event>
<event>
 8    1  0.1094134E+005  0.1043930E+01  0.7957747E-01            NaN
         13   -1    0    0    0    0  0.00000000000E+00  0.00000000000E+00  0.74505805969E-08  0.10566000000E+00  0.10566000000E+00 0. -1.
     999900   -1    0    0    0    0 -0.00000000000E+00 -0.00000000000E+00 -0.74505805969E-08  0.93827000000E+00  0.93827000000E+00 0. -1.
     999902    2    1    2    0    0 -0.15376564863E-01  0.86750798889E-02  0.15473915889E-01  0.10204536751E+01  0.10201835939E+01 0.  0.
     999903    2    3    3    0    0 -0.12247253871E+00  0.60666014662E-02 -0.44513510651E-01  0.13192970630E+00  0.19689296187E-01 0.  0.
         14    1    1    2    0    0  0.15376564863E-01 -0.86750798889E-02 -0.15473915889E-01  0.23476324904E-01  0.00000000000E+00 0.  1.
     999901    1    3    3    0    0  0.10709597384E+00  0.26084784227E-02  0.59987426539E-01  0.88852396879E+00  0.88000000000E+00 0.  1.
        -11    1    4    4    0    0 -0.16788079100E-01 -0.55885573765E-02 -0.40087252596E-02  0.18149451029E-01  0.51100000000E-03 0. -1.
         11    1    4    4    0    0 -0.10568445961E+00  0.11655158843E-01 -0.40504785391E-01  0.11378025528E+00  0.51100000000E-03 0.  1.
</event>
<event>
 8    1  0.1094134E+005  0.1043930E+01  0.7957747E-01            NaN
         13   -1    0    0    0    0  0.00000000000E+00  0.00000000000E+00  0.74505805969E-08  0.10566000000E+00  0.10566000000E+00 0.  1.
     999900   -1    0    0    0    0 -0.00000000000E+00 -0.00000000000E+00 -0.74505805969E-08  0.93827000000E+00  0.93827000000E+00 0.  1.
     999902    2    1    2    0    0  0.19517749234E-01  0.14004008154E-01 -0.12171074412E-02  0.10198772220E+01  0.10195935523E+01 0.  0.
     999903    2    3    3    0    0 -0.23383949032E-01 -0.51001653218E-01 -0.11453574814E+00  0.12919916228E+00  0.20639966740E-01 0.  0.
         14    1    1    2    0    0 -0.19517749234E-01 -0.14004008154E-01  0.12171074412E-02  0.24052778012E-01  0.00000000000E+00 0.  1.
     999901    1    3    3    0    0  0.42901698266E-01  0.65005661372E-01  0.11331864070E+00  0.89067805971E+00  0.88000000000E+00 0. -1.
        -11    1    4    4    0    0 -0.58066607294E-02 -0.36266118381E-01 -0.74242280861E-01  0.82831914379E-01  0.51100000000E-03 0.  1.
         11    1    4    4    0    0 -0.17577288302E-01 -0.14735534837E-01 -0.40293467280E-01  0.46367247896E-01  0.51100000000E-03 0. -1.
</event>
<event>
 8    1  0.1134983E+005  0.1043930E+01  0.7957747E-01            NaN
         13   -1    0    0    0    0  0.00000000000E+00  0.00000000000E+00  0.74505805969E-08  0.10566000000E+00  0.10566000000E+00 0.  1.
     999900   -1    0    0    0    0 -0.00000000000E+00 -0.00000000000E+00 -0.74505805969E-08  0.93827000000E+00  0.93827000000E+00 0.  1.
     999902    2    1    2    0    0  0.49294988265E-02  0.77571191488E-02  0.21334341434E-01  0.10207001274E+01  0.10204357516E+01 0.  0.
     999903    2    3    3    0    0  0.11698749134E+00  0.52873744376E-01  0.28556928527E-01  0.13241826374E+00  0.15407544637E-01 0.  0.
         14    1    1    2    0    0 -0.49294988265E-02 -0.77571191488E-02 -0.21334341434E-01  0.23229872591E-01  0.00000000000E+00 0. -1.
     999901    1    3    3    0    0 -0.11205799251E+00 -0.45116625227E-01 -0.72225870935E-02  0.88828186367E+00  0.88000000000E+00 0. -1.
        -11    1    4    4    0    0  0.67930312865E-01  0.29455410526E-01  0.24129114709E-01  0.77875695264E-01  0.51100000000E-03 0. -1.
         11    1    4    4    0    0  0.49057178471E-01  0.23418333850E-01  0.44278138184E-02  0.54542568477E-01  0.51100000000E-03 0.  1.
</event>
<event>
 8    1  0.1094134E+005  0.1043930E+01  0.7957747E-01            NaN
         13   -1    0    0    0    0  0.00000000000E+00  0.00000000000E+00  0.74505805969E-08  0.10566000000E+00  0.10566000000E+00 0.  1.
     999900   -1    0    0    0    0 -0.00000000000E+00 -0.00000000000E+00 -0.74505805969E-08  0.93827000000E+00  0.93827000000E+00 0.  1.
     999902    2    1    2    0    0 -0.28064385838E-02  0.18541783285E-01 -0.71751280966E-02  0.10238512478E+01  0.10236543467E+01 0.  0.
     999903    2    3    3    0    0 -0.12718634167E+00 -0.79540996065E-02  0.35286831772E-01  0.13369653649E+00  0.19747662286E-01 0.  0.
         14    1    1    2    0    0  0.28064385838E-02 -0.18541783285E-01  0.71751280966E-02  0.20078752156E-01  0.00000000000E+00 0.  1.
     999901    1    3    3    0    0  0.12437990309E+00  0.26495882892E-01 -0.42461959868E-01  0.89015471135E+00  0.88000000000E+00 0.  1.
        -11    1    4    4    0    0 -0.86401843461E-01 -0.11729759490E-01  0.30860789405E-01  0.92496028320E-01  0.51100000000E-03 0. -1.
         11    1    4    4    0    0 -0.40784498210E-01  0.37756598835E-02  0.44260423666E-02  0.41200508175E-01  0.51100000000E-03 0.  1.
</event>
<event>
 8    1  0.1094134E+005  0.1043930E+01  0.7957747E-01            NaN
         13   -1    0    0    0    0  0.00000000000E+00  0.00000000000E+00  0.74505805969E-08  0.10566000000E+00  0.10566000000E+00 0.  1.
     999900   -1    0    0    0    0 -0.00000000000E+00 -0.00000000000E+00 -0.74505805969E-08  0.93827000000E+00  0.93827000000E+00 0.  1.
     999902    2    1    2    0    0  0.17095833098E-01 -0.15264230413E-01  0.39254069179E-02  0.10206776225E+01  0.10204127283E+01 0.  0.
     999903    2    3    3    0    0 -0.43019476518E-02  0.11857500198E+00  0.47115784996E-01  0.12925392196E+00  0.20202507246E-01 0.  0.
         14    1    1    2    0    0 -0.17095833098E-01  0.15264230413E-01 -0.39254069179E-02  0.23252377489E-01  0.00000000000E+00 0. -1.
     999901    1    3    3    0    0  0.21397780750E-01 -0.13383923239E+00 -0.43190378078E-01  0.89142370055E+00  0.88000000000E+00 0.  1.
        -11    1    4    4    0    0  0.59387498075E-04  0.91111918180E-01  0.27336464685E-01  0.95125856547E-01  0.51100000000E-03 0. -1.
         11    1    4    4    0    0 -0.43613351499E-02  0.27463083795E-01  0.19779320310E-01  0.34128065412E-01  0.51100000000E-03 0.  1.
</event>
<event>
 8    1  0.1094134E+005  0.1043930E+01  0.7957747E-01            NaN
         13   -1    0    0    0    0  0.00000000000E+00  0.00000000000E+00  0.74505805969E-08  0.10566000000E+00  0.10566000000E+00 0.  1.
     999900   -1    0    0    0    0 -0.00000000000E+00 -0.00000000000E+00 -0.74505805969E-08  0.93827000000E+00  0.93827000000E+00 0. -1.
     999902    2    1    2    0    0 -0.80732417400E-02 -0.32789953219E-03 -0.21714059032E-01  0.10207613766E+01  0.10204984090E+01 0.  0.
     999903    2    3    3    0    0 -0.73313508329E-02  0.12252552809E+00  0.38648529928E-01  0.13017889462E+00  0.19661688638E-01 0.  0.
         14    1    1    2    0    0  0.80732417400E-02  0.32789953219E-03  0.21714059032E-01  0.23168623393E-01  0.00000000000E+00 0.  1.
     999901    1    3    3    0    0 -0.74189090705E-03 -0.12285342762E+00 -0.60362588960E-01  0.89058248199E+00  0.88000000000E+00 0.  1.
        -11    1    4    4    0    0 -0.95573922998E-02  0.37253495864E-01  0.64430316698E-02  0.38999236913E-01  0.51100000000E-03 0.  1.
         11    1    4    4    0    0  0.22260414669E-02  0.85272032223E-01  0.32205498258E-01  0.91179657705E-01  0.51100000000E-03 0. -1.
</event>
<event>
 7    1  0.1337939E+005  0.1043930E+01  0.7957747E-01            NaN
         13   -1    0    0    0    0  0.00000000000E+00  0.00000000000E+00  0.74505805969E-08  0.10566000000E+00  0.10566000000E+00 0.  1.
     999900   -1    0    0    0    0 -0.00000000000E+00 -0.00000000000E+00 -0.74505805969E-08  0.93827000000E+00  0.93827000000E+00 0. -1.
     999903    2    1    2    0    0 -0.66050723769E-01  0.74499203215E-01 -0.48364341489E-01  0.11254203618E+00  0.20341361534E-01 0.  0.
         14    1    1    2    0    0  0.46666574048E-01  0.98494201601E-03  0.33830782578E-02  0.46799406649E-01  0.00000000000E+00 0.  1.
     999901    1    1    2    0    0  0.19384149721E-01 -0.75484145231E-01  0.44981263231E-01  0.88458855717E+00  0.88000000000E+00 0.  1.
        -11    1    3    3    0    0 -0.34551622238E-01  0.52934322139E-01 -0.26477158197E-01  0.68535816087E-01  0.51100000000E-03 0.  1.
         11    1    3    3    0    0 -0.31499101531E-01  0.21564881076E-01 -0.21887183292E-01  0.44006220090E-01  0.51100000000E-03 0. -1.
</event>
<event>
 8    1  0.1094134E+005  0.1043930E+01  0.7957747E-01            NaN
         13   -1    0    0    0    0  0.00000000000E+00  0.00000000000E+00  0.74505805969E-08  0.10566000000E+00  0.10566000000E+00 0. -1.
     999900   -1    0    0    0    0 -0.00000000000E+00 -0.00000000000E+00 -0.74505805969E-08  0.93827000000E+00  0.93827000000E+00 0. -1.
     999902    2    1    2    0    0  0.73260957602E-02 -0.17064433867E-01 -0.14422043279E-01  0.10204169841E+01  0.10201460482E+01 0.  0.
     999903    2    3    3    0    0  0.27416237870E-01  0.11831525301E+00  0.36385773055E-01  0.12838968208E+00  0.20244426156E-01 0.  0.
         14    1    1    2    0    0 -0.73260957602E-02  0.17064433867E-01  0.14422043279E-01  0.23513015855E-01  0.00000000000E+00 0. -1.
     999901    1    3    3    0    0 -0.20090142110E-01 -0.13537968687E+00 -0.50807816334E-01  0.89202730206E+00  0.88000000000E+00 0. -1.
        -11    1    4    4    0    0  0.17296418841E-01  0.87471869585E-01  0.35318488389E-01  0.95906990446E-01  0.51100000000E-03 0.  1.
         11    1    4    4    0    0  0.10119819029E-01  0.30843383423E-01  0.10672846655E-02  0.32482691633E-01  0.51100000000E-03 0. -1.
</event>
<event>
 8    1  0.1094134E+005  0.1043930E+01  0.7957747E-01            NaN
         13   -1    0    0    0    0  0.00000000000E+00  0.00000000000E+00  0.74505805969E-08  0.10566000000E+00  0.10566000000E+00 0. -1.
     999900   -1    0    0    0    0 -0.00000000000E+00 -0.00000000000E+00 -0.74505805969E-08  0.93827000000E+00  0.93827000000E+00 0. -1.
     999902    2    1    2    0    0 -0.22839445741E-01  0.29945186280E-02 -0.25145018977E-02  0.10207582469E+01  0.10204952074E+01 0.  0.
     999903    2    3    3    0    0  0.65983993963E-01 -0.10392114366E+00  0.32148154485E-01  0.12917422837E+00  0.22337991844E-01 0.  0.
         14    1    1    2    0    0  0.22839445741E-01 -0.29945186280E-02  0.25145018977E-02  0.23171753136E-01  0.00000000000E+00 0. -1.
     999901    1    3    3    0    0 -0.88823439704E-01  0.10691566229E+00 -0.34662656383E-01  0.89158401849E+00  0.88000000000E+00 0. -1.
        -11    1    4    4    0    0  0.42570590958E-01 -0.47502932094E-01  0.12464089838E-01  0.64995372362E-01  0.51100000000E-03 0.  1.
         11    1    4    4    0    0  0.23413403005E-01 -0.56418211567E-01  0.19684064647E-01  0.64178856010E-01  0.51100000000E-03 0. -1.
</event>
<event>
 8    1  0.1094134E+005  0.1043930E+01  0.7957747E-01            NaN
         13   -1    0    0    0    0  0.00000000000E+00  0.00000000000E+00  0.74505805969E-08  0.10566000000E+00  0.10566000000E+00 0. -1.
     999900   -1    0    0    0    0 -0.00000000000E+00 -0.00000000000E+00 -0.74505805969E-08  0.93827000000E+00  0.93827000000E+00 0.  1.
     999902    2    1    2    0    0  0.20829895975E-01 -0.10364289775E-01 -0.30521395466E-02  0.10204647358E+01  0.10201949119E+01 0.  0.
     999903    2    3    3    0    0 -0.12535415385E+00 -0.14177746635E-02 -0.17615699515E-01  0.12824171779E+00  0.20492714347E-01 0.  0.
         14    1    1    2    0    0 -0.20829895975E-01  0.10364289775E-01  0.30521395466E-02  0.23465264215E-01  0.00000000000E+00 0. -1.
     999901    1    3    3    0    0  0.14618404982E+00 -0.89465151115E-02  0.14563559968E-01  0.89222301799E+00  0.88000000000E+00 0.  1.
        -11    1    4    4    0    0 -0.10250530142E+00 -0.85378810398E-02 -0.17270059355E-01  0.10430123826E+00  0.51100000000E-03 0. -1.
         11    1    4    4    0    0 -0.22848852429E-01  0.71201063763E-02 -0.34564015969E-03  0.23940479533E-01  0.51100000000E-03 0.  1.
</event>
<event>
 8    1  0.1094134E+005  0.1043930E+01  0.7957747E-01            NaN
         13   -1    0    0    0    0  0.00000000000E+00  0.00000000000E+00  0.74505805969E-08  0.10566000000E+00  0.10566000000E+00 0.  1.
     999900   -1    0    0    0    0 -0.00000000000E+00 -0.00000000000E+00 -0.74505805969E-08  0.93827000000E+00  0.93827000000E+00 0.  1.
     999902    2    1    2    0    0 -0.72507846639E-02 -0.71232815663E-02 -0.21488226052E-01  0.10201590329E+01  0.10198820488E+01 0.  0.
     999903    2    3    3    0    0 -0.98516236517E-01 -0.84032401077E-01 -0.17119459654E-01  0.13209175983E+00  0.19704411354E-01 0.  0.
         14    1    1    2    0    0  0.72507846639E-02  0.71232815663E-02  0.21488226052E-01  0.23770967111E-01  0.00000000000E+00 0.  1.
     999901    1    3    3    0    0  0.91265451853E-01  0.76909119511E-01 -0.43687663979E-02  0.88806727306E+00  0.88000000000E+00 0. -1.
        -11    1    4    4    0    0 -0.89994714544E-01 -0.68757701699E-01 -0.12177187951E-01  0.11390880219E+00  0.51100000000E-03 0. -1.
         11    1    4    4    0    0 -0.85215219731E-02 -0.15274699379E-01 -0.49422717035E-02  0.18182957637E-01  0.51100000000E-03 0.  1.
</event>
<event>
 8    1  0.1094134E+005  0.1043930E+01  0.7957747E-01            NaN
         13   -1    0    0    0    0  0.00000000000E+00  0.00000000000E+00  0.74505805969E-08  0.10566000000E+00  0.10566000000E+00 0. -1.
     999900   -1    0    0    0    0 -0.00000000000E+00 -0.00000000000E+00 -0.74505805969E-08  0.93827000000E+00  0.93827000000E+00 0. -1.
     999902    2    1    2    0    0 -0.36392811849E-02 -0.22182344031E-01  0.79942831145E-02  0.10200718920E+01  0.10197928493E+01 0.  0.
     999903    2    3    3    0    0  0.68597597609E-01 -0.10164996689E+00 -0.44462800521E-01  0.13199249502E+00  0.20167596381E-01 0.  0.
         14    1    1    2    0    0  0.36392811849E-02  0.22182344031E-01 -0.79942831145E-02  0.23858107988E-01  0.00000000000E+00 0.  1.
     999901    1    3    3    0    0 -0.72236878794E-01  0.79467622861E-01  0.52457083636E-01  0.88807939699E+00  0.88000000000E+00 0. -1.
        -11    1    4    4    0    0  0.39116396387E-01 -0.41600182747E-01 -0.16105746043E-01  0.59332317058E-01  0.51100000000E-03 0.  1.
         11    1    4    4    0    0  0.29481201223E-01 -0.60049784146E-01 -0.28357054479E-01  0.72660177960E-01  0.51100000000E-03 0. -1.
</event>
<event>
 8    1  0.1094134E+005  0.1043930E+01  0.7957747E-01            NaN
         13   -1    0    0    0    0  0.00000000000E+00  0.00000000000E+00  0.74505805969E-08  0.10566000000E+00  0.10566000000E+00 0. -1.
     999900   -1    0    0    0    0 -0.00000000000E+00 -0.00000000000E+00 -0.74505805969E-08  0.93827000000E+00  0.93827000000E+00 0.  1.
     999902    2    1    2    0    0  0.22183346463E-01  0.95619360096E-02 -0.31921278404E-03  0.10197714947E+01  0.10194852957E+01 0.  0.
     999903    2    3    3    0    0 -0.12196826364E+00 -0.13372343891E-01 -0.27687048948E-01  0.12732840614E+00  0.19770518809E-01 0.  0.
         14    1    1    2    0    0 -0.22183346463E-01 -0.95619360096E-02  0.31921278404E-03  0.24158505280E-01  0.00000000000E+00 0.  1.
     999901    1    3    3    0    0  0.14415161011E+00  0.22934279901E-01  0.27367836164E-01  0.89244308858E+00  0.88000000000E+00 0.  1.
        -11    1    4    4    0    0 -0.30710075183E-01  0.48710821592E-02 -0.45403880073E-02  0.31427892124E-01  0.51100000000E-03 0.  1.
         11    1    4    4    0    0 -0.91258188462E-01 -0.18243426051E-01 -0.23146660941E-01  0.95900514019E-01  0.51100000000E-03 0. -1.
</event>
<event>
 8    1  0.1094134E+005  0.1043930E+01  0.7957747E-01            NaN
         13   -1    0    0    0    0  0.00000000000E+00  0.00000000000E+00  0.74505805969E-08  0.10566000000E+00  0.10566000000E+00 0.  1.
     999900   -1    0    0    0    0 -0.00000000000E+00 -0.00000000000E+00 -0.74505805969E-08  0.93827000000E+00  0.93827000000E+00 0. -1.
     999902    2    1    2    0    0  0.16177340587E-01  0.13480136789E-01  0.10918627947E-01  0.10202100322E+01  0.10199342493E+01 0.  0.
     999903    2    3    3    0    0  0.12147681485E-01 -0.12172459658E+00  0.37297347088E-01  0.12948426357E+00  0.20264225477E-01 0.  0.
         14    1    1    2    0    0 -0.16177340587E-01 -0.13480136789E-01 -0.10918627947E-01  0.23719967803E-01  0.00000000000E+00 0.  1.
     999901    1    3    3    0    0  0.40296591022E-02  0.13520473337E+00 -0.26378719141E-01  0.89072576863E+00  0.88000000000E+00 0. -1.
        -11    1    4    4    0    0 -0.14613448096E-02 -0.80329146201E-01  0.26312795015E-01  0.84543075177E-01  0.51100000000E-03 0. -1.
         11    1    4    4    0    0  0.13609026294E-01 -0.41395450378E-01  0.10984552073E-01  0.44941188390E-01  0.51100000000E-03 0.  1.
</event>
<event>
 8    1  0.1094134E+005  0.1043930E+01  0.7957747E-01            NaN
         13   -1    0    0    0    0  0.00000000000E+00  0.00000000000E+00  0.74505805969E-08  0.10566000000E+00  0.10566000000E+00 0. -1.
     999900   -1    0    0    0    0 -0.00000000000E+00 -0.00000000000E+00 -0.74505805969E-08  0.93827000000E+00  0.93827000000E+00 0.  1.
     999902    2    1    2    0    0 -0.82977247018E-02  0.21284378604E-01  0.26383279469E-02  0.10209335267E+01  0.10206744967E+01 0.  0.
     999903    2    3    3    0    0  0.14950600989E-01  0.39056453175E-01 -0.12336955183E+00  0.13147621071E+00  0.17805073958E-01 0.  0.
         14    1    1    2    0    0  0.82977247018E-02 -0.21284378604E-01 -0.26383279469E-02  0.22996473255E-01  0.00000000000E+00 0. -1.
     999901    1    3    3    0    0 -0.23248325691E-01 -0.17772074570E-01  0.12600787978E+00  0.88945731604E+00  0.88000000000E+00 0. -1.
        -11    1    4    4    0    0  0.92521886727E-02  0.34384539599E-01 -0.81214911798E-01  0.88679324411E-01  0.51100000000E-03 0. -1.
         11    1    4    4    0    0  0.56984123163E-02  0.46719135755E-02 -0.42154640035E-01  0.42796886299E-01  0.51100000000E-03 0.  1.
</event>
<event>
 8    1  0.1094134E+005  0.1043930E+01  0.7957747E-01            NaN
         13   -1    0    0    0    0  0.00000000000E+00  0.00000000000E+00  0.74505805969E-08  0.10566000000E+00  0.10566000000E+00 0.  1.
     999900   -1    0    0    0    0 -0.00000000000E+00 -0.00000000000E+00 -0.74505805969E-08  0.93827000000E+00  0.93827000000E+00 0. -1.
     999902    2    1    2    0    0  0.45551048267E-02  0.16938139360E-01  0.16431812408E-01  0.10198955663E+01  0.10196123342E+01 0.  0.
     999903    2    3    3    0    0 -0.60989713575E-02  0.12960538835E+00  0.18872490142E-01  0.13264510827E+00  0.20094768575E-01 0.  0.
         14    1    1    2    0    0 -0.45551048267E-02 -0.16938139360E-01 -0.16431812408E-01  0.24034433715E-01  0.00000000000E+00 0. -1.
     999901    1    3    3    0    0  0.10654076184E-01 -0.11266724899E+00 -0.24406777340E-02  0.88725045801E+00  0.88000000000E+00 0.  1.
        -11    1    4    4    0    0 -0.21775916271E-02  0.35937960560E-01  0.14423044798E-01  0.38788713007E-01  0.51100000000E-03 0. -1.
         11    1    4    4    0    0 -0.39213797305E-02  0.93667427789E-01  0.44494453447E-02  0.93856395266E-01  0.51100000000E-03 0.  1.
</event>
<event>
 8    1  0.1094134E+005  0.1043930E+01  0.7957747E-01            NaN
         13   -1    0    0    0    0  0.00000000000E+00  0.00000000000E+00  0.74505805969E-08  0.10566000000E+00  0.10566000000E+00 0. -1.
     999900   -1    0    0    0    0 -0.00000000000E+00 -0.00000000000E+00 -0.74505805969E-08  0.93827000000E+00  0.93827000000E+00 0. -1.
     999902    2    1    2    0    0 -0.22285801917E-01  0.52248679570E-02 -0.70525799571E-04  0.10210398015E+01  0.10207831871E+01 0.  0.
     999903    2    3    3    0    0  0.10925673379E+00 -0.60679161478E-01 -0.11044349912E-01  0.12875778074E+00  0.28941214924E-01 0.  0.
         14    1    1    2    0    0  0.22285801917E-01 -0.52248679570E-02  0.70525799571E-04  0.22890198473E-01  0.00000000000E+00 0. -1.
     999901    1    3    3    0    0 -0.13154253571E+00  0.65904029435E-01  0.10973824113E-01  0.89228202078E+00  0.88000000000E+00 0. -1.
        -11    1    4    4    0    0  0.16697118158E-01 -0.19011222279E-01  0.55332593045E-02  0.25905567101E-01  0.51100000000E-03 0.  1.
         11    1    4    4    0    0  0.92559615631E-01 -0.41667939199E-01 -0.16577609217E-01  0.10285221364E+00  0.51100000000E-03 0. -1.
</event>
<event>
 8    1  0.1094134E+005  0.1043930E+01  0.7957747E-01            NaN
         13   -1    0    0    0    0  0.00000000000E+00  0.00000000000E+00  0.74505805969E-08  0.10566000000E+00  0.10566000000E+00 0.  1.
     999900   -1    0    0    0    0 -0.00000000000E+00 -0.00000000000E+00 -0.74505805969E-08  0.93827000000E+00  0.93827000000E+00 0. -1.
     999902    2    1    2    0    0  0.25524905075E-02  0.46621945286E-03  0.21466134121E-01  0.10223076162E+01  0.10220789278E+01 0.  0.
     999903    2    3    3    0    0  0.11147439354E+00 -0.68843464277E-01 -0.20470860906E-02  0.13257693515E+00  0.20161601755E-01 0.  0.
         14    1    1    2    0    0 -0.25524905075E-02 -0.46621945286E-03 -0.21466134121E-01  0.21622383830E-01  0.00000000000E+00 0. -1.
     999901    1    3    3    0    0 -0.10892190303E+00  0.69309683730E-01  0.23513220212E-01  0.88973068102E+00  0.88000000000E+00 0. -1.
        -11    1    4    4    0    0  0.35661754689E-01 -0.32971260824E-01 -0.34417771547E-02  0.48692625097E-01  0.51100000000E-03 0.  1.
         11    1    4    4    0    0  0.75812638847E-01 -0.35872203453E-01  0.13946910641E-02  0.83884310057E-01  0.51100000000E-03 0. -1.
</event>
<event>
 8    1  0.1094134E+005  0.1043930E+01  0.7957747E-01            NaN
         13   -1    0    0    0    0  0.00000000000E+00  0.00000000000E+00  0.74505805969E-08  0.10566000000E+00  0.10566000000E+00 0. -1.
     999900   -1    0    0    0    0 -0.00000000000E+00 -0.00000000000E+00 -0.74505805969E-08  0.93827000000E+00  0.93827000000E+00 0. -1.
     999902    2    1    2    0    0  0.20380802705E-01 -0.38661136611E-03 -0.11479681339E-01  0.10205353495E+01  0.10202671660E+01 0.  0.
     999903    2    3    3    0    0  0.96573549150E-01  0.88660688886E-01 -0.37839097252E-02  0.13273245406E+00  0.20406328401E-01 0.  0.
         14    1    1    2    0    0 -0.20380802705E-01  0.38661136611E-03  0.11479681339E-01  0.23394650476E-01  0.00000000000E+00 0. -1.
     999901    1    3    3    0    0 -0.76192746445E-01 -0.89047300253E-01 -0.76957716137E-02  0.88780289546E+00  0.88000000000E+00 0. -1.
        -11    1    4    4    0    0  0.30555701248E-01  0.36384051918E-01  0.62551471405E-02  0.47925338804E-01  0.51100000000E-03 0.  1.
         11    1    4    4    0    0  0.66017847902E-01  0.52276636969E-01 -0.10039056866E-01  0.84807115257E-01  0.51100000000E-03 0. -1.
</event>
<event>
 8    1  0.1094134E+005  0.1043930E+01  0.7957747E-01            NaN
         13   -1    0    0    0    0  0.00000000000E+00  0.00000000000E+00  0.74505805969E-08  0.10566000000E+00  0.10566000000E+00 0.  1.
     999900   -1    0    0    0    0 -0.00000000000E+00 -0.00000000000E+00 -0.74505805969E-08  0.93827000000E+00  0.93827000000E+00 0. -1.
     999902    2    1    2    0    0  0.32209303953E-02  0.51844707923E-02 -0.22871664396E-01  0.10202579455E+01  0.10199832887E+01 0.  0.
     999903    2    3    3    0    0 -0.10314287501E+00 -0.77709715379E-01 -0.13189886802E-01  0.12993303742E+00  0.56007652129E-02 0.  0.
         14    1    1    2    0    0 -0.32209303953E-02 -0.51844707923E-02  0.22871664396E-01  0.23672054458E-01  0.00000000000E+00 0.  1.
     999901    1    3    3    0    0  0.10636380540E+00  0.82894186172E-01 -0.96817775935E-02  0.89032490812E+00  0.88000000000E+00 0. -1.
        -11    1    4    4    0    0 -0.26227346917E-01 -0.19728575958E-01 -0.96081601462E-03  0.32837093721E-01  0.51100000000E-03 0. -1.
         11    1    4    4    0    0 -0.76915528090E-01 -0.57981139421E-01 -0.12229070788E-01  0.97095943701E-01  0.51100000000E-03 0.  1.
</event>
<event>
 8    1  0.1094134E+005  0.1043930E+01  0.7957747E-01            NaN
         13   -1    0    0    0    0  0.00000000000E+00  0.00000000000E+00  0.74505805969E-08  0.10566000000E+00  0.10566000000E+00 0.  1.
     999900   -1    0    0    0    0 -0.00000000000E+00 -0.00000000000E+00 -0.74505805969E-08  0.93827000000E+00  0.93827000000E+00 0.  1.
     999902    2    1    2    0    0 -0.83256938392E-02  0.50425776187E-02 -0.20458455799E-01  0.10212740255E+01  0.10210226942E+01 0.  0.
     999903    2    3    3    0    0 -0.42147050921E-01 -0.10647811141E+00 -0.63737699040E-01  0.13253680833E+00  0.19737000141E-01 0.  0.
         14    1    1    2    0    0  0.83256938392E-02 -0.50425776187E-02  0.20458455799E-01  0.22655974502E-01  0.00000000000E+00 0. -1.
     999901    1    3    3    0    0  0.33821357082E-01  0.11152068903E+00  0.43279243241E-01  0.88873721716E+00  0.88000000000E+00 0. -1.
        -11    1    4    4    0    0 -0.12303822641E-01 -0.48246944444E-01 -0.19123168391E-01  0.53339557460E-01  0.51100000000E-03 0. -1.
         11    1    4    4    0    0 -0.29843228280E-01 -0.58231166963E-01 -0.44614530649E-01  0.79197250874E-01  0.51100000000E-03 0.  1.
</event>
<event>
 8    1  0.1094134E+005  0.1043930E+01  0.7957747E-01            NaN
         13   -1    0    0    0    0  0.00000000000E+00  0.00000000000E+00  0.74505805969E-08  0.10566000000E+00  0.10566000000E+00 0. -1.
     999900   -1    0    0    0    0 -0.00000000000E+00 -0.00000000000E+00 -0.74505805969E-08  0.93827000000E+00  0.93827000000E+00 0. -1.
     999902    2    1    2    0    0 -0.15214114905E-01  0.18877082958E-01 -0.28876579642E-02  0.10195137734E+01  0.10192213607E+01 0.  0.
     999903    2    3    3    0    0 -0.10971914966E-02 -0.55911613154E-01  0.11399713056E+00  0.12852853761E+00  0.19923024071E-01 0.  0.
         14    1    1    2    0    0  0.15214114905E-01 -0.18877082958E-01  0.28876579642E-02  0.24416226610E-01  0.00000000000E+00 0. -1.
     999901    1    3    3    0    0 -0.14116923409E-01  0.74788696112E-01 -0.11688478853E+00  0.89098523578E+00  0.88000000000E+00 0. -1.
        -11    1    4    4    0    0 -0.53657804577E-02 -0.46725439929E-01  0.77573518325E-01  0.90719183213E-01  0.51100000000E-03 0. -1.
         11    1    4    4    0    0  0.42685889611E-02 -0.91861732253E-02  0.36423612239E-01  0.37809354395E-01  0.51100000000E-03 0.  1.
</event>
<event>
 8    1  0.1094134E+005  0.1043930E+01  0.7957747E-01            NaN
         13   -1    0    0    0    0  0.00000000000E+00  0.00000000000E+00  0.74505805969E-08  0.10566000000E+00  0.10566000000E+00 0. -1.
     999900   -1    0    0    0    0 -0.00000000000E+00 -0.00000000000E+00 -0.74505805969E-08  0.93827000000E+00  0.93827000000E+00 0. -1.
     999902    2    1    2    0    0 -0.20772462090E-01 -0.79075865578E-02 -0.61558714527E-02  0.10208666121E+01  0.10206060552E+01 0.  0.
     999903    2    3    3    0    0 -0.10461166387E+00  0.46515870945E-01  0.63582191996E-01  0.13246674610E+00  0.19935325798E-01 0.  0.
         14    1    1    2    0    0  0.20772462090E-01  0.79075865578E-02  0.61558714527E-02  0.23063387864E-01  0.00000000000E+00 0. -1.
     999901    1    3    3    0    0  0.83839201784E-01 -0.54423457503E-01 -0.69738063448E-01  0.88839986604E+00  0.88000000000E+00 0. -1.
        -11    1    4    4    0    0 -0.72564602218E-01  0.38496964940E-01  0.37150042400E-01  0.90155557655E-01  0.51100000000E-03 0.  1.
         11    1    4    4    0    0 -0.32047061655E-01  0.80189060049E-02  0.26432149596E-01  0.42311188443E-01  0.51100000000E-03 0. -1.
</event>
<event>
 8    1  0.1094134E+005  0.1043930E+01  0.7957747E-01            NaN
         13   -1    0    0    0    0  0.00000000000E+00  0.00000000000E+00  0.74505805969E-08  0.10566000000E+00  0.10566000000E+00 0.  1.
     999900   -1    0    0    0    0 -0.00000000000E+00 -0.00000000000E+00 -0.74505805969E-08  0.93827000000E+00  0.93827000000E+00 0.  1.
     999902    2    1    2    0    0 -0.21252516877E-01 -0.10709967848E-01  0.11605124331E-02  0.10201031313E+01  0.10198248275E+01 0.  0.
     999903    2    3    3    0    0  0.11100264844E+00 -0.13116660559E-01 -0.59579166386E-01  0.12814655748E+00  0.19448094562E-01 0.  0.
         14    1    1    2    0    0  0.21252516877E-01  0.10709967848E-01 -0.11605124331E-02  0.23826868742E-01  0.00000000000E+00 0. -1.
     999901    1    3    3    0    0 -0.13225516532E+00  0.24066927117E-02  0.60739678819E-01  0.89195657378E+00  0.88000000000E+00 0. -1.
        -11    1    4    4    0    0  0.36299254564E-01 -0.50167053883E-02 -0.95470268684E-02  0.37870965896E-01  0.51100000000E-03 0. -1.
         11    1    4    4    0    0  0.74703393875E-01 -0.80999551710E-02 -0.50032139518E-01  0.90275591585E-01  0.51100000000E-03 0.  1.
</event>
<event>
 8    1  0.1094134E+005  0.1043930E+01  0.7957747E-01            NaN
         13   -1    0    0    0    0  0.00000000000E+00  0.00000000000E+00  0.74505805969E-08  0.10566000000E+00  0.10566000000E+00 0. -1.
     999900   -1    0    0    0    0 -0.00000000000E+00 -0.00000000000E+00 -0.74505805969E-08  0.93827000000E+00  0.93827000000E+00 0.  1.
     999902    2    1    2    0    0 -0.10993772596E-01  0.54882160218E-04 -0.20921436895E-01  0.10202958601E+01  0.10200220927E+01 0.  0.
     999903    2    3    3    0    0 -0.70787587180E-01 -0.14262763910E-01  0.10508136063E+00  0.12919709999E+00  0.20868381841E-01 0.  0.
         14    1    1    2    0    0  0.10993772596E-01 -0.54882160218E-04  0.20921436895E-01  0.23634139919E-01  0.00000000000E+00 0. -1.
     999901    1    3    3    0    0  0.59793814585E-01  0.14317646071E-01 -0.12600279753E+00  0.89109876009E+00  0.88000000000E+00 0. -1.
        -11    1    4    4    0    0 -0.59802773314E-02 -0.77491519131E-02  0.10579545901E-01  0.14422239244E-01  0.51100000000E-03 0.  1.
         11    1    4    4    0    0 -0.64807309849E-01 -0.65136119974E-02  0.94501814730E-01  0.11477486075E+00  0.51100000000E-03 0. -1.
</event>
<event>
 8    1  0.1094134E+005  0.1043930E+01  0.7957747E-01            NaN
         13   -1    0    0    0    0  0.00000000000E+00  0.00000000000E+00  0.74505805969E-08  0.10566000000E+00  0.10566000000E+00 0.  1.
     999900   -1    0    0    0    0 -0.00000000000E+00 -0.00000000000E+00 -0.74505805969E-08  0.93827000000E+00  0.93827000000E+00 0.  1.
     999902    2    1    2    0    0 -0.32233363444E-01  0.27628483455E-02 -0.15743831322E-01  0.10079509606E+01  0.10073086159E+01 0.  0.
     999903    2    3    3    0    0  0.66668120823E-01  0.29214298972E-01 -0.91677568418E-01  0.11876756263E+00  0.20070968686E-01 0.  0.
         14    1    1    2    0    0  0.32233363444E-01 -0.27628483455E-02  0.15743831322E-01  0.35979039379E-01  0.00000000000E+00 0.  1.
     999901    1    3    3    0    0 -0.98901484267E-01 -0.26451450627E-01  0.75933737096E-01  0.88918339799E+00  0.88000000000E+00 0. -1.
        -11    1    4    4    0    0  0.35216247394E-01  0.89880846186E-02 -0.57956614807E-01  0.68411987740E-01  0.51100000000E-03 0.  1.
         11    1    4    4    0    0  0.31451873429E-01  0.20226214354E-01 -0.33720953611E-01  0.50355574892E-01  0.51100000000E-03 0. -1.
</event>
<event>
 8    1  0.1094134E+005  0.1043930E+01  0.7957747E-01            NaN
         13   -1    0    0    0    0  0.00000000000E+00  0.00000000000E+00  0.74505805969E-08  0.10566000000E+00  0.10566000000E+00 0. -1.
     999900   -1    0    0    0    0 -0.00000000000E+00 -0.00000000000E+00 -0.74505805969E-08  0.93827000000E+00  0.93827000000E+00 0. -1.
     999902    2    1    2    0    0  0.66157245253E-02 -0.18571382579E-01  0.12597956024E-01  0.10205340055E+01  0.10202657908E+01 0.  0.
     999903    2    3    3    0    0  0.10125759381E+00  0.78161958681E-01 -0.10402484216E-01  0.12989185348E+00  0.20032219902E-01 0.  0.
         14    1    1    2    0    0 -0.66157245253E-02  0.18571382579E-01 -0.12597956024E-01  0.23395994484E-01  0.00000000000E+00 0. -1.
     999901    1    3    3    0    0 -0.94641869282E-01 -0.96733341260E-01  0.23000440240E-01  0.89064215204E+00  0.88000000000E+00 0.  1.
        -11    1    4    4    0    0  0.78048727244E-01  0.48961575984E-01 -0.87615210562E-02  0.92551959025E-01  0.51100000000E-03 0.  1.
         11    1    4    4    0    0  0.23208866563E-01  0.29200382697E-01 -0.16409631602E-02  0.37339894455E-01  0.51100000000E-03 0. -1.
</event>
<event>
 8    1  0.1094134E+005  0.1043930E+01  0.7957747E-01            NaN
         13   -1    0    0    0    0  0.00000000000E+00  0.00000000000E+00  0.74505805969E-08  0.10566000000E+00  0.10566000000E+00 0.  1.
     999900   -1    0    0    0    0 -0.00000000000E+00 -0.00000000000E+00 -0.74505805969E-08  0.93827000000E+00  0.93827000000E+00 0. -1.
     999902    2    1    2    0    0  0.68920356947E-02  0.60228164720E-02 -0.22096254158E-01  0.10200130829E+01  0.10197326465E+01 0.  0.
     999903    2    3    3    0    0  0.11384348690E-01 -0.12674595013E+00 -0.16032746711E-01  0.13002179512E+00  0.21318512355E-01 0.  0.
         14    1    1    2    0    0 -0.68920356947E-02 -0.60228164720E-02  0.22096254158E-01  0.23916917069E-01  0.00000000000E+00 0.  1.
     999901    1    3    3    0    0 -0.44923129958E-02  0.13276876660E+00 -0.60635074466E-02  0.88999128781E+00  0.88000000000E+00 0. -1.
        -11    1    4    4    0    0 -0.65292303851E-03 -0.76999987620E-01 -0.16870311900E-01  0.78830786794E-01  0.51100000000E-03 0. -1.
         11    1    4    4    0    0  0.12037271729E-01 -0.49745962510E-01  0.83756518882E-03  0.51191008324E-01  0.51100000000E-03 0.  1.
</event>
<event>
 8    1  0.1094134E+005  0.1043930E+01  0.7957747E-01            NaN
         13   -1    0    0    0    0  0.00000000000E+00  0.00000000000E+00  0.74505805969E-08  0.10566000000E+00  0.10566000000E+00 0. -1.
     999900   -1    0    0    0    0 -0.00000000000E+00 -0.00000000000E+00 -0.74505805969E-08  0.93827000000E+00  0.93827000000E+00 0.  1.
     999902    2    1    2    0    0  0.23873602358E-01 -0.59420254377E-04  0.25807127537E-02  0.10199172430E+01  0.10196345277E+01 0.  0.
     999903    2    3    3    0    0 -0.80020788201E-01  0.74249607197E-01  0.64897817666E-01  0.12851424911E+00  0.19694028893E-01 0.  0.
         14    1    1    2    0    0 -0.23873602358E-01  0.59420254377E-04 -0.25807127537E-02  0.24012756998E-01  0.00000000000E+00 0. -1.
     999901    1    3    3    0    0  0.10389439056E+00 -0.74309027451E-01 -0.62317104912E-01  0.89140299389E+00  0.88000000000E+00 0. -1.
        -11    1    4    4    0    0 -0.47658768370E-01  0.56292951618E-01  0.40023104884E-01  0.83918797954E-01  0.51100000000E-03 0. -1.
         11    1    4    4    0    0 -0.32362019831E-01  0.17956655579E-01  0.24874712782E-01  0.44595451159E-01  0.51100000000E-03 0.  1.
</event>
<event>
 8    1  0.1094134E+005  0.1043930E+01  0.7957747E-01            NaN
         13   -1    0    0    0    0  0.00000000000E+00  0.00000000000E+00  0.74505805969E-08  0.10566000000E+00  0.10566000000E+00 0.  1.
     999900   -1    0    0    0    0 -0.00000000000E+00 -0.00000000000E+00 -0.74505805969E-08  0.93827000000E+00  0.93827000000E+00 0.  1.
     999902    2    1    2    0    0  0.17392783290E-01 -0.11767489555E-01  0.22262982706E-03  0.10229292313E+01  0.10227136354E+01 0.  0.
     999903    2    3    3    0    0 -0.12808805539E+00 -0.15059919107E-01 -0.84131815048E-02  0.13093702746E+00  0.20985052758E-01 0.  0.
         14    1    1    2    0    0 -0.17392783290E-01  0.11767489555E-01 -0.22262982706E-03  0.21000768677E-01  0.00000000000E+00 0.  1.
     999901    1    3    3    0    0  0.14548083868E+00  0.32924295524E-02  0.86358113318E-02  0.89199220386E+00  0.88000000000E+00 0. -1.
        -11    1    4    4    0    0 -0.83417878703E-01 -0.41516451936E-02  0.29263854493E-02  0.83573940304E-01  0.51100000000E-03 0. -1.
         11    1    4    4    0    0 -0.44670176689E-01 -0.10908273913E-01 -0.11339566954E-01  0.47363087156E-01  0.51100000000E-03 0.  1.
</event>
<event>
 8    1  0.1094134E+005  0.1043930E+01  0.7957747E-01            NaN
         13   -1    0    0    0    0  0.00000000000E+00  0.00000000000E+00  0.74505805969E-08  0.10566000000E+00  0.10566000000E+00 0.  1.
     999900   -1    0    0    0    0 -0.00000000000E+00 -0.00000000000E+00 -0.74505805969E-08  0.93827000000E+00  0.93827000000E+00 0.  1.
     999902    2    1    2    0    0 -0.18319136489E-01  0.68617547573E-02 -0.14003207503E-01  0.10198724802E+01  0.10195886972E+01 0.  0.
     999903    2    3    3    0    0  0.95623438161E-01  0.25565766937E-01  0.78052921499E-01  0.12756811434E+00  0.19593745870E-01 0.  0.
         14    1    1    2    0    0  0.18319136489E-01 -0.68617547573E-02  0.14003207503E-01  0.24057519831E-01  0.00000000000E+00 0.  1.
     999901    1    3    3    0    0 -0.11394257465E+00 -0.18704012180E-01 -0.92056129002E-01  0.89230436583E+00  0.88000000000E+00 0.  1.
        -11    1    4    4    0    0  0.20445017347E-01 -0.20254188487E-02  0.19813562616E-01  0.28547144171E-01  0.51100000000E-03 0.  1.
         11    1    4    4    0    0  0.75178420814E-01  0.27591185786E-01  0.58239358883E-01  0.99020970169E-01  0.51100000000E-03 0. -1.
</event>
<event>
 8    1  0.1094134E+005  0.1043930E+01  0.7957747E-01            NaN
         13   -1    0    0    0    0  0.00000000000E+00  0.00000000000E+00  0.74505805969E-08  0.10566000000E+00  0.10566000000E+00 0.  1.
     999900   -1    0    0    0    0 -0.00000000000E+00 -0.00000000000E+00 -0.74505805969E-08  0.93827000000E+00  0.93827000000E+00 0.  1.
     999902    2    1    2    0    0  0.74714721304E-02 -0.34301346556E-02  0.20799141709E-01  0.10215650047E+01  0.10213201583E+01 0.  0.
     999903    2    3    3    0    0  0.63719424134E-01 -0.11291822599E+00  0.21902683300E-01  0.13299722896E+00  0.19946042314E-01 0.  0.
         14    1    1    2    0    0 -0.74714721304E-02  0.34301346556E-02 -0.20799141709E-01  0.22364995313E-01  0.00000000000E+00 0. -1.
     999901    1    3    3    0    0 -0.56247952003E-01  0.10948809133E+00 -0.11035415912E-02  0.88856777572E+00  0.88000000000E+00 0.  1.
        -11    1    4    4    0    0  0.32072649254E-01 -0.38633946732E-01  0.46570417954E-02  0.50430009216E-01  0.51100000000E-03 0.  1.
         11    1    4    4    0    0  0.31646774880E-01 -0.74284279257E-01  0.17245641504E-01  0.82567219748E-01  0.51100000000E-03 0. -1.
</event>
<event>
 8    1  0.1094134E+005  0.1043930E+01  0.7957747E-01            NaN
         13   -1    0    0    0    0  0.00000000000E+00  0.00000000000E+00  0.74505805969E-08  0.10566000000E+00  0.10566000000E+00 0. -1.
     999900   -1    0    0    0    0 -0.00000000000E+00 -0.00000000000E+00 -0.74505805969E-08  0.93827000000E+00  0.93827000000E+00 0.  1.
     999902    2    1    2    0    0  0.69936217674E-02  0.24135816381E-01  0.30505723149E-02  0.10186168736E+01  0.10183023032E+01 0.  0.
     999903    2    3    3    0    0  0.12815552200E-01  0.78696180471E-01  0.10244378590E+00  0.13132338261E+00  0.19843748453E-01 0.  0.
         14    1    1    2    0    0 -0.69936217674E-02 -0.24135816381E-01 -0.30505723149E-02  0.25313126422E-01  0.00000000000E+00 0.  1.
     999901    1    3    3    0    0 -0.58219304321E-02 -0.54560364089E-01 -0.99393213584E-01  0.88729349097E+00  0.88000000000E+00 0.  1.
        -11    1    4    4    0    0  0.14329996353E-01  0.49819470240E-01  0.53667642156E-01  0.74617728096E-01  0.51100000000E-03 0. -1.
         11    1    4    4    0    0 -0.15144441536E-02  0.28876710230E-01  0.48776143742E-01  0.56705654517E-01  0.51100000000E-03 0.  1.
</event>
<event>
 8    1  0.1094134E+005  0.1043930E+01  0.7957747E-01            NaN
         13   -1    0    0    0    0  0.00000000000E+00  0.00000000000E+00  0.74505805969E-08  0.10566000000E+00  0.10566000000E+00 0.  1.
     999900   -1    0    0    0    0 -0.00000000000E+00 -0.00000000000E+00 -0.74505805969E-08  0.93827000000E+00  0.93827000000E+00 0.  1.
     999902    2    1    2    0    0  0.98650115554E-02 -0.17851033782E-01  0.14468202434E-01  0.10189238659E+01  0.10186169731E+01 0.  0.
     999903    2    3    3    0    0  0.43242707438E-01  0.10434643609E+00  0.58584762217E-01  0.12875951981E+00  0.19716214330E-01 0.  0.
         14    1    1    2    0    0 -0.98650115554E-02  0.17851033782E-01 -0.14468202434E-01  0.25006134083E-01  0.00000000000E+00 0. -1.
     999901    1    3    3    0    0 -0.33377695883E-01 -0.12219746987E+00 -0.44116559783E-01  0.89016434610E+00  0.88000000000E+00 0.  1.
        -11    1    4    4    0    0  0.78841134098E-02  0.23125210719E-01  0.22122098642E-01  0.32963358209E-01  0.51100000000E-03 0.  1.
         11    1    4    4    0    0  0.35358594029E-01  0.81221225370E-01  0.36462663575E-01  0.95796161606E-01  0.51100000000E-03 0. -1.
</event>
<event>
 8    1  0.1094134E+005  0.1043930E+01  0.7957747E-01            NaN
         13   -1    0    0    0    0  0.00000000000E+00  0.00000000000E+00  0.74505805969E-08  0.10566000000E+00  0.10566000000E+00 0. -1.
     999900   -1    0    0    0    0 -0.00000000000E+00 -0.00000000000E+00 -0.74505805969E-08  0.93827000000E+00  0.93827000000E+00 0.  1.
     999902    2    1    2    0    0 -0.51715884550E-02 -0.10815191134E-01  0.20067417790E-01  0.10205544798E+01  0.10202867398E+01 0.  0.
     999903    2    3    3    0    0 -0.14308793465E-01 -0.12951563120E+00 -0.97515052216E-02  0.13203748441E+00  0.18967475850E-01 0.  0.
         14    1    1    2    0    0  0.51715884550E-02  0.10815191134E-01 -0.20067417790E-01  0.23375520169E-01  0.00000000000E+00 0.  1.
     999901    1    3    3    0    0  0.91372050099E-02  0.11870044006E+00  0.29818923012E-01  0.88851699542E+00  0.88000000000E+00 0. -1.
        -11    1    4    4    0    0 -0.62873181596E-02 -0.88050250316E-01 -0.14770506412E-01  0.89503105706E-01  0.51100000000E-03 0.  1.
         11    1    4    4    0    0 -0.80214753053E-02 -0.41465380881E-01  0.50190011902E-02  0.42534378702E-01  0.51100000000E-03 0. -1.
</event>
<event>
 8    1  0.1094134E+005  0.1043930E+01  0.7957747E-01            NaN
         13   -1    0    0    0    0  0.00000000000E+00  0.00000000000E+00  0.74505805969E-08  0.10566000000E+00  0.10566000000E+00 0. -1.
     999900   -1    0    0    0    0 -0.00000000000E+00 -0.00000000000E+00 -0.74505805969E-08  0.93827000000E+00  0.93827000000E+00 0.  1.
     999902    2    1    2    0    0  0.15291259868E-01 -0.14645508979E-01  0.10477492089E-01  0.10203060418E+01  0.10200325130E+01 0.  0.
     999903    2    3    3    0    0 -0.97275246992E-01 -0.46637723798E-01  0.70704973481E-01  0.13051838745E+00  0.19957585770E-01 0.  0.
         14    1    1    2    0    0 -0.15291259868E-01  0.14645508979E-01 -0.10477492089E-01  0.23623958222E-01  0.00000000000E+00 0. -1.
     999901    1    3    3    0    0  0.11256650686E+00  0.31992214819E-01 -0.60227481392E-01  0.88978765433E+00  0.88000000000E+00 0. -1.
        -11    1    4    4    0    0 -0.89514350327E-02 -0.11537076406E-01  0.10817177565E-01  0.18179790225E-01  0.51100000000E-03 0.  1.
         11    1    4    4    0    0 -0.88323811959E-01 -0.35100647392E-01  0.59887795916E-01  0.11233859723E+00  0.51100000000E-03 0. -1.
</event>
<event>
 8    1  0.1094134E+005  0.1043930E+01  0.7957747E-01            NaN
         13   -1    0    0    0    0  0.00000000000E+00  0.00000000000E+00  0.74505805969E-08  0.10566000000E+00  0.10566000000E+00 0.  1.
     999900   -1    0    0    0    0 -0.00000000000E+00 -0.00000000000E+00 -0.74505805969E-08  0.93827000000E+00  0.93827000000E+00 0. -1.
     999902    2    1    2    0    0  0.11996507435E-01  0.35410791749E-02 -0.20415095437E-01  0.10199877454E+01  0.10197067075E+01 0.  0.
     999903    2    3    3    0    0 -0.87653089462E-01 -0.54767053213E-01  0.72191624161E-01  0.12762801697E+00  0.19869220055E-01 0.  0.
         14    1    1    2    0    0 -0.11996507435E-01 -0.35410791749E-02  0.20415095437E-01  0.23942254573E-01  0.00000000000E+00 0.  1.
     999901    1    3    3    0    0  0.99649596897E-01  0.58308132388E-01 -0.92606719598E-01  0.89235972846E+00  0.88000000000E+00 0. -1.
        -11    1    4    4    0    0 -0.42451428229E-01 -0.32831168613E-01  0.27129215247E-01  0.60135387519E-01  0.51100000000E-03 0.  1.
         11    1    4    4    0    0 -0.45201661233E-01 -0.21935884600E-01  0.45062408914E-01  0.67492629447E-01  0.51100000000E-03 0. -1.
</event>
<event>
 8    1  0.1094134E+005  0.1043930E+01  0.7957747E-01            NaN
         13   -1    0    0    0    0  0.00000000000E+00  0.00000000000E+00  0.74505805969E-08  0.10566000000E+00  0.10566000000E+00 0. -1.
     999900   -1    0    0    0    0 -0.00000000000E+00 -0.00000000000E+00 -0.74505805969E-08  0.93827000000E+00  0.93827000000E+00 0.  1.
     999902    2    1    2    0    0  0.36718183910E-02  0.19632653634E-01 -0.12261097550E-01  0.10204937492E+01  0.10202245999E+01 0.  0.
     999903    2    3    3    0    0 -0.17694532151E-01  0.69290193122E-03 -0.12949750088E+00  0.13225976571E+00  0.20235273932E-01 0.  0.
         14    1    1    2    0    0 -0.36718183910E-02 -0.19632653634E-01  0.12261097550E-01  0.23436250812E-01  0.00000000000E+00 0. -1.
     999901    1    3    3    0    0  0.21366350542E-01  0.18939751703E-01  0.11723640333E+00  0.88823398347E+00  0.88000000000E+00 0. -1.
        -11    1    4    4    0    0 -0.14723657649E-01 -0.86286915952E-02 -0.79856405855E-01  0.81661172477E-01  0.51100000000E-03 0.  1.
         11    1    4    4    0    0 -0.29708745015E-02  0.93215935264E-02 -0.49641095027E-01  0.50598593238E-01  0.51100000000E-03 0. -1.
</event>
<event>
 8    1  0.1094134E+005  0.1043930E+01  0.7957747E-01            NaN
         13   -1    0    0    0    0  0.00000000000E+00  0.00000000000E+00  0.74505805969E-08  0.10566000000E+00  0.10566000000E+00 0. -1.
     999900   -1    0    0    0    0 -0.00000000000E+00 -0.00000000000E+00 -0.74505805969E-08  0.93827000000E+00  0.93827000000E+00 0. -1.
     999902    2    1    2    0    0 -0.21538292965E-02 -0.22021212206E-01 -0.51899273860E-02  0.10212031851E+01  0.10209502619E+01 0.  0.
     999903    2    3    3    0    0 -0.57911907820E-01 -0.47109451176E-01 -0.10839689242E+00  0.13306464826E+00  0.19576130131E-01 0.  0.
         14    1    1    2    0    0  0.21538292965E-02  0.22021212206E-01  0.51899273860E-02  0.22726814865E-01  0.00000000000E+00 0. -1.
     999901    1    3    3    0    0  0.55758078524E-01  0.25088238971E-01  0.10320696504E+00  0.88813853688E+00  0.88000000000E+00 0.  1.
        -11    1    4    4    0    0 -0.45295788923E-01 -0.39541398493E-01 -0.72013132325E-01  0.93815686520E-01  0.51100000000E-03 0. -1.
         11    1    4    4    0    0 -0.12616118897E-01 -0.75680526836E-02 -0.36383760099E-01  0.39248961737E-01  0.51100000000E-03 0.  1.
</event>
<event>
 8    1  0.1094134E+005  0.1043930E+01  0.7957747E-01            NaN
         13   -1    0    0    0    0  0.00000000000E+00  0.00000000000E+00  0.74505805969E-08  0.10566000000E+00  0.10566000000E+00 0. -1.
     999900   -1    0    0    0    0 -0.00000000000E+00 -0.00000000000E+00 -0.74505805969E-08  0.93827000000E+00  0.93827000000E+00 0.  1.
     999902    2    1    2    0    0 -0.19817904349E-02  0.84390636771E-02  0.21309626156E-01  0.10209246646E+01  0.10206654326E+01 0.  0.
     999903    2    3    3    0    0  0.11925382244E+00 -0.14625194498E-01 -0.45039224275E-01  0.12983981805E+00  0.19861423577E-01 0.  0.
         14    1    1    2    0    0  0.19817904349E-02 -0.84390636771E-02 -0.21309626156E-01  0.23005335380E-01  0.00000000000E+00 0.  1.
     999901    1    3    3    0    0 -0.12123561288E+00  0.23064258175E-01  0.66348850430E-01  0.89108484657E+00  0.88000000000E+00 0.  1.
        -11    1    4    4    0    0  0.61328227221E-01 -0.82567080527E-02 -0.33718504362E-01  0.70473564826E-01  0.51100000000E-03 0. -1.
         11    1    4    4    0    0  0.57925595221E-01 -0.63684864448E-02 -0.11320719913E-01  0.59366253223E-01  0.51100000000E-03 0.  1.
</event>
<event>
 8    1  0.1094134E+005  0.1043930E+01  0.7957747E-01            NaN
         13   -1    0    0    0    0  0.00000000000E+00  0.00000000000E+00  0.74505805969E-08  0.10566000000E+00  0.10566000000E+00 0.  1.
     999900   -1    0    0    0    0 -0.00000000000E+00 -0.00000000000E+00 -0.74505805969E-08  0.93827000000E+00  0.93827000000E+00 0.  1.
     999902    2    1    2    0    0 -0.18152386091E-01 -0.26168515472E-02 -0.14799696992E-01  0.10203633273E+01  0.10200911388E+01 0.  0.
     999903    2    3    3    0    0  0.39248281193E-01 -0.12250565597E+00  0.50412079558E-02  0.13016007882E+00  0.19187730977E-01 0.  0.
         14    1    1    2    0    0  0.18152386091E-01  0.26168515472E-02  0.14799696992E-01  0.23566672737E-01  0.00000000000E+00 0.  1.
     999901    1    3    3    0    0 -0.57400667284E-01  0.11988880442E+00 -0.19840904948E-01  0.89020324844E+00  0.88000000000E+00 0.  1.
        -11    1    4    4    0    0  0.15703451938E-01 -0.51125740842E-01 -0.73258938428E-02  0.53984901788E-01  0.51100000000E-03 0.  1.
         11    1    4    4    0    0  0.23544829254E-01 -0.71379915126E-01  0.12367101799E-01  0.76175177032E-01  0.51100000000E-03 0. -1.
</event>
<event>
 8    1  0.1094134E+005  0.1043930E+01  0.7957747E-01            NaN
         13   -1    0    0    0    0  0.00000000000E+00  0.00000000000E+00  0.74505805969E-08  0.10566000000E+00  0.10566000000E+00 0. -1.
     999900   -1    0    0    0    0 -0.00000000000E+00 -0.00000000000E+00 -0.74505805969E-08  0.93827000000E+00  0.93827000000E+00 0.  1.
     999902    2    1    2    0    0  0.20581158345E-01  0.10598043473E-01  0.63070138576E-02  0.10199366462E+01  0.10196543930E+01 0.  0.
     999903    2    3    3    0    0  0.74366516744E-01  0.84380348396E-01  0.68390872196E-01  0.13303693438E+00  0.19263761385E-01 0.  0.
         14    1    1    2    0    0 -0.20581158345E-01 -0.10598043473E-01 -0.63070138576E-02  0.23993353831E-01  0.00000000000E+00 0.  1.
     999901    1    3    3    0    0 -0.53785358399E-01 -0.73782304923E-01 -0.62083858338E-01  0.88689971178E+00  0.88000000000E+00 0. -1.
        -11    1    4    4    0    0  0.34623130968E-01  0.39167673171E-01  0.43041981129E-01  0.67718100092E-01  0.51100000000E-03 0.  1.
         11    1    4    4    0    0  0.39743385776E-01  0.45212675225E-01  0.25348891067E-01  0.65318834292E-01  0.51100000000E-03 0. -1.
</event>
<event>
 8    1  0.1177975E+005  0.1043930E+01  0.7957747E-01            NaN
         13   -1    0    0    0    0  0.00000000000E+00  0.00000000000E+00  0.74505805969E-08  0.10566000000E+00  0.10566000000E+00 0.  1.
     999900   -1    0    0    0    0 -0.00000000000E+00 -0.00000000000E+00 -0.74505805969E-08  0.93827000000E+00  0.93827000000E+00 0. -1.
     999902    2    1    2    0    0 -0.18107862548E-02 -0.19673081599E-01 -0.12673348669E-01  0.10204582542E+01  0.10201882795E+01 0.  0.
     999903    2    3    3    0    0 -0.63743730115E-01  0.10420719977E+00  0.28048258151E-01  0.12869580658E+00  0.29214760538E-01 0.  0.
         14    1    1    2    0    0  0.18107862548E-02  0.19673081599E-01  0.12673348669E-01  0.23471745844E-01  0.00000000000E+00 0.  1.
     999901    1    3    3    0    0  0.61932943861E-01 -0.12388028137E+00 -0.40721606820E-01  0.89176244758E+00  0.88000000000E+00 0.  1.
        -11    1    4    4    0    0 -0.41315091809E-01  0.40260503790E-01  0.98237366586E-02  0.58520183694E-01  0.51100000000E-03 0.  1.
         11    1    4    4    0    0 -0.22428638307E-01  0.63946695978E-01  0.18224521492E-01  0.70175622886E-01  0.51100000000E-03 0. -1.
</event>
<event>
 8    1  0.1094134E+005  0.1043930E+01  0.7957747E-01            NaN
         13   -1    0    0    0    0  0.00000000000E+00  0.00000000000E+00  0.74505805969E-08  0.10566000000E+00  0.10566000000E+00 0.  1.
     999900   -1    0    0    0    0 -0.00000000000E+00 -0.00000000000E+00 -0.74505805969E-08  0.93827000000E+00  0.93827000000E+00 0. -1.
     999902    2    1    2    0    0  0.58218678617E-02  0.16745895763E-01  0.15915002575E-01  0.10201055068E+01  0.10198272591E+01 0.  0.
     999903    2    3    3    0    0 -0.61328803441E-01  0.56527930834E-01 -0.96836064863E-01  0.12948514648E+00  0.20797850962E-01 0.  0.
         14    1    1    2    0    0 -0.58218678617E-02 -0.16745895763E-01 -0.15915002575E-01  0.23824493222E-01  0.00000000000E+00 0. -1.
     999901    1    3    3    0    0  0.67150671303E-01 -0.39782035071E-01  0.11275106744E+00  0.89062036030E+00  0.88000000000E+00 0.  1.
        -11    1    4    4    0    0 -0.39176168452E-01  0.23080201794E-01 -0.45459641358E-01  0.64298584766E-01  0.51100000000E-03 0. -1.
         11    1    4    4    0    0 -0.22152634989E-01  0.33447729040E-01 -0.51376423505E-01  0.65186561713E-01  0.51100000000E-03 0.  1.
</event>
<event>
 8    1  0.1300498E+005  0.1043930E+01  0.7957747E-01            NaN
         13   -1    0    0    0    0  0.00000000000E+00  0.00000000000E+00  0.74505805969E-08  0.10566000000E+00  0.10566000000E+00 0.  1.
     999900   -1    0    0    0    0 -0.00000000000E+00 -0.00000000000E+00 -0.74505805969E-08  0.93827000000E+00  0.93827000000E+00 0. -1.
     999902    2    1    2    0    0  0.17222973142E-01  0.37233837839E-03 -0.16076292809E-01  0.10203669648E+01  0.10200948613E+01 0.  0.
     999903    2    3    3    0    0  0.95245491018E-01 -0.89034511760E-01  0.56422846830E-02  0.13213681735E+00  0.20723302792E-01 0.  0.
         14    1    1    2    0    0 -0.17222973142E-01 -0.37233837839E-03  0.16076292809E-01  0.23563035250E-01  0.00000000000E+00 0.  1.
     999901    1    3    3    0    0 -0.78022517876E-01  0.89406850139E-01 -0.21718577492E-01  0.88823014740E+00  0.88000000000E+00 0. -1.
        -11    1    4    4    0    0  0.63781479015E-01 -0.61722783804E-01  0.13367505313E-01  0.89759291581E-01  0.51100000000E-03 0. -1.
         11    1    4    4    0    0  0.31464012003E-01 -0.27311727956E-01 -0.77252206302E-02  0.42377525767E-01  0.51100000000E-03 0.  1.
</event>
<event>
 8    1  0.1094134E+005  0.1043930E+01  0.7957747E-01            NaN
         13   -1    0    0    0    0  0.00000000000E+00  0.00000000000E+00  0.74505805969E-08  0.10566000000E+00  0.10566000000E+00 0. -1.
     999900   -1    0    0    0    0 -0.00000000000E+00 -0.00000000000E+00 -0.74505805969E-08  0.93827000000E+00  0.93827000000E+00 0. -1.
     999902    2    1    2    0    0 -0.17438592061E-01  0.13399045232E-02 -0.16518169991E-01  0.10198727812E+01  0.10195890054E+01 0.  0.
     999903    2    3    3    0    0 -0.73282262055E-03  0.12730680889E+00  0.18183974984E-01  0.13006887998E+00  0.19485789048E-01 0.  0.
         14    1    1    2    0    0  0.17438592061E-01 -0.13399045232E-02  0.16518169991E-01  0.24057218813E-01  0.00000000000E+00 0. -1.
     999901    1    3    3    0    0 -0.16705769440E-01 -0.12596690437E+00 -0.34702144975E-01  0.88980390120E+00  0.88000000000E+00 0. -1.
        -11    1    4    4    0    0 -0.45707347869E-02  0.87038084493E-01  0.41818959845E-02  0.87259779645E-01  0.51100000000E-03 0. -1.
         11    1    4    4    0    0  0.38379121663E-02  0.40268724400E-01  0.14002079000E-01  0.42809100340E-01  0.51100000000E-03 0.  1.
</event>
<event>
 8    1  0.1094134E+005  0.1043930E+01  0.7957747E-01            NaN
         13   -1    0    0    0    0  0.00000000000E+00  0.00000000000E+00  0.74505805969E-08  0.10566000000E+00  0.10566000000E+00 0. -1.
     999900   -1    0    0    0    0 -0.00000000000E+00 -0.00000000000E+00 -0.74505805969E-08  0.93827000000E+00  0.93827000000E+00 0. -1.
     999902    2    1    2    0    0  0.43405260426E-02 -0.10786221066E-01  0.23642752020E-01  0.10175830371E+01  0.10172418960E+01 0.  0.
     999903    2    3    3    0    0 -0.32112028518E-01  0.65821270053E-02 -0.11989089567E+00  0.12504040155E+00  0.13666322957E-01 0.  0.
         14    1    1    2    0    0 -0.43405260426E-02  0.10786221066E-01 -0.23642752020E-01  0.26346962905E-01  0.00000000000E+00 0. -1.
     999901    1    3    3    0    0  0.36452554561E-01 -0.17368348071E-01  0.14353364769E+00  0.89254263555E+00  0.88000000000E+00 0. -1.
        -11    1    4    4    0    0 -0.25248121835E-01  0.65258688226E-02 -0.70462934526E-01  0.75135483516E-01  0.51100000000E-03 0.  1.
         11    1    4    4    0    0 -0.68639066831E-02  0.56258182725E-04 -0.49427961145E-01  0.49904918033E-01  0.51100000000E-03 0. -1.
</event>
<event>
 8    1  0.1094134E+005  0.1043930E+01  0.7957747E-01            NaN
         13   -1    0    0    0    0  0.00000000000E+00  0.00000000000E+00  0.74505805969E-08  0.10566000000E+00  0.10566000000E+00 0.  1.
     999900   -1    0    0    0    0 -0.00000000000E+00 -0.00000000000E+00 -0.74505805969E-08  0.93827000000E+00  0.93827000000E+00 0.  1.
     999902    2    1    2    0    0 -0.59059617310E-02 -0.21643250877E-01  0.53216975241E-02  0.10208728719E+01  0.10206124580E+01 0.  0.
     999903    2    3    3    0    0  0.50403832030E-01  0.61740192968E-01  0.10092179774E+00  0.12999523116E+00  0.19004029911E-01 0.  0.
         14    1    1    2    0    0  0.59059617310E-02  0.21643250877E-01 -0.53216975241E-02  0.23057128118E-01  0.00000000000E+00 0.  1.
     999901    1    3    3    0    0 -0.56309793761E-01 -0.83383443845E-01 -0.95600100220E-01  0.89087764072E+00  0.88000000000E+00 0.  1.
        -11    1    4    4    0    0  0.67226192888E-02  0.11273442489E-02  0.53234826582E-02  0.86640119904E-02  0.51100000000E-03 0.  1.
         11    1    4    4    0    0  0.43681212741E-01  0.60612848719E-01  0.95598315086E-01  0.12133121917E+00  0.51100000000E-03 0. -1.
</event>
<event>
 8    1  0.1094134E+005  0.1043930E+01  0.7957747E-01            NaN
         13   -1    0    0    0    0  0.00000000000E+00  0.00000000000E+00  0.74505805969E-08  0.10566000000E+00  0.10566000000E+00 0. -1.
     999900   -1    0    0    0    0 -0.00000000000E+00 -0.00000000000E+00 -0.74505805969E-08  0.93827000000E+00  0.93827000000E+00 0. -1.
     999902    2    1    2    0    0  0.16177964870E-01  0.58148384117E-02 -0.16096709941E-01  0.10203791409E+01  0.10201073219E+01 0.  0.
     999903    2    3    3    0    0 -0.10816714445E+00 -0.44200163032E-01  0.47557445306E-01  0.12795824354E+00  0.21396633699E-01 0.  0.
         14    1    1    2    0    0 -0.16177964870E-01 -0.58148384117E-02  0.16096709941E-01  0.23550859093E-01  0.00000000000E+00 0. -1.
     999901    1    3    3    0    0  0.12434510932E+00  0.50015001443E-01 -0.63654155248E-01  0.89242089737E+00  0.88000000000E+00 0. -1.
        -11    1    4    4    0    0 -0.56706353677E-01 -0.19317419120E-01  0.13473533555E-01  0.61404970941E-01  0.51100000000E-03 0.  1.
         11    1    4    4    0    0 -0.51460790777E-01 -0.24882743912E-01  0.34083911751E-01  0.66553272596E-01  0.51100000000E-03 0. -1.
</event>
<event>
 8    1  0.1094134E+005  0.1043930E+01  0.7957747E-01            NaN
         13   -1    0    0    0    0  0.00000000000E+00  0.00000000000E+00  0.74505805969E-08  0.10566000000E+00  0.10566000000E+00 0. -1.
     999900   -1    0    0    0    0 -0.00000000000E+00 -0.00000000000E+00 -0.74505805969E-08  0.93827000000E+00  0.93827000000E+00 0.  1.
     999902    2    1    2    0    0  0.26467481658E-02  0.28397418976E-01 -0.67711395279E-02  0.10146167434E+01  0.10141932109E+01 0.  0.
     999903    2    3    3    0    0 -0.59294896586E-01  0.62681661232E-01 -0.91798845161E-01  0.12768839945E+00  0.20794806226E-01 0.  0.
         14    1    1    2    0    0 -0.26467481658E-02 -0.28397418976E-01  0.67711395279E-02  0.29313256572E-01  0.00000000000E+00 0.  1.
     999901    1    3    3    0    0  0.61941644752E-01 -0.34284242256E-01  0.85027705633E-01  0.88692834398E+00  0.88000000000E+00 0. -1.
        -11    1    4    4    0    0 -0.22048613326E-01  0.19631963627E-01 -0.45828673394E-01  0.54516820996E-01  0.51100000000E-03 0.  1.
         11    1    4    4    0    0 -0.37246283261E-01  0.43049697605E-01 -0.45970171767E-01  0.73171578457E-01  0.51100000000E-03 0. -1.
</event>
<event>
 8    1  0.1094134E+005  0.1043930E+01  0.7957747E-01            NaN
         13   -1    0    0    0    0  0.00000000000E+00  0.00000000000E+00  0.74505805969E-08  0.10566000000E+00  0.10566000000E+00 0.  1.
     999900   -1    0    0    0    0 -0.00000000000E+00 -0.00000000000E+00 -0.74505805969E-08  0.93827000000E+00  0.93827000000E+00 0. -1.
     999902    2    1    2    0    0  0.10532803918E-01 -0.28328439252E-02 -0.20348571712E-01  0.10208425720E+01  0.10205814653E+01 0.  0.
     999903    2    3    3    0    0 -0.67899227131E-01 -0.10342675759E+00 -0.39317254668E-01  0.13144360080E+00  0.20595495732E-01 0.  0.
         14    1    1    2    0    0 -0.10532803918E-01  0.28328439252E-02  0.20348571712E-01  0.23087428046E-01  0.00000000000E+00 0.  1.
     999901    1    3    3    0    0  0.78432031049E-01  0.10059391367E+00  0.18968682957E-01  0.88939897116E+00  0.88000000000E+00 0.  1.
        -11    1    4    4    0    0 -0.42182962584E-01 -0.45552873572E-01 -0.18775700422E-01  0.64863353832E-01  0.51100000000E-03 0.  1.
         11    1    4    4    0    0 -0.25716264547E-01 -0.57873884022E-01 -0.20541554246E-01  0.66580246965E-01  0.51100000000E-03 0. -1.
</event>
<event>
 8    1  0.1094134E+005  0.1043930E+01  0.7957747E-01            NaN
         13   -1    0    0    0    0  0.00000000000E+00  0.00000000000E+00  0.74505805969E-08  0.10566000000E+00  0.10566000000E+00 0.  1.
     999900   -1    0    0    0    0 -0.00000000000E+00 -0.00000000000E+00 -0.74505805969E-08  0.93827000000E+00  0.93827000000E+00 0. -1.
     999902    2    1    2    0    0  0.20185327299E-01 -0.13073249950E-01 -0.37790796606E-02  0.10195858273E+01  0.10192951586E+01 0.  0.
     999903    2    3    3    0    0 -0.95648899528E-01  0.31349052738E-01  0.75492414878E-01  0.12735554370E+00  0.19719399574E-01 0.  0.
         14    1    1    2    0    0 -0.20185327299E-01  0.13073249950E-01  0.37790796606E-02  0.24344172721E-01  0.00000000000E+00 0.  1.
     999901    1    3    3    0    0  0.11583422683E+00 -0.44422302688E-01 -0.79271494539E-01  0.89223028357E+00  0.88000000000E+00 0. -1.
        -11    1    4    4    0    0 -0.89675143667E-01  0.34067687087E-01  0.71640534414E-01  0.11972830070E+00  0.51100000000E-03 0.  1.
         11    1    4    4    0    0 -0.59737558609E-02 -0.27186343492E-02  0.38518804640E-02  0.76272430090E-02  0.51100000000E-03 0. -1.
</event>
<event>
 8    1  0.1094134E+005  0.1043930E+01  0.7957747E-01            NaN
         13   -1    0    0    0    0  0.00000000000E+00  0.00000000000E+00  0.74505805969E-08  0.10566000000E+00  0.10566000000E+00 0. -1.
     999900   -1    0    0    0    0 -0.00000000000E+00 -0.00000000000E+00 -0.74505805969E-08  0.93827000000E+00  0.93827000000E+00 0.  1.
     999902    2    1    2    0    0  0.11151960780E-01 -0.62900368319E-02  0.22172870501E-01  0.10183259578E+01  0.10180040222E+01 0.  0.
     999903    2    3    3    0    0  0.10356464894E+00  0.37365004831E-01 -0.64852345902E-01  0.12814661859E+00  0.96927288579E-02 0.  0.
         14    1    1    2    0    0 -0.11151960780E-01  0.62900368319E-02 -0.22172870501E-01  0.25604042236E-01  0.00000000000E+00 0.  1.
     999901    1    3    3    0    0 -0.92412688157E-01 -0.43655041663E-01  0.87025216403E-01  0.89017933917E+00  0.88000000000E+00 0.  1.
        -11    1    4    4    0    0  0.91045650391E-01  0.30059946571E-01 -0.54086820422E-01  0.11008431363E+00  0.51100000000E-03 0. -1.
         11    1    4    4    0    0  0.12518998546E-01  0.73050582599E-02 -0.10765525479E-01  0.18062304964E-01  0.51100000000E-03 0.  1.
</event>
<event>
 8    1  0.1094134E+005  0.1043930E+01  0.7957747E-01            NaN
         13   -1    0    0    0    0  0.00000000000E+00  0.00000000000E+00  0.74505805969E-08  0.10566000000E+00  0.10566000000E+00 0.  1.
     999900   -1    0    0    0    0 -0.00000000000E+00 -0.00000000000E+00 -0.74505805969E-08  0.93827000000E+00  0.93827000000E+00 0. -1.
     999902    2    1    2    0    0  0.10794141077E-01  0.16273419442E-01 -0.13455119905E-01  0.10202154915E+01  0.10199398370E+01 0.  0.
     999903    2    3    3    0    0 -0.12251128650E+00  0.30344168380E-01 -0.23276108653E-01  0.13001058541E+00  0.20765144105E-01 0.  0.
         14    1    1    2    0    0 -0.10794141077E-01 -0.16273419442E-01  0.13455119905E-01  0.23714508504E-01  0.00000000000E+00 0.  1.
     999901    1    3    3    0    0  0.13330542758E+00 -0.14070748938E-01  0.98209887477E-02  0.89020490609E+00  0.88000000000E+00 0.  1.
        -11    1    4    4    0    0 -0.74608225218E-01  0.80210163666E-02 -0.14747628823E-01  0.76475340147E-01  0.51100000000E-03 0. -1.
         11    1    4    4    0    0 -0.47903061285E-01  0.22323152013E-01 -0.85284798304E-02  0.53535245264E-01  0.51100000000E-03 0.  1.
</event>
<event>
 8    1  0.1094134E+005  0.1043930E+01  0.7957747E-01            NaN
         13   -1    0    0    0    0  0.00000000000E+00  0.00000000000E+00  0.74505805969E-08  0.10566000000E+00  0.10566000000E+00 0.  1.
     999900   -1    0    0    0    0 -0.00000000000E+00 -0.00000000000E+00 -0.74505805969E-08  0.93827000000E+00  0.93827000000E+00 0. -1.
     999902    2    1    2    0    0  0.28101522338E-02  0.22157830750E-01  0.57077497124E-02  0.10208769129E+01  0.10206165913E+01 0.  0.
     999903    2    3    3    0    0  0.91457524714E-01  0.71614050221E-02 -0.91341696642E-01  0.13098824317E+00  0.19971223173E-01 0.  0.
         14    1    1    2    0    0 -0.28101522338E-02 -0.22157830750E-01 -0.57077497124E-02  0.23053087123E-01  0.00000000000E+00 0.  1.
     999901    1    3    3    0    0 -0.88647372480E-01  0.14996425728E-01  0.97049446354E-01  0.88988866971E+00  0.88000000000E+00 0.  1.
        -11    1    4    4    0    0  0.81454906198E-01 -0.19830610547E-03 -0.79107972384E-01  0.11354855122E+00  0.51100000000E-03 0.  1.
         11    1    4    4    0    0  0.10002618516E-01  0.73597111276E-02 -0.12233724257E-01  0.17439691949E-01  0.51100000000E-03 0. -1.
</event>
<event>
 8    1  0.1094134E+005  0.1043930E+01  0.7957747E-01            NaN
         13   -1    0    0    0    0  0.00000000000E+00  0.00000000000E+00  0.74505805969E-08  0.10566000000E+00  0.10566000000E+00 0. -1.
     999900   -1    0    0    0    0 -0.00000000000E+00 -0.00000000000E+00 -0.74505805969E-08  0.93827000000E+00  0.93827000000E+00 0. -1.
     999902    2    1    2    0    0  0.37862387558E-02 -0.21871139906E-01  0.10712490578E-01  0.10192837058E+01  0.10189856883E+01 0.  0.
     999903    2    3    3    0    0 -0.77258516917E-01 -0.99341222606E-01  0.33884119874E-01  0.13186791228E+00  0.20086208320E-01 0.  0.
         14    1    1    2    0    0 -0.37862387558E-02  0.21871139906E-01 -0.10712490578E-01  0.24646294227E-01  0.00000000000E+00 0.  1.
     999901    1    3    3    0    0  0.81044755673E-01  0.77470082700E-01 -0.23171629296E-01  0.88741579349E+00  0.88000000000E+00 0. -1.
        -11    1    4    4    0    0 -0.23233605766E-01 -0.38004153528E-01  0.20514990229E-01  0.49043267299E-01  0.51100000000E-03 0. -1.
         11    1    4    4    0    0 -0.54024911150E-01 -0.61337069078E-01  0.13369129645E-01  0.82824644982E-01  0.51100000000E-03 0.  1.
</event>
<event>
 8    1  0.1094134E+005  0.1043930E+01  0.7957747E-01            NaN
         13   -1    0    0    0    0  0.00000000000E+00  0.00000000000E+00  0.74505805969E-08  0.10566000000E+00  0.10566000000E+00 0. -1.
     999900   -1    0    0    0    0 -0.00000000000E+00 -0.00000000000E+00 -0.74505805969E-08  0.93827000000E+00  0.93827000000E+00 0. -1.
     999902    2    1    2    0    0  0.27019530079E-02 -0.45582553871E-02  0.23114149818E-01  0.10202162453E+01  0.10199406085E+01 0.  0.
     999903    2    3    3    0    0 -0.28492156587E-01  0.79909547325E-01  0.99674033859E-01  0.13231461894E+00  0.19362505501E-01 0.  0.
         14    1    1    2    0    0 -0.27019530079E-02  0.45582553871E-02 -0.23114149818E-01  0.23713754744E-01  0.00000000000E+00 0.  1.
     999901    1    3    3    0    0  0.31194109595E-01 -0.84467802712E-01 -0.76559884041E-01  0.88790162631E+00  0.88000000000E+00 0.  1.
        -11    1    4    4    0    0 -0.26040695986E-01  0.72847567317E-01  0.80123280005E-01  0.11137722851E+00  0.51100000000E-03 0. -1.
         11    1    4    4    0    0 -0.24514606010E-02  0.70619800082E-02  0.19550753854E-01  0.20937390429E-01  0.51100000000E-03 0.  1.
</event>
<event>
 8    1  0.1094134E+005  0.1043930E+01  0.7957747E-01            NaN
         13   -1    0    0    0    0  0.00000000000E+00  0.00000000000E+00  0.74505805969E-08  0.10566000000E+00  0.10566000000E+00 0.  1.
     999900   -1    0    0    0    0 -0.00000000000E+00 -0.00000000000E+00 -0.74505805969E-08  0.93827000000E+00  0.93827000000E+00 0. -1.
     999902    2    1    2    0    0  0.94735860048E-03 -0.22501125461E-01  0.64699589099E-03  0.10213996485E+01  0.10211511275E+01 0.  0.
     999903    2    3    3    0    0  0.56513837120E-01 -0.11998714805E+00 -0.64474681229E-02  0.13424606001E+00  0.19740954870E-01 0.  0.
         14    1    1    2    0    0 -0.94735860048E-03  0.22501125461E-01 -0.64699589099E-03  0.22530351507E-01  0.00000000000E+00 0. -1.
     999901    1    3    3    0    0 -0.55566478520E-01  0.97486022593E-01  0.70944640139E-02  0.88715358848E+00  0.88000000000E+00 0.  1.
        -11    1    4    4    0    0  0.41286328536E-01 -0.77072696105E-01 -0.12433590237E-01  0.88315438606E-01  0.51100000000E-03 0. -1.
         11    1    4    4    0    0  0.15227508584E-01 -0.42914451949E-01  0.59861221140E-02  0.45930621406E-01  0.51100000000E-03 0.  1.
</event>
<event>
 8    1  0.1094134E+005  0.1043930E+01  0.7957747E-01            NaN
         13   -1    0    0    0    0  0.00000000000E+00  0.00000000000E+00  0.74505805969E-08  0.10566000000E+00  0.10566000000E+00 0.  1.
     999900   -1    0    0    0    0 -0.00000000000E+00 -0.00000000000E+00 -0.74505805969E-08  0.93827000000E+00  0.93827000000E+00 0.  1.
     999902    2    1    2    0    0 -0.23226401359E-02 -0.12006862190E-01  0.20477660861E-01  0.10200785013E+01  0.10197996150E+01 0.  0.
     999903    2    3    3    0    0 -0.85521382165E-01  0.51449181309E-01  0.83412191367E-01  0.13164760624E+00  0.20311905258E-01 0.  0.
         14    1    1    2    0    0  0.23226401359E-02  0.12006862190E-01 -0.20477660861E-01  0.23851498720E-01  0.00000000000E+00 0. -1.
     999901    1    3    3    0    0  0.83198742029E-01 -0.63456043499E-01 -0.62934530507E-01  0.88843089504E+00  0.88000000000E+00 0.  1.
        -11    1    4    4    0    0 -0.54064351568E-01  0.31595401491E-01  0.39255398576E-01  0.73908530930E-01  0.51100000000E-03 0. -1.
         11    1    4    4    0    0 -0.31457030597E-01  0.19853779818E-01  0.44156792791E-01  0.57739075310E-01  0.51100000000E-03 0.  1.
</event>
<event>
 8    1  0.1094134E+005  0.1043930E+01  0.7957747E-01            NaN
         13   -1    0    0    0    0  0.00000000000E+00  0.00000000000E+00  0.74505805969E-08  0.10566000000E+00  0.10566000000E+00 0.  1.
     999900   -1    0    0    0    0 -0.00000000000E+00 -0.00000000000E+00 -0.74505805969E-08  0.93827000000E+00  0.93827000000E+00 0. -1.
     999902    2    1    2    0    0 -0.41927112995E-03 -0.56892667717E-03  0.23906218071E-01  0.10200133379E+01  0.10197329075E+01 0.  0.
     999903    2    3    3    0    0 -0.12023807324E+00  0.29444318358E-01  0.38620179501E-01  0.13126486901E+00  0.20366281716E-01 0.  0.
         14    1    1    2    0    0  0.41927112995E-03  0.56892667717E-03 -0.23906218071E-01  0.23916662148E-01  0.00000000000E+00 0. -1.
     999901    1    3    3    0    0  0.11981880211E+00 -0.30013245036E-01 -0.14713961430E-01  0.88874846885E+00  0.88000000000E+00 0. -1.
        -11    1    4    4    0    0 -0.43849561281E-01  0.12868326095E-02  0.16789815292E-01  0.46974450303E-01  0.51100000000E-03 0.  1.
         11    1    4    4    0    0 -0.76388511956E-01  0.28157485749E-01  0.21830364209E-01  0.84290418703E-01  0.51100000000E-03 0. -1.
</event>
<event>
 8    1  0.1094134E+005  0.1043930E+01  0.7957747E-01            NaN
         13   -1    0    0    0    0  0.00000000000E+00  0.00000000000E+00  0.74505805969E-08  0.10566000000E+00  0.10566000000E+00 0.  1.
     999900   -1    0    0    0    0 -0.00000000000E+00 -0.00000000000E+00 -0.74505805969E-08  0.93827000000E+00  0.93827000000E+00 0. -1.
     999902    2    1    2    0    0  0.11968153479E-01 -0.13773527518E-01 -0.15244598482E-01  0.10201530250E+01  0.10198758992E+01 0.  0.
     999903    2    3    3    0    0  0.75308267429E-01  0.96519474194E-01  0.37232837410E-01  0.12946205863E+00  0.19667140162E-01 0.  0.
         14    1    1    2    0    0 -0.11968153479E-01  0.13773527518E-01  0.15244598482E-01  0.23776975015E-01  0.00000000000E+00 0.  1.
     999901    1    3    3    0    0 -0.63340113950E-01 -0.11029300171E+00 -0.52477435891E-01  0.89069096635E+00  0.88000000000E+00 0. -1.
        -11    1    4    4    0    0  0.43559793709E-01  0.65254842135E-01  0.31445795891E-01  0.84526618590E-01  0.51100000000E-03 0. -1.
         11    1    4    4    0    0  0.31748473720E-01  0.31264632059E-01  0.57870415181E-02  0.44935440043E-01  0.51100000000E-03 0.  1.
</event>
<event>
 8    1  0.1094134E+005  0.1043930E+01  0.7957747E-01            NaN
         13   -1    0    0    0    0  0.00000000000E+00  0.00000000000E+00  0.74505805969E-08  0.10566000000E+00  0.10566000000E+00 0.  1.
     999900   -1    0    0    0    0 -0.00000000000E+00 -0.00000000000E+00 -0.74505805969E-08  0.93827000000E+00  0.93827000000E+00 0.  1.
     999902    2    1    2    0    0  0.14066654752E-01 -0.16279600149E-01  0.96407460599E-02  0.10203537378E+01  0.10200813252E+01 0.  0.
     999903    2    3    3    0    0 -0.92784983998E-02  0.34563928039E-01 -0.12203594544E+00  0.12879958257E+00  0.20391293187E-01 0.  0.
         14    1    1    2    0    0 -0.14066654752E-01  0.16279600149E-01 -0.96407460599E-02  0.23576262247E-01  0.00000000000E+00 0.  1.
     999901    1    3    3    0    0  0.23345153152E-01 -0.50843528189E-01  0.13167669150E+00  0.89155415518E+00  0.88000000000E+00 0. -1.
        -11    1    4    4    0    0  0.40255142241E-02  0.21048188131E-01 -0.52134434415E-01  0.56369241268E-01  0.51100000000E-03 0.  1.
         11    1    4    4    0    0 -0.13304012624E-01  0.13515739908E-01 -0.69901511025E-01  0.72430341306E-01  0.51100000000E-03 0. -1.
</event>
<event>
 8    1  0.1094134E+005  0.1043930E+01  0.7957747E-01            NaN
         13   -1    0    0    0    0  0.00000000000E+00  0.00000000000E+00  0.74505805969E-08  0.10566000000E+00  0.10566000000E+00 0.  1.
     999900   -1    0    0    0    0 -0.00000000000E+00 -0.00000000000E+00 -0.74505805969E-08  0.93827000000E+00  0.93827000000E+00 0.  1.
     999902    2    1    2    0    0 -0.12406111915E-01 -0.54596288106E-02 -0.19536372225E-01  0.10201520901E+01  0.10198749423E+01 0.  0.
     999903    2    3    3    0    0 -0.12956628166E+00  0.14019062004E-01 -0.82141944563E-02  0.13210135029E+00  0.19983451024E-01 0.  0.
         14    1    1    2    0    0  0.12406111915E-01  0.54596288106E-02  0.19536372225E-01  0.23777909902E-01  0.00000000000E+00 0.  1.
     999901    1    3    3    0    0  0.11716016974E+00 -0.19478690815E-01 -0.11322177768E-01  0.88805073981E+00  0.88000000000E+00 0. -1.
        -11    1    4    4    0    0 -0.45011484871E-01 -0.39922565203E-02 -0.62888836197E-02  0.45626560911E-01  0.51100000000E-03 0.  1.
         11    1    4    4    0    0 -0.84554796787E-01  0.18011318525E-01 -0.19253108366E-02  0.86474789376E-01  0.51100000000E-03 0. -1.
</event>
<event>
 8    1  0.1094134E+005  0.1043930E+01  0.7957747E-01            NaN
         13   -1    0    0    0    0  0.00000000000E+00  0.00000000000E+00  0.74505805969E-08  0.10566000000E+00  0.10566000000E+00 0. -1.
     999900   -1    0    0    0    0 -0.00000000000E+00 -0.00000000000E+00 -0.74505805969E-08  0.93827000000E+00  0.93827000000E+00 0.  1.
     999902    2    1    2    0    0 -0.63049300626E-02 -0.11692319904E-01 -0.20845295367E-01  0.10192118118E+01  0.10189120318E+01 0.  0.
     999903    2    3    3    0    0  0.99150339737E-01 -0.34223907039E-01  0.70184298693E-01  0.12796836958E+00  0.21166061203E-01 0.  0.
         14    1    1    2    0    0  0.63049300626E-02  0.11692319904E-01  0.20845295367E-01  0.24718188177E-01  0.00000000000E+00 0. -1.
     999901    1    3    3    0    0 -0.10545526980E+00  0.22531587135E-01 -0.91029594059E-01  0.89124344224E+00  0.88000000000E+00 0.  1.
        -11    1    4    4    0    0  0.32593557297E-01 -0.10039014513E-02  0.21873234367E-01  0.39268910070E-01  0.51100000000E-03 0. -1.
         11    1    4    4    0    0  0.66556782440E-01 -0.33220005588E-01  0.48311064326E-01  0.88699459510E-01  0.51100000000E-03 0.  1.
</event>
<event>
 8    1  0.1094134E+005  0.1043930E+01  0.7957747E-01            NaN
         13   -1    0    0    0    0  0.00000000000E+00  0.00000000000E+00  0.74505805969E-08  0.10566000000E+00  0.10566000000E+00 0. -1.
     999900   -1    0    0    0    0 -0.00000000000E+00 -0.00000000000E+00 -0.74505805969E-08  0.93827000000E+00  0.93827000000E+00 0. -1.
     999902    2    1    2    0    0  0.10373272924E-01 -0.21039358389E-02 -0.20848323350E-01  0.10205487271E+01  0.10202808537E+01 0.  0.
     999903    2    3    3    0    0 -0.36211788581E-01  0.30895622671E-01 -0.12294834281E+00  0.13280802575E+00  0.15995110819E-01 0.  0.
         14    1    1    2    0    0 -0.10373272924E-01  0.21039358389E-02  0.20848323350E-01  0.23381272927E-01  0.00000000000E+00 0. -1.
     999901    1    3    3    0    0  0.46585061505E-01 -0.32999558510E-01  0.10210001946E+00  0.88774070133E+00  0.88000000000E+00 0.  1.
        -11    1    4    4    0    0 -0.27615990445E-01  0.20079791945E-01 -0.10318791116E+00  0.10869152269E+00  0.51100000000E-03 0. -1.
         11    1    4    4    0    0 -0.85957981368E-02  0.10815830726E-01 -0.19760431649E-01  0.24116503061E-01  0.51100000000E-03 0.  1.
</event>
<event>
 8    1  0.1094134E+005  0.1043930E+01  0.7957747E-01            NaN
         13   -1    0    0    0    0  0.00000000000E+00  0.00000000000E+00  0.74505805969E-08  0.10566000000E+00  0.10566000000E+00 0. -1.
     999900   -1    0    0    0    0 -0.00000000000E+00 -0.00000000000E+00 -0.74505805969E-08  0.93827000000E+00  0.93827000000E+00 0.  1.
     999902    2    1    2    0    0  0.14607596782E-01  0.12789661017E-01 -0.13610684990E-01  0.10202190730E+01  0.10199435028E+01 0.  0.
     999903    2    3    3    0    0  0.11579818984E+00  0.38015301202E-01 -0.50060046064E-01  0.13331184846E+00  0.20289328039E-01 0.  0.
         14    1    1    2    0    0 -0.14607596782E-01 -0.12789661017E-01  0.13610684990E-01  0.23710926987E-01  0.00000000000E+00 0. -1.
     999901    1    3    3    0    0 -0.10119059306E+00 -0.25225640186E-01  0.36449361074E-01  0.88690722456E+00  0.88000000000E+00 0.  1.
        -11    1    4    4    0    0  0.53062272002E-01  0.83354165187E-02 -0.27413398061E-01  0.60306213551E-01  0.51100000000E-03 0. -1.
         11    1    4    4    0    0  0.62735917835E-01  0.29679884684E-01 -0.22646648003E-01  0.73005634908E-01  0.51100000000E-03 0.  1.
</event>
<event>
 8    1  0.1094134E+005  0.1043930E+01  0.7957747E-01            NaN
         13   -1    0    0    0    0  0.00000000000E+00  0.00000000000E+00  0.74505805969E-08  0.10566000000E+00  0.10566000000E+00 0.  1.
     999900   -1    0    0    0    0 -0.00000000000E+00 -0.00000000000E+00 -0.74505805969E-08  0.93827000000E+00  0.93827000000E+00 0.  1.
     999902    2    1    2    0    0 -0.40422779532E-02 -0.21066824346E-01  0.84922839801E-02  0.10208590229E+01  0.10205982925E+01 0.  0.
     999903    2    3    3    0    0 -0.26812283719E-01 -0.70639836022E-01 -0.10590380610E+00  0.13177948644E+00  0.21007901103E-01 0.  0.
         14    1    1    2    0    0  0.40422779532E-02  0.21066824346E-01 -0.84922839801E-02  0.23070977142E-01  0.00000000000E+00 0. -1.
     999901    1    3    3    0    0  0.22770005766E-01  0.49573011676E-01  0.11439609008E+00  0.88907953642E+00  0.88000000000E+00 0. -1.
        -11    1    4    4    0    0 -0.27668915900E-01 -0.45439104152E-01 -0.71809151969E-01  0.89370557348E-01  0.51100000000E-03 0.  1.
         11    1    4    4    0    0  0.85663218147E-03 -0.25200731869E-01 -0.34094654132E-01  0.42408929093E-01  0.51100000000E-03 0. -1.
</event>
<event>
 8    1  0.1094134E+005  0.1043930E+01  0.7957747E-01            NaN
         13   -1    0    0    0    0  0.00000000000E+00  0.00000000000E+00  0.74505805969E-08  0.10566000000E+00  0.10566000000E+00 0. -1.
     999900   -1    0    0    0    0 -0.00000000000E+00 -0.00000000000E+00 -0.74505805969E-08  0.93827000000E+00  0.93827000000E+00 0. -1.
     999902    2    1    2    0    0  0.17470782189E-01  0.37381223818E-03  0.15116083639E-01  0.10208245039E+01  0.10205629837E+01 0.  0.
     999903    2    3    3    0    0 -0.44243221467E-01 -0.76968523181E-01  0.95124731605E-01  0.13167218913E+00  0.20180055026E-01 0.  0.
         14    1    1    2    0    0 -0.17470782189E-01 -0.37381223818E-03 -0.15116083639E-01  0.23105496110E-01  0.00000000000E+00 0.  1.
     999901    1    3    3    0    0  0.61714003656E-01  0.77342335419E-01 -0.80008647966E-01  0.88915231476E+00  0.88000000000E+00 0.  1.
        -11    1    4    4    0    0 -0.30541365318E-01 -0.33426943599E-01  0.50640435963E-01  0.67932690433E-01  0.51100000000E-03 0. -1.
         11    1    4    4    0    0 -0.13701856149E-01 -0.43541579582E-01  0.44484295642E-01  0.63739498697E-01  0.51100000000E-03 0.  1.
</event>
<event>
 8    1  0.1094134E+005  0.1043930E+01  0.7957747E-01            NaN
         13   -1    0    0    0    0  0.00000000000E+00  0.00000000000E+00  0.74505805969E-08  0.10566000000E+00  0.10566000000E+00 0. -1.
     999900   -1    0    0    0    0 -0.00000000000E+00 -0.00000000000E+00 -0.74505805969E-08  0.93827000000E+00  0.93827000000E+00 0.  1.
     999902    2    1    2    0    0  0.11606085926E-01  0.99023263640E-02 -0.18175741622E-01  0.10201999582E+01  0.10199239383E+01 0.  0.
     999903    2    3    3    0    0  0.72239691422E-01  0.65482296380E-01 -0.89052871616E-01  0.13352688731E+00  0.19811903854E-01 0.  0.
         14    1    1    2    0    0 -0.11606085926E-01 -0.99023263640E-02  0.18175741622E-01  0.23730041750E-01  0.00000000000E+00 0.  1.
     999901    1    3    3    0    0 -0.60633605496E-01 -0.55579970016E-01  0.70877129994E-01  0.88667307094E+00  0.88000000000E+00 0. -1.
        -11    1    4    4    0    0  0.34662797096E-01  0.20025121406E-01 -0.42513136463E-01  0.58396428681E-01  0.51100000000E-03 0. -1.
         11    1    4    4    0    0  0.37576894326E-01  0.45457174975E-01 -0.46539735153E-01  0.75130458624E-01  0.51100000000E-03 0.  1.
</event>
<event>
 8    1  0.1094134E+005  0.1043930E+01  0.7957747E-01            NaN
         13   -1    0    0    0    0  0.00000000000E+00  0.00000000000E+00  0.74505805969E-08  0.10566000000E+00  0.10566000000E+00 0. -1.
     999900   -1    0    0    0    0 -0.00000000000E+00 -0.00000000000E+00 -0.74505805969E-08  0.93827000000E+00  0.93827000000E+00 0. -1.
     999902    2    1    2    0    0 -0.25360049417E-01 -0.65482172534E-02  0.34206523287E-02  0.10175157592E+01  0.10171728506E+01 0.  0.
     999903    2    3    3    0    0 -0.10671950445E+00  0.44354805195E-01 -0.56884770095E-01  0.13024622708E+00  0.19282147859E-01 0.  0.
         14    1    1    2    0    0  0.25360049417E-01  0.65482172534E-02 -0.34206523287E-02  0.26414240818E-01  0.00000000000E+00 0. -1.
     999901    1    3    3    0    0  0.81359455035E-01 -0.50903022449E-01  0.60305422424E-01  0.88726953210E+00  0.88000000000E+00 0.  1.
        -11    1    4    4    0    0 -0.78797868083E-01  0.38161953509E-01 -0.49998223700E-01  0.10082421437E+00  0.51100000000E-03 0.  1.
         11    1    4    4    0    0 -0.27921636370E-01  0.61928516868E-02 -0.68865463944E-02  0.29422012708E-01  0.51100000000E-03 0. -1.
</event>
<event>
 8    1  0.1094134E+005  0.1043930E+01  0.7957747E-01            NaN
         13   -1    0    0    0    0  0.00000000000E+00  0.00000000000E+00  0.74505805969E-08  0.10566000000E+00  0.10566000000E+00 0.  1.
     999900   -1    0    0    0    0 -0.00000000000E+00 -0.00000000000E+00 -0.74505805969E-08  0.93827000000E+00  0.93827000000E+00 0. -1.
     999902    2    1    2    0    0  0.13284177317E-01 -0.17028115846E-01 -0.19077340272E-01  0.10151138412E+01  0.10147047549E+01 0.  0.
     999903    2    3    3    0    0  0.57235470246E-02 -0.56948771331E-01  0.10848101779E+00  0.12498915523E+00  0.24046541479E-01 0.  0.
         14    1    1    2    0    0 -0.13284177317E-01  0.17028115846E-01  0.19077340272E-01  0.28816158802E-01  0.00000000000E+00 0.  1.
     999901    1    3    3    0    0  0.75606302928E-02  0.39920655485E-01 -0.12755835806E+00  0.89012468597E+00  0.88000000000E+00 0. -1.
        -11    1    4    4    0    0 -0.49477426570E-02 -0.47624852061E-01  0.84940547208E-01  0.97507765702E-01  0.51100000000E-03 0. -1.
         11    1    4    4    0    0  0.10671289682E-01 -0.93239192702E-02  0.23540470580E-01  0.27481389524E-01  0.51100000000E-03 0.  1.
</event>
<event>
 8    1  0.1094134E+005  0.1043930E+01  0.7957747E-01            NaN
         13   -1    0    0    0    0  0.00000000000E+00  0.00000000000E+00  0.74505805969E-08  0.10566000000E+00  0.10566000000E+00 0. -1.
     999900   -1    0    0    0    0 -0.00000000000E+00 -0.00000000000E+00 -0.74505805969E-08  0.93827000000E+00  0.93827000000E+00 0. -1.
     999902    2    1    2    0    0  0.22650042689E-01 -0.34135035845E-02  0.64986503392E-02  0.10201201513E+01  0.10198422496E+01 0.  0.
     999903    2    3    3    0    0  0.12969473103E+00  0.59942738813E-02 -0.24381742773E-01  0.13304593213E+00  0.15814426905E-01 0.  0.
         14    1    1    2    0    0 -0.22650042689E-01  0.34135035845E-02 -0.64986503392E-02  0.23809848735E-01  0.00000000000E+00 0. -1.
     999901    1    3    3    0    0 -0.10704468834E+00 -0.94077774658E-02  0.30880393113E-01  0.88707421914E+00  0.88000000000E+00 0.  1.
        -11    1    4    4    0    0  0.70898195045E-01  0.10905237744E-01 -0.15305165492E-01  0.73348397956E-01  0.51100000000E-03 0.  1.
         11    1    4    4    0    0  0.58796535986E-01 -0.49109638631E-02 -0.90765772814E-02  0.59697534172E-01  0.51100000000E-03 0. -1.
</event>
<event>
 8    1  0.1094134E+005  0.1043930E+01  0.7957747E-01            NaN
         13   -1    0    0    0    0  0.00000000000E+00  0.00000000000E+00  0.74505805969E-08  0.10566000000E+00  0.10566000000E+00 0. -1.
     999900   -1    0    0    0    0 -0.00000000000E+00 -0.00000000000E+00 -0.74505805969E-08  0.93827000000E+00  0.93827000000E+00 0.  1.
     999902    2    1    2    0    0  0.12242462018E-01 -0.17022205273E-01 -0.46777404589E-02  0.10224471090E+01  0.10222213929E+01 0.  0.
     999903    2    3    3    0    0  0.10065534758E-01  0.49581691591E-01 -0.12060376435E+00  0.13234618155E+00  0.20262888853E-01 0.  0.
         14    1    1    2    0    0 -0.12242462018E-01  0.17022205273E-01  0.46777404589E-02  0.21482890970E-01  0.00000000000E+00 0.  1.
     999901    1    3    3    0    0  0.21769272598E-02 -0.66603896864E-01  0.11592602389E+00  0.89010092748E+00  0.88000000000E+00 0. -1.
        -11    1    4    4    0    0  0.48774195452E-02  0.25879416151E-01 -0.86967382307E-01  0.90868697074E-01  0.51100000000E-03 0.  1.
         11    1    4    4    0    0  0.51881152130E-02  0.23702275440E-01 -0.33636382040E-01  0.41477484474E-01  0.51100000000E-03 0. -1.
</event>
<event>
 8    1  0.1094134E+005  0.1043930E+01  0.7957747E-01            NaN
         13   -1    0    0    0    0  0.00000000000E+00  0.00000000000E+00  0.74505805969E-08  0.10566000000E+00  0.10566000000E+00 0. -1.
     999900   -1    0    0    0    0 -0.00000000000E+00 -0.00000000000E+00 -0.74505805969E-08  0.93827000000E+00  0.93827000000E+00 0. -1.
     999902    2    1    2    0    0  0.15022166467E-01  0.69358775563E-02  0.16533577256E-01  0.10205391672E+01  0.10202710722E+01 0.  0.
     999903    2    3    3    0    0  0.41324711713E-01 -0.10760784653E-01 -0.12051781866E+00  0.12936686013E+00  0.19690444435E-01 0.  0.
         14    1    1    2    0    0 -0.15022166467E-01 -0.69358775563E-02 -0.16533577256E-01  0.23390832814E-01  0.00000000000E+00 0.  1.
     999901    1    3    3    0    0 -0.26302545246E-01  0.17696662209E-01  0.13705139591E+00  0.89117230705E+00  0.88000000000E+00 0.  1.
        -11    1    4    4    0    0  0.79645555717E-02  0.50362764535E-02 -0.34391693544E-01  0.35662977046E-01  0.51100000000E-03 0.  1.
         11    1    4    4    0    0  0.33360156142E-01 -0.15797061106E-01 -0.86126125112E-01  0.93703883085E-01  0.51100000000E-03 0. -1.
</event>
<event>
 8    1  0.1693490E+005  0.1043930E+01  0.7957747E-01            NaN
         13   -1    0    0    0    0  0.00000000000E+00  0.00000000000E+00  0.74505805969E-08  0.10566000000E+00  0.10566000000E+00 0.  1.
     999900   -1    0    0    0    0 -0.00000000000E+00 -0.00000000000E+00 -0.74505805969E-08  0.93827000000E+00  0.93827000000E+00 0.  1.
     999902    2    1    2    0    0  0.27947913353E-02 -0.19414399842E-01 -0.12995504529E-01  0.10204010196E+01  0.10201297113E+01 0.  0.
     999903    2    3    3    0    0  0.10291989289E-01 -0.14327445285E-01 -0.12986182670E+00  0.13262862630E+00  0.20372966071E-01 0.  0.
         14    1    1    2    0    0 -0.27947913353E-02  0.19414399842E-01  0.12995504529E-01  0.23528980381E-01  0.00000000000E+00 0.  1.
     999901    1    3    3    0    0 -0.74971979542E-02 -0.50869545569E-02  0.11686632218E+00  0.88777239332E+00  0.88000000000E+00 0. -1.
        -11    1    4    4    0    0  0.13292924068E-01 -0.70618166208E-02 -0.46114976693E-01  0.48512094169E-01  0.51100000000E-03 0.  1.
         11    1    4    4    0    0 -0.30009347784E-02 -0.72656286641E-02 -0.83746850012E-01  0.84116532129E-01  0.51100000000E-03 0. -1.
</event>
<event>
 8    1  0.1094134E+005  0.1043930E+01  0.7957747E-01            NaN
         13   -1    0    0    0    0  0.00000000000E+00  0.00000000000E+00  0.74505805969E-08  0.10566000000E+00  0.10566000000E+00 0. -1.
     999900   -1    0    0    0    0 -0.00000000000E+00 -0.00000000000E+00 -0.74505805969E-08  0.93827000000E+00  0.93827000000E+00 0. -1.
     999902    2    1    2    0    0 -0.17982451080E-01  0.13390868683E-01  0.57588679874E-02  0.10207815989E+01  0.10205190955E+01 0.  0.
     999903    2    3    3    0    0 -0.11103281324E+00 -0.28012854516E-01  0.64788582402E-01  0.13294313088E+00  0.19060692669E-01 0.  0.
         14    1    1    2    0    0  0.17982451080E-01 -0.13390868683E-01 -0.57588679874E-02  0.23148401055E-01  0.00000000000E+00 0.  1.
     999901    1    3    3    0    0  0.93050362157E-01  0.41403723199E-01 -0.59029714415E-01  0.88783846807E+00  0.88000000000E+00 0. -1.
        -11    1    4    4    0    0 -0.77950178580E-01 -0.28470443494E-01  0.47084831547E-01  0.95415087780E-01  0.51100000000E-03 0. -1.
         11    1    4    4    0    0 -0.33082634657E-01  0.45758897742E-03  0.17703750855E-01  0.37528043099E-01  0.51100000000E-03 0.  1.
</event>
<event>
 7    1  0.1094134E+005  0.1043930E+01  0.7957747E-01            NaN
         13   -1    0    0    0    0  0.00000000000E+00  0.00000000000E+00  0.74505805969E-08  0.10566000000E+00  0.10566000000E+00 0. -1.
     999900   -1    0    0    0    0 -0.00000000000E+00 -0.00000000000E+00 -0.74505805969E-08  0.93827000000E+00  0.93827000000E+00 0.  1.
     999902    2    1    2    0    0  0.12861730939E-01 -0.17727484348E-01 -0.91322383778E-02  0.10202005752E+01  0.10199245698E+01 0.  0.
         14    1    1    2    0    0 -0.12861730939E-01  0.17727484348E-01  0.91322383778E-02  0.23729424811E-01  0.00000000000E+00 0. -1.
     999901    1    3    3    0    0  0.10204969054E+00  0.17471221055E-02 -0.93414241936E-01  0.89081053674E+00  0.88000000000E+00 0.  1.
        -11    1    3    3    0    0 -0.77382077831E-01 -0.29812383519E-02  0.61564084609E-01  0.98930639269E-01  0.51100000000E-03 0.  1.
         11    1    3    3    0    0 -0.11805881774E-01 -0.16493368102E-01  0.22717918949E-01  0.30459399177E-01  0.51100000000E-03 0. -1.
</event>
<event>
 8    1  0.1094134E+005  0.1043930E+01  0.7957747E-01            NaN
         13   -1    0    0    0    0  0.00000000000E+00  0.00000000000E+00  0.74505805969E-08  0.10566000000E+00  0.10566000000E+00 0.  1.
     999900   -1    0    0    0    0 -0.00000000000E+00 -0.00000000000E+00 -0.74505805969E-08  0.93827000000E+00  0.93827000000E+00 0. -1.
     999902    2    1    2    0    0 -0.33931148026E-02  0.23200114852E-01 -0.54244108957E-02  0.10198637832E+01  0.10195797926E+01 0.  0.
     999903    2    3    3    0    0  0.11687953875E+00 -0.29171309975E-01  0.41255563829E-01  0.12891636760E+00  0.20139920166E-01 0.  0.
         14    1    1    2    0    0  0.33931148026E-02 -0.23200114852E-01  0.54244108957E-02  0.24066216794E-01  0.00000000000E+00 0. -1.
     999901    1    3    3    0    0 -0.12027265355E+00  0.52371424827E-01 -0.46679974725E-01  0.89094741560E+00  0.88000000000E+00 0. -1.
        -11    1    4    4    0    0  0.98958278578E-02 -0.67780646899E-02  0.88356406538E-02  0.14906348872E-01  0.51100000000E-03 0.  1.
         11    1    4    4    0    0  0.10698371089E+00 -0.22393245285E-01  0.32419923175E-01  0.11401001873E+00  0.51100000000E-03 0. -1.
</event>
<event>
 8    1  0.1094134E+005  0.1043930E+01  0.7957747E-01            NaN
         13   -1    0    0    0    0  0.00000000000E+00  0.00000000000E+00  0.74505805969E-08  0.10566000000E+00  0.10566000000E+00 0. -1.
     999900   -1    0    0    0    0 -0.00000000000E+00 -0.00000000000E+00 -0.74505805969E-08  0.93827000000E+00  0.93827000000E+00 0.  1.
     999902    2    1    2    0    0 -0.48374833736E-02 -0.21831021373E-01 -0.82282438144E-02  0.10201035706E+01  0.10198252772E+01 0.  0.
     999903    2    3    3    0    0  0.37636253100E-01  0.10390160032E+00  0.60286542563E-01  0.12751912848E+00  0.20362485519E-01 0.  0.
         14    1    1    2    0    0  0.48374833736E-02  0.21831021373E-01  0.82282438144E-02  0.23826429356E-01  0.00000000000E+00 0. -1.
     999901    1    3    3    0    0 -0.42473736474E-01 -0.12573262169E+00 -0.68514786378E-01  0.89258444217E+00  0.88000000000E+00 0.  1.
        -11    1    4    4    0    0  0.13441724840E-01  0.45563492593E-01  0.36957591169E-01  0.60190003239E-01  0.51100000000E-03 0.  1.
         11    1    4    4    0    0  0.24194528261E-01  0.58338107728E-01  0.23328951394E-01  0.67329125237E-01  0.51100000000E-03 0. -1.
</event>
<event>
 8    1  0.1094134E+005  0.1043930E+01  0.7957747E-01            NaN
         13   -1    0    0    0    0  0.00000000000E+00  0.00000000000E+00  0.74505805969E-08  0.10566000000E+00  0.10566000000E+00 0.  1.
     999900   -1    0    0    0    0 -0.00000000000E+00 -0.00000000000E+00 -0.74505805969E-08  0.93827000000E+00  0.93827000000E+00 0.  1.
     999902    2    1    2    0    0  0.22076287254E-01  0.30637831732E-02  0.15152752314E-01  0.10169790236E+01  0.10166218468E+01 0.  0.
     999903    2    3    3    0    0 -0.10300696569E+00 -0.32633998251E-01  0.62002454021E-01  0.12618440849E+00  0.20069574417E-01 0.  0.
         14    1    1    2    0    0 -0.22076287254E-01 -0.30637831732E-02 -0.15152752314E-01  0.26950976401E-01  0.00000000000E+00 0.  1.
     999901    1    3    3    0    0  0.12508325295E+00  0.35697781424E-01 -0.46849701707E-01  0.89079461511E+00  0.88000000000E+00 0.  1.
        -11    1    4    4    0    0 -0.28872637180E-01 -0.37121732757E-02  0.25211034782E-01  0.38513202982E-01  0.51100000000E-03 0. -1.
         11    1    4    4    0    0 -0.74134328511E-01 -0.28921824975E-01  0.36791419239E-01  0.87671205503E-01  0.51100000000E-03 0.  1.
</event>
<event>
 8    1  0.1094134E+005  0.1043930E+01  0.7957747E-01            NaN
         13   -1    0    0    0    0  0.00000000000E+00  0.00000000000E+00  0.74505805969E-08  0.10566000000E+00  0.10566000000E+00 0. -1.
     999900   -1    0    0    0    0 -0.00000000000E+00 -0.00000000000E+00 -0.74505805969E-08  0.93827000000E+00  0.93827000000E+00 0. -1.
     999902    2    1    2    0    0  0.25362091186E-02 -0.16075173283E-01  0.17079806495E-01  0.10203384053E+01  0.10200656341E+01 0.  0.
     999903    2    3    3    0    0  0.16041450177E-01 -0.62700718195E-01  0.11504552320E+00  0.13357258801E+00  0.20431732023E-01 0.  0.
         14    1    1    2    0    0 -0.25362091186E-02  0.16075173283E-01 -0.17079806495E-01  0.23591594746E-01  0.00000000000E+00 0. -1.
     999901    1    3    3    0    0 -0.13505241058E-01  0.46625544912E-01 -0.97965716710E-01  0.88676581724E+00  0.88000000000E+00 0. -1.
        -11    1    4    4    0    0  0.19217950628E-02 -0.26673820324E-01  0.65163636156E-01  0.70439666276E-01  0.51100000000E-03 0.  1.
         11    1    4    4    0    0  0.14119655114E-01 -0.36026897870E-01  0.49881887049E-01  0.63132921739E-01  0.51100000000E-03 0. -1.
</event>
<event>
 8    1  0.1094134E+005  0.1043930E+01  0.7957747E-01            NaN
         13   -1    0    0    0    0  0.00000000000E+00  0.00000000000E+00  0.74505805969E-08  0.10566000000E+00  0.10566000000E+00 0.  1.
     999900   -1    0    0    0    0 -0.00000000000E+00 -0.00000000000E+00 -0.74505805969E-08  0.93827000000E+00  0.93827000000E+00 0.  1.
     999902    2    1    2    0    0  0.12717129161E-01  0.14547243810E-01  0.10595008265E-01  0.10218936238E+01  0.10216559971E+01 0.  0.
     999903    2    3    3    0    0  0.20392345507E-01  0.10912811345E+00  0.73573355889E-01  0.13455449914E+00  0.19159374809E-01 0.  0.
         14    1    1    2    0    0 -0.12717129161E-01 -0.14547243810E-01 -0.10595008265E-01  0.22036376215E-01  0.00000000000E+00 0. -1.
     999901    1    3    3    0    0 -0.76752163466E-02 -0.94580869639E-01 -0.62978347624E-01  0.88733912464E+00  0.88000000000E+00 0.  1.
        -11    1    4    4    0    0  0.16847010302E-01  0.48663535615E-01  0.26998332590E-01  0.58147506724E-01  0.51100000000E-03 0.  1.
         11    1    4    4    0    0  0.35453352056E-02  0.60464577834E-01  0.46575023300E-01  0.76406992420E-01  0.51100000000E-03 0. -1.
</event>
<event>
 8    1  0.1094134E+005  0.1043930E+01  0.7957747E-01            NaN
         13   -1    0    0    0    0  0.00000000000E+00  0.00000000000E+00  0.74505805969E-08  0.10566000000E+00  0.10566000000E+00 0.  1.
     999900   -1    0    0    0    0 -0.00000000000E+00 -0.00000000000E+00 -0.74505805969E-08  0.93827000000E+00  0.93827000000E+00 0.  1.
     999902    2    1    2    0    0 -0.23064280134E-01 -0.13497153694E-01 -0.73033059231E-02  0.10162267068E+01  0.10158490278E+01 0.  0.
     999903    2    3    3    0    0  0.24927486390E-01  0.92404573342E-01  0.77109673389E-01  0.12457434377E+00  0.20319464652E-01 0.  0.
         14    1    1    2    0    0  0.23064280134E-01  0.13497153694E-01  0.73033059231E-02  0.27703293186E-01  0.00000000000E+00 0.  1.
     999901    1    3    3    0    0 -0.47991766523E-01 -0.10590172704E+00 -0.84412979312E-01  0.89165236304E+00  0.88000000000E+00 0.  1.
        -11    1    4    4    0    0  0.15121831367E-01  0.24664278763E-01  0.17553996505E-01  0.33843763755E-01  0.51100000000E-03 0.  1.
         11    1    4    4    0    0  0.98056550227E-02  0.67740294579E-01  0.59555676884E-01  0.90730580016E-01  0.51100000000E-03 0. -1.
</event>
<event>
 8    1  0.1094134E+005  0.1043930E+01  0.7957747E-01            NaN
         13   -1    0    0    0    0  0.00000000000E+00  0.00000000000E+00  0.74505805969E-08  0.10566000000E+00  0.10566000000E+00 0. -1.
     999900   -1    0    0    0    0 -0.00000000000E+00 -0.00000000000E+00 -0.74505805969E-08  0.93827000000E+00  0.93827000000E+00 0.  1.
     999902    2    1    2    0    0 -0.33207119856E-02 -0.52758092433E-02  0.26497269274E-01  0.10167092989E+01  0.10163448390E+01 0.  0.
     999903    2    3    3    0    0  0.12146211675E+00 -0.16296996472E-01 -0.15603516948E-01  0.12684150132E+00  0.28751674985E-01 0.  0.
         14    1    1    2    0    0  0.33207119856E-02  0.52758092433E-02 -0.26497269274E-01  0.27220701134E-01  0.00000000000E+00 0.  1.
     999901    1    3    3    0    0 -0.12478282874E+00  0.11021187229E-01  0.42100786222E-01  0.88986779755E+00  0.88000000000E+00 0.  1.
        -11    1    4    4    0    0  0.47115073834E-01 -0.20289838675E-01 -0.91051363826E-02  0.52102517841E-01  0.51100000000E-03 0.  1.
         11    1    4    4    0    0  0.74347042920E-01  0.39928422028E-02 -0.64983805655E-02  0.74738983475E-01  0.51100000000E-03 0. -1.
</event>
<event>
 8    1  0.1094134E+005  0.1043930E+01  0.7957747E-01            NaN
         13   -1    0    0    0    0  0.00000000000E+00  0.00000000000E+00  0.74505805969E-08  0.10566000000E+00  0.10566000000E+00 0.  1.
     999900   -1    0    0    0    0 -0.00000000000E+00 -0.00000000000E+00 -0.74505805969E-08  0.93827000000E+00  0.93827000000E+00 0.  1.
     999902    2    1    2    0    0  0.17553271721E-01 -0.10740332383E-01  0.11523267370E-01  0.10203448823E+01  0.10200722626E+01 0.  0.
     999903    2    3    3    0    0  0.53861346031E-01  0.67052406647E-01  0.98131880708E-01  0.13193560810E+00  0.19495354345E-01 0.  0.
         14    1    1    2    0    0 -0.17553271721E-01  0.10740332383E-01 -0.11523267370E-01  0.23585117738E-01  0.00000000000E+00 0. -1.
     999901    1    3    3    0    0 -0.36308074309E-01 -0.77792739030E-01 -0.86608613339E-01  0.88840927416E+00  0.88000000000E+00 0.  1.
        -11    1    4    4    0    0  0.16521705889E-02  0.29979593258E-02  0.12342819737E-01  0.12818882472E-01  0.51100000000E-03 0. -1.
         11    1    4    4    0    0  0.52209175442E-01  0.64054447321E-01  0.85789060972E-01  0.11911672563E+00  0.51100000000E-03 0.  1.
</event>
<event>
 8    1  0.1094134E+005  0.1043930E+01  0.7957747E-01            NaN
         13   -1    0    0    0    0  0.00000000000E+00  0.00000000000E+00  0.74505805969E-08  0.10566000000E+00  0.10566000000E+00 0.  1.
     999900   -1    0    0    0    0 -0.00000000000E+00 -0.00000000000E+00 -0.74505805969E-08  0.93827000000E+00  0.93827000000E+00 0. -1.
     999902    2    1    2    0    0  0.66732629926E-02 -0.17062235824E-01  0.14461479704E-01  0.10205893332E+01  0.10203224002E+01 0.  0.
     999903    2    3    3    0    0  0.79010806497E-01  0.20329812823E-01 -0.98607115111E-01  0.12962615069E+00  0.20580742430E-01 0.  0.
         14    1    1    2    0    0 -0.66732629926E-02  0.17062235824E-01 -0.14461479704E-01  0.23340666775E-01  0.00000000000E+00 0. -1.
     999901    1    3    3    0    0 -0.72337543505E-01 -0.37392048647E-01  0.11306859481E+00  0.89096318254E+00  0.88000000000E+00 0.  1.
        -11    1    4    4    0    0  0.45846832667E-01  0.95437303637E-02 -0.71413898190E-01  0.85400356150E-01  0.51100000000E-03 0. -1.
         11    1    4    4    0    0  0.33163973830E-01  0.10786082459E-01 -0.27193216921E-01  0.44225794538E-01  0.51100000000E-03 0.  1.
</event>
<event>
 8    1  0.1094134E+005  0.1043930E+01  0.7957747E-01            NaN
         13   -1    0    0    0    0  0.00000000000E+00  0.00000000000E+00  0.74505805969E-08  0.10566000000E+00  0.10566000000E+00 0.  1.
     999900   -1    0    0    0    0 -0.00000000000E+00 -0.00000000000E+00 -0.74505805969E-08  0.93827000000E+00  0.93827000000E+00 0. -1.
     999902    2    1    2    0    0  0.96172129942E-02  0.17866972699E-01 -0.11499285962E-01  0.10206071983E+01  0.10203406785E+01 0.  0.
     999903    2    3    3    0    0  0.80730451785E-01  0.85293427290E-01  0.58041367700E-01  0.13244092899E+00  0.19478827581E-01 0.  0.
         14    1    1    2    0    0 -0.96172129942E-02 -0.17866972699E-01  0.11499285962E-01  0.23322801650E-01  0.00000000000E+00 0.  1.
     999901    1    3    3    0    0 -0.71113238791E-01 -0.67426454592E-01 -0.69540653662E-01  0.88816626936E+00  0.88000000000E+00 0. -1.
        -11    1    4    4    0    0  0.53931668814E-01  0.44342076278E-01  0.38567932778E-01  0.79765852277E-01  0.51100000000E-03 0.  1.
         11    1    4    4    0    0  0.26798782971E-01  0.40951351012E-01  0.19473434922E-01  0.52675076717E-01  0.51100000000E-03 0. -1.
</event>
<event>
 8    1  0.1094134E+005  0.1043930E+01  0.7957747E-01            NaN
         13   -1    0    0    0    0  0.00000000000E+00  0.00000000000E+00  0.74505805969E-08  0.10566000000E+00  0.10566000000E+00 0. -1.
     999900   -1    0    0    0    0 -0.00000000000E+00 -0.00000000000E+00 -0.74505805969E-08  0.93827000000E+00  0.93827000000E+00 0.  1.
     999902    2    1    2    0    0  0.19208734867E-01 -0.11851681796E-01  0.73763659341E-02  0.10201845029E+01  0.10199081191E+01 0.  0.
     999903    2    3    3    0    0  0.85007270455E-01  0.55012595705E-01  0.82270042817E-01  0.13203511137E+00  0.20304900239E-01 0.  0.
         14    1    1    2    0    0 -0.19208734867E-01  0.11851681796E-01 -0.73763659341E-02  0.23745497067E-01  0.00000000000E+00 0.  1.
     999901    1    3    3    0    0 -0.65798535588E-01 -0.66864277501E-01 -0.74893676883E-01  0.88814939156E+00  0.88000000000E+00 0.  1.
        -11    1    4    4    0    0  0.45303679846E-01  0.41063599876E-01  0.46947819774E-01  0.77090865509E-01  0.51100000000E-03 0.  1.
         11    1    4    4    0    0  0.39703590609E-01  0.13948995829E-01  0.35322223043E-01  0.54944245864E-01  0.51100000000E-03 0. -1.
</event>
<event>
 8    1  0.1094134E+005  0.1043930E+01  0.7957747E-01            NaN
         13   -1    0    0    0    0  0.00000000000E+00  0.00000000000E+00  0.74505805969E-08  0.10566000000E+00  0.10566000000E+00 0. -1.
     999900   -1    0    0    0    0 -0.00000000000E+00 -0.00000000000E+00 -0.74505805969E-08  0.93827000000E+00  0.93827000000E+00 0.  1.
     999902    2    1    2    0    0  0.23925425046E-01 -0.96481361190E-02  0.20707066175E-02  0.10180494992E+01  0.10177204835E+01 0.  0.
     999903    2    3    3    0    0 -0.37873823572E-02 -0.74233589977E-01 -0.10342154728E+00  0.12896688430E+00  0.20284739532E-01 0.  0.
         14    1    1    2    0    0 -0.23925425046E-01  0.96481361190E-02 -0.20707066175E-02  0.25880500770E-01  0.00000000000E+00 0. -1.
     999901    1    3    3    0    0  0.27712807403E-01  0.64585453858E-01  0.10549225390E+00  0.88908261493E+00  0.88000000000E+00 0. -1.
        -11    1    4    4    0    0 -0.70354254626E-02 -0.53873862162E-01 -0.60304088827E-01  0.81171019989E-01  0.51100000000E-03 0.  1.
         11    1    4    4    0    0  0.32480431054E-02 -0.20359727815E-01 -0.43117458451E-01  0.47795864309E-01  0.51100000000E-03 0. -1.
</event>
<event>
 8    1  0.1094134E+005  0.1043930E+01  0.7957747E-01            NaN
         13   -1    0    0    0    0  0.00000000000E+00  0.00000000000E+00  0.74505805969E-08  0.10566000000E+00  0.10566000000E+00 0. -1.
     999900   -1    0    0    0    0 -0.00000000000E+00 -0.00000000000E+00 -0.74505805969E-08  0.93827000000E+00  0.93827000000E+00 0.  1.
     999902    2    1    2    0    0 -0.17000043419E-01 -0.10197782473E-01 -0.13433437652E-01  0.10199831110E+01  0.10197019630E+01 0.  0.
     999903    2    3    3    0    0 -0.43530560388E-01  0.34013221012E-01  0.11524489847E+00  0.12913149862E+00  0.18486438856E-01 0.  0.
         14    1    1    2    0    0  0.17000043419E-01  0.10197782473E-01  0.13433437652E-01  0.23946888958E-01  0.00000000000E+00 0. -1.
     999901    1    3    3    0    0  0.26530516969E-01 -0.44211003486E-01 -0.12867833612E+00  0.89085161242E+00  0.88000000000E+00 0. -1.
        -11    1    4    4    0    0 -0.15762202226E-01  0.18541664198E-01  0.33398525000E-01  0.41327508072E-01  0.51100000000E-03 0.  1.
         11    1    4    4    0    0 -0.27768358162E-01  0.15471556814E-01  0.81846373472E-01  0.87803990552E-01  0.51100000000E-03 0. -1.
</event>
<event>
 8    1  0.1094134E+005  0.1043930E+01  0.7957747E-01            NaN
         13   -1    0    0    0    0  0.00000000000E+00  0.00000000000E+00  0.74505805969E-08  0.10566000000E+00  0.10566000000E+00 0. -1.
     999900   -1    0    0    0    0 -0.00000000000E+00 -0.00000000000E+00 -0.74505805969E-08  0.93827000000E+00  0.93827000000E+00 0.  1.
     999902    2    1    2    0    0  0.14204420507E-01 -0.78587000569E-02 -0.16688447156E-01  0.10206484838E+01  0.10203829176E+01 0.  0.
     999903    2    3    3    0    0  0.10144727857E+00  0.63934939996E-02 -0.84449064089E-01  0.13362765961E+00  0.19806056973E-01 0.  0.
         14    1    1    2    0    0 -0.14204420507E-01  0.78587000569E-02  0.16688447156E-01  0.23281516209E-01  0.00000000000E+00 0. -1.
     999901    1    3    3    0    0 -0.87242858065E-01 -0.14252194056E-01  0.67760616932E-01  0.88702082418E+00  0.88000000000E+00 0. -1.
        -11    1    4    4    0    0  0.46413315004E-01 -0.69099064291E-02 -0.37296223706E-01  0.59943406979E-01  0.51100000000E-03 0. -1.
         11    1    4    4    0    0  0.55033963568E-01  0.13303400429E-01 -0.47152840383E-01  0.73684252633E-01  0.51100000000E-03 0.  1.
</event>
<event>
 8    1  0.1094134E+005  0.1043930E+01  0.7957747E-01            NaN
         13   -1    0    0    0    0  0.00000000000E+00  0.00000000000E+00  0.74505805969E-08  0.10566000000E+00  0.10566000000E+00 0. -1.
     999900   -1    0    0    0    0 -0.00000000000E+00 -0.00000000000E+00 -0.74505805969E-08  0.93827000000E+00  0.93827000000E+00 0.  1.
     999902    2    1    2    0    0 -0.23237360082E-01  0.85973197083E-02  0.82443787952E-03  0.10191395077E+01  0.10188379497E+01 0.  0.
     999903    2    3    3    0    0  0.28187513148E-02 -0.63495809298E-01 -0.11047932910E+00  0.12882222229E+00  0.18703465978E-01 0.  0.
         14    1    1    2    0    0  0.23237360082E-01 -0.85973197083E-02 -0.82443787952E-03  0.24790492281E-01  0.00000000000E+00 0. -1.
     999901    1    3    3    0    0 -0.26056111396E-01  0.72093129006E-01  0.11130376698E+00  0.89031728543E+00  0.88000000000E+00 0. -1.
        -11    1    4    4    0    0  0.16628773346E-02 -0.54266491789E-01 -0.78019878767E-01  0.95052511255E-01  0.51100000000E-03 0.  1.
         11    1    4    4    0    0  0.11558739802E-02 -0.92293175089E-02 -0.32459450334E-01  0.33769711034E-01  0.51100000000E-03 0. -1.
</event>
<event>
 8    1  0.1094134E+005  0.1043930E+01  0.7957747E-01            NaN
         13   -1    0    0    0    0  0.00000000000E+00  0.00000000000E+00  0.74505805969E-08  0.10566000000E+00  0.10566000000E+00 0.  1.
     999900   -1    0    0    0    0 -0.00000000000E+00 -0.00000000000E+00 -0.74505805969E-08  0.93827000000E+00  0.93827000000E+00 0.  1.
     999902    2    1    2    0    0  0.10132859857E-01  0.94002369980E-02  0.19766514080E-01  0.10198104149E+01  0.10195251483E+01 0.  0.
     999903    2    3    3    0    0  0.98364864133E-01  0.83901119931E-01 -0.14882942590E-01  0.13158980440E+00  0.19476401652E-01 0.  0.
         14    1    1    2    0    0 -0.10132859857E-01 -0.94002369980E-02 -0.19766514080E-01  0.24119585059E-01  0.00000000000E+00 0. -1.
     999901    1    3    3    0    0 -0.88232004276E-01 -0.74500882933E-01  0.34649456671E-01  0.88822061054E+00  0.88000000000E+00 0.  1.
        -11    1    4    4    0    0  0.40240261386E-01  0.47083730518E-01 -0.72725330298E-02  0.62364310095E-01  0.51100000000E-03 0. -1.
         11    1    4    4    0    0  0.58124602747E-01  0.36817389413E-01 -0.76104095607E-02  0.69225494309E-01  0.51100000000E-03 0.  1.
</event>
<event>
 8    1  0.1094134E+005  0.1043930E+01  0.7957747E-01            NaN
         13   -1    0    0    0    0  0.00000000000E+00  0.00000000000E+00  0.74505805969E-08  0.10566000000E+00  0.10566000000E+00 0.  1.
     999900   -1    0    0    0    0 -0.00000000000E+00 -0.00000000000E+00 -0.74505805969E-08  0.93827000000E+00  0.93827000000E+00 0.  1.
     999902    2    1    2    0    0 -0.41959751453E-02  0.17584220374E-01  0.13830194438E-01  0.10211685130E+01  0.10209148087E+01 0.  0.
     999903    2    3    3    0    0 -0.12676312996E+00  0.14636844759E-02  0.28122167014E-01  0.13241273122E+00  0.25908331103E-01 0.  0.
         14    1    1    2    0    0  0.41959751453E-02 -0.17584220374E-01 -0.13830194438E-01  0.22761487029E-01  0.00000000000E+00 0. -1.
     999901    1    3    3    0    0  0.12256715482E+00  0.16120535899E-01 -0.14291972577E-01  0.88875578175E+00  0.88000000000E+00 0. -1.
        -11    1    4    4    0    0 -0.11164487715E+00 -0.17245826603E-03  0.15647344847E-01  0.11273734456E+00  0.51100000000E-03 0.  1.
         11    1    4    4    0    0 -0.15118252815E-01  0.16361427419E-02  0.12474822167E-01  0.19675386663E-01  0.51100000000E-03 0. -1.
</event>
<event>
 8    1  0.1094134E+005  0.1043930E+01  0.7957747E-01            NaN
         13   -1    0    0    0    0  0.00000000000E+00  0.00000000000E+00  0.74505805969E-08  0.10566000000E+00  0.10566000000E+00 0.  1.
     999900   -1    0    0    0    0 -0.00000000000E+00 -0.00000000000E+00 -0.74505805969E-08  0.93827000000E+00  0.93827000000E+00 0.  1.
     999902    2    1    2    0    0  0.68142840897E-02 -0.19385449146E-01  0.12213650578E-01  0.10200259550E+01  0.10197458240E+01 0.  0.
     999903    2    3    3    0    0 -0.48747743567E-01 -0.95632662678E-01 -0.73550331703E-01  0.13083742768E+00  0.13668669062E-01 0.  0.
         14    1    1    2    0    0 -0.68142840897E-02  0.19385449146E-01 -0.12213650578E-01  0.23904044986E-01  0.00000000000E+00 0. -1.
     999901    1    3    3    0    0  0.55562027657E-01  0.76247213532E-01  0.85763982281E-01  0.88918852734E+00  0.88000000000E+00 0. -1.
        -11    1    4    4    0    0 -0.10713132910E-01 -0.12533799064E-01 -0.77692569036E-02  0.18234303101E-01  0.51100000000E-03 0. -1.
         11    1    4    4    0    0 -0.38034610657E-01 -0.83098863614E-01 -0.65781074800E-01  0.11260312458E+00  0.51100000000E-03 0.  1.
</event>
<event>
 8    1  0.1094134E+005  0.1043930E+01  0.7957747E-01            NaN
         13   -1    0    0    0    0  0.00000000000E+00  0.00000000000E+00  0.74505805969E-08  0.10566000000E+00  0.10566000000E+00 0.  1.
     999900   -1    0    0    0    0 -0.00000000000E+00 -0.00000000000E+00 -0.74505805969E-08  0.93827000000E+00  0.93827000000E+00 0.  1.
     999902    2    1    2    0    0  0.14907374055E-01 -0.87089117328E-03 -0.19590623707E-01  0.10192970791E+01  0.10189993890E+01 0.  0.
     999903    2    3    3    0    0  0.81619935601E-01  0.74430946376E-01  0.64764086769E-01  0.12955742633E+00  0.19722071819E-01 0.  0.
         14    1    1    2    0    0 -0.14907374055E-01  0.87089117328E-03  0.19590623707E-01  0.24632920856E-01  0.00000000000E+00 0. -1.
     999901    1    3    3    0    0 -0.66712561546E-01 -0.75301837550E-01 -0.84354710477E-01  0.88973965281E+00  0.88000000000E+00 0.  1.
        -11    1    4    4    0    0  0.61123498743E-01  0.52423491623E-01  0.56480132506E-01  0.98359397423E-01  0.51100000000E-03 0.  1.
         11    1    4    4    0    0  0.20496436858E-01  0.22007454753E-01  0.82839542631E-02  0.31198028909E-01  0.51100000000E-03 0. -1.
</event>
<event>
 8    1  0.1094134E+005  0.1043930E+01  0.7957747E-01            NaN
         13   -1    0    0    0    0  0.00000000000E+00  0.00000000000E+00  0.74505805969E-08  0.10566000000E+00  0.10566000000E+00 0. -1.
     999900   -1    0    0    0    0 -0.00000000000E+00 -0.00000000000E+00 -0.74505805969E-08  0.93827000000E+00  0.93827000000E+00 0. -1.
     999902    2    1    2    0    0  0.59393543789E-02  0.90156337843E-02 -0.16486947951E-01  0.10242227162E+01  0.10240331026E+01 0.  0.
     999903    2    3    3    0    0  0.67365668790E-01  0.11281047103E+00  0.24122970604E-01  0.13506821564E+00  0.19929110885E-01 0.  0.
         14    1    1    2    0    0 -0.59393543789E-02 -0.90156337843E-02  0.16486947951E-01  0.19707283824E-01  0.00000000000E+00 0. -1.
     999901    1    3    3    0    0 -0.61426314411E-01 -0.10379483724E+00 -0.40609918555E-01  0.88915450054E+00  0.88000000000E+00 0. -1.
        -11    1    4    4    0    0  0.35303971484E-01  0.50441473610E-01  0.22686208627E-02  0.61612664478E-01  0.51100000000E-03 0. -1.
         11    1    4    4    0    0  0.32061697306E-01  0.62368997416E-01  0.21854349741E-01  0.73455551161E-01  0.51100000000E-03 0.  1.
</event>
<event>
 8    1  0.1094134E+005  0.1043930E+01  0.7957747E-01            NaN
         13   -1    0    0    0    0  0.00000000000E+00  0.00000000000E+00  0.74505805969E-08  0.10566000000E+00  0.10566000000E+00 0.  1.
     999900   -1    0    0    0    0 -0.00000000000E+00 -0.00000000000E+00 -0.74505805969E-08  0.93827000000E+00  0.93827000000E+00 0. -1.
     999902    2    1    2    0    0  0.84309389351E-02 -0.19382126110E-01  0.82909591432E-02  0.10212256492E+01  0.10209732313E+01 0.  0.
     999903    2    3    3    0    0  0.27601449766E-01 -0.10140112505E+00 -0.79191747787E-01  0.13288570933E+00  0.18527024483E-01 0.  0.
         14    1    1    2    0    0 -0.84309389351E-02  0.19382126110E-01 -0.82909591432E-02  0.22704350847E-01  0.00000000000E+00 0. -1.
     999901    1    3    3    0    0 -0.19170510831E-01  0.82018998940E-01  0.87482706930E-01  0.88833993982E+00  0.88000000000E+00 0.  1.
        -11    1    4    4    0    0  0.18475919564E-01 -0.62234283725E-01 -0.59677713448E-01  0.88182516849E-01  0.51100000000E-03 0.  1.
         11    1    4    4    0    0  0.91255302019E-02 -0.39166841325E-01 -0.19514034339E-01  0.44703192481E-01  0.51100000000E-03 0. -1.
</event>
<event>
 8    1  0.1094134E+005  0.1043930E+01  0.7957747E-01            NaN
         13   -1    0    0    0    0  0.00000000000E+00  0.00000000000E+00  0.74505805969E-08  0.10566000000E+00  0.10566000000E+00 0.  1.
     999900   -1    0    0    0    0 -0.00000000000E+00 -0.00000000000E+00 -0.74505805969E-08  0.93827000000E+00  0.93827000000E+00 0. -1.
     999902    2    1    2    0    0 -0.66308704236E-02 -0.10016060191E-01  0.17649897550E-01  0.10225803211E+01  0.10223574250E+01 0.  0.
     999903    2    3    3    0    0  0.10327390368E+00  0.56514430851E-01  0.57310020625E-01  0.13236782348E+00  0.19427355802E-01 0.  0.
         14    1    1    2    0    0  0.66308704236E-02  0.10016060191E-01 -0.17649897550E-01  0.21349678870E-01  0.00000000000E+00 0. -1.
     999901    1    3    3    0    0 -0.10990477410E+00 -0.66530491043E-01 -0.39660123075E-01  0.89021249765E+00  0.88000000000E+00 0. -1.
        -11    1    4    4    0    0  0.89100961697E-01  0.42929605087E-01  0.41941090930E-01  0.10743020338E+00  0.51100000000E-03 0. -1.
         11    1    4    4    0    0  0.14172941982E-01  0.13584825764E-01  0.15368929695E-01  0.24937620103E-01  0.51100000000E-03 0.  1.
</event>
<event>
 8    1  0.1094134E+005  0.1043930E+01  0.7957747E-01            NaN
         13   -1    0    0    0    0  0.00000000000E+00  0.00000000000E+00  0.74505805969E-08  0.10566000000E+00  0.10566000000E+00 0.  1.
     999900   -1    0    0    0    0 -0.00000000000E+00 -0.00000000000E+00 -0.74505805969E-08  0.93827000000E+00  0.93827000000E+00 0. -1.
     999902    2    1    2    0    0 -0.11661394591E-01  0.57257471847E-02  0.20001250929E-01  0.10200800033E+01  0.10198011526E+01 0.  0.
     999903    2    3    3    0    0 -0.36714672828E-01 -0.85770331668E-01 -0.86330321607E-01  0.12861738348E+00  0.19621159705E-01 0.  0.
         14    1    1    2    0    0  0.11661394591E-01 -0.57257471847E-02 -0.20001250929E-01  0.23849996716E-01  0.00000000000E+00 0. -1.
     999901    1    3    3    0    0  0.25053278237E-01  0.91496078853E-01  0.10633157254E+00  0.89146261981E+00  0.88000000000E+00 0.  1.
        -11    1    4    4    0    0 -0.19345874595E-01 -0.40805914419E-01 -0.54819261273E-01  0.71026741745E-01  0.51100000000E-03 0. -1.
         11    1    4    4    0    0 -0.17368798233E-01 -0.44964417250E-01 -0.31511060334E-01  0.57590641732E-01  0.51100000000E-03 0.  1.
</event>
<event>
 8    1  0.1094134E+005  0.1043930E+01  0.7957747E-01            NaN
         13   -1    0    0    0    0  0.00000000000E+00  0.00000000000E+00  0.74505805969E-08  0.10566000000E+00  0.10566000000E+00 0. -1.
     999900   -1    0    0    0    0 -0.00000000000E+00 -0.00000000000E+00 -0.74505805969E-08  0.93827000000E+00  0.93827000000E+00 0.  1.
     999902    2    1    2    0    0 -0.29755877299E-02 -0.21192159209E-01 -0.64021971922E-02  0.10215928143E+01  0.10213485832E+01 0.  0.
     999903    2    3    3    0    0 -0.16949501815E-01 -0.60272719659E-01 -0.11654621506E+00  0.13375596832E+00  0.19686352341E-01 0.  0.
         14    1    1    2    0    0  0.29755877299E-02  0.21192159209E-01  0.64021971922E-02  0.22337185659E-01  0.00000000000E+00 0. -1.
     999901    1    3    3    0    0  0.13973914085E-01  0.39080560451E-01  0.11014401787E+00  0.88783684602E+00  0.88000000000E+00 0. -1.
        -11    1    4    4    0    0 -0.17437507225E-01 -0.30688108169E-01 -0.73256750514E-01  0.81318136096E-01  0.51100000000E-03 0.  1.
         11    1    4    4    0    0  0.48800541008E-03 -0.29584611491E-01 -0.43289464550E-01  0.52437832224E-01  0.51100000000E-03 0. -1.
</event>
<event>
 8    1  0.1094134E+005  0.1043930E+01  0.7957747E-01            NaN
         13   -1    0    0    0    0  0.00000000000E+00  0.00000000000E+00  0.74505805969E-08  0.10566000000E+00  0.10566000000E+00 0.  1.
     999900   -1    0    0    0    0 -0.00000000000E+00 -0.00000000000E+00 -0.74505805969E-08  0.93827000000E+00  0.93827000000E+00 0. -1.
     999902    2    1    2    0    0 -0.19757291442E-02  0.19991826478E-01 -0.12914227021E-01  0.10200479169E+01  0.10197683065E+01 0.  0.
     999903    2    3    3    0    0  0.72860489005E-01 -0.35086438311E-01  0.97406451658E-01  0.12830539416E+00  0.20845822936E-01 0.  0.
         14    1    1    2    0    0  0.19757291442E-02 -0.19991826478E-01  0.12914227021E-01  0.23882083057E-01  0.00000000000E+00 0. -1.
     999901    1    3    3    0    0 -0.74836218149E-01  0.55078264790E-01 -0.11032067868E+00  0.89174252279E+00  0.88000000000E+00 0. -1.
        -11    1    4    4    0    0  0.53177967346E-01 -0.35045471675E-01  0.77403367678E-01  0.10023783590E+00  0.51100000000E-03 0.  1.
         11    1    4    4    0    0  0.19682521659E-01 -0.40966636559E-04  0.20003083979E-01  0.28067558262E-01  0.51100000000E-03 0. -1.
</event>
<event>
 8    1  0.1094134E+005  0.1043930E+01  0.7957747E-01            NaN
         13   -1    0    0    0    0  0.00000000000E+00  0.00000000000E+00  0.74505805969E-08  0.10566000000E+00  0.10566000000E+00 0.  1.
     999900   -1    0    0    0    0 -0.00000000000E+00 -0.00000000000E+00 -0.74505805969E-08  0.93827000000E+00  0.93827000000E+00 0.  1.
     999902    2    1    2    0    0  0.16021664919E-01 -0.75280405106E-02  0.15855246208E-01  0.10201654471E+01  0.10198886143E+01 0.  0.
     999903    2    3    3    0    0 -0.57872910670E-01  0.11161053809E+00 -0.17218176819E-01  0.12845458563E+00  0.19948156672E-01 0.  0.
         14    1    1    2    0    0 -0.16021664919E-01  0.75280405106E-02 -0.15855246208E-01  0.23764552869E-01  0.00000000000E+00 0.  1.
     999901    1    3    3    0    0  0.73894575589E-01 -0.11913857860E+00  0.33073423028E-01  0.89171086150E+00  0.88000000000E+00 0. -1.
        -11    1    4    4    0    0 -0.55961995256E-01  0.93001569017E-01 -0.13543078201E-01  0.10938332981E+00  0.51100000000E-03 0.  1.
         11    1    4    4    0    0 -0.19109154138E-02  0.18608969070E-01 -0.36750986179E-02  0.19071255816E-01  0.51100000000E-03 0. -1.
</event>
<event>
 8    1  0.1094134E+005  0.1043930E+01  0.7957747E-01            NaN
         13   -1    0    0    0    0  0.00000000000E+00  0.00000000000E+00  0.74505805969E-08  0.10566000000E+00  0.10566000000E+00 0. -1.
     999900   -1    0    0    0    0 -0.00000000000E+00 -0.00000000000E+00 -0.74505805969E-08  0.93827000000E+00  0.93827000000E+00 0. -1.
     999902    2    1    2    0    0 -0.14649222028E-01  0.12529699064E-02 -0.19722268505E-01  0.10193304570E+01  0.10190335829E+01 0.  0.
     999903    2    3    3    0    0  0.16171037883E-01 -0.11323949312E+00  0.54382971067E-01  0.12829173786E+00  0.20410222774E-01 0.  0.
         14    1    1    2    0    0  0.14649222028E-01 -0.12529699064E-02  0.19722268505E-01  0.24599542975E-01  0.00000000000E+00 0. -1.
     999901    1    3    3    0    0 -0.30820259911E-01  0.11449246303E+00 -0.74105239572E-01  0.89103871916E+00  0.88000000000E+00 0.  1.
        -11    1    4    4    0    0  0.19722203193E-01 -0.68859014567E-01  0.31892746669E-01  0.78408785203E-01  0.51100000000E-03 0. -1.
         11    1    4    4    0    0 -0.35511653100E-02 -0.44380478555E-01  0.22490224398E-01  0.49882952662E-01  0.51100000000E-03 0.  1.
</event>
<event>
 8    1  0.1094134E+005  0.1043930E+01  0.7957747E-01            NaN
         13   -1    0    0    0    0  0.00000000000E+00  0.00000000000E+00  0.74505805969E-08  0.10566000000E+00  0.10566000000E+00 0. -1.
     999900   -1    0    0    0    0 -0.00000000000E+00 -0.00000000000E+00 -0.74505805969E-08  0.93827000000E+00  0.93827000000E+00 0. -1.
     999902    2    1    2    0    0  0.22127871661E-01  0.86048492853E-02  0.13352914262E-02  0.10201504050E+01  0.10198732174E+01 0.  0.
     999903    2    3    3    0    0  0.19532495700E-01 -0.76532885756E-01  0.10177903817E+00  0.13035036220E+00  0.19835405807E-01 0.  0.
         14    1    1    2    0    0 -0.22127871661E-01 -0.86048492853E-02 -0.13352914262E-02  0.23779595007E-01  0.00000000000E+00 0.  1.
     999901    1    3    3    0    0  0.25953759612E-02  0.85137735042E-01 -0.10044374674E+00  0.88980004280E+00  0.88000000000E+00 0. -1.
        -11    1    4    4    0    0  0.11282227156E-01 -0.15163911498E-01  0.17461134245E-01  0.25736845021E-01  0.51100000000E-03 0. -1.
         11    1    4    4    0    0  0.82502685444E-02 -0.61368974259E-01  0.84317903923E-01  0.10461351717E+00  0.51100000000E-03 0.  1.
</event>
<event>
 8    1  0.1094134E+005  0.1043930E+01  0.7957747E-01            NaN
         13   -1    0    0    0    0  0.00000000000E+00  0.00000000000E+00  0.74505805969E-08  0.10566000000E+00  0.10566000000E+00 0.  1.
     999900   -1    0    0    0    0 -0.00000000000E+00 -0.00000000000E+00 -0.74505805969E-08  0.93827000000E+00  0.93827000000E+00 0.  1.
     999902    2    1    2    0    0 -0.94918492751E-02 -0.21073038015E-01  0.27269427167E-02  0.10206576054E+01  0.10203922496E+01 0.  0.
     999903    2    3    3    0    0 -0.64560556848E-01  0.68523078258E-01 -0.87407413423E-01  0.12982415926E+00  0.18729085713E-01 0.  0.
         14    1    1    2    0    0  0.94918492751E-02  0.21073038015E-01 -0.27269427167E-02  0.23272394600E-01  0.00000000000E+00 0.  1.
     999901    1    3    3    0    0  0.55068707572E-01 -0.89596116274E-01  0.90134356140E-01  0.89083344614E+00  0.88000000000E+00 0. -1.
        -11    1    4    4    0    0 -0.21269098659E-01  0.10893357334E-01 -0.21021872959E-01  0.31831117722E-01  0.51100000000E-03 0. -1.
         11    1    4    4    0    0 -0.43291458189E-01  0.57629720925E-01 -0.66385540464E-01  0.97993041537E-01  0.51100000000E-03 0.  1.
</event>
<event>
 8    1  0.1094134E+005  0.1043930E+01  0.7957747E-01            NaN
         13   -1    0    0    0    0  0.00000000000E+00  0.00000000000E+00  0.74505805969E-08  0.10566000000E+00  0.10566000000E+00 0.  1.
     999900   -1    0    0    0    0 -0.00000000000E+00 -0.00000000000E+00 -0.74505805969E-08  0.93827000000E+00  0.93827000000E+00 0.  1.
     999902    2    1    2    0    0  0.12546731754E-01  0.10717890887E-01 -0.16867184732E-01  0.10203334837E+01  0.10200605974E+01 0.  0.
     999903    2    3    3    0    0 -0.29048907577E-01 -0.21743822874E-01 -0.12528883914E+00  0.13211098044E+00  0.20961514150E-01 0.  0.
         14    1    1    2    0    0 -0.12546731754E-01 -0.10717890887E-01  0.16867184732E-01  0.23596516344E-01  0.00000000000E+00 0.  1.
     999901    1    3    3    0    0  0.41595639331E-01  0.32461713761E-01  0.10842165441E+00  0.88822250321E+00  0.88000000000E+00 0. -1.
        -11    1    4    4    0    0 -0.31848110608E-01 -0.16363031780E-01 -0.10612221683E+00  0.11200105796E+00  0.51100000000E-03 0. -1.
         11    1    4    4    0    0  0.27992030310E-02 -0.53807910935E-02 -0.19166622309E-01  0.20109922480E-01  0.51100000000E-03 0.  1.
</event>
<event>
 8    1  0.1094134E+005  0.1043930E+01  0.7957747E-01            NaN
         13   -1    0    0    0    0  0.00000000000E+00  0.00000000000E+00  0.74505805969E-08  0.10566000000E+00  0.10566000000E+00 0. -1.
     999900   -1    0    0    0    0 -0.00000000000E+00 -0.00000000000E+00 -0.74505805969E-08  0.93827000000E+00  0.93827000000E+00 0.  1.
     999902    2    1    2    0    0 -0.17714079500E-01 -0.10232351055E-01  0.11889228466E-01  0.10202689904E+01  0.10199945929E+01 0.  0.
     999903    2    3    3    0    0 -0.84817629359E-01  0.32966894910E-01 -0.91312595062E-01  0.13065127610E+00  0.21234865670E-01 0.  0.
         14    1    1    2    0    0  0.17714079500E-01  0.10232351055E-01 -0.11889228466E-01  0.23661009576E-01  0.00000000000E+00 0.  1.
     999901    1    3    3    0    0  0.67103549859E-01 -0.43199245965E-01  0.10320182353E+00  0.88961771432E+00  0.88000000000E+00 0. -1.
        -11    1    4    4    0    0 -0.62498696112E-01  0.15500948305E-01 -0.55751147797E-01  0.85175219494E-01  0.51100000000E-03 0. -1.
         11    1    4    4    0    0 -0.22318933247E-01  0.17465946605E-01 -0.35561447265E-01  0.45476056608E-01  0.51100000000E-03 0.  1.
</event>
<event>
 8    1  0.1094134E+005  0.1043930E+01  0.7957747E-01            NaN
         13   -1    0    0    0    0  0.00000000000E+00  0.00000000000E+00  0.74505805969E-08  0.10566000000E+00  0.10566000000E+00 0. -1.
     999900   -1    0    0    0    0 -0.00000000000E+00 -0.00000000000E+00 -0.74505805969E-08  0.93827000000E+00  0.93827000000E+00 0.  1.
     999902    2    1    2    0    0 -0.17105968038E-01  0.13514656418E-02 -0.16809658836E-01  0.10199090668E+01  0.10196261566E+01 0.  0.
     999903    2    3    3    0    0  0.39286617602E-01  0.10562554670E+00  0.58808765978E-01  0.12874614461E+00  0.20418235932E-01 0.  0.
         14    1    1    2    0    0  0.17105968038E-01 -0.13514656418E-02  0.16809658836E-01  0.24020933206E-01  0.00000000000E+00 0.  1.
     999901    1    3    3    0    0 -0.56392585641E-01 -0.10427408106E+00 -0.75618424814E-01  0.89116292218E+00  0.88000000000E+00 0.  1.
        -11    1    4    4    0    0  0.16627330833E-01  0.32041220560E-01  0.95582071754E-02  0.37346062590E-01  0.51100000000E-03 0.  1.
         11    1    4    4    0    0  0.22659286770E-01  0.73584326141E-01  0.49250558803E-01  0.91400082024E-01  0.51100000000E-03 0. -1.
</event>
<event>
 8    1  0.1094134E+005  0.1043930E+01  0.7957747E-01            NaN
         13   -1    0    0    0    0  0.00000000000E+00  0.00000000000E+00  0.74505805969E-08  0.10566000000E+00  0.10566000000E+00 0. -1.
     999900   -1    0    0    0    0 -0.00000000000E+00 -0.00000000000E+00 -0.74505805969E-08  0.93827000000E+00  0.93827000000E+00 0.  1.
     999902    2    1    2    0    0 -0.65008939123E-02  0.20218811531E-01 -0.85305915346E-02  0.10210426027E+01  0.10207860519E+01 0.  0.
     999903    2    3    3    0    0 -0.20885196749E-01  0.98097950887E-02 -0.12910544868E+00  0.13264317007E+00  0.19838602860E-01 0.  0.
         14    1    1    2    0    0  0.65008939123E-02 -0.20218811531E-01  0.85305915346E-02  0.22887397260E-01  0.00000000000E+00 0.  1.
     999901    1    3    3    0    0  0.14384302837E-01  0.10409016442E-01  0.12057485715E+00  0.88839943267E+00  0.88000000000E+00 0. -1.
        -11    1    4    4    0    0  0.19292544229E-02  0.63112602016E-02 -0.42544425351E-01  0.43056280348E-01  0.51100000000E-03 0. -1.
         11    1    4    4    0    0 -0.22814451172E-01  0.34985348871E-02 -0.86561023333E-01  0.89586889722E-01  0.51100000000E-03 0.  1.
</event>
<event>
 8    1  0.1094134E+005  0.1043930E+01  0.7957747E-01            NaN
         13   -1    0    0    0    0  0.00000000000E+00  0.00000000000E+00  0.74505805969E-08  0.10566000000E+00  0.10566000000E+00 0.  1.
     999900   -1    0    0    0    0 -0.00000000000E+00 -0.00000000000E+00 -0.74505805969E-08  0.93827000000E+00  0.93827000000E+00 0. -1.
     999902    2    1    2    0    0  0.15747466851E-02  0.23047833700E-01 -0.60149158133E-02  0.10200582242E+01  0.10197788580E+01 0.  0.
     999903    2    3    3    0    0 -0.29703101242E-01 -0.11456228485E+00 -0.44616469300E-01  0.12797923199E+00  0.19525961056E-01 0.  0.
         14    1    1    2    0    0 -0.15747466851E-02 -0.23047833700E-01  0.60149158133E-02  0.23871775753E-01  0.00000000000E+00 0.  1.
     999901    1    3    3    0    0  0.31277847927E-01  0.13761011855E+00  0.38601553487E-01  0.89207899226E+00  0.88000000000E+00 0.  1.
        -11    1    4    4    0    0 -0.45207570842E-03 -0.24492649733E-01 -0.35548016082E-02  0.24758675225E-01  0.51100000000E-03 0.  1.
         11    1    4    4    0    0 -0.29251025533E-01 -0.90069635112E-01 -0.41061667692E-01  0.10322055676E+00  0.51100000000E-03 0. -1.
</event>
<event>
 8    1  0.1094134E+005  0.1043930E+01  0.7957747E-01            NaN
         13   -1    0    0    0    0  0.00000000000E+00  0.00000000000E+00  0.74505805969E-08  0.10566000000E+00  0.10566000000E+00 0. -1.
     999900   -1    0    0    0    0 -0.00000000000E+00 -0.00000000000E+00 -0.74505805969E-08  0.93827000000E+00  0.93827000000E+00 0. -1.
     999902    2    1    2    0    0  0.43906223419E-02 -0.17204316634E-01 -0.15478165303E-01  0.10203749649E+01  0.10201030484E+01 0.  0.
     999903    2    3    3    0    0 -0.11849440518E+00 -0.35463375938E-01  0.35364377880E-01  0.13019572039E+00  0.20042736652E-01 0.  0.
         14    1    1    2    0    0 -0.43906223419E-02  0.17204316634E-01  0.15478165303E-01  0.23555035057E-01  0.00000000000E+00 0. -1.
     999901    1    3    3    0    0  0.12288502752E+00  0.18259059304E-01 -0.50842543182E-01  0.89017924455E+00  0.88000000000E+00 0. -1.
        -11    1    4    4    0    0 -0.30851524562E-01 -0.17572849709E-01  0.57639341147E-02  0.35973680270E-01  0.51100000000E-03 0. -1.
         11    1    4    4    0    0 -0.87642880621E-01 -0.17890526229E-01  0.29600443765E-01  0.94222040120E-01  0.51100000000E-03 0.  1.
</event>
<event>
 8    1  0.1094134E+005  0.1043930E+01  0.7957747E-01            NaN
         13   -1    0    0    0    0  0.00000000000E+00  0.00000000000E+00  0.74505805969E-08  0.10566000000E+00  0.10566000000E+00 0. -1.
     999900   -1    0    0    0    0 -0.00000000000E+00 -0.00000000000E+00 -0.74505805969E-08  0.93827000000E+00  0.93827000000E+00 0.  1.
     999902    2    1    2    0    0 -0.13985302858E-01  0.10029622821E-01  0.17285041305E-01  0.10195383071E+01  0.10192464888E+01 0.  0.
     999903    2    3    3    0    0 -0.36234779758E-01 -0.40237378820E-01  0.11874925956E+00  0.13200419605E+00  0.19791796544E-01 0.  0.
         14    1    1    2    0    0  0.13985302858E-01 -0.10029622821E-01 -0.17285041305E-01  0.24391692907E-01  0.00000000000E+00 0. -1.
     999901    1    3    3    0    0  0.22249476900E-01  0.50267001642E-01 -0.10146421826E+00  0.88753411104E+00  0.88000000000E+00 0.  1.
        -11    1    4    4    0    0 -0.16616065189E-01 -0.31747886807E-01  0.81956041677E-01  0.89448732956E-01  0.51100000000E-03 0.  1.
         11    1    4    4    0    0 -0.19618714570E-01 -0.84894920136E-02  0.36793217883E-01  0.42555463095E-01  0.51100000000E-03 0. -1.
</event>
<event>
 8    1  0.1094134E+005  0.1043930E+01  0.7957747E-01            NaN
         13   -1    0    0    0    0  0.00000000000E+00  0.00000000000E+00  0.74505805969E-08  0.10566000000E+00  0.10566000000E+00 0. -1.
     999900   -1    0    0    0    0 -0.00000000000E+00 -0.00000000000E+00 -0.74505805969E-08  0.93827000000E+00  0.93827000000E+00 0. -1.
     999902    2    1    2    0    0 -0.11493576603E-01  0.20171811805E-01 -0.38160993993E-02  0.10204019973E+01  0.10201307119E+01 0.  0.
     999903    2    3    3    0    0  0.20865313320E-01  0.48956997734E-01  0.11804422801E+00  0.13094956798E+00  0.19524360717E-01 0.  0.
         14    1    1    2    0    0  0.11493576603E-01 -0.20171811805E-01  0.38160993993E-02  0.23528002662E-01  0.00000000000E+00 0. -1.
     999901    1    3    3    0    0 -0.32358889923E-01 -0.28785185928E-01 -0.12186032741E+00  0.88945242935E+00  0.88000000000E+00 0. -1.
        -11    1    4    4    0    0 -0.25570853035E-02  0.12622062738E-01  0.19955067550E-01  0.23755441376E-01  0.51100000000E-03 0. -1.
         11    1    4    4    0    0  0.23422398623E-01  0.36334934996E-01  0.98089160461E-01  0.10719412661E+00  0.51100000000E-03 0.  1.
</event>
<event>
 8    1  0.1094134E+005  0.1043930E+01  0.7957747E-01            NaN
         13   -1    0    0    0    0  0.00000000000E+00  0.00000000000E+00  0.74505805969E-08  0.10566000000E+00  0.10566000000E+00 0. -1.
     999900   -1    0    0    0    0 -0.00000000000E+00 -0.00000000000E+00 -0.74505805969E-08  0.93827000000E+00  0.93827000000E+00 0. -1.
     999902    2    1    2    0    0  0.12368205143E-01  0.17215496403E-01 -0.51440553680E-02  0.10221169965E+01  0.10218842143E+01 0.  0.
     999903    2    3    3    0    0  0.14149962959E-01 -0.80590520079E-01  0.99781711224E-01  0.13050126763E+00  0.19471455523E-01 0.  0.
         14    1    1    2    0    0 -0.12368205143E-01 -0.17215496403E-01  0.51440553680E-02  0.21813003472E-01  0.00000000000E+00 0.  1.
     999901    1    3    3    0    0 -0.17817578160E-02  0.97806016482E-01 -0.10492576659E+00  0.89161572890E+00  0.88000000000E+00 0. -1.
        -11    1    4    4    0    0 -0.48111730208E-02 -0.12058873917E-01  0.16019856600E-01  0.20626699990E-01  0.51100000000E-03 0. -1.
         11    1    4    4    0    0  0.18961135980E-01 -0.68531646162E-01  0.83761854623E-01  0.10987456764E+00  0.51100000000E-03 0.  1.
</event>
<event>
 8    1  0.1094134E+005  0.1043930E+01  0.7957747E-01            NaN
         13   -1    0    0    0    0  0.00000000000E+00  0.00000000000E+00  0.74505805969E-08  0.10566000000E+00  0.10566000000E+00 0.  1.
     999900   -1    0    0    0    0 -0.00000000000E+00 -0.00000000000E+00 -0.74505805969E-08  0.93827000000E+00  0.93827000000E+00 0. -1.
     999902    2    1    2    0    0  0.81680534891E-02 -0.21693388126E-01  0.64178121806E-02  0.10198777964E+01  0.10195941403E+01 0.  0.
     999903    2    3    3    0    0 -0.15910637669E-01  0.25703952092E-01 -0.12348933788E+00  0.12875369791E+00  0.20348381055E-01 0.  0.
         14    1    1    2    0    0 -0.81680534891E-02  0.21693388126E-01 -0.64178121806E-02  0.24052203628E-01  0.00000000000E+00 0.  1.
     999901    1    3    3    0    0  0.24078691158E-01 -0.47397340217E-01  0.12990715006E+00  0.89112409846E+00  0.88000000000E+00 0.  1.
        -11    1    4    4    0    0 -0.17376946409E-01  0.27484994294E-01 -0.10021711166E+00  0.10536182311E+00  0.51100000000E-03 0.  1.
         11    1    4    4    0    0  0.14663087396E-02 -0.17810422022E-02 -0.23272226216E-01  0.23391874801E-01  0.51100000000E-03 0. -1.
</event>
<event>
 8    1  0.1094134E+005  0.1043930E+01  0.7957747E-01            NaN
         13   -1    0    0    0    0  0.00000000000E+00  0.00000000000E+00  0.74505805969E-08  0.10566000000E+00  0.10566000000E+00 0.  1.
     999900   -1    0    0    0    0 -0.00000000000E+00 -0.00000000000E+00 -0.74505805969E-08  0.93827000000E+00  0.93827000000E+00 0.  1.
     999902    2    1    2    0    0  0.17387771854E-01 -0.12707164320E-01  0.97897214586E-02  0.10202731769E+01  0.10199988775E+01 0.  0.
     999903    2    3    3    0    0 -0.72013379555E-01 -0.93897279503E-01 -0.49227433450E-01  0.13006678211E+00  0.22167581519E-01 0.  0.
         14    1    1    2    0    0 -0.17387771854E-01  0.12707164320E-01 -0.97897214586E-02  0.23656823146E-01  0.00000000000E+00 0.  1.
     999901    1    3    3    0    0  0.89401151409E-01  0.81190115183E-01  0.59017154908E-01  0.89020639475E+00  0.88000000000E+00 0. -1.
        -11    1    4    4    0    0 -0.37042634635E-01 -0.52041050019E-01 -0.38160331327E-01  0.74410346564E-01  0.51100000000E-03 0.  1.
         11    1    4    4    0    0 -0.34970744920E-01 -0.41856229485E-01 -0.11067102123E-01  0.55656435543E-01  0.51100000000E-03 0. -1.
</event>
<event>
 8    1  0.1094134E+005  0.1043930E+01  0.7957747E-01            NaN
         13   -1    0    0    0    0  0.00000000000E+00  0.00000000000E+00  0.74505805969E-08  0.10566000000E+00  0.10566000000E+00 0.  1.
     999900   -1    0    0    0    0 -0.00000000000E+00 -0.00000000000E+00 -0.74505805969E-08  0.93827000000E+00  0.93827000000E+00 0. -1.
     999902    2    1    2    0    0  0.18972616967E-01  0.14059121001E-01  0.35898157305E-02  0.10200447356E+01  0.10197650498E+01 0.  0.
     999903    2    3    3    0    0  0.61414539593E-01 -0.68886858392E-01 -0.89541671867E-01  0.13023867456E+00  0.20670181883E-01 0.  0.
         14    1    1    2    0    0 -0.18972616967E-01 -0.14059121001E-01 -0.35898157305E-02  0.23885264388E-01  0.00000000000E+00 0.  1.
     999901    1    3    3    0    0 -0.42441922626E-01  0.82945979394E-01  0.93131487597E-01  0.88980606105E+00  0.88000000000E+00 0.  1.
        -11    1    4    4    0    0  0.27428234106E-01 -0.16403893253E-01 -0.32897961475E-01  0.45868646484E-01  0.51100000000E-03 0.  1.
         11    1    4    4    0    0  0.33986305488E-01 -0.52482965139E-01 -0.56643710391E-01  0.84370028081E-01  0.51100000000E-03 0. -1.
</event>
<event>
 8    1  0.1094134E+005  0.1043930E+01  0.7957747E-01            NaN
         13   -1    0    0    0    0  0.00000000000E+00  0.00000000000E+00  0.74505805969E-08  0.10566000000E+00  0.10566000000E+00 0.  1.
     999900   -1    0    0    0    0 -0.00000000000E+00 -0.00000000000E+00 -0.74505805969E-08  0.93827000000E+00  0.93827000000E+00 0. -1.
     999902    2    1    2    0    0 -0.14567999084E-01  0.17244814711E-01  0.65637846553E-02  0.10204205657E+01  0.10201497132E+01 0.  0.
     999903    2    3    3    0    0  0.72480842020E-01  0.10788740330E+00 -0.21041545770E-02  0.13144997408E+00  0.19532126581E-01 0.  0.
         14    1    1    2    0    0  0.14567999084E-01 -0.17244814711E-01 -0.65637846553E-02  0.23509434292E-01  0.00000000000E+00 0. -1.
     999901    1    3    3    0    0 -0.87048841104E-01 -0.90642588590E-01  0.86679392323E-02  0.88897059163E+00  0.88000000000E+00 0. -1.
        -11    1    4    4    0    0  0.19956403470E-01  0.15970346190E-01 -0.19756511464E-03  0.25565800396E-01  0.51100000000E-03 0.  1.
         11    1    4    4    0    0  0.52524438550E-01  0.91917057111E-01 -0.19065894623E-02  0.10588417369E+00  0.51100000000E-03 0. -1.
</event>
<event>
 8    1  0.1094134E+005  0.1043930E+01  0.7957747E-01            NaN
         13   -1    0    0    0    0  0.00000000000E+00  0.00000000000E+00  0.74505805969E-08  0.10566000000E+00  0.10566000000E+00 0. -1.
     999900   -1    0    0    0    0 -0.00000000000E+00 -0.00000000000E+00 -0.74505805969E-08  0.93827000000E+00  0.93827000000E+00 0.  1.
     999902    2    1    2    0    0  0.57143476581E-02  0.27063351520E-02  0.22553703216E-01  0.10205067733E+01  0.10202379266E+01 0.  0.
     999903    2    3    3    0    0  0.12234344962E+00  0.30559203048E-01 -0.29396472271E-01  0.13085687004E+00  0.18909873061E-01 0.  0.
         14    1    1    2    0    0 -0.57143476581E-02 -0.27063351520E-02 -0.22553703216E-01  0.23423226675E-01  0.00000000000E+00 0.  1.
     999901    1    3    3    0    0 -0.11662910196E+00 -0.27852867896E-01  0.51950175486E-01  0.88964990328E+00  0.88000000000E+00 0. -1.
        -11    1    4    4    0    0  0.62071211337E-01  0.20902486883E-01 -0.71537221004E-02  0.65887677874E-01  0.51100000000E-03 0. -1.
         11    1    4    4    0    0  0.60272238286E-01  0.96567161651E-02 -0.22242750170E-01  0.64969192170E-01  0.51100000000E-03 0.  1.
</event>
<event>
 8    1  0.1094134E+005  0.1043930E+01  0.7957747E-01            NaN
         13   -1    0    0    0    0  0.00000000000E+00  0.00000000000E+00  0.74505805969E-08  0.10566000000E+00  0.10566000000E+00 0.  1.
     999900   -1    0    0    0    0 -0.00000000000E+00 -0.00000000000E+00 -0.74505805969E-08  0.93827000000E+00  0.93827000000E+00 0.  1.
     999902    2    1    2    0    0  0.18477752302E-01 -0.12071006765E-01 -0.10357977746E-01  0.10195491830E+01  0.10192576280E+01 0.  0.
     999903    2    3    3    0    0  0.11408803536E+00 -0.27508310386E-03 -0.64314548469E-01  0.13264908628E+00  0.21053822988E-01 0.  0.
         14    1    1    2    0    0 -0.18477752302E-01  0.12071006765E-01  0.10357977746E-01  0.24380816997E-01  0.00000000000E+00 0.  1.
     999901    1    3    3    0    0 -0.95610283062E-01 -0.11795923661E-01  0.53956570723E-01  0.88690009672E+00  0.88000000000E+00 0.  1.
        -11    1    4    4    0    0  0.15376293158E-01  0.72618572271E-02 -0.91683328344E-02  0.19325744737E-01  0.51100000000E-03 0. -1.
         11    1    4    4    0    0  0.98711742206E-01 -0.75369403310E-02 -0.55146215634E-01  0.11332334154E+00  0.51100000000E-03 0.  1.
</event>
<event>
 8    1  0.1094134E+005  0.1043930E+01  0.7957747E-01            NaN
         13   -1    0    0    0    0  0.00000000000E+00  0.00000000000E+00  0.74505805969E-08  0.10566000000E+00  0.10566000000E+00 0. -1.
     999900   -1    0    0    0    0 -0.00000000000E+00 -0.00000000000E+00 -0.74505805969E-08  0.93827000000E+00  0.93827000000E+00 0. -1.
     999902    2    1    2    0    0  0.19476453407E-01  0.10714377476E-01  0.56812145288E-02  0.10209864536E+01  0.10207286281E+01 0.  0.
     999903    2    3    3    0    0 -0.32567472930E-01  0.28126799463E-01 -0.12124477621E+00  0.13018795237E+00  0.19921095436E-01 0.  0.
         14    1    1    2    0    0 -0.19476453407E-01 -0.10714377476E-01 -0.56812145288E-02  0.22943546381E-01  0.00000000000E+00 0.  1.
     999901    1    3    3    0    0  0.52043926337E-01 -0.17412421987E-01  0.12692599073E+00  0.89079850125E+00  0.88000000000E+00 0.  1.
        -11    1    4    4    0    0 -0.42076309057E-02  0.15331241498E-01 -0.33386635910E-01  0.36982153832E-01  0.51100000000E-03 0.  1.
         11    1    4    4    0    0 -0.28359842024E-01  0.12795557964E-01 -0.87858140296E-01  0.93205798535E-01  0.51100000000E-03 0. -1.
</event>
<event>
 8    1  0.1094134E+005  0.1043930E+01  0.7957747E-01            NaN
         13   -1    0    0    0    0  0.00000000000E+00  0.00000000000E+00  0.74505805969E-08  0.10566000000E+00  0.10566000000E+00 0. -1.
     999900   -1    0    0    0    0 -0.00000000000E+00 -0.00000000000E+00 -0.74505805969E-08  0.93827000000E+00  0.93827000000E+00 0. -1.
     999902    2    1    2    0    0 -0.19912295360E-01 -0.81983627931E-02 -0.16573861219E-01  0.10167563816E+01  0.10163931986E+01 0.  0.
     999903    2    3    3    0    0  0.28439537661E-01 -0.96907327654E-01 -0.77554039906E-01  0.12887927168E+00  0.19884670160E-01 0.  0.
         14    1    1    2    0    0  0.19912295360E-01  0.81983627931E-02  0.16573861219E-01  0.27173618358E-01  0.00000000000E+00 0. -1.
     999901    1    3    3    0    0 -0.48351833021E-01  0.88708964861E-01  0.60980178687E-01  0.88787710996E+00  0.88000000000E+00 0.  1.
        -11    1    4    4    0    0  0.84058085604E-02 -0.26512634386E-01 -0.10873514422E-01  0.29867571655E-01  0.51100000000E-03 0.  1.
         11    1    4    4    0    0  0.20033729100E-01 -0.70394693268E-01 -0.66680525483E-01  0.99011700024E-01  0.51100000000E-03 0. -1.
</event>
<event>
 8    1  0.1094134E+005  0.1043930E+01  0.7957747E-01            NaN
         13   -1    0    0    0    0  0.00000000000E+00  0.00000000000E+00  0.74505805969E-08  0.10566000000E+00  0.10566000000E+00 0.  1.
     999900   -1    0    0    0    0 -0.00000000000E+00 -0.00000000000E+00 -0.74505805969E-08  0.93827000000E+00  0.93827000000E+00 0.  1.
     999902    2    1    2    0    0  0.14853351168E-01  0.17613107665E-01 -0.80009871805E-02  0.10195402604E+01  0.10192484894E+01 0.  0.
     999903    2    3    3    0    0 -0.96343277974E-01 -0.69754879171E-01 -0.41653786188E-01  0.12761517029E+00  0.20070461038E-01 0.  0.
         14    1    1    2    0    0 -0.14853351168E-01 -0.17613107665E-01  0.80009871805E-02  0.24389739614E-01  0.00000000000E+00 0. -1.
     999901    1    3    3    0    0  0.11119662914E+00  0.87367986836E-01  0.33652799008E-01  0.89192509009E+00  0.88000000000E+00 0. -1.
        -11    1    4    4    0    0 -0.42179687940E-02 -0.59231850762E-02  0.16276792599E-02  0.74689920985E-02  0.51100000000E-03 0. -1.
         11    1    4    4    0    0 -0.92125309180E-01 -0.63831694095E-01 -0.43281465448E-01  0.12014617819E+00  0.51100000000E-03 0.  1.
</event>
<event>
 8    1  0.1094134E+005  0.1043930E+01  0.7957747E-01            NaN
         13   -1    0    0    0    0  0.00000000000E+00  0.00000000000E+00  0.74505805969E-08  0.10566000000E+00  0.10566000000E+00 0. -1.
     999900   -1    0    0    0    0 -0.00000000000E+00 -0.00000000000E+00 -0.74505805969E-08  0.93827000000E+00  0.93827000000E+00 0.  1.
     999902    2    1    2    0    0  0.21720079303E-01 -0.56104448989E-02 -0.52426221107E-02  0.10208925517E+01  0.10206325872E+01 0.  0.
     999903    2    3    3    0    0 -0.10237299110E+00 -0.68313958363E-01 -0.35051698610E-01  0.12947828115E+00  0.19722512534E-01 0.  0.
         14    1    1    2    0    0 -0.21720079303E-01  0.56104448989E-02  0.52426221107E-02  0.23037448285E-01  0.00000000000E+00 0. -1.
     999901    1    3    3    0    0  0.12409307040E+00  0.62703513464E-01  0.29809076499E-01  0.89141427056E+00  0.88000000000E+00 0.  1.
        -11    1    4    4    0    0 -0.78855220075E-01 -0.59460013163E-01 -0.22104975896E-01  0.10120538513E+00  0.51100000000E-03 0.  1.
         11    1    4    4    0    0 -0.23517771025E-01 -0.88539452001E-02 -0.12946722714E-01  0.28272896025E-01  0.51100000000E-03 0. -1.
</event>
<event>
 8    1  0.1094134E+005  0.1043930E+01  0.7957747E-01            NaN
         13   -1    0    0    0    0  0.00000000000E+00  0.00000000000E+00  0.74505805969E-08  0.10566000000E+00  0.10566000000E+00 0.  1.
     999900   -1    0    0    0    0 -0.00000000000E+00 -0.00000000000E+00 -0.74505805969E-08  0.93827000000E+00  0.93827000000E+00 0. -1.
     999902    2    1    2    0    0  0.12261135978E-01 -0.17068565137E-01  0.96289349154E-02  0.10208131715E+01  0.10205513918E+01 0.  0.
     999903    2    3    3    0    0  0.35027277918E-01 -0.12649755591E+00 -0.17410006390E-01  0.13333128123E+00  0.15671004505E-01 0.  0.
         14    1    1    2    0    0 -0.12261135978E-01  0.17068565137E-01 -0.96289349154E-02  0.23116828479E-01  0.00000000000E+00 0.  1.
     999901    1    3    3    0    0 -0.22766141940E-01  0.10942899078E+00  0.27038941305E-01  0.88748189029E+00  0.88000000000E+00 0. -1.
        -11    1    4    4    0    0  0.13656264243E-01 -0.68809439519E-01 -0.15136580037E-01  0.71767748301E-01  0.51100000000E-03 0.  1.
         11    1    4    4    0    0  0.21371013674E-01 -0.57688116396E-01 -0.22734263532E-02  0.61563532933E-01  0.51100000000E-03 0. -1.
</event>
<event>
 8    1  0.1094134E+005  0.1043930E+01  0.7957747E-01            NaN
         13   -1    0    0    0    0  0.00000000000E+00  0.00000000000E+00  0.74505805969E-08  0.10566000000E+00  0.10566000000E+00 0.  1.
     999900   -1    0    0    0    0 -0.00000000000E+00 -0.00000000000E+00 -0.74505805969E-08  0.93827000000E+00  0.93827000000E+00 0. -1.
     999902    2    1    2    0    0  0.17126744595E-01  0.13711259012E-01 -0.86012783074E-02  0.10203650686E+01  0.10200929209E+01 0.  0.
     999903    2    3    3    0    0  0.87281427904E-01 -0.92569705636E-01 -0.24035427721E-01  0.13106448048E+00  0.20322357119E-01 0.  0.
         14    1    1    2    0    0 -0.17126744595E-01 -0.13711259012E-01  0.86012783074E-02  0.23564931416E-01  0.00000000000E+00 0.  1.
     999901    1    3    3    0    0 -0.70154683309E-01  0.10628096465E+00  0.15434149413E-01  0.88930058811E+00  0.88000000000E+00 0.  1.
        -11    1    4    4    0    0  0.33452541183E-01 -0.34803110381E-01  0.82317485044E-03  0.48283203514E-01  0.51100000000E-03 0. -1.
         11    1    4    4    0    0  0.53828886721E-01 -0.57766595255E-01 -0.24858602571E-01  0.82781276964E-01  0.51100000000E-03 0.  1.
</event>
<event>
 8    1  0.1094134E+005  0.1043930E+01  0.7957747E-01            NaN
         13   -1    0    0    0    0  0.00000000000E+00  0.00000000000E+00  0.74505805969E-08  0.10566000000E+00  0.10566000000E+00 0. -1.
     999900   -1    0    0    0    0 -0.00000000000E+00 -0.00000000000E+00 -0.74505805969E-08  0.93827000000E+00  0.93827000000E+00 0. -1.
     999902    2    1    2    0    0 -0.13813775582E-01  0.14483441381E-01 -0.12652798644E-01  0.10202512377E+01  0.10199764234E+01 0.  0.
     999903    2    3    3    0    0 -0.12943793087E+00 -0.15711236518E-01 -0.85263652779E-02  0.13216470402E+00  0.19844122147E-01 0.  0.
         14    1    1    2    0    0  0.13813775582E-01 -0.14483441381E-01  0.12652798644E-01  0.23678762291E-01  0.00000000000E+00 0. -1.
     999901    1    3    3    0    0  0.11562415529E+00  0.30194677899E-01 -0.41264333666E-02  0.88808653368E+00  0.88000000000E+00 0.  1.
        -11    1    4    4    0    0 -0.36552203824E-01 -0.29572618879E-04 -0.10186477101E-01  0.37948516646E-01  0.51100000000E-03 0. -1.
         11    1    4    4    0    0 -0.92885727048E-01 -0.15681663899E-01  0.16601118233E-02  0.94216187379E-01  0.51100000000E-03 0.  1.
</event>
<event>
 8    1  0.1094134E+005  0.1043930E+01  0.7957747E-01            NaN
         13   -1    0    0    0    0  0.00000000000E+00  0.00000000000E+00  0.74505805969E-08  0.10566000000E+00  0.10566000000E+00 0.  1.
     999900   -1    0    0    0    0 -0.00000000000E+00 -0.00000000000E+00 -0.74505805969E-08  0.93827000000E+00  0.93827000000E+00 0. -1.
     999902    2    1    2    0    0 -0.19954704617E-01  0.15396221338E-01  0.37869076076E-02  0.10184432478E+01  0.10181242923E+01 0.  0.
     999903    2    3    3    0    0 -0.11340551752E+00 -0.32808180774E-01 -0.51743969975E-01  0.13044527643E+00  0.20033561469E-01 0.  0.
         14    1    1    2    0    0  0.19954704617E-01 -0.15396221338E-01 -0.37869076076E-02  0.25486752188E-01  0.00000000000E+00 0. -1.
     999901    1    3    3    0    0  0.93450812899E-01  0.48204402112E-01  0.55530877583E-01  0.88799797138E+00  0.88000000000E+00 0.  1.
        -11    1    4    4    0    0 -0.18611215060E-01 -0.13013468409E-01 -0.70132248873E-02  0.23773391226E-01  0.51100000000E-03 0.  1.
         11    1    4    4    0    0 -0.94794302456E-01 -0.19794712364E-01 -0.44730745088E-01  0.10667188520E+00  0.51100000000E-03 0. -1.
</event>
<event>
 8    1  0.1094134E+005  0.1043930E+01  0.7957747E-01            NaN
         13   -1    0    0    0    0  0.00000000000E+00  0.00000000000E+00  0.74505805969E-08  0.10566000000E+00  0.10566000000E+00 0. -1.
     999900   -1    0    0    0    0 -0.00000000000E+00 -0.00000000000E+00 -0.74505805969E-08  0.93827000000E+00  0.93827000000E+00 0. -1.
     999902    2    1    2    0    0  0.18946103434E-01 -0.25541086941E-02  0.14171164472E-01  0.10201329370E+01  0.10198553372E+01 0.  0.
     999903    2    3    3    0    0 -0.80802494287E-02  0.12400499547E+00  0.33308635756E-01  0.13046228251E+00  0.21642841993E-01 0.  0.
         14    1    1    2    0    0 -0.18946103434E-01  0.25541086941E-02 -0.14171164472E-01  0.23797063034E-01  0.00000000000E+00 0.  1.
     999901    1    3    3    0    0  0.27026352863E-01 -0.12655910416E+00 -0.19137471284E-01  0.88967065446E+00  0.88000000000E+00 0.  1.
        -11    1    4    4    0    0 -0.11772150090E-01  0.11843937623E+00  0.33844994970E-01  0.12374253175E+00  0.51100000000E-03 0.  1.
         11    1    4    4    0    0  0.36919006612E-02  0.55656192419E-02 -0.53635921437E-03  0.67197507576E-02  0.51100000000E-03 0. -1.
</event>
<event>
 8    1  0.1094134E+005  0.1043930E+01  0.7957747E-01            NaN
         13   -1    0    0    0    0  0.00000000000E+00  0.00000000000E+00  0.74505805969E-08  0.10566000000E+00  0.10566000000E+00 0. -1.
     999900   -1    0    0    0    0 -0.00000000000E+00 -0.00000000000E+00 -0.74505805969E-08  0.93827000000E+00  0.93827000000E+00 0.  1.
     999902    2    1    2    0    0  0.92733556716E-02  0.11974360634E-01  0.18355154446E-01  0.10201331067E+01  0.10198555109E+01 0.  0.
     999903    2    3    3    0    0 -0.10415241952E+00  0.37302416659E-01  0.67488477894E-01  0.13113310645E+00  0.20049942067E-01 0.  0.
         14    1    1    2    0    0 -0.92733556716E-02 -0.11974360634E-01 -0.18355154446E-01  0.23796893343E-01  0.00000000000E+00 0.  1.
     999901    1    3    3    0    0  0.11342577519E+00 -0.25328056025E-01 -0.49133323448E-01  0.88900000021E+00  0.88000000000E+00 0.  1.
        -11    1    4    4    0    0 -0.48525716309E-01  0.14370210100E-01  0.42072973118E-01  0.65815228250E-01  0.51100000000E-03 0. -1.
         11    1    4    4    0    0 -0.55626703214E-01  0.22932206559E-01  0.25415504776E-01  0.65317878197E-01  0.51100000000E-03 0.  1.
</event>
<event>
 8    1  0.1094134E+005  0.1043930E+01  0.7957747E-01            NaN
         13   -1    0    0    0    0  0.00000000000E+00  0.00000000000E+00  0.74505805969E-08  0.10566000000E+00  0.10566000000E+00 0.  1.
     999900   -1    0    0    0    0 -0.00000000000E+00 -0.00000000000E+00 -0.74505805969E-08  0.93827000000E+00  0.93827000000E+00 0. -1.
     999902    2    1    2    0    0  0.18849370764E-01 -0.14273262170E-01  0.40714328347E-02  0.10199383065E+01  0.10196560929E+01 0.  0.
     999903    2    3    3    0    0  0.68392896587E-01  0.95208744710E-01 -0.52557069901E-01  0.12996771256E+00  0.19674026982E-01 0.  0.
         14    1    1    2    0    0 -0.18849370764E-01  0.14273262170E-01 -0.40714328347E-02  0.23991693490E-01  0.00000000000E+00 0.  1.
     999901    1    3    3    0    0 -0.49543525824E-01 -0.10948200688E+00  0.56628502736E-01  0.88997059395E+00  0.88000000000E+00 0.  1.
        -11    1    4    4    0    0  0.46017175174E-01  0.49404842481E-01 -0.34991904503E-01  0.76046784109E-01  0.51100000000E-03 0. -1.
         11    1    4    4    0    0  0.22375721413E-01  0.45803902228E-01 -0.17565165398E-01  0.53920928447E-01  0.51100000000E-03 0.  1.
</event>
<event>
 8    1  0.1094134E+005  0.1043930E+01  0.7957747E-01            NaN
         13   -1    0    0    0    0  0.00000000000E+00  0.00000000000E+00  0.74505805969E-08  0.10566000000E+00  0.10566000000E+00 0.  1.
     999900   -1    0    0    0    0 -0.00000000000E+00 -0.00000000000E+00 -0.74505805969E-08  0.93827000000E+00  0.93827000000E+00 0.  1.
     999902    2    1    2    0    0 -0.59865768140E-02  0.70069401196E-02  0.21564312021E-01  0.10204788622E+01  0.10202093669E+01 0.  0.
     999903    2    3    3    0    0 -0.12178245068E+00 -0.18344737819E-01 -0.38340204287E-01  0.13051260268E+00  0.19901595296E-01 0.  0.
         14    1    1    2    0    0  0.59865768140E-02 -0.70069401196E-02 -0.21564312021E-01  0.23451137813E-01  0.00000000000E+00 0. -1.
     999901    1    3    3    0    0  0.11579587387E+00  0.25351677938E-01  0.59904516307E-01  0.88996625950E+00  0.88000000000E+00 0. -1.
        -11    1    4    4    0    0 -0.50074503263E-01 -0.82604423417E-02 -0.56727340191E-02  0.51069871911E-01  0.51100000000E-03 0.  1.
         11    1    4    4    0    0 -0.71707947417E-01 -0.10084295477E-01 -0.32667470268E-01  0.79442730774E-01  0.51100000000E-03 0. -1.
</event>
<event>
 8    1  0.1094134E+005  0.1043930E+01  0.7957747E-01            NaN
         13   -1    0    0    0    0  0.00000000000E+00  0.00000000000E+00  0.74505805969E-08  0.10566000000E+00  0.10566000000E+00 0. -1.
     999900   -1    0    0    0    0 -0.00000000000E+00 -0.00000000000E+00 -0.74505805969E-08  0.93827000000E+00  0.93827000000E+00 0. -1.
     999902    2    1    2    0    0 -0.35082226783E-02  0.16629089214E-01  0.16680698618E-01  0.10201165597E+01  0.10198385732E+01 0.  0.
     999903    2    3    3    0    0  0.99327728661E-01  0.12962060968E-02 -0.79144543980E-01  0.12882939645E+00  0.21574909400E-01 0.  0.
         14    1    1    2    0    0  0.35082226783E-02 -0.16629089214E-01 -0.16680698618E-01  0.23813440340E-01  0.00000000000E+00 0.  1.
     999901    1    3    3    0    0 -0.10283595134E+00  0.15332883117E-01  0.95825242598E-01  0.89128716321E+00  0.88000000000E+00 0.  1.
        -11    1    4    4    0    0  0.26426381323E-01 -0.56170833289E-02 -0.31322070324E-01  0.41367118166E-01  0.51100000000E-03 0. -1.
         11    1    4    4    0    0  0.72901347338E-01  0.69132894257E-02 -0.47822473655E-01  0.87462278280E-01  0.51100000000E-03 0.  1.
</event>
<event>
 8    1  0.1094134E+005  0.1043930E+01  0.7957747E-01            NaN
         13   -1    0    0    0    0  0.00000000000E+00  0.00000000000E+00  0.74505805969E-08  0.10566000000E+00  0.10566000000E+00 0. -1.
     999900   -1    0    0    0    0 -0.00000000000E+00 -0.00000000000E+00 -0.74505805969E-08  0.93827000000E+00  0.93827000000E+00 0. -1.
     999902    2    1    2    0    0 -0.20177374427E-01  0.99113448944E-02  0.10401714549E-01  0.10191599200E+01  0.10188588645E+01 0.  0.
     999903    2    3    3    0    0  0.27277384145E-01  0.12056105178E+00 -0.34167330892E-01  0.12984461511E+00  0.20327190708E-01 0.  0.
         14    1    1    2    0    0  0.20177374427E-01 -0.99113448944E-02 -0.10401714549E-01  0.24770079974E-01  0.00000000000E+00 0. -1.
     999901    1    3    3    0    0 -0.47454758572E-01 -0.11064970688E+00  0.44569045441E-01  0.88931530491E+00  0.88000000000E+00 0.  1.
        -11    1    4    4    0    0  0.26379722237E-01  0.78586089602E-01 -0.17845637128E-01  0.84796173910E-01  0.51100000000E-03 0. -1.
         11    1    4    4    0    0  0.89766190866E-03  0.41974962173E-01 -0.16321693764E-01  0.45048441202E-01  0.51100000000E-03 0.  1.
</event>
<event>
 8    1  0.1094134E+005  0.1043930E+01  0.7957747E-01            NaN
         13   -1    0    0    0    0  0.00000000000E+00  0.00000000000E+00  0.74505805969E-08  0.10566000000E+00  0.10566000000E+00 0.  1.
     999900   -1    0    0    0    0 -0.00000000000E+00 -0.00000000000E+00 -0.74505805969E-08  0.93827000000E+00  0.93827000000E+00 0. -1.
     999902    2    1    2    0    0  0.10954861138E-02 -0.22117011554E-01  0.89071422902E-02  0.10200616219E+01  0.10197823361E+01 0.  0.
     999903    2    3    3    0    0 -0.14652772673E-02 -0.10263645237E+00  0.82666551091E-01  0.13330890086E+00  0.20027880243E-01 0.  0.
         14    1    1    2    0    0 -0.10954861138E-02  0.22117011554E-01 -0.89071422902E-02  0.23868378111E-01  0.00000000000E+00 0. -1.
     999901    1    3    3    0    0  0.25607633811E-02  0.80519440819E-01 -0.73759408801E-01  0.88675272103E+00  0.88000000000E+00 0. -1.
        -11    1    4    4    0    0 -0.70450196470E-03 -0.40579544599E-01  0.20528102240E-01  0.45484721231E-01  0.51100000000E-03 0.  1.
         11    1    4    4    0    0 -0.76077530255E-03 -0.62056907773E-01  0.62138448851E-01  0.87824179633E-01  0.51100000000E-03 0. -1.
</event>
<event>
 8    1  0.1094134E+005  0.1043930E+01  0.7957747E-01            NaN
         13   -1    0    0    0    0  0.00000000000E+00  0.00000000000E+00  0.74505805969E-08  0.10566000000E+00  0.10566000000E+00 0.  1.
     999900   -1    0    0    0    0 -0.00000000000E+00 -0.00000000000E+00 -0.74505805969E-08  0.93827000000E+00  0.93827000000E+00 0.  1.
     999902    2    1    2    0    0  0.92404067920E-02 -0.11550518313E-02  0.21141324618E-01  0.10208285960E+01  0.10205671695E+01 0.  0.
     999903    2    3    3    0    0 -0.94424529293E-01 -0.73461280918E-01 -0.44216091552E-01  0.12939929332E+00  0.21830319141E-01 0.  0.
         14    1    1    2    0    0 -0.92404067920E-02  0.11550518313E-02 -0.21141324618E-01  0.23101404049E-01  0.00000000000E+00 0. -1.
     999901    1    3    3    0    0  0.10366493609E+00  0.72306229086E-01  0.65357416170E-01  0.89142930263E+00  0.88000000000E+00 0. -1.
        -11    1    4    4    0    0 -0.41068431951E-01 -0.45515142837E-01 -0.20108644012E-01  0.64520252754E-01  0.51100000000E-03 0. -1.
         11    1    4    4    0    0 -0.53356097342E-01 -0.27946138081E-01 -0.24107447539E-01  0.64879040568E-01  0.51100000000E-03 0.  1.
</event>
<event>
 8    1  0.1094134E+005  0.1043930E+01  0.7957747E-01            NaN
         13   -1    0    0    0    0  0.00000000000E+00  0.00000000000E+00  0.74505805969E-08  0.10566000000E+00  0.10566000000E+00 0.  1.
     999900   -1    0    0    0    0 -0.00000000000E+00 -0.00000000000E+00 -0.74505805969E-08  0.93827000000E+00  0.93827000000E+00 0. -1.
     999902    2    1    2    0    0 -0.29794785970E-01 -0.83786640294E-02  0.14937173266E-01  0.10095635858E+01  0.10089784850E+01 0.  0.
     999903    2    3    3    0    0 -0.66118061204E-01  0.35963311490E-01  0.96386925292E-01  0.12394535356E+00  0.20175567179E-01 0.  0.
         14    1    1    2    0    0  0.29794785970E-01  0.83786640294E-02 -0.14937173266E-01  0.34366414231E-01  0.00000000000E+00 0. -1.
     999901    1    3    3    0    0  0.36323275234E-01 -0.44341975520E-01 -0.81449752026E-01  0.88561823221E+00  0.88000000000E+00 0. -1.
        -11    1    4    4    0    0 -0.23049334220E-01  0.23753837755E-01  0.43215791890E-01  0.54436958086E-01  0.51100000000E-03 0.  1.
         11    1    4    4    0    0 -0.43068726984E-01  0.12209473736E-01  0.53171133402E-01  0.69508395473E-01  0.51100000000E-03 0. -1.
</event>
<event>
 8    1  0.1094134E+005  0.1043930E+01  0.7957747E-01            NaN
         13   -1    0    0    0    0  0.00000000000E+00  0.00000000000E+00  0.74505805969E-08  0.10566000000E+00  0.10566000000E+00 0. -1.
     999900   -1    0    0    0    0 -0.00000000000E+00 -0.00000000000E+00 -0.74505805969E-08  0.93827000000E+00  0.93827000000E+00 0.  1.
     999902    2    1    2    0    0 -0.10303140856E-01 -0.55280945006E-02  0.20756238686E-01  0.10201069862E+01  0.10198287736E+01 0.  0.
     999903    2    3    3    0    0 -0.62600343020E-01 -0.46484162264E-01  0.10664989393E+00  0.13343336147E+00  0.18726499680E-01 0.  0.
         14    1    1    2    0    0  0.10303140856E-01  0.55280945006E-02 -0.20756238686E-01  0.23823013762E-01  0.00000000000E+00 0.  1.
     999901    1    3    3    0    0  0.52297202163E-01  0.40956067763E-01 -0.85893655249E-01  0.88667362476E+00  0.88000000000E+00 0.  1.
        -11    1    4    4    0    0 -0.22016126192E-01 -0.59851353407E-02  0.28701101349E-01  0.36668051450E-01  0.51100000000E-03 0.  1.
         11    1    4    4    0    0 -0.40584216828E-01 -0.40499026923E-01  0.77948792586E-01  0.96765310024E-01  0.51100000000E-03 0. -1.
</event>
<event>
 8    1  0.1094134E+005  0.1043930E+01  0.7957747E-01            NaN
         13   -1    0    0    0    0  0.00000000000E+00  0.00000000000E+00  0.74505805969E-08  0.10566000000E+00  0.10566000000E+00 0. -1.
     999900   -1    0    0    0    0 -0.00000000000E+00 -0.00000000000E+00 -0.74505805969E-08  0.93827000000E+00  0.93827000000E+00 0.  1.
     999902    2    1    2    0    0  0.29450070240E-01 -0.14481370776E-02  0.20388385831E-01  0.10080818478E+01  0.10074442525E+01 0.  0.
     999903    2    3    3    0    0  0.73112469429E-01 -0.95299218028E-01  0.37923686990E-02  0.12185960804E+00  0.20199204623E-01 0.  0.
         14    1    1    2    0    0 -0.29450070240E-01  0.14481370776E-02 -0.20388385831E-01  0.35848152183E-01  0.00000000000E+00 0.  1.
     999901    1    3    3    0    0 -0.43662399189E-01  0.93851080950E-01  0.16596017132E-01  0.88622223978E+00  0.88000000000E+00 0. -1.
        -11    1    4    4    0    0  0.60455556760E-01 -0.88737571960E-01  0.13355651824E-02  0.10738377846E+00  0.51100000000E-03 0.  1.
         11    1    4    4    0    0  0.12656912669E-01 -0.65616460677E-02  0.24568035166E-02  0.14475829577E-01  0.51100000000E-03 0. -1.
</event>
<event>
 8    1  0.1094134E+005  0.1043930E+01  0.7957747E-01            NaN
         13   -1    0    0    0    0  0.00000000000E+00  0.00000000000E+00  0.74505805969E-08  0.10566000000E+00  0.10566000000E+00 0.  1.
     999900   -1    0    0    0    0 -0.00000000000E+00 -0.00000000000E+00 -0.74505805969E-08  0.93827000000E+00  0.93827000000E+00 0. -1.
     999902    2    1    2    0    0 -0.40155182240E-02 -0.12419482834E-01  0.19605523624E-01  0.10203769854E+01  0.10201051161E+01 0.  0.
     999903    2    3    3    0    0 -0.10336313393E+00 -0.76531358300E-01 -0.17086438481E-01  0.13171136695E+00  0.22692543817E-01 0.  0.
         14    1    1    2    0    0  0.40155182240E-02  0.12419482834E-01 -0.19605523624E-01  0.23553014606E-01  0.00000000000E+00 0. -1.
     999901    1    3    3    0    0  0.99347615705E-01  0.64111875465E-01  0.36691962104E-01  0.88866561844E+00  0.88000000000E+00 0.  1.
        -11    1    4    4    0    0 -0.15597282473E-01 -0.22540688250E-01 -0.11286641894E-02  0.27438893038E-01  0.51100000000E-03 0. -1.
         11    1    4    4    0    0 -0.87765851456E-01 -0.53990670050E-01 -0.15957774291E-01  0.10427247391E+00  0.51100000000E-03 0.  1.
</event>
<event>
 8    1  0.1094134E+005  0.1043930E+01  0.7957747E-01            NaN
         13   -1    0    0    0    0  0.00000000000E+00  0.00000000000E+00  0.74505805969E-08  0.10566000000E+00  0.10566000000E+00 0. -1.
     999900   -1    0    0    0    0 -0.00000000000E+00 -0.00000000000E+00 -0.74505805969E-08  0.93827000000E+00  0.93827000000E+00 0. -1.
     999902    2    1    2    0    0 -0.16948178511E-01  0.16235034157E-01  0.35174846799E-02  0.10201983800E+01  0.10199223229E+01 0.  0.
     999903    2    3    3    0    0  0.76027902822E-01  0.74305894428E-01 -0.72348939662E-01  0.13015765574E+00  0.20125563935E-01 0.  0.
         14    1    1    2    0    0  0.16948178511E-01 -0.16235034157E-01 -0.35174846799E-02  0.23731619991E-01  0.00000000000E+00 0. -1.
     999901    1    3    3    0    0 -0.92976081333E-01 -0.58070860271E-01  0.75866424341E-01  0.89004072427E+00  0.88000000000E+00 0. -1.
        -11    1    4    4    0    0  0.39884481416E-01  0.31702546403E-01 -0.24223702155E-01  0.56416949345E-01  0.51100000000E-03 0.  1.
         11    1    4    4    0    0  0.36143421406E-01  0.42603348025E-01 -0.48125237506E-01  0.73740706397E-01  0.51100000000E-03 0. -1.
</event>
<event>
 8    1  0.1094134E+005  0.1043930E+01  0.7957747E-01            NaN
         13   -1    0    0    0    0  0.00000000000E+00  0.00000000000E+00  0.74505805969E-08  0.10566000000E+00  0.10566000000E+00 0.  1.
     999900   -1    0    0    0    0 -0.00000000000E+00 -0.00000000000E+00 -0.74505805969E-08  0.93827000000E+00  0.93827000000E+00 0.  1.
     999902    2    1    2    0    0 -0.14259691019E-01  0.17420285478E-01  0.47721249821E-02  0.10209174315E+01  0.10206580346E+01 0.  0.
     999903    2    3    3    0    0  0.82122511064E-01  0.83799616667E-01 -0.55378597816E-01  0.13113439389E+00  0.19051445827E-01 0.  0.
         14    1    1    2    0    0  0.14259691019E-01 -0.17420285478E-01 -0.47721249821E-02  0.23012568543E-01  0.00000000000E+00 0. -1.
     999901    1    3    3    0    0 -0.96382202084E-01 -0.66379331189E-01  0.60150722798E-01  0.88978303757E+00  0.88000000000E+00 0.  1.
        -11    1    4    4    0    0  0.32712300847E-01  0.21941860269E-01 -0.14033508393E-01  0.41817942771E-01  0.51100000000E-03 0. -1.
         11    1    4    4    0    0  0.49410210217E-01  0.61857756398E-01 -0.41345089423E-01  0.89316451120E-01  0.51100000000E-03 0.  1.
</event>
<event>
 8    1  0.1094134E+005  0.1043930E+01  0.7957747E-01            NaN
         13   -1    0    0    0    0  0.00000000000E+00  0.00000000000E+00  0.74505805969E-08  0.10566000000E+00  0.10566000000E+00 0.  1.
     999900   -1    0    0    0    0 -0.00000000000E+00 -0.00000000000E+00 -0.74505805969E-08  0.93827000000E+00  0.93827000000E+00 0.  1.
     999902    2    1    2    0    0  0.44250354597E-02  0.82810095633E-02  0.15770396655E-01  0.10255762138E+01  0.10254119703E+01 0.  0.
     999903    2    3    3    0    0  0.38897131515E-01 -0.10264290378E+00  0.77301126148E-01  0.13581305954E+00  0.20522438979E-01 0.  0.
         14    1    1    2    0    0 -0.44250354597E-02 -0.82810095633E-02 -0.15770396655E-01  0.18353786227E-01  0.00000000000E+00 0. -1.
     999901    1    3    3    0    0 -0.34472096056E-01  0.11092391334E+00 -0.61530729493E-01  0.88976315423E+00  0.88000000000E+00 0.  1.
        -11    1    4    4    0    0  0.16866970269E-01 -0.70988987589E-01  0.53682220651E-01  0.90586825643E-01  0.51100000000E-03 0. -1.
         11    1    4    4    0    0  0.22030161246E-01 -0.31653916190E-01  0.23618905496E-01  0.45226233898E-01  0.51100000000E-03 0.  1.
</event>
<event>
 8    1  0.1094134E+005  0.1043930E+01  0.7957747E-01            NaN
         13   -1    0    0    0    0  0.00000000000E+00  0.00000000000E+00  0.74505805969E-08  0.10566000000E+00  0.10566000000E+00 0. -1.
     999900   -1    0    0    0    0 -0.00000000000E+00 -0.00000000000E+00 -0.74505805969E-08  0.93827000000E+00  0.93827000000E+00 0. -1.
     999902    2    1    2    0    0 -0.99368952274E-02 -0.45840504165E-02 -0.20741172772E-01  0.10204789520E+01  0.10202094588E+01 0.  0.
     999903    2    3    3    0    0  0.11311482835E+00 -0.46358840588E-01 -0.41670178591E-01  0.13068971680E+00  0.19982287137E-01 0.  0.
         14    1    1    2    0    0  0.99368952274E-02  0.45840504165E-02  0.20741172772E-01  0.23451048014E-01  0.00000000000E+00 0. -1.
     999901    1    3    3    0    0 -0.12305172358E+00  0.41774790171E-01  0.20929005818E-01  0.88978923519E+00  0.88000000000E+00 0.  1.
        -11    1    4    4    0    0  0.22611152283E-01 -0.14300814822E-01 -0.21027475072E-02  0.26841389313E-01  0.51100000000E-03 0. -1.
         11    1    4    4    0    0  0.90503676070E-01 -0.32058025765E-01 -0.39567431084E-01  0.10384832749E+00  0.51100000000E-03 0.  1.
</event>
<event>
 8    1  0.1094134E+005  0.1043930E+01  0.7957747E-01            NaN
         13   -1    0    0    0    0  0.00000000000E+00  0.00000000000E+00  0.74505805969E-08  0.10566000000E+00  0.10566000000E+00 0.  1.
     999900   -1    0    0    0    0 -0.00000000000E+00 -0.00000000000E+00 -0.74505805969E-08  0.93827000000E+00  0.93827000000E+00 0.  1.
     999902    2    1    2    0    0 -0.15796071515E-01  0.10117684041E-01 -0.14242191719E-01  0.10203774326E+01  0.10201055737E+01 0.  0.
     999903    2    3    3    0    0 -0.66092076045E-01 -0.36197633812E-01 -0.10759829374E+00  0.13280199440E+00  0.19507580343E-01 0.  0.
         14    1    1    2    0    0  0.15796071515E-01 -0.10117684041E-01  0.14242191719E-01  0.23552567389E-01  0.00000000000E+00 0.  1.
     999901    1    3    3    0    0  0.50296004531E-01  0.46315317853E-01  0.93356102018E-01  0.88757543822E+00  0.88000000000E+00 0. -1.
        -11    1    4    4    0    0 -0.59750183050E-02  0.19690316465E-02 -0.58231023917E-02  0.85876406442E-02  0.51100000000E-03 0.  1.
         11    1    4    4    0    0 -0.60117057740E-01 -0.38166665458E-01 -0.10177519134E+00  0.12421435375E+00  0.51100000000E-03 0. -1.
</event>
<event>
 8    1  0.1094134E+005  0.1043930E+01  0.7957747E-01            NaN
         13   -1    0    0    0    0  0.00000000000E+00  0.00000000000E+00  0.74505805969E-08  0.10566000000E+00  0.10566000000E+00 0.  1.
     999900   -1    0    0    0    0 -0.00000000000E+00 -0.00000000000E+00 -0.74505805969E-08  0.93827000000E+00  0.93827000000E+00 0.  1.
     999902    2    1    2    0    0  0.22622034414E-01  0.86916451643E-03  0.50228525938E-02  0.10207407582E+01  0.10204773170E+01 0.  0.
     999903    2    3    3    0    0  0.51098761106E-01 -0.10437089566E+00  0.60176887739E-01  0.13229922278E+00  0.19428311361E-01 0.  0.
         14    1    1    2    0    0 -0.22622034414E-01 -0.86916451643E-03 -0.50228525938E-02  0.23189241820E-01  0.00000000000E+00 0.  1.
     999901    1    3    3    0    0 -0.28476726692E-01  0.10524006018E+00 -0.55154035146E-01  0.88844153540E+00  0.88000000000E+00 0.  1.
        -11    1    4    4    0    0  0.15414661719E-01 -0.45175176606E-01  0.32978177686E-01  0.58019218383E-01  0.51100000000E-03 0.  1.
         11    1    4    4    0    0  0.35684099387E-01 -0.59195719057E-01  0.27198710053E-01  0.74280004397E-01  0.51100000000E-03 0. -1.
</event>
<event>
 8    1  0.1094134E+005  0.1043930E+01  0.7957747E-01            NaN
         13   -1    0    0    0    0  0.00000000000E+00  0.00000000000E+00  0.74505805969E-08  0.10566000000E+00  0.10566000000E+00 0.  1.
     999900   -1    0    0    0    0 -0.00000000000E+00 -0.00000000000E+00 -0.74505805969E-08  0.93827000000E+00  0.93827000000E+00 0. -1.
     999902    2    1    2    0    0 -0.14586570671E-01  0.18026556375E-01  0.15797869379E-02  0.10206873559E+01  0.10204226859E+01 0.  0.
     999903    2    3    3    0    0 -0.93794440624E-01  0.24478495683E-01 -0.89400963159E-01  0.13243457032E+00  0.12238846273E-01 0.  0.
         14    1    1    2    0    0  0.14586570671E-01 -0.18026556375E-01 -0.15797869379E-02  0.23242644115E-01  0.00000000000E+00 0. -1.
     999901    1    3    3    0    0  0.79207869954E-01 -0.64519393083E-02  0.90980750097E-01  0.88825278557E+00  0.88000000000E+00 0.  1.
        -11    1    4    4    0    0 -0.53061321249E-01  0.13657210808E-01 -0.58631683376E-01  0.80249352871E-01  0.51100000000E-03 0.  1.
         11    1    4    4    0    0 -0.40733119375E-01  0.10821284876E-01 -0.30769279783E-01  0.52185217445E-01  0.51100000000E-03 0. -1.
</event>
<event>
 8    1  0.1132657E+005  0.1043930E+01  0.7957747E-01            NaN
         13   -1    0    0    0    0  0.00000000000E+00  0.00000000000E+00  0.74505805969E-08  0.10566000000E+00  0.10566000000E+00 0.  1.
     999900   -1    0    0    0    0 -0.00000000000E+00 -0.00000000000E+00 -0.74505805969E-08  0.93827000000E+00  0.93827000000E+00 0. -1.
     999902    2    1    2    0    0 -0.15845611087E-01 -0.20070268651E-02  0.17426940784E-01  0.10202908415E+01  0.10200169565E+01 0.  0.
     999903    2    3    3    0    0 -0.11319159405E-01 -0.10402630422E+00  0.78766034996E-01  0.13226443079E+00  0.18444404114E-01 0.  0.
         14    1    1    2    0    0  0.15845611087E-01  0.20070268651E-02 -0.17426940784E-01  0.23639158459E-01  0.00000000000E+00 0.  1.
     999901    1    3    3    0    0 -0.45264516822E-02  0.10201927736E+00 -0.61339094211E-01  0.88802641075E+00  0.88000000000E+00 0.  1.
        -11    1    4    4    0    0 -0.15295439788E-01 -0.56597885130E-01  0.42033088136E-01  0.72140922498E-01  0.51100000000E-03 0. -1.
         11    1    4    4    0    0  0.39762803830E-02 -0.47428419090E-01  0.36732946860E-01  0.60123508290E-01  0.51100000000E-03 0.  1.
</event>
<event>
 8    1  0.1094134E+005  0.1043930E+01  0.7957747E-01            NaN
         13   -1    0    0    0    0  0.00000000000E+00  0.00000000000E+00  0.74505805969E-08  0.10566000000E+00  0.10566000000E+00 0.  1.
     999900   -1    0    0    0    0 -0.00000000000E+00 -0.00000000000E+00 -0.74505805969E-08  0.93827000000E+00  0.93827000000E+00 0. -1.
     999902    2    1    2    0    0  0.78153673699E-02 -0.17349058030E-01 -0.14190608349E-01  0.10201930426E+01  0.10199168599E+01 0.  0.
     999903    2    3    3    0    0 -0.10054413766E+00 -0.78493888464E-01  0.20674978287E-01  0.13075722043E+00  0.19989542830E-01 0.  0.
         14    1    1    2    0    0 -0.78153673699E-02  0.17349058030E-01  0.14190608349E-01  0.23736957407E-01  0.00000000000E+00 0.  1.
     999901    1    3    3    0    0  0.10835950503E+00  0.61144830434E-01 -0.34865586635E-01  0.88943582217E+00  0.88000000000E+00 0. -1.
        -11    1    4    4    0    0 -0.57556659909E-01 -0.39850114719E-01  0.20958858192E-02  0.70038950602E-01  0.51100000000E-03 0.  1.
         11    1    4    4    0    0 -0.42987477752E-01 -0.38643773745E-01  0.18579092468E-01  0.60718269826E-01  0.51100000000E-03 0. -1.
</event>
<event>
 8    1  0.1094134E+005  0.1043930E+01  0.7957747E-01            NaN
         13   -1    0    0    0    0  0.00000000000E+00  0.00000000000E+00  0.74505805969E-08  0.10566000000E+00  0.10566000000E+00 0. -1.
     999900   -1    0    0    0    0 -0.00000000000E+00 -0.00000000000E+00 -0.74505805969E-08  0.93827000000E+00  0.93827000000E+00 0. -1.
     999902    2    1    2    0    0 -0.23015701146E-01 -0.38763243815E-02  0.46677201264E-02  0.10201279833E+01  0.10198502666E+01 0.  0.
     999903    2    3    3    0    0  0.12524577913E+00 -0.12762425171E-01  0.81344767254E-02  0.12767493254E+00  0.19629926170E-01 0.  0.
         14    1    1    2    0    0  0.23015701146E-01  0.38763243815E-02 -0.46677201264E-02  0.23802016745E-01  0.00000000000E+00 0.  1.
     999901    1    3    3    0    0 -0.14826148028E+00  0.88861007896E-02 -0.34667565990E-02  0.89245305071E+00  0.88000000000E+00 0. -1.
        -11    1    4    4    0    0  0.42950610896E-01 -0.13718014496E-01  0.40196441625E-02  0.45269830552E-01  0.51100000000E-03 0. -1.
         11    1    4    4    0    0  0.82295168239E-01  0.95558932445E-03  0.41148325629E-02  0.82405101993E-01  0.51100000000E-03 0.  1.
</event>
<event>
 8    1  0.1094134E+005  0.1043930E+01  0.7957747E-01            NaN
         13   -1    0    0    0    0  0.00000000000E+00  0.00000000000E+00  0.74505805969E-08  0.10566000000E+00  0.10566000000E+00 0. -1.
     999900   -1    0    0    0    0 -0.00000000000E+00 -0.00000000000E+00 -0.74505805969E-08  0.93827000000E+00  0.93827000000E+00 0. -1.
     999902    2    1    2    0    0  0.13727593000E-01 -0.15277818593E-01 -0.10510754789E-01  0.10208576244E+01  0.10205968620E+01 0.  0.
     999903    2    3    3    0    0  0.10463429135E+00  0.71554669572E-01  0.26913083628E-01  0.13113606541E+00  0.20098455609E-01 0.  0.
         14    1    1    2    0    0 -0.13727593000E-01  0.15277818593E-01  0.10510754789E-01  0.23072375621E-01  0.00000000000E+00 0. -1.
     999901    1    3    3    0    0 -0.90906698351E-01 -0.86832488165E-01 -0.37423838417E-01  0.88972155897E+00  0.88000000000E+00 0. -1.
        -11    1    4    4    0    0  0.88061193072E-01  0.59906510663E-01  0.29969097703E-01  0.11064344392E+00  0.51100000000E-03 0. -1.
         11    1    4    4    0    0  0.16573098279E-01  0.11648158909E-01 -0.30560140756E-02  0.20492621491E-01  0.51100000000E-03 0.  1.
</event>
<event>
 8    1  0.1094134E+005  0.1043930E+01  0.7957747E-01            NaN
         13   -1    0    0    0    0  0.00000000000E+00  0.00000000000E+00  0.74505805969E-08  0.10566000000E+00  0.10566000000E+00 0. -1.
     999900   -1    0    0    0    0 -0.00000000000E+00 -0.00000000000E+00 -0.74505805969E-08  0.93827000000E+00  0.93827000000E+00 0.  1.
     999902    2    1    2    0    0 -0.21700430172E-01 -0.11062041565E-01 -0.57772491485E-02  0.10188969410E+01  0.10185893787E+01 0.  0.
     999903    2    3    3    0    0  0.76235962910E-01 -0.61994219480E-01  0.79360823797E-01  0.12792325158E+00  0.20273446975E-01 0.  0.
         14    1    1    2    0    0  0.21700430172E-01  0.11062041565E-01  0.57772491485E-02  0.25033058961E-01  0.00000000000E+00 0. -1.
     999901    1    3    3    0    0 -0.97936393082E-01  0.50932177916E-01 -0.85138072946E-01  0.89097368946E+00  0.88000000000E+00 0.  1.
        -11    1    4    4    0    0  0.43809007828E-01 -0.41341958841E-01  0.36901449743E-01  0.70642514407E-01  0.51100000000E-03 0. -1.
         11    1    4    4    0    0  0.32426955082E-01 -0.20652260639E-01  0.42459374054E-01  0.57280737176E-01  0.51100000000E-03 0.  1.
</event>
<event>
 8    1  0.1094134E+005  0.1043930E+01  0.7957747E-01            NaN
         13   -1    0    0    0    0  0.00000000000E+00  0.00000000000E+00  0.74505805969E-08  0.10566000000E+00  0.10566000000E+00 0. -1.
     999900   -1    0    0    0    0 -0.00000000000E+00 -0.00000000000E+00 -0.74505805969E-08  0.93827000000E+00  0.93827000000E+00 0. -1.
     999902    2    1    2    0    0 -0.57812594575E-02 -0.16171690396E-02 -0.22341899309E-01  0.10207956389E+01  0.10205334575E+01 0.  0.
     999903    2    3    3    0    0 -0.94826823489E-01 -0.10501376365E-01 -0.91429531775E-01  0.13356334548E+00  0.19426852966E-01 0.  0.
         14    1    1    2    0    0  0.57812594575E-02  0.16171690396E-02  0.22341899309E-01  0.23134361053E-01  0.00000000000E+00 0. -1.
     999901    1    3    3    0    0  0.89045564031E-01  0.88842073258E-02  0.69087632466E-01  0.88723229347E+00  0.88000000000E+00 0. -1.
        -11    1    4    4    0    0 -0.27009293589E-01  0.13918530917E-02 -0.36786363079E-01  0.45661108449E-01  0.51100000000E-03 0. -1.
         11    1    4    4    0    0 -0.67817529899E-01 -0.11893229457E-01 -0.54643168697E-01  0.87902237029E-01  0.51100000000E-03 0.  1.
</event>
<event>
 8    1  0.1094134E+005  0.1043930E+01  0.7957747E-01            NaN
         13   -1    0    0    0    0  0.00000000000E+00  0.00000000000E+00  0.74505805969E-08  0.10566000000E+00  0.10566000000E+00 0.  1.
     999900   -1    0    0    0    0 -0.00000000000E+00 -0.00000000000E+00 -0.74505805969E-08  0.93827000000E+00  0.93827000000E+00 0.  1.
     999902    2    1    2    0    0 -0.10439112240E-01 -0.41370264301E-02 -0.21320560730E-01  0.10198331877E+01  0.10195484659E+01 0.  0.
     999903    2    3    3    0    0  0.34105131553E-02  0.11932719538E+00  0.43927192284E-01  0.12871451130E+00  0.19677805809E-01 0.  0.
         14    1    1    2    0    0  0.10439112240E-01  0.41370264301E-02  0.21320560730E-01  0.24096812276E-01  0.00000000000E+00 0.  1.
     999901    1    3    3    0    0 -0.13849625395E-01 -0.12346422181E+00 -0.65247753014E-01  0.89111867642E+00  0.88000000000E+00 0.  1.
        -11    1    4    4    0    0  0.10585984274E-01  0.76218355042E-01  0.32551794551E-01  0.83553462872E-01  0.51100000000E-03 0. -1.
         11    1    4    4    0    0 -0.71754711190E-02  0.43108840337E-01  0.11375397732E-01  0.45161048432E-01  0.51100000000E-03 0.  1.
</event>
<event>
 8    1  0.1094134E+005  0.1043930E+01  0.7957747E-01            NaN
         13   -1    0    0    0    0  0.00000000000E+00  0.00000000000E+00  0.74505805969E-08  0.10566000000E+00  0.10566000000E+00 0.  1.
     999900   -1    0    0    0    0 -0.00000000000E+00 -0.00000000000E+00 -0.74505805969E-08  0.93827000000E+00  0.93827000000E+00 0. -1.
     999902    2    1    2    0    0  0.83263590582E-02  0.21956473047E-01  0.36835674782E-02  0.10201606156E+01  0.10198836689E+01 0.  0.
     999903    2    3    3    0    0 -0.51040499312E-01  0.58770341706E-01 -0.10336355460E+00  0.13092567978E+00  0.19960550367E-01 0.  0.
         14    1    1    2    0    0 -0.83263590582E-02 -0.21956473047E-01 -0.36835674782E-02  0.23769384367E-01  0.00000000000E+00 0.  1.
     999901    1    3    3    0    0  0.59366858370E-01 -0.36813868659E-01  0.10704712208E+00  0.88923493585E+00  0.88000000000E+00 0.  1.
        -11    1    4    4    0    0 -0.40473671606E-01  0.56500749532E-01 -0.90734097605E-01  0.11429518966E+00  0.51100000000E-03 0.  1.
         11    1    4    4    0    0 -0.10566827706E-01  0.22695921744E-02 -0.12629456998E-01  0.16630490115E-01  0.51100000000E-03 0. -1.
</event>
<event>
 8    1  0.1094134E+005  0.1043930E+01  0.7957747E-01            NaN
         13   -1    0    0    0    0  0.00000000000E+00  0.00000000000E+00  0.74505805969E-08  0.10566000000E+00  0.10566000000E+00 0.  1.
     999900   -1    0    0    0    0 -0.00000000000E+00 -0.00000000000E+00 -0.74505805969E-08  0.93827000000E+00  0.93827000000E+00 0. -1.
     999902    2    1    2    0    0  0.13780599866E-01 -0.70519054215E-02  0.16556616099E-01  0.10212638173E+01  0.10210122568E+01 0.  0.
     999903    2    3    3    0    0 -0.11422917689E+00 -0.74138469008E-02 -0.55876625685E-01  0.12905688586E+00  0.20741564821E-01 0.  0.
         14    1    1    2    0    0 -0.13780599866E-01  0.70519054215E-02 -0.16556616099E-01  0.22666182727E-01  0.00000000000E+00 0.  1.
     999901    1    3    3    0    0  0.12800977676E+00  0.36194147921E-03  0.72433241785E-01  0.89220693141E+00  0.88000000000E+00 0.  1.
        -11    1    4    4    0    0 -0.78538309077E-01 -0.55110390551E-02 -0.48763249824E-01  0.92610761786E-01  0.51100000000E-03 0.  1.
         11    1    4    4    0    0 -0.35690867812E-01 -0.19028078457E-02 -0.71133758612E-02  0.36446124074E-01  0.51100000000E-03 0. -1.
</event>
<event>
 8    1  0.1094134E+005  0.1043930E+01  0.7957747E-01            NaN
         13   -1    0    0    0    0  0.00000000000E+00  0.00000000000E+00  0.74505805969E-08  0.10566000000E+00  0.10566000000E+00 0.  1.
     999900   -1    0    0    0    0 -0.00000000000E+00 -0.00000000000E+00 -0.74505805969E-08  0.93827000000E+00  0.93827000000E+00 0.  1.
     999902    2    1    2    0    0 -0.90647787918E-03 -0.18814429927E-01  0.10598756032E-01  0.10223166221E+01  0.10220881262E+01 0.  0.
     999903    2    3    3    0    0 -0.97242527565E-01 -0.58301579924E-01 -0.66206101466E-01  0.13285675474E+00  0.20309751816E-01 0.  0.
         14    1    1    2    0    0  0.90647787918E-03  0.18814429927E-01 -0.10598756032E-01  0.21613377918E-01  0.00000000000E+00 0. -1.
     999901    1    3    3    0    0  0.96336049686E-01  0.39487149997E-01  0.76804857498E-01  0.88945986735E+00  0.88000000000E+00 0.  1.
        -11    1    4    4    0    0 -0.25589634333E-01 -0.22255582028E-01 -0.28144129682E-01  0.44073727699E-01  0.51100000000E-03 0.  1.
         11    1    4    4    0    0 -0.71652893232E-01 -0.36045997896E-01 -0.38061971783E-01  0.88783027037E-01  0.51100000000E-03 0. -1.
</event>
<event>
 8    1  0.1094134E+005  0.1043930E+01  0.7957747E-01            NaN
         13   -1    0    0    0    0  0.00000000000E+00  0.00000000000E+00  0.74505805969E-08  0.10566000000E+00  0.10566000000E+00 0. -1.
     999900   -1    0    0    0    0 -0.00000000000E+00 -0.00000000000E+00 -0.74505805969E-08  0.93827000000E+00  0.93827000000E+00 0. -1.
     999902    2    1    2    0    0 -0.76276423354E-02  0.80167585198E-02  0.21672270697E-01  0.10195961417E+01  0.10193057223E+01 0.  0.
     999903    2    3    3    0    0 -0.17181939599E-01  0.62868590893E-01 -0.10859831523E+00  0.12826543217E+00  0.20266925035E-01 0.  0.
         14    1    1    2    0    0  0.76276423354E-02 -0.80167585198E-02 -0.21672270697E-01  0.24333858344E-01  0.00000000000E+00 0.  1.
     999901    1    3    3    0    0  0.95542972638E-02 -0.54851832373E-01  0.13027058593E+00  0.89133070948E+00  0.88000000000E+00 0.  1.
        -11    1    4    4    0    0 -0.16308091842E-02  0.38880400008E-01 -0.53100656895E-01  0.65835293931E-01  0.51100000000E-03 0.  1.
         11    1    4    4    0    0 -0.15551130415E-01  0.23988190885E-01 -0.55497658335E-01  0.62430138241E-01  0.51100000000E-03 0. -1.
</event>
<event>
 8    1  0.1094134E+005  0.1043930E+01  0.7957747E-01            NaN
         13   -1    0    0    0    0  0.00000000000E+00  0.00000000000E+00  0.74505805969E-08  0.10566000000E+00  0.10566000000E+00 0.  1.
     999900   -1    0    0    0    0 -0.00000000000E+00 -0.00000000000E+00 -0.74505805969E-08  0.93827000000E+00  0.93827000000E+00 0. -1.
     999902    2    1    2    0    0  0.15332959601E-03 -0.21449734557E-01  0.10310637063E-01  0.10201303391E+01  0.10198526780E+01 0.  0.
     999903    2    3    3    0    0  0.78460540145E-02 -0.11820168274E+00  0.58163348405E-01  0.13350189410E+00  0.20163885167E-01 0.  0.
         14    1    1    2    0    0 -0.15332959601E-03  0.21449734557E-01 -0.10310637063E-01  0.23799660905E-01  0.00000000000E+00 0.  1.
     999901    1    3    3    0    0 -0.76927244185E-02  0.96751948184E-01 -0.47852711342E-01  0.88662844499E+00  0.88000000000E+00 0.  1.
        -11    1    4    4    0    0  0.67762000409E-02 -0.55779378779E-01  0.38229431906E-01  0.67963273676E-01  0.51100000000E-03 0.  1.
         11    1    4    4    0    0  0.10698539736E-02 -0.62422303962E-01  0.19933916499E-01  0.65538620427E-01  0.51100000000E-03 0. -1.
</event>
<event>
 8    1  0.1094134E+005  0.1043930E+01  0.7957747E-01            NaN
         13   -1    0    0    0    0  0.00000000000E+00  0.00000000000E+00  0.74505805969E-08  0.10566000000E+00  0.10566000000E+00 0. -1.
     999900   -1    0    0    0    0 -0.00000000000E+00 -0.00000000000E+00 -0.74505805969E-08  0.93827000000E+00  0.93827000000E+00 0.  1.
     999902    2    1    2    0    0 -0.11112481823E-02  0.13409429057E-01 -0.18821665261E-01  0.10207933895E+01  0.10205311565E+01 0.  0.
     999903    2    3    3    0    0 -0.97067465234E-01 -0.31704180693E-01 -0.82544256381E-01  0.13214081289E+00  0.14845615166E-01 0.  0.
         14    1    1    2    0    0  0.11112481823E-02 -0.13409429057E-01  0.18821665261E-01  0.23136610455E-01  0.00000000000E+00 0. -1.
     999901    1    3    3    0    0  0.95956217051E-01  0.45113609750E-01  0.63722591120E-01  0.88865257665E+00  0.88000000000E+00 0.  1.
        -11    1    4    4    0    0 -0.73269128468E-02 -0.59144588375E-02 -0.45132265702E-02  0.10454415827E-01  0.51100000000E-03 0.  1.
         11    1    4    4    0    0 -0.89740552387E-01 -0.25789721855E-01 -0.78031029810E-01  0.12168639706E+00  0.51100000000E-03 0. -1.
</event>
<event>
 8    1  0.1094134E+005  0.1043930E+01  0.7957747E-01            NaN
         13   -1    0    0    0    0  0.00000000000E+00  0.00000000000E+00  0.74505805969E-08  0.10566000000E+00  0.10566000000E+00 0. -1.
     999900   -1    0    0    0    0 -0.00000000000E+00 -0.00000000000E+00 -0.74505805969E-08  0.93827000000E+00  0.93827000000E+00 0.  1.
     999902    2    1    2    0    0 -0.13667511382E-01 -0.18988935855E-01 -0.19057856318E-03  0.10205330585E+01  0.10202648218E+01 0.  0.
     999903    2    3    3    0    0 -0.10811761079E+00 -0.34108723376E-01 -0.66448342571E-01  0.13287348379E+00  0.19676323074E-01 0.  0.
         14    1    1    2    0    0  0.13667511382E-01  0.18988935855E-01  0.19057856318E-03  0.23396941520E-01  0.00000000000E+00 0.  1.
     999901    1    3    3    0    0  0.94450099409E-01  0.15119787521E-01  0.66257764008E-01  0.88765957469E+00  0.88000000000E+00 0. -1.
        -11    1    4    4    0    0 -0.71128939486E-01 -0.18843330172E-01 -0.32693164348E-01  0.80520191508E-01  0.51100000000E-03 0. -1.
         11    1    4    4    0    0 -0.36988671305E-01 -0.15265393204E-01 -0.33755178223E-01  0.52353292279E-01  0.51100000000E-03 0.  1.
</event>
<event>
 8    1  0.1094134E+005  0.1043930E+01  0.7957747E-01            NaN
         13   -1    0    0    0    0  0.00000000000E+00  0.00000000000E+00  0.74505805969E-08  0.10566000000E+00  0.10566000000E+00 0.  1.
     999900   -1    0    0    0    0 -0.00000000000E+00 -0.00000000000E+00 -0.74505805969E-08  0.93827000000E+00  0.93827000000E+00 0.  1.
     999902    2    1    2    0    0  0.21701188667E-02 -0.14434823837E-01 -0.17698410190E-01  0.10209886121E+01  0.10207308356E+01 0.  0.
     999903    2    3    3    0    0  0.11660429448E-01  0.43990154501E-01  0.11815177019E+00  0.12859922647E+00  0.22512684010E-01 0.  0.
         14    1    1    2    0    0 -0.21701188667E-02  0.14434823837E-01  0.17698410190E-01  0.22941387891E-01  0.00000000000E+00 0. -1.
     999901    1    3    3    0    0 -0.94903105810E-02 -0.58424978338E-01 -0.13585018038E+00  0.89238938564E+00  0.88000000000E+00 0.  1.
        -11    1    4    4    0    0  0.14884400311E-01  0.23615628567E-01  0.85789756009E-01  0.90218549325E-01  0.51100000000E-03 0.  1.
         11    1    4    4    0    0 -0.32239708630E-02  0.20374525934E-01  0.32362014183E-01  0.38380677146E-01  0.51100000000E-03 0. -1.
</event>
<event>
 8    1  0.1094134E+005  0.1043930E+01  0.7957747E-01            NaN
         13   -1    0    0    0    0  0.00000000000E+00  0.00000000000E+00  0.74505805969E-08  0.10566000000E+00  0.10566000000E+00 0.  1.
     999900   -1    0    0    0    0 -0.00000000000E+00 -0.00000000000E+00 -0.74505805969E-08  0.93827000000E+00  0.93827000000E+00 0.  1.
     999902    2    1    2    0    0  0.21867050249E-01  0.10391413867E-01 -0.45596429392E-02  0.10192938535E+01  0.10189960845E+01 0.  0.
     999903    2    3    3    0    0 -0.11307623898E-01  0.62868609746E-01 -0.11164906947E+00  0.13063049750E+00  0.22770325307E-01 0.  0.
         14    1    1    2    0    0 -0.21867050249E-01 -0.10391413867E-01  0.45596429392E-02  0.24636146462E-01  0.00000000000E+00 0. -1.
     999901    1    3    3    0    0  0.33174674147E-01 -0.52477195879E-01  0.10708942653E+00  0.88866335604E+00  0.88000000000E+00 0.  1.
        -11    1    4    4    0    0 -0.13723325186E-01  0.17027432538E-01 -0.34182635919E-01  0.40582962341E-01  0.51100000000E-03 0.  1.
         11    1    4    4    0    0  0.24157012880E-02  0.45841177208E-01 -0.77466433547E-01  0.90047535158E-01  0.51100000000E-03 0. -1.
</event>
<event>
 8    1  0.1094134E+005  0.1043930E+01  0.7957747E-01            NaN
         13   -1    0    0    0    0  0.00000000000E+00  0.00000000000E+00  0.74505805969E-08  0.10566000000E+00  0.10566000000E+00 0. -1.
     999900   -1    0    0    0    0 -0.00000000000E+00 -0.00000000000E+00 -0.74505805969E-08  0.93827000000E+00  0.93827000000E+00 0.  1.
     999902    2    1    2    0    0  0.67903408862E-02 -0.20960315732E-01  0.82291401619E-02  0.10204105971E+01  0.10201395122E+01 0.  0.
     999903    2    3    3    0    0  0.77566514204E-01 -0.60731256822E-01 -0.85353894267E-01  0.13173248957E+00  0.19060741375E-01 0.  0.
         14    1    1    2    0    0 -0.67903408862E-02  0.20960315732E-01 -0.82291401619E-02  0.23519402900E-01  0.00000000000E+00 0.  1.
     999901    1    3    3    0    0 -0.70776173318E-01  0.39770941089E-01  0.93583034429E-01  0.88867810753E+00  0.88000000000E+00 0. -1.
        -11    1    4    4    0    0  0.19935950282E-01 -0.12116060268E-01 -0.30923731919E-01  0.38739893480E-01  0.51100000000E-03 0.  1.
         11    1    4    4    0    0  0.57630563922E-01 -0.48615196553E-01 -0.54430162348E-01  0.92992596093E-01  0.51100000000E-03 0. -1.
</event>
<event>
 8    1  0.1094134E+005  0.1043930E+01  0.7957747E-01            NaN
         13   -1    0    0    0    0  0.00000000000E+00  0.00000000000E+00  0.74505805969E-08  0.10566000000E+00  0.10566000000E+00 0.  1.
     999900   -1    0    0    0    0 -0.00000000000E+00 -0.00000000000E+00 -0.74505805969E-08  0.93827000000E+00  0.93827000000E+00 0. -1.
     999902    2    1    2    0    0  0.17747167330E-01  0.10862912827E-01 -0.13621167486E-01  0.10190603191E+01  0.10187568076E+01 0.  0.
     999903    2    3    3    0    0 -0.28002964105E-01  0.92085902759E-01 -0.86864086286E-01  0.13111056053E+00  0.19509744019E-01 0.  0.
         14    1    1    2    0    0 -0.17747167330E-01 -0.10862912827E-01  0.13621167486E-01  0.24869680879E-01  0.00000000000E+00 0.  1.
     999901    1    3    3    0    0  0.45750131435E-01 -0.81222989932E-01  0.73242918800E-01  0.88794975859E+00  0.88000000000E+00 0.  1.
        -11    1    4    4    0    0 -0.23830693548E-01  0.48980855205E-01 -0.42297445792E-01  0.68966377120E-01  0.51100000000E-03 0. -1.
         11    1    4    4    0    0 -0.41722705568E-02  0.43105047554E-01 -0.44566640495E-01  0.62144183414E-01  0.51100000000E-03 0.  1.
</event>
<event>
 8    1  0.1094134E+005  0.1043930E+01  0.7957747E-01            NaN
         13   -1    0    0    0    0  0.00000000000E+00  0.00000000000E+00  0.74505805969E-08  0.10566000000E+00  0.10566000000E+00 0. -1.
     999900   -1    0    0    0    0 -0.00000000000E+00 -0.00000000000E+00 -0.74505805969E-08  0.93827000000E+00  0.93827000000E+00 0.  1.
     999902    2    1    2    0    0 -0.18105848807E-01  0.60385110020E-02 -0.13577895276E-01  0.10205068359E+01  0.10202379906E+01 0.  0.
     999903    2    3    3    0    0  0.48948201708E-02  0.50781814838E-01  0.11722056205E+00  0.12941804659E+00  0.20139975964E-01 0.  0.
         14    1    1    2    0    0  0.18105848807E-01 -0.60385110020E-02  0.13577895276E-01  0.23423164095E-01  0.00000000000E+00 0. -1.
     999901    1    3    3    0    0 -0.23000668977E-01 -0.44743303837E-01 -0.13079845733E+00  0.89108878932E+00  0.88000000000E+00 0.  1.
        -11    1    4    4    0    0  0.11039852105E-01  0.21919416234E-01  0.42502676404E-01  0.49082356963E-01  0.51100000000E-03 0.  1.
         11    1    4    4    0    0 -0.61450319344E-02  0.28862398605E-01  0.74717885646E-01  0.80335689623E-01  0.51100000000E-03 0. -1.
</event>
<event>
 8    1  0.1094134E+005  0.1043930E+01  0.7957747E-01            NaN
         13   -1    0    0    0    0  0.00000000000E+00  0.00000000000E+00  0.74505805969E-08  0.10566000000E+00  0.10566000000E+00 0.  1.
     999900   -1    0    0    0    0 -0.00000000000E+00 -0.00000000000E+00 -0.74505805969E-08  0.93827000000E+00  0.93827000000E+00 0.  1.
     999902    2    1    2    0    0  0.19533935816E-01 -0.95413917844E-02 -0.40520219201E-02  0.10218159391E+01  0.10215766157E+01 0.  0.
     999903    2    3    3    0    0  0.12626571508E+00  0.35987703800E-01 -0.17373974555E-01  0.13409861608E+00  0.21034215312E-01 0.  0.
         14    1    1    2    0    0 -0.19533935816E-01  0.95413917844E-02  0.40520219201E-02  0.22114060850E-01  0.00000000000E+00 0.  1.
     999901    1    3    3    0    0 -0.10673177927E+00 -0.45529095585E-01  0.13321952635E-01  0.88771732307E+00  0.88000000000E+00 0.  1.
        -11    1    4    4    0    0  0.76518161675E-01  0.16003800040E-01 -0.15215143841E-02  0.78190324266E-01  0.51100000000E-03 0.  1.
         11    1    4    4    0    0  0.49747553407E-01  0.19983903761E-01 -0.15852460171E-01  0.55908291818E-01  0.51100000000E-03 0. -1.
</event>
<event>
 8    1  0.1094134E+005  0.1043930E+01  0.7957747E-01            NaN
         13   -1    0    0    0    0  0.00000000000E+00  0.00000000000E+00  0.74505805969E-08  0.10566000000E+00  0.10566000000E+00 0.  1.
     999900   -1    0    0    0    0 -0.00000000000E+00 -0.00000000000E+00 -0.74505805969E-08  0.93827000000E+00  0.93827000000E+00 0. -1.
     999902    2    1    2    0    0 -0.10455551195E-01  0.19514736786E-01 -0.76108313142E-02  0.10205191424E+01  0.10202505828E+01 0.  0.
     999903    2    3    3    0    0  0.62670965885E-01  0.10953015016E+00 -0.34964063617E-01  0.13248847764E+00  0.20154582695E-01 0.  0.
         14    1    1    2    0    0  0.10455551195E-01 -0.19514736786E-01  0.76108313142E-02  0.23410857650E-01  0.00000000000E+00 0. -1.
     999901    1    3    3    0    0 -0.73126517079E-01 -0.90015413377E-01  0.27353232303E-01  0.88803066471E+00  0.88000000000E+00 0. -1.
        -11    1    4    4    0    0  0.46161562498E-01  0.88608016514E-01 -0.19916861653E-01  0.10187842236E+00  0.51100000000E-03 0.  1.
         11    1    4    4    0    0  0.16509403387E-01  0.20922133649E-01 -0.15047201964E-01  0.30610055285E-01  0.51100000000E-03 0. -1.
</event>
<event>
 8    1  0.1094134E+005  0.1043930E+01  0.7957747E-01            NaN
         13   -1    0    0    0    0  0.00000000000E+00  0.00000000000E+00  0.74505805969E-08  0.10566000000E+00  0.10566000000E+00 0.  1.
     999900   -1    0    0    0    0 -0.00000000000E+00 -0.00000000000E+00 -0.74505805969E-08  0.93827000000E+00  0.93827000000E+00 0.  1.
     999902    2    1    2    0    0 -0.68568633202E-02 -0.21290760801E-01 -0.81692548450E-02  0.10201171926E+01  0.10198392211E+01 0.  0.
     999903    2    3    3    0    0  0.12071641268E+00 -0.75629398590E-02  0.40608202454E-01  0.12947549466E+00  0.22027874672E-01 0.  0.
         14    1    1    2    0    0  0.68568633202E-02  0.21290760801E-01  0.81692548450E-02  0.23812807369E-01  0.00000000000E+00 0.  1.
     999901    1    3    3    0    0 -0.12757327600E+00 -0.13727820941E-01 -0.48777457299E-01  0.89064169797E+00  0.88000000000E+00 0. -1.
        -11    1    4    4    0    0  0.72401264239E-01  0.55778009851E-02  0.28093095635E-01  0.77862301986E-01  0.51100000000E-03 0.  1.
         11    1    4    4    0    0  0.48315148441E-01 -0.13140740844E-01  0.12515106819E-01  0.51613192678E-01  0.51100000000E-03 0. -1.
</event>
<event>
 8    1  0.1094134E+005  0.1043930E+01  0.7957747E-01            NaN
         13   -1    0    0    0    0  0.00000000000E+00  0.00000000000E+00  0.74505805969E-08  0.10566000000E+00  0.10566000000E+00 0.  1.
     999900   -1    0    0    0    0 -0.00000000000E+00 -0.00000000000E+00 -0.74505805969E-08  0.93827000000E+00  0.93827000000E+00 0.  1.
     999902    2    1    2    0    0 -0.11647447228E-02  0.32737318245E-02 -0.23784522449E-01  0.10198929981E+01  0.10196097048E+01 0.  0.
     999903    2    3    3    0    0  0.10866131373E+00  0.15673725671E-01  0.63266294830E-01  0.12871772483E+00  0.22642478827E-01 0.  0.
         14    1    1    2    0    0  0.11647447228E-02 -0.32737318245E-02  0.23784522449E-01  0.24037001861E-01  0.00000000000E+00 0.  1.
     999901    1    3    3    0    0 -0.10982605845E+00 -0.12399993846E-01 -0.87050817279E-01  0.89117527331E+00  0.88000000000E+00 0.  1.
        -11    1    4    4    0    0  0.63101862097E-01  0.20320779976E-01  0.36975673206E-01  0.75909423848E-01  0.51100000000E-03 0. -1.
         11    1    4    4    0    0  0.45559451631E-01 -0.46470543049E-02  0.26290621624E-01  0.52808300985E-01  0.51100000000E-03 0.  1.
</event>
<event>
 8    1  0.1094134E+005  0.1043930E+01  0.7957747E-01            NaN
         13   -1    0    0    0    0  0.00000000000E+00  0.00000000000E+00  0.74505805969E-08  0.10566000000E+00  0.10566000000E+00 0.  1.
     999900   -1    0    0    0    0 -0.00000000000E+00 -0.00000000000E+00 -0.74505805969E-08  0.93827000000E+00  0.93827000000E+00 0.  1.
     999902    2    1    2    0    0  0.23050421772E-01  0.65901170919E-02  0.77640644107E-02  0.10187301531E+01  0.10184184271E+01 0.  0.
     999903    2    3    3    0    0  0.60161789245E-01 -0.10653901776E+00 -0.37884976671E-01  0.12953990929E+00  0.19373008297E-01 0.  0.
         14    1    1    2    0    0 -0.23050421772E-01 -0.65901170919E-02 -0.77640644107E-02  0.25199846891E-01  0.00000000000E+00 0. -1.
     999901    1    3    3    0    0 -0.37111367474E-01  0.11312913486E+00  0.45649041082E-01  0.88919024382E+00  0.88000000000E+00 0.  1.
        -11    1    4    4    0    0  0.25477576243E-01 -0.63262359939E-01 -0.24650576078E-01  0.72519963447E-01  0.51100000000E-03 0. -1.
         11    1    4    4    0    0  0.34684213002E-01 -0.43276657825E-01 -0.13234400593E-01  0.57019945845E-01  0.51100000000E-03 0.  1.
</event>
<event>
 8    1  0.1094134E+005  0.1043930E+01  0.7957747E-01            NaN
         13   -1    0    0    0    0  0.00000000000E+00  0.00000000000E+00  0.74505805969E-08  0.10566000000E+00  0.10566000000E+00 0.  1.
     999900   -1    0    0    0    0 -0.00000000000E+00 -0.00000000000E+00 -0.74505805969E-08  0.93827000000E+00  0.93827000000E+00 0.  1.
     999902    2    1    2    0    0 -0.20280541749E-01  0.11814209316E-01 -0.40444680836E-02  0.10201133328E+01  0.10198352701E+01 0.  0.
     999903    2    3    3    0    0 -0.32628442161E-02 -0.32973459895E-01 -0.12472595082E+00  0.13058561673E+00  0.19953578120E-01 0.  0.
         14    1    1    2    0    0  0.20280541749E-01 -0.11814209316E-01  0.40444680836E-02  0.23816667220E-01  0.00000000000E+00 0. -1.
     999901    1    3    3    0    0 -0.17017697533E-01  0.44787669211E-01  0.12068148273E+00  0.88952771605E+00  0.88000000000E+00 0. -1.
        -11    1    4    4    0    0 -0.46359291786E-02 -0.14791991051E-01 -0.26707394657E-01  0.30884314610E-01  0.51100000000E-03 0. -1.
         11    1    4    4    0    0  0.13730849625E-02 -0.18181468844E-01 -0.98018556162E-01  0.99701302121E-01  0.51100000000E-03 0.  1.
</event>
<event>
 8    1  0.1157035E+005  0.1043930E+01  0.7957747E-01            NaN
         13   -1    0    0    0    0  0.00000000000E+00  0.00000000000E+00  0.74505805969E-08  0.10566000000E+00  0.10566000000E+00 0. -1.
     999900   -1    0    0    0    0 -0.00000000000E+00 -0.00000000000E+00 -0.74505805969E-08  0.93827000000E+00  0.93827000000E+00 0. -1.
     999902    2    1    2    0    0 -0.20039877500E-01  0.12468232792E-01  0.20022840316E-02  0.10202432387E+01  0.10199682365E+01 0.  0.
     999903    2    3    3    0    0  0.10337445522E+00  0.66852473780E-01 -0.34192587434E-01  0.12923324330E+00  0.19405331642E-01 0.  0.
         14    1    1    2    0    0  0.20039877500E-01 -0.12468232792E-01 -0.20022840316E-02  0.23686761293E-01  0.00000000000E+00 0. -1.
     999901    1    3    3    0    0 -0.12341433272E+00 -0.54384240987E-01  0.36194871465E-01  0.89100999540E+00  0.88000000000E+00 0.  1.
        -11    1    4    4    0    0  0.58569654454E-01  0.44013684145E-01 -0.11918206602E-01  0.74228792153E-01  0.51100000000E-03 0. -1.
         11    1    4    4    0    0  0.44804800770E-01  0.22838789635E-01 -0.22274380831E-01  0.55004451151E-01  0.51100000000E-03 0.  1.
</event>
<event>
 8    1  0.1094134E+005  0.1043930E+01  0.7957747E-01            NaN
         13   -1    0    0    0    0  0.00000000000E+00  0.00000000000E+00  0.74505805969E-08  0.10566000000E+00  0.10566000000E+00 0.  1.
     999900   -1    0    0    0    0 -0.00000000000E+00 -0.00000000000E+00 -0.74505805969E-08  0.93827000000E+00  0.93827000000E+00 0.  1.
     999902    2    1    2    0    0  0.13959854174E-01 -0.18119410114E-01  0.11853468596E-01  0.10181677161E+01  0.10178417377E+01 0.  0.
     999903    2    3    3    0    0  0.45996047148E-01  0.11166309493E+00  0.34679035911E-01  0.12777969804E+00  0.23253657265E-01 0.  0.
         14    1    1    2    0    0 -0.13959854174E-01  0.18119410114E-01 -0.11853468596E-01  0.25762283851E-01  0.00000000000E+00 0.  1.
     999901    1    3    3    0    0 -0.32036192975E-01 -0.12978250504E+00 -0.22825567315E-01  0.89038801811E+00  0.88000000000E+00 0.  1.
        -11    1    4    4    0    0  0.35978931248E-01  0.75884349279E-01  0.13654505380E-01  0.85085983555E-01  0.51100000000E-03 0. -1.
         11    1    4    4    0    0  0.10017115900E-01  0.35778745650E-01  0.21024530530E-01  0.42693714482E-01  0.51100000000E-03 0.  1.
</event>
<event>
 8    1  0.1094134E+005  0.1043930E+01  0.7957747E-01            NaN
         13   -1    0    0    0    0  0.00000000000E+00  0.00000000000E+00  0.74505805969E-08  0.10566000000E+00  0.10566000000E+00 0.  1.
     999900   -1    0    0    0    0 -0.00000000000E+00 -0.00000000000E+00 -0.74505805969E-08  0.93827000000E+00  0.93827000000E+00 0. -1.
     999902    2    1    2    0    0 -0.22854641769E-01 -0.30910198507E-02  0.52614495467E-02  0.10202747277E+01  0.10200004648E+01 0.  0.
     999903    2    3    3    0    0  0.47947115933E-01 -0.10294091688E+00  0.60370472116E-01  0.13009502948E+00  0.19605216072E-01 0.  0.
         14    1    1    2    0    0  0.22854641769E-01  0.30910198507E-02 -0.52614495467E-02  0.23655272254E-01  0.00000000000E+00 0.  1.
     999901    1    3    3    0    0 -0.70801757702E-01  0.99849897034E-01 -0.55109022569E-01  0.89017969826E+00  0.88000000000E+00 0.  1.
        -11    1    4    4    0    0  0.32622045730E-01 -0.85196635302E-01  0.53022304010E-01  0.10551914697E+00  0.51100000000E-03 0.  1.
         11    1    4    4    0    0  0.15325070203E-01 -0.17744281583E-01  0.73481681052E-02  0.24575882510E-01  0.51100000000E-03 0. -1.
</event>
<event>
 8    1  0.1094134E+005  0.1043930E+01  0.7957747E-01            NaN
         13   -1    0    0    0    0  0.00000000000E+00  0.00000000000E+00  0.74505805969E-08  0.10566000000E+00  0.10566000000E+00 0.  1.
     999900   -1    0    0    0    0 -0.00000000000E+00 -0.00000000000E+00 -0.74505805969E-08  0.93827000000E+00  0.93827000000E+00 0. -1.
     999902    2    1    2    0    0 -0.22698365876E-01  0.29932286211E-02  0.57676461312E-02  0.10203198121E+01  0.10200466058E+01 0.  0.
     999903    2    3    3    0    0  0.11966655272E+00  0.36606527858E-01  0.18551395164E-01  0.12815332081E+00  0.20469432124E-01 0.  0.
         14    1    1    2    0    0  0.22698365876E-01 -0.29932286211E-02 -0.57676461312E-02  0.23610187905E-01  0.00000000000E+00 0. -1.
     999901    1    3    3    0    0 -0.14236491859E+00 -0.33613299237E-01 -0.12783749033E-01  0.89216649128E+00  0.88000000000E+00 0. -1.
        -11    1    4    4    0    0  0.79368373914E-01  0.15175487679E-01  0.16414285240E-01  0.82458014074E-01  0.51100000000E-03 0.  1.
         11    1    4    4    0    0  0.40298178802E-01  0.21431040179E-01  0.21371099233E-02  0.45695306736E-01  0.51100000000E-03 0. -1.
</event>
<event>
 8    1  0.1094134E+005  0.1043930E+01  0.7957747E-01            NaN
         13   -1    0    0    0    0  0.00000000000E+00  0.00000000000E+00  0.74505805969E-08  0.10566000000E+00  0.10566000000E+00 0. -1.
     999900   -1    0    0    0    0 -0.00000000000E+00 -0.00000000000E+00 -0.74505805969E-08  0.93827000000E+00  0.93827000000E+00 0. -1.
     999902    2    1    2    0    0  0.73344669224E-02 -0.22828998386E-01  0.25801088368E-02  0.10198133142E+01  0.10195281170E+01 0.  0.
     999903    2    3    3    0    0  0.24860813065E-01  0.12307175826E+00  0.72717772279E-02  0.12761590591E+00  0.21638460916E-01 0.  0.
         14    1    1    2    0    0 -0.73344669224E-02  0.22828998386E-01 -0.25801088368E-02  0.24116685800E-01  0.00000000000E+00 0. -1.
     999901    1    3    3    0    0 -0.17526346142E-01 -0.14590075665E+00 -0.46916683912E-02  0.89219740829E+00  0.88000000000E+00 0. -1.
        -11    1    4    4    0    0  0.83047822221E-02  0.38833869020E-01 -0.77398614119E-02  0.40462394473E-01  0.51100000000E-03 0. -1.
         11    1    4    4    0    0  0.16556030842E-01  0.84237889240E-01  0.15011638640E-01  0.87153511441E-01  0.51100000000E-03 0.  1.
</event>
<event>
 8    1  0.1094134E+005  0.1043930E+01  0.7957747E-01            NaN
         13   -1    0    0    0    0  0.00000000000E+00  0.00000000000E+00  0.74505805969E-08  0.10566000000E+00  0.10566000000E+00 0. -1.
     999900   -1    0    0    0    0 -0.00000000000E+00 -0.00000000000E+00 -0.74505805969E-08  0.93827000000E+00  0.93827000000E+00 0.  1.
     999902    2    1    2    0    0  0.15202564995E-01  0.47421390746E-02  0.18464055286E-01  0.10195470715E+01  0.10192554654E+01 0.  0.
     999903    2    3    3    0    0  0.47784095118E-01 -0.77275908929E-01  0.93591674581E-01  0.13194768241E+00  0.19897323828E-01 0.  0.
         14    1    1    2    0    0 -0.15202564995E-01 -0.47421390746E-02 -0.18464055286E-01  0.24382928516E-01  0.00000000000E+00 0.  1.
     999901    1    3    3    0    0 -0.32581530123E-01  0.82018048004E-01 -0.75127619295E-01  0.88759938907E+00  0.88000000000E+00 0.  1.
        -11    1    4    4    0    0  0.39050879428E-01 -0.68144335224E-01  0.88470411137E-01  0.11830425341E+00  0.51100000000E-03 0.  1.
         11    1    4    4    0    0  0.87332156895E-02 -0.91315737047E-02  0.51212634438E-02  0.13643428999E-01  0.51100000000E-03 0. -1.
</event>
<event>
 8    1  0.1094134E+005  0.1043930E+01  0.7957747E-01            NaN
         13   -1    0    0    0    0  0.00000000000E+00  0.00000000000E+00  0.74505805969E-08  0.10566000000E+00  0.10566000000E+00 0.  1.
     999900   -1    0    0    0    0 -0.00000000000E+00 -0.00000000000E+00 -0.74505805969E-08  0.93827000000E+00  0.93827000000E+00 0. -1.
     999902    2    1    2    0    0 -0.25774335485E-02 -0.20031037762E-01 -0.11449314019E-01  0.10207142203E+01  0.10204501688E+01 0.  0.
     999903    2    3    3    0    0 -0.99957285180E-01 -0.57390941830E-01  0.60309361414E-01  0.13165409550E+00  0.20258398823E-01 0.  0.
         14    1    1    2    0    0  0.25774335485E-02  0.20031037762E-01  0.11449314019E-01  0.23215779742E-01  0.00000000000E+00 0.  1.
     999901    1    3    3    0    0  0.97379851632E-01  0.37359904067E-01 -0.71758675433E-01  0.88906012476E+00  0.88000000000E+00 0. -1.
        -11    1    4    4    0    0 -0.86133577096E-01 -0.52769604931E-01  0.45238216970E-01  0.11068144245E+00  0.51100000000E-03 0.  1.
         11    1    4    4    0    0 -0.13823708084E-01 -0.46213368982E-02  0.15071144444E-01  0.20972653046E-01  0.51100000000E-03 0. -1.
</event>
<event>
 8    1  0.1094134E+005  0.1043930E+01  0.7957747E-01            NaN
         13   -1    0    0    0    0  0.00000000000E+00  0.00000000000E+00  0.74505805969E-08  0.10566000000E+00  0.10566000000E+00 0. -1.
     999900   -1    0    0    0    0 -0.00000000000E+00 -0.00000000000E+00 -0.74505805969E-08  0.93827000000E+00  0.93827000000E+00 0. -1.
     999902    2    1    2    0    0  0.89849647332E-02  0.29014102340E-02 -0.22098944848E-01  0.10198985386E+01  0.10196153775E+01 0.  0.
     999903    2    3    3    0    0 -0.10701587055E+00  0.49699589625E-01  0.46275978365E-01  0.12842706207E+00  0.20726754184E-01 0.  0.
         14    1    1    2    0    0 -0.89849647332E-02 -0.29014102340E-02  0.22098944848E-01  0.24031461378E-01  0.00000000000E+00 0. -1.
     999901    1    3    3    0    0  0.11600083529E+00 -0.46798179391E-01 -0.68374923213E-01  0.89147147655E+00  0.88000000000E+00 0.  1.
        -11    1    4    4    0    0 -0.44698677819E-01  0.12882299249E-01  0.25838119755E-01  0.53214612525E-01  0.51100000000E-03 0.  1.
         11    1    4    4    0    0 -0.62317192734E-01  0.36817290376E-01  0.20437858609E-01  0.75212449544E-01  0.51100000000E-03 0. -1.
</event>
<event>
 8    1  0.1094134E+005  0.1043930E+01  0.7957747E-01            NaN
         13   -1    0    0    0    0  0.00000000000E+00  0.00000000000E+00  0.74505805969E-08  0.10566000000E+00  0.10566000000E+00 0. -1.
     999900   -1    0    0    0    0 -0.00000000000E+00 -0.00000000000E+00 -0.74505805969E-08  0.93827000000E+00  0.93827000000E+00 0. -1.
     999902    2    1    2    0    0 -0.67285482084E-02 -0.73452378346E-03 -0.19929645227E-01  0.10228823482E+01  0.10226657786E+01 0.  0.
     999903    2    3    3    0    0  0.12105155778E+00  0.48325186335E-01  0.10315512843E-02  0.13205465310E+00  0.21179330356E-01 0.  0.
         14    1    1    2    0    0  0.67285482084E-02  0.73452378346E-03  0.19929645227E-01  0.21047651770E-01  0.00000000000E+00 0. -1.
     999901    1    3    3    0    0 -0.12778010598E+00 -0.49059710118E-01 -0.20961196511E-01  0.89082769512E+00  0.88000000000E+00 0. -1.
        -11    1    4    4    0    0  0.40496760618E-01  0.66374814890E-02 -0.38431676849E-02  0.41219835516E-01  0.51100000000E-03 0.  1.
         11    1    4    4    0    0  0.80554797158E-01  0.41687704846E-01  0.48747189692E-02  0.90834817589E-01  0.51100000000E-03 0. -1.
</event>
<event>
 8    1  0.1094134E+005  0.1043930E+01  0.7957747E-01            NaN
         13   -1    0    0    0    0  0.00000000000E+00  0.00000000000E+00  0.74505805969E-08  0.10566000000E+00  0.10566000000E+00 0.  1.
     999900   -1    0    0    0    0 -0.00000000000E+00 -0.00000000000E+00 -0.74505805969E-08  0.93827000000E+00  0.93827000000E+00 0.  1.
     999902    2    1    2    0    0  0.32970688253E-02 -0.79549425769E-02  0.22211553255E-01  0.10201076392E+01  0.10198294420E+01 0.  0.
     999903    2    3    3    0    0 -0.45325396238E-01  0.91963061112E-01  0.79467770737E-01  0.13127355685E+00  0.20150036966E-01 0.  0.
         14    1    1    2    0    0 -0.32970688253E-02  0.79549425769E-02 -0.22211553255E-01  0.23822360761E-01  0.00000000000E+00 0. -1.
     999901    1    3    3    0    0  0.48622465063E-01 -0.99918003689E-01 -0.57256217482E-01  0.88883408239E+00  0.88000000000E+00 0.  1.
        -11    1    4    4    0    0 -0.18887169607E-01  0.27418341205E-01  0.15891961211E-01  0.36895882728E-01  0.51100000000E-03 0. -1.
         11    1    4    4    0    0 -0.26438226631E-01  0.64544719907E-01  0.63575809526E-01  0.94377674125E-01  0.51100000000E-03 0.  1.
</event>
<event>
 8    1  0.1094134E+005  0.1043930E+01  0.7957747E-01            NaN
         13   -1    0    0    0    0  0.00000000000E+00  0.00000000000E+00  0.74505805969E-08  0.10566000000E+00  0.10566000000E+00 0.  1.
     999900   -1    0    0    0    0 -0.00000000000E+00 -0.00000000000E+00 -0.74505805969E-08  0.93827000000E+00  0.93827000000E+00 0. -1.
     999902    2    1    2    0    0 -0.63849537533E-03 -0.29321122356E-02  0.22321407802E-01  0.10214077842E+01  0.10211594447E+01 0.  0.
     999903    2    3    3    0    0  0.26438123065E-01 -0.38864186237E-01  0.12272197361E+00  0.13455687743E+00  0.28904517560E-01 0.  0.
         14    1    1    2    0    0  0.63849537533E-03  0.29321122356E-02 -0.22321407802E-01  0.22522215805E-01  0.00000000000E+00 0. -1.
     999901    1    3    3    0    0 -0.27076618440E-01  0.35932074002E-01 -0.10040056581E+00  0.88685090676E+00  0.88000000000E+00 0. -1.
        -11    1    4    4    0    0 -0.24946167768E-02  0.24930114091E-02  0.17440396926E-01  0.17800752363E-01  0.51100000000E-03 0.  1.
         11    1    4    4    0    0  0.28932739842E-01 -0.41357197646E-01  0.10528157668E+00  0.11675612507E+00  0.51100000000E-03 0. -1.
</event>
<event>
 8    1  0.1094134E+005  0.1043930E+01  0.7957747E-01            NaN
         13   -1    0    0    0    0  0.00000000000E+00  0.00000000000E+00  0.74505805969E-08  0.10566000000E+00  0.10566000000E+00 0. -1.
     999900   -1    0    0    0    0 -0.00000000000E+00 -0.00000000000E+00 -0.74505805969E-08  0.93827000000E+00  0.93827000000E+00 0.  1.
     999902    2    1    2    0    0  0.18258836926E-01 -0.82926996453E-02 -0.12950615678E-01  0.10200579988E+01  0.10197786272E+01 0.  0.
     999903    2    3    3    0    0  0.12665128802E+00  0.31642522816E-01 -0.10311075971E-01  0.13250478205E+00  0.20233659354E-01 0.  0.
         14    1    1    2    0    0 -0.18258836926E-01  0.82926996453E-02  0.12950615678E-01  0.23872001167E-01  0.00000000000E+00 0. -1.
     999901    1    3    3    0    0 -0.10839245110E+00 -0.39935222462E-01 -0.26395397065E-02  0.88755321678E+00  0.88000000000E+00 0. -1.
        -11    1    4    4    0    0  0.98036770936E-01  0.28480712545E-01 -0.15458900970E-01  0.10325501529E+00  0.51100000000E-03 0.  1.
         11    1    4    4    0    0  0.28614517087E-01  0.31618102712E-02  0.51478249992E-02  0.29249766761E-01  0.51100000000E-03 0. -1.
</event>
<event>
 8    1  0.1094134E+005  0.1043930E+01  0.7957747E-01            NaN
         13   -1    0    0    0    0  0.00000000000E+00  0.00000000000E+00  0.74505805969E-08  0.10566000000E+00  0.10566000000E+00 0.  1.
     999900   -1    0    0    0    0 -0.00000000000E+00 -0.00000000000E+00 -0.74505805969E-08  0.93827000000E+00  0.93827000000E+00 0. -1.
     999902    2    1    2    0    0  0.48021475291E-02  0.21291288629E-01 -0.75350308839E-02  0.10208398228E+01  0.10205786533E+01 0.  0.
     999903    2    3    3    0    0 -0.10273564237E+00 -0.21579623263E-01  0.73543555876E-01  0.12956207229E+00  0.18904592333E-01 0.  0.
         14    1    1    2    0    0 -0.48021475291E-02 -0.21291288629E-01  0.75350308839E-02  0.23090177193E-01  0.00000000000E+00 0. -1.
     999901    1    3    3    0    0  0.10753778990E+00  0.42870911893E-01 -0.81078586760E-01  0.89127775052E+00  0.88000000000E+00 0. -1.
        -11    1    4    4    0    0 -0.74391766124E-01 -0.92900494598E-02  0.59050613607E-01  0.95434144699E-01  0.51100000000E-03 0. -1.
         11    1    4    4    0    0 -0.28343876244E-01 -0.12289573803E-01  0.14492942269E-01  0.34127927587E-01  0.51100000000E-03 0.  1.
</event>
<event>
 8    1  0.1094134E+005  0.1043930E+01  0.7957747E-01            NaN
         13   -1    0    0    0    0  0.00000000000E+00  0.00000000000E+00  0.74505805969E-08  0.10566000000E+00  0.10566000000E+00 0.  1.
     999900   -1    0    0    0    0 -0.00000000000E+00 -0.00000000000E+00 -0.74505805969E-08  0.93827000000E+00  0.93827000000E+00 0.  1.
     999902    2    1    2    0    0  0.10969331827E-01 -0.13306064058E-01 -0.17552387294E-01  0.10193238243E+01  0.10190267881E+01 0.  0.
     999903    2    3    3    0    0 -0.62381932414E-01  0.10843725684E+00  0.14081360085E-01  0.12735827672E+00  0.19279569063E-01 0.  0.
         14    1    1    2    0    0 -0.10969331827E-01  0.13306064058E-01  0.17552387294E-01  0.24606175672E-01  0.00000000000E+00 0.  1.
     999901    1    3    3    0    0  0.73351264241E-01 -0.12174332090E+00 -0.31633747379E-01  0.89196554761E+00  0.88000000000E+00 0.  1.
        -11    1    4    4    0    0 -0.35656992648E-01  0.78563299322E-01  0.61682752644E-02  0.86498103250E-01  0.51100000000E-03 0. -1.
         11    1    4    4    0    0 -0.26724939766E-01  0.29873957522E-01  0.79130848203E-02  0.40860173469E-01  0.51100000000E-03 0.  1.
</event>
<event>
 8    1  0.1094134E+005  0.1043930E+01  0.7957747E-01            NaN
         13   -1    0    0    0    0  0.00000000000E+00  0.00000000000E+00  0.74505805969E-08  0.10566000000E+00  0.10566000000E+00 0. -1.
     999900   -1    0    0    0    0 -0.00000000000E+00 -0.00000000000E+00 -0.74505805969E-08  0.93827000000E+00  0.93827000000E+00 0.  1.
     999902    2    1    2    0    0 -0.92422876464E-02 -0.15540725636E-01  0.12557255679E-01  0.10219159430E+01  0.10216788027E+01 0.  0.
     999903    2    3    3    0    0  0.19969109294E-01  0.10031419361E+00 -0.76568003929E-01  0.12938080090E+00  0.20372276562E-01 0.  0.
         14    1    1    2    0    0  0.92422876464E-02  0.15540725636E-01 -0.12557255679E-01  0.22014056973E-01  0.00000000000E+00 0. -1.
     999901    1    3    3    0    0 -0.29211396941E-01 -0.11585491924E+00  0.89125259608E-01  0.89253514212E+00  0.88000000000E+00 0. -1.
        -11    1    4    4    0    0  0.15752737917E-01  0.37174922683E-01 -0.36862345015E-01  0.54673734364E-01  0.51100000000E-03 0.  1.
         11    1    4    4    0    0  0.42163713776E-02  0.63139270923E-01 -0.39705658914E-01  0.74707066540E-01  0.51100000000E-03 0. -1.
</event>
<event>
 8    1  0.1094134E+005  0.1043930E+01  0.7957747E-01            NaN
         13   -1    0    0    0    0  0.00000000000E+00  0.00000000000E+00  0.74505805969E-08  0.10566000000E+00  0.10566000000E+00 0. -1.
     999900   -1    0    0    0    0 -0.00000000000E+00 -0.00000000000E+00 -0.74505805969E-08  0.93827000000E+00  0.93827000000E+00 0.  1.
     999902    2    1    2    0    0 -0.19445853228E-02  0.61390142515E-02 -0.22485412819E-01  0.10205406285E+01  0.10202725674E+01 0.  0.
     999903    2    3    3    0    0 -0.97582021009E-01 -0.72040241563E-01 -0.46280865884E-01  0.13159477038E+00  0.21522495557E-01 0.  0.
         14    1    1    2    0    0  0.19445853228E-02 -0.61390142515E-02  0.22485412819E-01  0.23389371468E-01  0.00000000000E+00 0. -1.
     999901    1    3    3    0    0  0.95637435686E-01  0.78179255814E-01  0.23795453065E-01  0.88894585815E+00  0.88000000000E+00 0. -1.
        -11    1    4    4    0    0 -0.19166687820E-01 -0.13874601597E-01 -0.28563791476E-03  0.23668738908E-01  0.51100000000E-03 0. -1.
         11    1    4    4    0    0 -0.78415333188E-01 -0.58165639966E-01 -0.45995227969E-01  0.10792603147E+00  0.51100000000E-03 0.  1.
</event>
<event>
 8    1  0.1094134E+005  0.1043930E+01  0.7957747E-01            NaN
         13   -1    0    0    0    0  0.00000000000E+00  0.00000000000E+00  0.74505805969E-08  0.10566000000E+00  0.10566000000E+00 0. -1.
     999900   -1    0    0    0    0 -0.00000000000E+00 -0.00000000000E+00 -0.74505805969E-08  0.93827000000E+00  0.93827000000E+00 0. -1.
     999902    2    1    2    0    0  0.24253923368E-01 -0.42344734440E-02 -0.40460695479E-02  0.10189789631E+01  0.10186734378E+01 0.  0.
     999903    2    3    3    0    0  0.22718323303E-01  0.70563536928E-01  0.10402636938E+00  0.12921677437E+00  0.19497545857E-01 0.  0.
         14    1    1    2    0    0 -0.24253923368E-01  0.42344734440E-02  0.40460695479E-02  0.24951036910E-01  0.00000000000E+00 0. -1.
     999901    1    3    3    0    0  0.15356000655E-02 -0.74798010372E-01 -0.10807243893E+00  0.88976218872E+00  0.88000000000E+00 0. -1.
        -11    1    4    4    0    0  0.10547828674E-01  0.58293106491E-01  0.83457593773E-01  0.10234634353E+00  0.51100000000E-03 0. -1.
         11    1    4    4    0    0  0.12170494629E-01  0.12270430437E-01  0.20568775607E-01  0.26870430841E-01  0.51100000000E-03 0.  1.
</event>
<event>
 8    1  0.1094134E+005  0.1043930E+01  0.7957747E-01            NaN
         13   -1    0    0    0    0  0.00000000000E+00  0.00000000000E+00  0.74505805969E-08  0.10566000000E+00  0.10566000000E+00 0.  1.
     999900   -1    0    0    0    0 -0.00000000000E+00 -0.00000000000E+00 -0.74505805969E-08  0.93827000000E+00  0.93827000000E+00 0.  1.
     999902    2    1    2    0    0  0.13214163399E-01  0.19435876001E-01 -0.36199786572E-02  0.10201503525E+01  0.10198731637E+01 0.  0.
     999903    2    3    3    0    0 -0.12703456428E+00 -0.41161834502E-02 -0.57711346742E-02  0.12873067995E+00  0.19584649005E-01 0.  0.
         14    1    1    2    0    0 -0.13214163399E-01 -0.19435876001E-01  0.36199786572E-02  0.23779647511E-01  0.00000000000E+00 0. -1.
     999901    1    3    3    0    0  0.14024872768E+00  0.23552059452E-01  0.21511560170E-02  0.89141967254E+00  0.88000000000E+00 0.  1.
        -11    1    4    4    0    0 -0.95091202301E-01 -0.11541385235E-01 -0.50611783365E-02  0.95924016677E-01  0.51100000000E-03 0.  1.
         11    1    4    4    0    0 -0.31943361978E-01  0.74252017848E-02 -0.70995633768E-03  0.32806663272E-01  0.51100000000E-03 0. -1.
</event>
<event>
 8    1  0.1094134E+005  0.1043930E+01  0.7957747E-01            NaN
         13   -1    0    0    0    0  0.00000000000E+00  0.00000000000E+00  0.74505805969E-08  0.10566000000E+00  0.10566000000E+00 0.  1.
     999900   -1    0    0    0    0 -0.00000000000E+00 -0.00000000000E+00 -0.74505805969E-08  0.93827000000E+00  0.93827000000E+00 0.  1.
     999902    2    1    2    0    0 -0.99925969393E-03  0.45013790573E-02  0.23211150283E-01  0.10202652914E+01  0.10199908071E+01 0.  0.
     999903    2    3    3    0    0 -0.43895001623E-01  0.32545796339E-01  0.11942751571E+00  0.13353865770E+00  0.24158674756E-01 0.  0.
         14    1    1    2    0    0  0.99925969393E-03 -0.45013790573E-02 -0.23211150283E-01  0.23664708551E-01  0.00000000000E+00 0. -1.
     999901    1    3    3    0    0  0.42895741929E-01 -0.28044417282E-01 -0.96216365427E-01  0.88672663374E+00  0.88000000000E+00 0.  1.
        -11    1    4    4    0    0 -0.30208300220E-01  0.14399526943E-01  0.47523140907E-01  0.58125707058E-01  0.51100000000E-03 0.  1.
         11    1    4    4    0    0 -0.13686701403E-01  0.18146269397E-01  0.71904374803E-01  0.75412950646E-01  0.51100000000E-03 0. -1.
</event>
<event>
 8    1  0.1094134E+005  0.1043930E+01  0.7957747E-01            NaN
         13   -1    0    0    0    0  0.00000000000E+00  0.00000000000E+00  0.74505805969E-08  0.10566000000E+00  0.10566000000E+00 0. -1.
     999900   -1    0    0    0    0 -0.00000000000E+00 -0.00000000000E+00 -0.74505805969E-08  0.93827000000E+00  0.93827000000E+00 0. -1.
     999902    2    1    2    0    0  0.40624458560E-02 -0.14132976992E-01  0.19329729529E-01  0.10196424940E+01  0.10193531932E+01 0.  0.
     999903    2    3    3    0    0 -0.55091251532E-01  0.11153285934E+00  0.26209313490E-01  0.12872252506E+00  0.20197416591E-01 0.  0.
         14    1    1    2    0    0 -0.40624458560E-02  0.14132976992E-01 -0.19329729529E-01  0.24287506020E-01  0.00000000000E+00 0.  1.
     999901    1    3    3    0    0  0.59153697388E-01 -0.12566583633E+00 -0.68795839611E-02  0.89091996892E+00  0.88000000000E+00 0.  1.
        -11    1    4    4    0    0 -0.26021993901E-01  0.34219112575E-01  0.14066301221E-01  0.45235094595E-01  0.51100000000E-03 0. -1.
         11    1    4    4    0    0 -0.29069257631E-01  0.77313746767E-01  0.12143012270E-01  0.83487430469E-01  0.51100000000E-03 0.  1.
</event>
<event>
 8    1  0.1094134E+005  0.1043930E+01  0.7957747E-01            NaN
         13   -1    0    0    0    0  0.00000000000E+00  0.00000000000E+00  0.74505805969E-08  0.10566000000E+00  0.10566000000E+00 0.  1.
     999900   -1    0    0    0    0 -0.00000000000E+00 -0.00000000000E+00 -0.74505805969E-08  0.93827000000E+00  0.93827000000E+00 0. -1.
     999902    2    1    2    0    0 -0.54878668684E-02  0.55159078406E-02 -0.22874010205E-01  0.10197688273E+01  0.10194825643E+01 0.  0.
     999903    2    3    3    0    0 -0.97018427640E-01 -0.55864456437E-01 -0.66720392981E-01  0.13181167861E+00  0.19730559642E-01 0.  0.
         14    1    1    2    0    0  0.54878668684E-02 -0.55159078406E-02  0.22874010205E-01  0.24161172673E-01  0.00000000000E+00 0.  1.
     999901    1    3    3    0    0  0.91530560772E-01  0.61380364278E-01  0.43846382776E-01  0.88795714872E+00  0.88000000000E+00 0.  1.
        -11    1    4    4    0    0 -0.81485454622E-02 -0.11850858329E-01 -0.65401778945E-02  0.15807488231E-01  0.51100000000E-03 0.  1.
         11    1    4    4    0    0 -0.88869882178E-01 -0.44013598108E-01 -0.60180215087E-01  0.11600419038E+00  0.51100000000E-03 0. -1.
</event>
<event>
 8    1  0.1094134E+005  0.1043930E+01  0.7957747E-01            NaN
         13   -1    0    0    0    0  0.00000000000E+00  0.00000000000E+00  0.74505805969E-08  0.10566000000E+00  0.10566000000E+00 0. -1.
     999900   -1    0    0    0    0 -0.00000000000E+00 -0.00000000000E+00 -0.74505805969E-08  0.93827000000E+00  0.93827000000E+00 0. -1.
     999902    2    1    2    0    0  0.11324313062E-01 -0.13581647274E-02 -0.22242047744E-01  0.10189341330E+01  0.10186274953E+01 0.  0.
     999903    2    3    3    0    0 -0.35695231617E-01 -0.92217742878E-01 -0.84293378477E-01  0.13083691528E+00  0.15318716783E-01 0.  0.
         14    1    1    2    0    0 -0.11324313062E-01  0.13581647274E-02  0.22242047744E-01  0.24995866970E-01  0.00000000000E+00 0. -1.
     999901    1    3    3    0    0  0.47019544679E-01  0.90859578151E-01  0.62051330733E-01  0.88809721775E+00  0.88000000000E+00 0.  1.
        -11    1    4    4    0    0 -0.11585432528E-01 -0.32929476421E-01 -0.39486522572E-01  0.52706918427E-01  0.51100000000E-03 0.  1.
         11    1    4    4    0    0 -0.24109799089E-01 -0.59288266458E-01 -0.44806855906E-01  0.78129996856E-01  0.51100000000E-03 0. -1.
</event>
<event>
 8    1  0.1094134E+005  0.1043930E+01  0.7957747E-01            NaN
         13   -1    0    0    0    0  0.00000000000E+00  0.00000000000E+00  0.74505805969E-08  0.10566000000E+00  0.10566000000E+00 0.  1.
     999900   -1    0    0    0    0 -0.00000000000E+00 -0.00000000000E+00 -0.74505805969E-08  0.93827000000E+00  0.93827000000E+00 0.  1.
     999902    2    1    2    0    0 -0.11157220266E-01  0.20870446624E-01  0.26492482376E-02  0.10201166083E+01  0.10198386230E+01 0.  0.
     999903    2    3    3    0    0  0.10646924767E+00  0.51488383109E-01  0.51237916915E-01  0.13043447256E+00  0.20026812207E-01 0.  0.
         14    1    1    2    0    0  0.11157220266E-01 -0.20870446624E-01 -0.26492482376E-02  0.23813391664E-01  0.00000000000E+00 0. -1.
     999901    1    3    3    0    0 -0.11762646794E+00 -0.30617936485E-01 -0.48588668677E-01  0.88968213578E+00  0.88000000000E+00 0.  1.
        -11    1    4    4    0    0  0.35105987324E-01  0.20438787015E-01  0.27536310395E-01  0.49078344224E-01  0.51100000000E-03 0. -1.
         11    1    4    4    0    0  0.71363260348E-01  0.31049596094E-01  0.23701606519E-01  0.81356128336E-01  0.51100000000E-03 0.  1.
</event>
<event>
 8    1  0.1094134E+005  0.1043930E+01  0.7957747E-01            NaN
         13   -1    0    0    0    0  0.00000000000E+00  0.00000000000E+00  0.74505805969E-08  0.10566000000E+00  0.10566000000E+00 0.  1.
     999900   -1    0    0    0    0 -0.00000000000E+00 -0.00000000000E+00 -0.74505805969E-08  0.93827000000E+00  0.93827000000E+00 0. -1.
     999902    2    1    2    0    0 -0.12933126992E-01  0.78316947391E-02 -0.38580926586E-02  0.10283259590E+01  0.10282075626E+01 0.  0.
     999903    2    3    3    0    0 -0.90523105666E-01 -0.89081706472E-01 -0.50999475177E-01  0.13836263276E+00  0.20329500443E-01 0.  0.
         14    1    1    2    0    0  0.12933126992E-01 -0.78316947391E-02  0.38580926586E-02  0.15604040991E-01  0.00000000000E+00 0. -1.
     999901    1    3    3    0    0  0.77589978674E-01  0.96913401211E-01  0.47141382519E-01  0.88996332625E+00  0.88000000000E+00 0. -1.
        -11    1    4    4    0    0 -0.81597726665E-01 -0.71588386957E-01 -0.39010856156E-01  0.11534814330E+00  0.51100000000E-03 0. -1.
         11    1    4    4    0    0 -0.89253790010E-02 -0.17493319515E-01 -0.11988619022E-01  0.23014489458E-01  0.51100000000E-03 0.  1.
</event>
<event>
 8    1  0.1094134E+005  0.1043930E+01  0.7957747E-01            NaN
         13   -1    0    0    0    0  0.00000000000E+00  0.00000000000E+00  0.74505805969E-08  0.10566000000E+00  0.10566000000E+00 0.  1.
     999900   -1    0    0    0    0 -0.00000000000E+00 -0.00000000000E+00 -0.74505805969E-08  0.93827000000E+00  0.93827000000E+00 0.  1.
     999902    2    1    2    0    0  0.21442980813E-01 -0.13195961847E-01 -0.19313888011E-03  0.10187511967E+01  0.10184399975E+01 0.  0.
     999903    2    3    3    0    0  0.74486392066E-01 -0.70347915636E-01 -0.80499981798E-01  0.13166093162E+00  0.18902433934E-01 0.  0.
         14    1    1    2    0    0 -0.21442980813E-01  0.13195961847E-01  0.19313888011E-03  0.25178803344E-01  0.00000000000E+00 0. -1.
     999901    1    3    3    0    0 -0.53043411253E-01  0.57151953788E-01  0.80306842917E-01  0.88709026503E+00  0.88000000000E+00 0. -1.
        -11    1    4    4    0    0  0.70213230524E-02 -0.16215764853E-01 -0.14244553310E-01  0.22702828616E-01  0.51100000000E-03 0. -1.
         11    1    4    4    0    0  0.67465069014E-01 -0.54132150783E-01 -0.66255428488E-01  0.10895810301E+00  0.51100000000E-03 0.  1.
</event>
<event>
 8    1  0.1094134E+005  0.1043930E+01  0.7957747E-01            NaN
         13   -1    0    0    0    0  0.00000000000E+00  0.00000000000E+00  0.74505805969E-08  0.10566000000E+00  0.10566000000E+00 0.  1.
     999900   -1    0    0    0    0 -0.00000000000E+00 -0.00000000000E+00 -0.74505805969E-08  0.93827000000E+00  0.93827000000E+00 0. -1.
     999902    2    1    2    0    0 -0.21379405123E-01  0.10415191378E-01 -0.22651727026E-02  0.10200409610E+01  0.10197611858E+01 0.  0.
     999903    2    3    3    0    0  0.10801833413E+00  0.30890036370E-01  0.57076339313E-01  0.12836590294E+00  0.24452845902E-01 0.  0.
         14    1    1    2    0    0  0.21379405123E-01 -0.10415191378E-01  0.22651727026E-02  0.23889038956E-01  0.00000000000E+00 0.  1.
     999901    1    3    3    0    0 -0.12939773925E+00 -0.20474844992E-01 -0.59341512016E-01  0.89167505811E+00  0.88000000000E+00 0. -1.
        -11    1    4    4    0    0  0.75225523374E-01  0.24279480548E-01  0.27453639630E-01  0.83679961715E-01  0.51100000000E-03 0.  1.
         11    1    4    4    0    0  0.32792810754E-01  0.66105558218E-02  0.29622699683E-01  0.44685941223E-01  0.51100000000E-03 0. -1.
</event>
<event>
 8    1  0.1094134E+005  0.1043930E+01  0.7957747E-01            NaN
         13   -1    0    0    0    0  0.00000000000E+00  0.00000000000E+00  0.74505805969E-08  0.10566000000E+00  0.10566000000E+00 0.  1.
     999900   -1    0    0    0    0 -0.00000000000E+00 -0.00000000000E+00 -0.74505805969E-08  0.93827000000E+00  0.93827000000E+00 0.  1.
     999902    2    1    2    0    0 -0.16955687932E-01  0.76030504162E-02  0.18106554544E-01  0.10179848840E+01  0.10176542020E+01 0.  0.
     999903    2    3    3    0    0 -0.32579004419E-01 -0.11480083320E+00  0.44836228590E-01  0.12897348121E+00  0.19576736961E-01 0.  0.
         14    1    1    2    0    0  0.16955687932E-01 -0.76030504162E-02 -0.18106554544E-01  0.25945116040E-01  0.00000000000E+00 0. -1.
     999901    1    3    3    0    0  0.15623316486E-01  0.12240388361E+00 -0.26729674046E-01  0.88901140275E+00  0.88000000000E+00 0.  1.
        -11    1    4    4    0    0 -0.27545424427E-01 -0.76669909445E-01  0.38038741563E-01  0.89912359561E-01  0.51100000000E-03 0. -1.
         11    1    4    4    0    0 -0.50335799918E-02 -0.38130923752E-01  0.67974870271E-02  0.39061121651E-01  0.51100000000E-03 0.  1.
</event>
<event>
 8    1  0.1094134E+005  0.1043930E+01  0.7957747E-01            NaN
         13   -1    0    0    0    0  0.00000000000E+00  0.00000000000E+00  0.74505805969E-08  0.10566000000E+00  0.10566000000E+00 0. -1.
     999900   -1    0    0    0    0 -0.00000000000E+00 -0.00000000000E+00 -0.74505805969E-08  0.93827000000E+00  0.93827000000E+00 0. -1.
     999902    2    1    2    0    0 -0.18474729332E-01 -0.11552848146E-01  0.58771874008E-02  0.10213617644E+01  0.10211123976E+01 0.  0.
     999903    2    3    3    0    0 -0.33303202118E-01  0.82572209316E-01 -0.93426899665E-01  0.13066500811E+00  0.20432467789E-01 0.  0.
         14    1    1    2    0    0  0.18474729332E-01  0.11552848146E-01 -0.58771874008E-02  0.22568235552E-01  0.00000000000E+00 0.  1.
     999901    1    3    3    0    0  0.14828472786E-01 -0.94125057462E-01  0.99304087066E-01  0.89069675634E+00  0.88000000000E+00 0.  1.
        -11    1    4    4    0    0 -0.21430249377E-01  0.71350341095E-01 -0.71004854578E-01  0.10291781798E+00  0.51100000000E-03 0.  1.
         11    1    4    4    0    0 -0.11872952742E-01  0.11221868221E-01 -0.22422045087E-01  0.27747190129E-01  0.51100000000E-03 0. -1.
</event>
<event>
 8    1  0.1094134E+005  0.1043930E+01  0.7957747E-01            NaN
         13   -1    0    0    0    0  0.00000000000E+00  0.00000000000E+00  0.74505805969E-08  0.10566000000E+00  0.10566000000E+00 0.  1.
     999900   -1    0    0    0    0 -0.00000000000E+00 -0.00000000000E+00 -0.74505805969E-08  0.93827000000E+00  0.93827000000E+00 0. -1.
     999902    2    1    2    0    0  0.18418891661E-01 -0.14199697090E-01  0.83598095732E-03  0.10206580033E+01  0.10203926567E+01 0.  0.
     999903    2    3    3    0    0 -0.52462969404E-02 -0.12075133742E+00 -0.50289311739E-01  0.13244232633E+00  0.20088449637E-01 0.  0.
         14    1    1    2    0    0 -0.18418891661E-01  0.14199697090E-01 -0.83598095732E-03  0.23271996726E-01  0.00000000000E+00 0. -1.
     999901    1    3    3    0    0  0.23665188601E-01  0.10655164033E+00  0.51125292696E-01  0.88821567694E+00  0.88000000000E+00 0. -1.
        -11    1    4    4    0    0 -0.11683051634E-01 -0.45429187945E-01 -0.20254647621E-01  0.51096151363E-01  0.51100000000E-03 0. -1.
         11    1    4    4    0    0  0.64367546932E-02 -0.75322149476E-01 -0.30034664118E-01  0.81346174971E-01  0.51100000000E-03 0.  1.
</event>
<event>
 8    1  0.1094134E+005  0.1043930E+01  0.7957747E-01            NaN
         13   -1    0    0    0    0  0.00000000000E+00  0.00000000000E+00  0.74505805969E-08  0.10566000000E+00  0.10566000000E+00 0. -1.
     999900   -1    0    0    0    0 -0.00000000000E+00 -0.00000000000E+00 -0.74505805969E-08  0.93827000000E+00  0.93827000000E+00 0. -1.
     999902    2    1    2    0    0  0.22048003487E-01 -0.24158268861E-03 -0.35066002062E-02  0.10216035792E+01  0.10213595860E+01 0.  0.
     999903    2    3    3    0    0 -0.97765028423E-01  0.76032505773E-01 -0.22197878247E-01  0.13001944799E+00  0.32762300585E-01 0.  0.
         14    1    1    2    0    0 -0.22048003487E-01  0.24158268861E-03  0.35066002062E-02  0.22326420782E-01  0.00000000000E+00 0. -1.
     999901    1    3    3    0    0  0.11981303191E+00 -0.76274088462E-01  0.18691278041E-01  0.89158413123E+00  0.88000000000E+00 0. -1.
        -11    1    4    4    0    0 -0.69720357456E-01  0.63887243043E-01 -0.44418154703E-02  0.94670475404E-01  0.51100000000E-03 0.  1.
         11    1    4    4    0    0 -0.28044670967E-01  0.12145262730E-01 -0.17756062777E-01  0.35348972584E-01  0.51100000000E-03 0. -1.
</event>
<event>
 8    1  0.1094134E+005  0.1043930E+01  0.7957747E-01            NaN
         13   -1    0    0    0    0  0.00000000000E+00  0.00000000000E+00  0.74505805969E-08  0.10566000000E+00  0.10566000000E+00 0. -1.
     999900   -1    0    0    0    0 -0.00000000000E+00 -0.00000000000E+00 -0.74505805969E-08  0.93827000000E+00  0.93827000000E+00 0.  1.
     999902    2    1    2    0    0  0.18559750450E-01  0.71390505474E-02 -0.16413478671E-01  0.10181456508E+01  0.10178191066E+01 0.  0.
     999903    2    3    3    0    0 -0.19298129963E-01 -0.10081392336E+00 -0.75025596615E-01  0.12880744518E+00  0.20655576043E-01 0.  0.
         14    1    1    2    0    0 -0.18559750450E-01 -0.71390505474E-02  0.16413478671E-01  0.25784349160E-01  0.00000000000E+00 0. -1.
     999901    1    3    3    0    0  0.37857880413E-01  0.10795297391E+00  0.58612117944E-01  0.88933820566E+00  0.88000000000E+00 0.  1.
        -11    1    4    4    0    0 -0.81315095519E-02 -0.18783591302E-01 -0.69423409104E-02  0.21619481217E-01  0.51100000000E-03 0.  1.
         11    1    4    4    0    0 -0.11166620411E-01 -0.82030332059E-01 -0.68083255704E-01  0.10718796396E+00  0.51100000000E-03 0. -1.
</event>
<event>
 8    1  0.1094134E+005  0.1043930E+01  0.7957747E-01            NaN
         13   -1    0    0    0    0  0.00000000000E+00  0.00000000000E+00  0.74505805969E-08  0.10566000000E+00  0.10566000000E+00 0.  1.
     999900   -1    0    0    0    0 -0.00000000000E+00 -0.00000000000E+00 -0.74505805969E-08  0.93827000000E+00  0.93827000000E+00 0.  1.
     999902    2    1    2    0    0  0.76337634709E-02  0.17574508136E-01  0.13910451048E-01  0.10202521975E+01  0.10199774058E+01 0.  0.
     999903    2    3    3    0    0  0.75504874252E-02  0.73230018677E-01  0.10932769436E+00  0.13334634396E+00  0.20225162517E-01 0.  0.
         14    1    1    2    0    0 -0.76337634709E-02 -0.17574508136E-01 -0.13910451048E-01  0.23677802459E-01  0.00000000000E+00 0. -1.
     999901    1    3    3    0    0  0.83276045654E-04 -0.55655510541E-01 -0.95417243311E-01  0.88690585358E+00  0.88000000000E+00 0.  1.
        -11    1    4    4    0    0  0.28297079543E-02  0.26605747122E-01  0.23766536267E-01  0.35790814382E-01  0.51100000000E-03 0.  1.
         11    1    4    4    0    0  0.47207794709E-02  0.46624271556E-01  0.85561158092E-01  0.97555529581E-01  0.51100000000E-03 0. -1.
</event>
<event>
 8    1  0.1094134E+005  0.1043930E+01  0.7957747E-01            NaN
         13   -1    0    0    0    0  0.00000000000E+00  0.00000000000E+00  0.74505805969E-08  0.10566000000E+00  0.10566000000E+00 0. -1.
     999900   -1    0    0    0    0 -0.00000000000E+00 -0.00000000000E+00 -0.74505805969E-08  0.93827000000E+00  0.93827000000E+00 0.  1.
     999902    2    1    2    0    0 -0.22730324441E-01  0.15452020805E-02  0.13737711853E-03  0.10211468007E+01  0.10208926067E+01 0.  0.
     999903    2    3    3    0    0 -0.12806440815E+00 -0.34881253999E-01 -0.15863822228E-03  0.13411678793E+00  0.19237804573E-01 0.  0.
         14    1    1    2    0    0  0.22730324441E-01 -0.15452020805E-02 -0.13737711853E-03  0.22783199317E-01  0.00000000000E+00 0.  1.
     999901    1    3    3    0    0  0.10533408371E+00  0.36426456079E-01  0.29601534081E-03  0.88703001275E+00  0.88000000000E+00 0. -1.
        -11    1    4    4    0    0 -0.28376661029E-01 -0.16167150524E-01 -0.11112527574E-02  0.32681916268E-01  0.51100000000E-03 0. -1.
         11    1    4    4    0    0 -0.99687747118E-01 -0.18714103475E-01  0.95261453512E-03  0.10143487167E+00  0.51100000000E-03 0.  1.
</event>
<event>
 8    1  0.1094134E+005  0.1043930E+01  0.7957747E-01            NaN
         13   -1    0    0    0    0  0.00000000000E+00  0.00000000000E+00  0.74505805969E-08  0.10566000000E+00  0.10566000000E+00 0. -1.
     999900   -1    0    0    0    0 -0.00000000000E+00 -0.00000000000E+00 -0.74505805969E-08  0.93827000000E+00  0.93827000000E+00 0.  1.
     999902    2    1    2    0    0  0.30653612310E-02  0.84096782137E-02  0.22893795855E-01  0.10193486043E+01  0.10190521734E+01 0.  0.
     999903    2    3    3    0    0  0.86236207727E-01 -0.60432367454E-01 -0.69411809977E-01  0.12795815008E+00  0.21599403900E-01 0.  0.
         14    1    1    2    0    0 -0.30653612310E-02 -0.84096782137E-02 -0.22893795855E-01  0.24581395725E-01  0.00000000000E+00 0.  1.
     999901    1    3    3    0    0 -0.83170846496E-01  0.68842045667E-01  0.92305605832E-01  0.89139045419E+00  0.88000000000E+00 0. -1.
        -11    1    4    4    0    0  0.49631666515E-01 -0.27935790623E-01 -0.26323201417E-01  0.62744583611E-01  0.51100000000E-03 0.  1.
         11    1    4    4    0    0  0.36604541213E-01 -0.32496576831E-01 -0.43088608561E-01  0.65213566471E-01  0.51100000000E-03 0. -1.
</event>
<event>
 8    1  0.1094134E+005  0.1043930E+01  0.7957747E-01            NaN
         13   -1    0    0    0    0  0.00000000000E+00  0.00000000000E+00  0.74505805969E-08  0.10566000000E+00  0.10566000000E+00 0. -1.
     999900   -1    0    0    0    0 -0.00000000000E+00 -0.00000000000E+00 -0.74505805969E-08  0.93827000000E+00  0.93827000000E+00 0.  1.
     999902    2    1    2    0    0  0.17089146975E-01  0.14588888505E-01 -0.78953092853E-02  0.10201138181E+01  0.10198357668E+01 0.  0.
     999903    2    3    3    0    0  0.46302392256E-01  0.51746394260E-01 -0.11145596097E+00  0.13278135361E+00  0.19668649752E-01 0.  0.
         14    1    1    2    0    0 -0.17089146975E-01 -0.14588888505E-01  0.78953092853E-02  0.23816181912E-01  0.00000000000E+00 0. -1.
     999901    1    3    3    0    0 -0.29213245281E-01 -0.37157505755E-01  0.10356065169E+00  0.88733246448E+00  0.88000000000E+00 0. -1.
        -11    1    4    4    0    0  0.21700127955E-01  0.29713116433E-01 -0.75296313564E-01  0.83806687077E-01  0.51100000000E-03 0.  1.
         11    1    4    4    0    0  0.24602264300E-01  0.22033277827E-01 -0.36159647410E-01  0.48974666536E-01  0.51100000000E-03 0. -1.
</event>
<event>
 8    1  0.1094134E+005  0.1043930E+01  0.7957747E-01            NaN
         13   -1    0    0    0    0  0.00000000000E+00  0.00000000000E+00  0.74505805969E-08  0.10566000000E+00  0.10566000000E+00 0.  1.
     999900   -1    0    0    0    0 -0.00000000000E+00 -0.00000000000E+00 -0.74505805969E-08  0.93827000000E+00  0.93827000000E+00 0. -1.
     999902    2    1    2    0    0 -0.16987578286E-01 -0.49362494381E-03 -0.13691205979E-01  0.10221063751E+01  0.10218733637E+01 0.  0.
     999903    2    3    3    0    0 -0.15579942778E-01  0.28936761070E-01  0.12489944340E+00  0.13077282524E+00  0.20532659348E-01 0.  0.
         14    1    1    2    0    0  0.16987578286E-01  0.49362494381E-03  0.13691205979E-01  0.21823624877E-01  0.00000000000E+00 0.  1.
     999901    1    3    3    0    0 -0.14076355086E-02 -0.29430386014E-01 -0.13859064938E+00  0.89133354989E+00  0.88000000000E+00 0. -1.
        -11    1    4    4    0    0  0.38814862120E-02  0.94661859840E-03  0.22181178503E-01  0.22543908773E-01  0.51100000000E-03 0.  1.
         11    1    4    4    0    0 -0.19461428990E-01  0.27990142472E-01  0.10271826490E+00  0.10822891646E+00  0.51100000000E-03 0. -1.
</event>
<event>
 8    1  0.1094134E+005  0.1043930E+01  0.7957747E-01            NaN
         13   -1    0    0    0    0  0.00000000000E+00  0.00000000000E+00  0.74505805969E-08  0.10566000000E+00  0.10566000000E+00 0. -1.
     999900   -1    0    0    0    0 -0.00000000000E+00 -0.00000000000E+00 -0.74505805969E-08  0.93827000000E+00  0.93827000000E+00 0. -1.
     999902    2    1    2    0    0 -0.17923259231E-01  0.11421415405E-01 -0.50255233114E-02  0.10220908646E+01  0.10218575183E+01 0.  0.
     999903    2    3    3    0    0  0.29273527194E-01 -0.25361482919E-01  0.12306799078E+00  0.13080613644E+00  0.21549263722E-01 0.  0.
         14    1    1    2    0    0  0.17923259231E-01 -0.11421415405E-01  0.50255233114E-02  0.21839135420E-01  0.00000000000E+00 0. -1.
     999901    1    3    3    0    0 -0.47196786425E-01  0.36782898325E-01 -0.12809351409E+00  0.89128472814E+00  0.88000000000E+00 0. -1.
        -11    1    4    4    0    0  0.21231136707E-01 -0.27161127666E-01  0.82647284674E-01  0.89550671728E-01  0.51100000000E-03 0.  1.
         11    1    4    4    0    0  0.80423904865E-02  0.17996447467E-02  0.40420706104E-01  0.41255464715E-01  0.51100000000E-03 0. -1.
</event>
<event>
 8    1  0.1094134E+005  0.1043930E+01  0.7957747E-01            NaN
         13   -1    0    0    0    0  0.00000000000E+00  0.00000000000E+00  0.74505805969E-08  0.10566000000E+00  0.10566000000E+00 0. -1.
     999900   -1    0    0    0    0 -0.00000000000E+00 -0.00000000000E+00 -0.74505805969E-08  0.93827000000E+00  0.93827000000E+00 0. -1.
     999902    2    1    2    0    0 -0.26344023560E-02  0.31501072144E-01 -0.19675009533E-02  0.10122577932E+01  0.10117621812E+01 0.  0.
     999903    2    3    3    0    0 -0.10016825642E-01 -0.93763452183E-01 -0.72511963667E-01  0.12056153191E+00  0.19625909908E-01 0.  0.
         14    1    1    2    0    0  0.26344023560E-02 -0.31501072144E-01  0.19675009533E-02  0.31672206775E-01  0.00000000000E+00 0.  1.
     999901    1    3    3    0    0  0.73824232858E-02  0.12526452433E+00  0.70544462714E-01  0.89169626132E+00  0.88000000000E+00 0.  1.
        -11    1    4    4    0    0 -0.44690005791E-02 -0.58691943768E-01 -0.33183608851E-01  0.67573139980E-01  0.51100000000E-03 0. -1.
         11    1    4    4    0    0 -0.55478250627E-02 -0.35071508416E-01 -0.39328354817E-01  0.52988391927E-01  0.51100000000E-03 0.  1.
</event>
<event>
 8    1  0.1094134E+005  0.1043930E+01  0.7957747E-01            NaN
         13   -1    0    0    0    0  0.00000000000E+00  0.00000000000E+00  0.74505805969E-08  0.10566000000E+00  0.10566000000E+00 0. -1.
     999900   -1    0    0    0    0 -0.00000000000E+00 -0.00000000000E+00 -0.74505805969E-08  0.93827000000E+00  0.93827000000E+00 0.  1.
     999902    2    1    2    0    0 -0.63975527465E-02  0.19609237718E-01  0.11299814320E-01  0.10204111418E+01  0.10201400697E+01 0.  0.
     999903    2    3    3    0    0 -0.56813030241E-01 -0.66999340900E-02  0.11732717944E+00  0.13222439626E+00  0.21095364625E-01 0.  0.
         14    1    1    2    0    0  0.63975527465E-02 -0.19609237718E-01 -0.11299814320E-01  0.23518858151E-01  0.00000000000E+00 0. -1.
     999901    1    3    3    0    0  0.50415477495E-01  0.26309171808E-01 -0.10602736512E+00  0.88818674559E+00  0.88000000000E+00 0.  1.
        -11    1    4    4    0    0 -0.40239584557E-01  0.51709150249E-02  0.77199035947E-01  0.87211895976E-01  0.51100000000E-03 0.  1.
         11    1    4    4    0    0 -0.16573445684E-01 -0.11870849115E-01  0.40128143491E-01  0.45012500281E-01  0.51100000000E-03 0. -1.
</event>
<event>
 8    1  0.1094134E+005  0.1043930E+01  0.7957747E-01            NaN
         13   -1    0    0    0    0  0.00000000000E+00  0.00000000000E+00  0.74505805969E-08  0.10566000000E+00  0.10566000000E+00 0. -1.
     999900   -1    0    0    0    0 -0.00000000000E+00 -0.00000000000E+00 -0.74505805969E-08  0.93827000000E+00  0.93827000000E+00 0.  1.
     999902    2    1    2    0    0 -0.12110333212E-01 -0.16912394881E-01  0.10229714733E-01  0.10207494837E+01  0.10204862430E+01 0.  0.
     999903    2    3    3    0    0  0.12100708663E+00  0.19742457386E-01 -0.34521170513E-01  0.12886021516E+00  0.19513180147E-01 0.  0.
         14    1    1    2    0    0  0.12110333212E-01  0.16912394881E-01 -0.10229714733E-01  0.23180516272E-01  0.00000000000E+00 0.  1.
     999901    1    3    3    0    0 -0.13311741984E+00 -0.36654852267E-01  0.44750885245E-01  0.89188926857E+00  0.88000000000E+00 0. -1.
        -11    1    4    4    0    0  0.51409653757E-01  0.94615047623E-02 -0.24721871940E-01  0.57826504693E-01  0.51100000000E-03 0. -1.
         11    1    4    4    0    0  0.69597432871E-01  0.10280952624E-01 -0.97992985725E-02  0.71033710466E-01  0.51100000000E-03 0.  1.
</event>
<event>
 8    1  0.1094134E+005  0.1043930E+01  0.7957747E-01            NaN
         13   -1    0    0    0    0  0.00000000000E+00  0.00000000000E+00  0.74505805969E-08  0.10566000000E+00  0.10566000000E+00 0.  1.
     999900   -1    0    0    0    0 -0.00000000000E+00 -0.00000000000E+00 -0.74505805969E-08  0.93827000000E+00  0.93827000000E+00 0. -1.
     999902    2    1    2    0    0  0.67528008145E-02 -0.21162502505E-01 -0.76001284368E-02  0.10204520575E+01  0.10201819386E+01 0.  0.
     999903    2    3    3    0    0  0.81647124167E-01  0.95610225178E-01  0.20724143506E-01  0.12913432854E+00  0.20943176463E-01 0.  0.
         14    1    1    2    0    0 -0.67528008145E-02  0.21162502505E-01  0.76001284368E-02  0.23477942486E-01  0.00000000000E+00 0.  1.
     999901    1    3    3    0    0 -0.74894323353E-01 -0.11677272768E+00 -0.28324271943E-01  0.89131772897E+00  0.88000000000E+00 0. -1.
        -11    1    4    4    0    0  0.58999464166E-01  0.53510534924E-01  0.12860620024E-01  0.80684389991E-01  0.51100000000E-03 0.  1.
         11    1    4    4    0    0  0.22647660001E-01  0.42099690254E-01  0.78635234823E-02  0.48449938550E-01  0.51100000000E-03 0. -1.
</event>
<event>
 8    1  0.1094134E+005  0.1043930E+01  0.7957747E-01            NaN
         13   -1    0    0    0    0  0.00000000000E+00  0.00000000000E+00  0.74505805969E-08  0.10566000000E+00  0.10566000000E+00 0. -1.
     999900   -1    0    0    0    0 -0.00000000000E+00 -0.00000000000E+00 -0.74505805969E-08  0.93827000000E+00  0.93827000000E+00 0.  1.
     999902    2    1    2    0    0 -0.54945700180E-03 -0.21377487203E-01  0.95451032930E-02  0.10205118904E+01  0.10202431624E+01 0.  0.
     999903    2    3    3    0    0  0.14991579562E-01 -0.34104775043E-01  0.12592987812E+00  0.13262173754E+00  0.18501565512E-01 0.  0.
         14    1    1    2    0    0  0.54945700180E-03  0.21377487203E-01 -0.95451032930E-02  0.23418109637E-01  0.00000000000E+00 0.  1.
     999901    1    3    3    0    0 -0.15541036564E-01  0.12727287840E-01 -0.11638477482E+00  0.88789015283E+00  0.88000000000E+00 0.  1.
        -11    1    4    4    0    0  0.11791482525E-01 -0.62717283560E-02  0.47105851466E-01  0.48965252987E-01  0.51100000000E-03 0. -1.
         11    1    4    4    0    0  0.32000970372E-02 -0.27833046687E-01  0.78824026651E-01  0.83656484550E-01  0.51100000000E-03 0.  1.
</event>
<event>
 8    1  0.1094134E+005  0.1043930E+01  0.7957747E-01            NaN
         13   -1    0    0    0    0  0.00000000000E+00  0.00000000000E+00  0.74505805969E-08  0.10566000000E+00  0.10566000000E+00 0. -1.
     999900   -1    0    0    0    0 -0.00000000000E+00 -0.00000000000E+00 -0.74505805969E-08  0.93827000000E+00  0.93827000000E+00 0. -1.
     999902    2    1    2    0    0  0.11152506179E-01 -0.19770990284E-01 -0.58467732012E-02  0.10204895391E+01  0.10202202920E+01 0.  0.
     999903    2    3    3    0    0 -0.10424958219E+00 -0.12962730406E-01 -0.74406676206E-01  0.13028481280E+00  0.20044231494E-01 0.  0.
         14    1    1    2    0    0 -0.11152506179E-01  0.19770990284E-01  0.58467732012E-02  0.23440460912E-01  0.00000000000E+00 0. -1.
     999901    1    3    3    0    0  0.11540208837E+00 -0.68082598785E-02  0.68559903005E-01  0.89020472629E+00  0.88000000000E+00 0.  1.
        -11    1    4    4    0    0 -0.83009262906E-01 -0.94078240528E-02 -0.68260723992E-01  0.10788342061E+00  0.51100000000E-03 0. -1.
         11    1    4    4    0    0 -0.21240319285E-01 -0.35549063530E-02 -0.61459522138E-02  0.22401392192E-01  0.51100000000E-03 0.  1.
</event>
<event>
 8    1  0.1094134E+005  0.1043930E+01  0.7957747E-01            NaN
         13   -1    0    0    0    0  0.00000000000E+00  0.00000000000E+00  0.74505805969E-08  0.10566000000E+00  0.10566000000E+00 0.  1.
     999900   -1    0    0    0    0 -0.00000000000E+00 -0.00000000000E+00 -0.74505805969E-08  0.93827000000E+00  0.93827000000E+00 0. -1.
     999902    2    1    2    0    0 -0.14070966477E-01  0.13071011049E-01  0.11908912724E-01  0.10213320879E+01  0.10210820575E+01 0.  0.
     999903    2    3    3    0    0 -0.10623210529E+00  0.76716653920E-01  0.18230286759E-01  0.13421067396E+00  0.22571142354E-01 0.  0.
         14    1    1    2    0    0  0.14070966477E-01 -0.13071011049E-01 -0.11908912724E-01  0.22597912065E-01  0.00000000000E+00 0. -1.
     999901    1    3    3    0    0  0.92161138810E-01 -0.63645642870E-01 -0.63213740353E-02  0.88712141397E+00  0.88000000000E+00 0.  1.
        -11    1    4    4    0    0 -0.69846189426E-01  0.55472195105E-01  0.24927821830E-02  0.89230766505E-01  0.51100000000E-03 0. -1.
         11    1    4    4    0    0 -0.36385915860E-01  0.21244458815E-01  0.15737504576E-01  0.44979907454E-01  0.51100000000E-03 0.  1.
</event>
<event>
 8    1  0.1094134E+005  0.1043930E+01  0.7957747E-01            NaN
         13   -1    0    0    0    0  0.00000000000E+00  0.00000000000E+00  0.74505805969E-08  0.10566000000E+00  0.10566000000E+00 0.  1.
     999900   -1    0    0    0    0 -0.00000000000E+00 -0.00000000000E+00 -0.74505805969E-08  0.93827000000E+00  0.93827000000E+00 0.  1.
     999902    2    1    2    0    0  0.23212641361E-01  0.39043732031E-02  0.64176835917E-03  0.10203825433E+01  0.10201108038E+01 0.  0.
     999903    2    3    3    0    0 -0.81062410903E-01 -0.78303850102E-01 -0.58207871187E-01  0.12847741464E+00  0.20388290824E-01 0.  0.
         14    1    1    2    0    0 -0.23212641361E-01 -0.39043732031E-02 -0.64176835917E-03  0.23547456671E-01  0.00000000000E+00 0.  1.
     999901    1    3    3    0    0  0.10427505226E+00  0.82208223305E-01  0.58849639546E-01  0.89190512869E+00  0.88000000000E+00 0. -1.
        -11    1    4    4    0    0 -0.58949469800E-01 -0.59794757102E-01 -0.52637135301E-01  0.99102886437E-01  0.51100000000E-03 0. -1.
         11    1    4    4    0    0 -0.22112941103E-01 -0.18509093000E-01 -0.55707358864E-02  0.29374528204E-01  0.51100000000E-03 0.  1.
</event>
<event>
 8    1  0.1094134E+005  0.1043930E+01  0.7957747E-01            NaN
         13   -1    0    0    0    0  0.00000000000E+00  0.00000000000E+00  0.74505805969E-08  0.10566000000E+00  0.10566000000E+00 0. -1.
     999900   -1    0    0    0    0 -0.00000000000E+00 -0.00000000000E+00 -0.74505805969E-08  0.93827000000E+00  0.93827000000E+00 0. -1.
     999902    2    1    2    0    0 -0.12431151268E-01 -0.19010640848E-01  0.70650931409E-02  0.10201423240E+01  0.10198649458E+01 0.  0.
     999903    2    3    3    0    0  0.12622993103E+00  0.63333336805E-02 -0.13200307039E-01  0.12869412069E+00  0.20342615136E-01 0.  0.
         14    1    1    2    0    0  0.12431151268E-01  0.19010640848E-01 -0.70650931409E-02  0.23787675976E-01  0.00000000000E+00 0. -1.
     999901    1    3    3    0    0 -0.13866108230E+00 -0.25343974528E-01  0.20265400180E-01  0.89144820334E+00  0.88000000000E+00 0.  1.
        -11    1    4    4    0    0  0.83833013690E-01  0.11910111186E-01 -0.14501599099E-01  0.85909152191E-01  0.51100000000E-03 0. -1.
         11    1    4    4    0    0  0.42396917338E-01 -0.55767775056E-02  0.13012920605E-02  0.42784968496E-01  0.51100000000E-03 0.  1.
</event>
<event>
 8    1  0.1094134E+005  0.1043930E+01  0.7957747E-01            NaN
         13   -1    0    0    0    0  0.00000000000E+00  0.00000000000E+00  0.74505805969E-08  0.10566000000E+00  0.10566000000E+00 0.  1.
     999900   -1    0    0    0    0 -0.00000000000E+00 -0.00000000000E+00 -0.74505805969E-08  0.93827000000E+00  0.93827000000E+00 0. -1.
     999902    2    1    2    0    0  0.13610980648E-01  0.14733503715E-01 -0.12446116007E-01  0.10203240531E+01  0.10200509461E+01 0.  0.
     999903    2    3    3    0    0  0.43812486149E-01  0.12291635606E+00  0.15718998222E-01  0.13273803803E+00  0.18556274019E-01 0.  0.
         14    1    1    2    0    0 -0.13610980648E-01 -0.14733503715E-01  0.12446116007E-01  0.23605946911E-01  0.00000000000E+00 0.  1.
     999901    1    3    3    0    0 -0.30201505501E-01 -0.10818285234E+00 -0.28165114228E-01  0.88758601506E+00  0.88000000000E+00 0. -1.
        -11    1    4    4    0    0  0.19360734414E-01  0.73904635657E-01  0.15530423755E-01  0.77962737200E-01  0.51100000000E-03 0. -1.
         11    1    4    4    0    0  0.24451751735E-01  0.49011720398E-01  0.18857446631E-03  0.54775300827E-01  0.51100000000E-03 0.  1.
</event>
<event>
 8    1  0.1094134E+005  0.1043930E+01  0.7957747E-01            NaN
         13   -1    0    0    0    0  0.00000000000E+00  0.00000000000E+00  0.74505805969E-08  0.10566000000E+00  0.10566000000E+00 0. -1.
     999900   -1    0    0    0    0 -0.00000000000E+00 -0.00000000000E+00 -0.74505805969E-08  0.93827000000E+00  0.93827000000E+00 0.  1.
     999902    2    1    2    0    0  0.25646961249E-02 -0.23233268293E-01 -0.24357193262E-02  0.10204290394E+01  0.10201583844E+01 0.  0.
     999903    2    3    3    0    0  0.43378656750E-01 -0.68659236343E-01  0.10240702756E+00  0.13210404280E+00  0.19195839016E-01 0.  0.
         14    1    1    2    0    0 -0.25646961249E-02  0.23233268293E-01  0.24357193262E-02  0.23500960628E-01  0.00000000000E+00 0.  1.
     999901    1    3    3    0    0 -0.40813960625E-01  0.45425968050E-01 -0.10484274688E+00  0.88832499657E+00  0.88000000000E+00 0.  1.
        -11    1    4    4    0    0  0.23579881401E-01 -0.21259608049E-01  0.33523550661E-01  0.46174357723E-01  0.51100000000E-03 0.  1.
         11    1    4    4    0    0  0.19798775349E-01 -0.47399628295E-01  0.68883476895E-01  0.85929685080E-01  0.51100000000E-03 0. -1.
</event>
<event>
 8    1  0.1094134E+005  0.1043930E+01  0.7957747E-01            NaN
         13   -1    0    0    0    0  0.00000000000E+00  0.00000000000E+00  0.74505805969E-08  0.10566000000E+00  0.10566000000E+00 0.  1.
     999900   -1    0    0    0    0 -0.00000000000E+00 -0.00000000000E+00 -0.74505805969E-08  0.93827000000E+00  0.93827000000E+00 0.  1.
     999902    2    1    2    0    0  0.18085979096E-02  0.23029690611E-01  0.31693209515E-02  0.10206130047E+01  0.10203466191E+01 0.  0.
     999903    2    3    3    0    0  0.98128259624E-01  0.41440210095E-01 -0.75299683045E-01  0.13169579308E+00  0.18091249262E-01 0.  0.
         14    1    1    2    0    0 -0.18085979096E-02 -0.23029690611E-01 -0.31693209515E-02  0.23316995333E-01  0.00000000000E+00 0.  1.
     999901    1    3    3    0    0 -0.96319661714E-01 -0.18410519483E-01  0.78469003997E-01  0.88891721158E+00  0.88000000000E+00 0. -1.
        -11    1    4    4    0    0  0.38865018902E-01  0.14946416739E-01 -0.40272566902E-01  0.57931216399E-01  0.51100000000E-03 0.  1.
         11    1    4    4    0    0  0.59263240722E-01  0.26493793356E-01 -0.35027116143E-01  0.73764576685E-01  0.51100000000E-03 0. -1.
</event>
<event>
 8    1  0.1094134E+005  0.1043930E+01  0.7957747E-01            NaN
         13   -1    0    0    0    0  0.00000000000E+00  0.00000000000E+00  0.74505805969E-08  0.10566000000E+00  0.10566000000E+00 0.  1.
     999900   -1    0    0    0    0 -0.00000000000E+00 -0.00000000000E+00 -0.74505805969E-08  0.93827000000E+00  0.93827000000E+00 0. -1.
     999902    2    1    2    0    0  0.95667068243E-02  0.25139992214E-01 -0.33653903619E-04  0.10170312599E+01  0.10166754848E+01 0.  0.
     999903    2    3    3    0    0  0.62872298489E-01 -0.43821200768E-01 -0.99315231758E-01  0.12716949311E+00  0.20864830810E-01 0.  0.
         14    1    1    2    0    0 -0.95667068243E-02 -0.25139992214E-01  0.33653903619E-04  0.26898740130E-01  0.00000000000E+00 0. -1.
     999901    1    3    3    0    0 -0.53305591665E-01  0.68961192982E-01  0.99281577854E-01  0.88986176676E+00  0.88000000000E+00 0.  1.
        -11    1    4    4    0    0  0.43278716940E-02 -0.81936415756E-03 -0.16142443525E-01  0.16740413226E-01  0.51100000000E-03 0. -1.
         11    1    4    4    0    0  0.58544426795E-01 -0.43001836610E-01 -0.83172788233E-01  0.11042907988E+00  0.51100000000E-03 0.  1.
</event>
<event>
 8    1  0.1094134E+005  0.1043930E+01  0.7957747E-01            NaN
         13   -1    0    0    0    0  0.00000000000E+00  0.00000000000E+00  0.74505805969E-08  0.10566000000E+00  0.10566000000E+00 0.  1.
     999900   -1    0    0    0    0 -0.00000000000E+00 -0.00000000000E+00 -0.74505805969E-08  0.93827000000E+00  0.93827000000E+00 0. -1.
     999902    2    1    2    0    0 -0.26853975907E-02 -0.68676320229E-02  0.21975272220E-01  0.10207505194E+01  0.10204873025E+01 0.  0.
     999903    2    3    3    0    0  0.18532499847E-01  0.29961878123E-01 -0.12169377350E+00  0.12808742135E+00  0.18863862486E-01 0.  0.
         14    1    1    2    0    0  0.26853975907E-02  0.68676320229E-02 -0.21975272220E-01  0.23179480559E-01  0.00000000000E+00 0. -1.
     999901    1    3    3    0    0 -0.21217897438E-01 -0.36829510146E-01  0.14366904572E+00  0.89266309809E+00  0.88000000000E+00 0.  1.
        -11    1    4    4    0    0  0.20557740912E-01  0.16611660688E-01 -0.78875285145E-01  0.83187377107E-01  0.51100000000E-03 0. -1.
         11    1    4    4    0    0 -0.20252410645E-02  0.13350217435E-01 -0.42818488359E-01  0.44900044246E-01  0.51100000000E-03 0.  1.
</event>
<event>
 8    1  0.1094134E+005  0.1043930E+01  0.7957747E-01            NaN
         13   -1    0    0    0    0  0.00000000000E+00  0.00000000000E+00  0.74505805969E-08  0.10566000000E+00  0.10566000000E+00 0.  1.
     999900   -1    0    0    0    0 -0.00000000000E+00 -0.00000000000E+00 -0.74505805969E-08  0.93827000000E+00  0.93827000000E+00 0. -1.
     999902    2    1    2    0    0 -0.10282068005E-01 -0.83210498618E-02  0.19760523154E-01  0.10201510373E+01  0.10198738646E+01 0.  0.
     999903    2    3    3    0    0  0.51397657093E-01  0.83513138004E-01 -0.79425020765E-01  0.12769617641E+00  0.19540116992E-01 0.  0.
         14    1    1    2    0    0  0.10282068005E-01  0.83210498618E-02 -0.19760523154E-01  0.23778962732E-01  0.00000000000E+00 0. -1.
     999901    1    3    3    0    0 -0.61679725098E-01 -0.91834187866E-01  0.99185543919E-01  0.89245486086E+00  0.88000000000E+00 0.  1.
        -11    1    4    4    0    0  0.75450055336E-02  0.10725782770E-01 -0.20300388480E-01  0.24173051482E-01  0.51100000000E-03 0. -1.
         11    1    4    4    0    0  0.43852651559E-01  0.72787355234E-01 -0.59124632285E-01  0.10352312493E+00  0.51100000000E-03 0.  1.
</event>
<event>
 8    1  0.1094134E+005  0.1043930E+01  0.7957747E-01            NaN
         13   -1    0    0    0    0  0.00000000000E+00  0.00000000000E+00  0.74505805969E-08  0.10566000000E+00  0.10566000000E+00 0.  1.
     999900   -1    0    0    0    0 -0.00000000000E+00 -0.00000000000E+00 -0.74505805969E-08  0.93827000000E+00  0.93827000000E+00 0.  1.
     999902    2    1    2    0    0 -0.40341892190E-03  0.15100790627E-01  0.18281302147E-01  0.10202149703E+01  0.10199393036E+01 0.  0.
     999903    2    3    3    0    0 -0.61978994191E-01  0.79926009313E-02  0.11533795442E+00  0.13271169057E+00  0.20106508707E-01 0.  0.
         14    1    1    2    0    0  0.40341892190E-03 -0.15100790627E-01 -0.18281302147E-01  0.23715029677E-01  0.00000000000E+00 0. -1.
     999901    1    3    3    0    0  0.61575575269E-01  0.71081896957E-02 -0.97056652273E-01  0.88750327976E+00  0.88000000000E+00 0.  1.
        -11    1    4    4    0    0 -0.35229682330E-01  0.10545594982E-01  0.82146798444E-01  0.90003876062E-01  0.51100000000E-03 0.  1.
         11    1    4    4    0    0 -0.26749311860E-01 -0.25529940504E-02  0.33191155977E-01  0.42707814504E-01  0.51100000000E-03 0. -1.
</event>
<event>
 8    1  0.1094134E+005  0.1043930E+01  0.7957747E-01            NaN
         13   -1    0    0    0    0  0.00000000000E+00  0.00000000000E+00  0.74505805969E-08  0.10566000000E+00  0.10566000000E+00 0.  1.
     999900   -1    0    0    0    0 -0.00000000000E+00 -0.00000000000E+00 -0.74505805969E-08  0.93827000000E+00  0.93827000000E+00 0.  1.
     999902    2    1    2    0    0 -0.68913293266E-02 -0.12644174468E-01 -0.18711225273E-01  0.10203190805E+01  0.10200458571E+01 0.  0.
     999903    2    3    3    0    0 -0.24736212932E-01 -0.24214314677E-01  0.12255046395E+00  0.12879949416E+00  0.19299746485E-01 0.  0.
         14    1    1    2    0    0  0.68913293266E-02  0.12644174468E-01  0.18711225273E-01  0.23610919488E-01  0.00000000000E+00 0. -1.
     999901    1    3    3    0    0  0.17844883606E-01  0.11570140209E-01 -0.14126168922E+00  0.89151958636E+00  0.88000000000E+00 0.  1.
        -11    1    4    4    0    0 -0.12310872672E-01 -0.22913094668E-01  0.67337642227E-01  0.72188549472E-01  0.51100000000E-03 0.  1.
         11    1    4    4    0    0 -0.12425340260E-01 -0.13012200087E-02  0.55212821725E-01  0.56610944683E-01  0.51100000000E-03 0. -1.
</event>
<event>
 8    1  0.1094134E+005  0.1043930E+01  0.7957747E-01            NaN
         13   -1    0    0    0    0  0.00000000000E+00  0.00000000000E+00  0.74505805969E-08  0.10566000000E+00  0.10566000000E+00 0.  1.
     999900   -1    0    0    0    0 -0.00000000000E+00 -0.00000000000E+00 -0.74505805969E-08  0.93827000000E+00  0.93827000000E+00 0. -1.
     999902    2    1    2    0    0  0.63937339358E-02 -0.88605180652E-02 -0.19961086565E-01  0.10211740427E+01  0.10209204631E+01 0.  0.
     999903    2    3    3    0    0 -0.58880888770E-01 -0.29607907338E-01 -0.11434633192E+00  0.13348051169E+00  0.19959362142E-01 0.  0.
         14    1    1    2    0    0 -0.63937339358E-02  0.88605180652E-02  0.19961086565E-01  0.22755957262E-01  0.00000000000E+00 0.  1.
     999901    1    3    3    0    0  0.65274622706E-01  0.20747389273E-01  0.94385245355E-01  0.88769353105E+00  0.88000000000E+00 0.  1.
        -11    1    4    4    0    0 -0.10481495721E-01 -0.13063104296E-01 -0.38603169732E-01  0.42082921485E-01  0.51100000000E-03 0.  1.
         11    1    4    4    0    0 -0.48399393050E-01 -0.16544803042E-01 -0.75743162189E-01  0.91397590201E-01  0.51100000000E-03 0. -1.
</event>
<event>
 7    1  0.1094134E+005  0.1043930E+01  0.7957747E-01            NaN
         13   -1    0    0    0    0  0.00000000000E+00  0.00000000000E+00  0.74505805969E-08  0.10566000000E+00  0.10566000000E+00 0. -1.
     999900   -1    0    0    0    0 -0.00000000000E+00 -0.00000000000E+00 -0.74505805969E-08  0.93827000000E+00  0.93827000000E+00 0. -1.
     999903    2    1    2    0    0  0.13408629789E-01  0.10864059919E+00  0.41781126218E-02  0.11093692801E+00  0.17520679975E-01 0.  0.
         14    1    1    2    0    0  0.34835169223E-01  0.23297285163E-02  0.27047238699E-01  0.44164123121E-01  0.00000000000E+00 0.  1.
     999901    1    1    2    0    0 -0.48243799013E-01 -0.11097032771E+00 -0.31225351321E-01  0.88882894886E+00  0.88000000000E+00 0. -1.
        -11    1    3    3    0    0  0.98852627831E-02  0.25177101495E-01 -0.22759503274E-02  0.27148589851E-01  0.51100000000E-03 0.  1.
         11    1    3    3    0    0  0.35233670061E-02  0.83463497696E-01  0.64540629492E-02  0.83788338164E-01  0.51100000000E-03 0. -1.
</event>
<event>
 8    1  0.1094134E+005  0.1043930E+01  0.7957747E-01            NaN
         13   -1    0    0    0    0  0.00000000000E+00  0.00000000000E+00  0.74505805969E-08  0.10566000000E+00  0.10566000000E+00 0.  1.
     999900   -1    0    0    0    0 -0.00000000000E+00 -0.00000000000E+00 -0.74505805969E-08  0.93827000000E+00  0.93827000000E+00 0.  1.
     999902    2    1    2    0    0 -0.24236562391E-03 -0.90900739853E-02  0.21101441882E-01  0.10209526408E+01  0.10206940461E+01 0.  0.
     999903    2    3    3    0    0  0.12888081433E+00  0.11392316142E-01  0.26301500872E-03  0.13105008213E+00  0.20832802947E-01 0.  0.
         14    1    1    2    0    0  0.24236562391E-03  0.90900739853E-02 -0.21101441882E-01  0.22977359196E-01  0.00000000000E+00 0. -1.
     999901    1    3    3    0    0 -0.12912317995E+00 -0.20482390127E-01  0.20838426873E-01  0.88990255868E+00  0.88000000000E+00 0.  1.
        -11    1    4    4    0    0  0.47131916012E-01 -0.26656727304E-02  0.74280532697E-02  0.47790798429E-01  0.51100000000E-03 0.  1.
         11    1    4    4    0    0  0.81748898319E-01  0.14057988872E-01 -0.71650382610E-02  0.83259283697E-01  0.51100000000E-03 0. -1.
</event>
<event>
 8    1  0.1094134E+005  0.1043930E+01  0.7957747E-01            NaN
         13   -1    0    0    0    0  0.00000000000E+00  0.00000000000E+00  0.74505805969E-08  0.10566000000E+00  0.10566000000E+00 0. -1.
     999900   -1    0    0    0    0 -0.00000000000E+00 -0.00000000000E+00 -0.74505805969E-08  0.93827000000E+00  0.93827000000E+00 0.  1.
     999902    2    1    2    0    0 -0.90489969888E-02  0.15087197216E-01  0.15570946528E-01  0.10204361233E+01  0.10201656334E+01 0.  0.
     999903    2    3    3    0    0  0.81504201066E-01  0.84722728815E-01  0.56699693025E-01  0.13210028438E+00  0.20365519237E-01 0.  0.
         14    1    1    2    0    0  0.90489969888E-02 -0.15087197216E-01 -0.15570946528E-01  0.23493876694E-01  0.00000000000E+00 0. -1.
     999901    1    3    3    0    0 -0.90553198054E-01 -0.69635531599E-01 -0.41128746496E-01  0.88833583893E+00  0.88000000000E+00 0.  1.
        -11    1    4    4    0    0  0.56351908196E-01  0.50358759791E-01  0.44897468835E-01  0.87906689585E-01  0.51100000000E-03 0.  1.
         11    1    4    4    0    0  0.25152292870E-01  0.34363969025E-01  0.11802224190E-01  0.44193594791E-01  0.51100000000E-03 0. -1.
</event>
<event>
 8    1  0.1094134E+005  0.1043930E+01  0.7957747E-01            NaN
         13   -1    0    0    0    0  0.00000000000E+00  0.00000000000E+00  0.74505805969E-08  0.10566000000E+00  0.10566000000E+00 0. -1.
     999900   -1    0    0    0    0 -0.00000000000E+00 -0.00000000000E+00 -0.74505805969E-08  0.93827000000E+00  0.93827000000E+00 0. -1.
     999902    2    1    2    0    0 -0.21831665172E-01 -0.43057422736E-02 -0.82255877029E-02  0.10202061446E+01  0.10199302703E+01 0.  0.
     999903    2    3    3    0    0 -0.11709168127E+00  0.11486490592E-02  0.58531085159E-01  0.13253465448E+00  0.20682492389E-01 0.  0.
         14    1    1    2    0    0  0.21831665172E-01  0.43057422736E-02  0.82255877029E-02  0.23723855373E-01  0.00000000000E+00 0. -1.
     999901    1    3    3    0    0  0.95260016094E-01 -0.54543913328E-02 -0.66756672862E-01  0.88767149015E+00  0.88000000000E+00 0. -1.
        -11    1    4    4    0    0 -0.48355580924E-01 -0.96981977132E-02  0.24193855066E-01  0.54935607663E-01  0.51100000000E-03 0.  1.
         11    1    4    4    0    0 -0.68736100342E-01  0.10846846772E-01  0.34337230093E-01  0.77599046815E-01  0.51100000000E-03 0. -1.
</event>
<event>
 8    1  0.1094134E+005  0.1043930E+01  0.7957747E-01            NaN
         13   -1    0    0    0    0  0.00000000000E+00  0.00000000000E+00  0.74505805969E-08  0.10566000000E+00  0.10566000000E+00 0. -1.
     999900   -1    0    0    0    0 -0.00000000000E+00 -0.00000000000E+00 -0.74505805969E-08  0.93827000000E+00  0.93827000000E+00 0. -1.
     999902    2    1    2    0    0  0.17603941348E-01 -0.12890691628E-01 -0.10233792088E-01  0.10198302244E+01  0.10195454318E+01 0.  0.
     999903    2    3    3    0    0  0.18952842629E-01 -0.12707805030E+00 -0.25156007957E-01  0.13232628363E+00  0.19219247943E-01 0.  0.
         14    1    1    2    0    0 -0.17603941348E-01  0.12890691628E-01  0.10233792088E-01  0.24099775562E-01  0.00000000000E+00 0. -1.
     999901    1    3    3    0    0 -0.13489012811E-02  0.11418735868E+00  0.14922215869E-01  0.88750394080E+00  0.88000000000E+00 0. -1.
        -11    1    4    4    0    0 -0.11981331695E-02 -0.38895800045E-01 -0.20834972157E-02  0.38973335319E-01  0.51100000000E-03 0. -1.
         11    1    4    4    0    0  0.20150975799E-01 -0.88182250259E-01 -0.23072510741E-01  0.93352948316E-01  0.51100000000E-03 0.  1.
</event>
<event>
 8    1  0.1094134E+005  0.1043930E+01  0.7957747E-01            NaN
         13   -1    0    0    0    0  0.00000000000E+00  0.00000000000E+00  0.74505805969E-08  0.10566000000E+00  0.10566000000E+00 0. -1.
     999900   -1    0    0    0    0 -0.00000000000E+00 -0.00000000000E+00 -0.74505805969E-08  0.93827000000E+00  0.93827000000E+00 0. -1.
     999902    2    1    2    0    0 -0.18899439172E-01  0.12153511889E-01 -0.75599147190E-02  0.10202224282E+01  0.10199469368E+01 0.  0.
     999903    2    3    3    0    0  0.58980937083E-01  0.11498474489E+00 -0.17913819693E-02  0.13079964260E+00  0.20126970917E-01 0.  0.
         14    1    1    2    0    0  0.18899439172E-01 -0.12153511889E-01  0.75599147190E-02  0.23707571846E-01  0.00000000000E+00 0. -1.
     999901    1    3    3    0    0 -0.77880376255E-01 -0.10283123301E+00 -0.57685327497E-02  0.88942278555E+00  0.88000000000E+00 0. -1.
        -11    1    4    4    0    0  0.38379442096E-01  0.67967406831E-01  0.82508884995E-02  0.78491325948E-01  0.51100000000E-03 0.  1.
         11    1    4    4    0    0  0.20601494987E-01  0.47017338063E-01 -0.10042270469E-01  0.52308316656E-01  0.51100000000E-03 0. -1.
</event>
<event>
 8    1  0.1094134E+005  0.1043930E+01  0.7957747E-01            NaN
         13   -1    0    0    0    0  0.00000000000E+00  0.00000000000E+00  0.74505805969E-08  0.10566000000E+00  0.10566000000E+00 0.  1.
     999900   -1    0    0    0    0 -0.00000000000E+00 -0.00000000000E+00 -0.74505805969E-08  0.93827000000E+00  0.93827000000E+00 0. -1.
     999902    2    1    2    0    0  0.21836480653E-02 -0.17554140688E-01 -0.16694554576E-01  0.10196066711E+01  0.10193165061E+01 0.  0.
     999903    2    3    3    0    0  0.76100834510E-01  0.75455324786E-01  0.66656608307E-01  0.12771994769E+00  0.19607104709E-01 0.  0.
         14    1    1    2    0    0 -0.21836480653E-02  0.17554140688E-01  0.16694554576E-01  0.24323328857E-01  0.00000000000E+00 0. -1.
     999901    1    3    3    0    0 -0.73917186445E-01 -0.93009465474E-01 -0.83351162883E-01  0.89188672345E+00  0.88000000000E+00 0. -1.
        -11    1    4    4    0    0  0.65280271114E-01  0.59070409674E-01  0.46460233846E-01  0.99547182510E-01  0.51100000000E-03 0. -1.
         11    1    4    4    0    0  0.10820563396E-01  0.16384915112E-01  0.20196374461E-01  0.28172765179E-01  0.51100000000E-03 0.  1.
</event>
<event>
 8    1  0.1094134E+005  0.1043930E+01  0.7957747E-01            NaN
         13   -1    0    0    0    0  0.00000000000E+00  0.00000000000E+00  0.74505805969E-08  0.10566000000E+00  0.10566000000E+00 0. -1.
     999900   -1    0    0    0    0 -0.00000000000E+00 -0.00000000000E+00 -0.74505805969E-08  0.93827000000E+00  0.93827000000E+00 0. -1.
     999902    2    1    2    0    0 -0.17307863572E-01 -0.28022586209E-02  0.16548795738E-01  0.10198203041E+01  0.10195352742E+01 0.  0.
     999903    2    3    3    0    0  0.10405726762E+00  0.57722493211E-01  0.45547290830E-01  0.12895911776E+00  0.19902190444E-01 0.  0.
         14    1    1    2    0    0  0.17307863572E-01  0.28022586209E-02 -0.16548795738E-01  0.24109695875E-01  0.00000000000E+00 0. -1.
     999901    1    3    3    0    0 -0.12136513119E+00 -0.60524751832E-01 -0.28998495092E-01  0.89086118636E+00  0.88000000000E+00 0. -1.
        -11    1    4    4    0    0  0.51242387782E-01  0.26592847921E-01  0.32586788726E-01  0.66295714693E-01  0.51100000000E-03 0. -1.
         11    1    4    4    0    0  0.52814879838E-01  0.31129645290E-01  0.12960502104E-01  0.62663403067E-01  0.51100000000E-03 0.  1.
</event>
<event>
 8    1  0.1094134E+005  0.1043930E+01  0.7957747E-01            NaN
         13   -1    0    0    0    0  0.00000000000E+00  0.00000000000E+00  0.74505805969E-08  0.10566000000E+00  0.10566000000E+00 0. -1.
     999900   -1    0    0    0    0 -0.00000000000E+00 -0.00000000000E+00 -0.74505805969E-08  0.93827000000E+00  0.93827000000E+00 0.  1.
     999902    2    1    2    0    0  0.93686703480E-02 -0.77724009585E-02  0.20056470615E-01  0.10204684524E+01  0.10201987151E+01 0.  0.
     999903    2    3    3    0    0  0.88125956892E-01  0.83198007435E-01  0.47692635974E-01  0.13185037754E+00  0.20538787997E-01 0.  0.
         14    1    1    2    0    0 -0.93686703480E-02  0.77724009585E-02 -0.20056470615E-01  0.23461547568E-01  0.00000000000E+00 0.  1.
     999901    1    3    3    0    0 -0.78757286544E-01 -0.90970408393E-01 -0.27636165358E-01  0.88861807489E+00  0.88000000000E+00 0. -1.
        -11    1    4    4    0    0  0.66709278567E-01  0.71592254886E-01  0.43660607280E-01  0.10715450786E+00  0.51100000000E-03 0. -1.
         11    1    4    4    0    0  0.21416678325E-01  0.11605752548E-01  0.40320286933E-02  0.24695869676E-01  0.51100000000E-03 0.  1.
</event>
<event>
 8    1  0.1094134E+005  0.1043930E+01  0.7957747E-01            NaN
         13   -1    0    0    0    0  0.00000000000E+00  0.00000000000E+00  0.74505805969E-08  0.10566000000E+00  0.10566000000E+00 0.  1.
     999900   -1    0    0    0    0 -0.00000000000E+00 -0.00000000000E+00 -0.74505805969E-08  0.93827000000E+00  0.93827000000E+00 0.  1.
     999902    2    1    2    0    0 -0.49905021490E-02 -0.18178111959E-01 -0.15206602237E-01  0.10197103877E+01  0.10194227216E+01 0.  0.
     999903    2    3    3    0    0  0.52177631401E-01 -0.33464438971E-02 -0.11911950678E+00  0.13163039946E+00  0.20084851507E-01 0.  0.
         14    1    1    2    0    0  0.49905021490E-02  0.18178111959E-01  0.15206602237E-01  0.24219612253E-01  0.00000000000E+00 0.  1.
     999901    1    3    3    0    0 -0.57168133550E-01 -0.14831668062E-01  0.10391290454E+00  0.88807998829E+00  0.88000000000E+00 0.  1.
        -11    1    4    4    0    0  0.41489531231E-01 -0.10636113479E-01 -0.86191394625E-01  0.96248250582E-01  0.51100000000E-03 0.  1.
         11    1    4    4    0    0  0.10688100170E-01  0.72896695815E-02 -0.32928112155E-01  0.35382148874E-01  0.51100000000E-03 0. -1.
</event>
<event>
 8    1  0.1094134E+005  0.1043930E+01  0.7957747E-01            NaN
         13   -1    0    0    0    0  0.00000000000E+00  0.00000000000E+00  0.74505805969E-08  0.10566000000E+00  0.10566000000E+00 0.  1.
     999900   -1    0    0    0    0 -0.00000000000E+00 -0.00000000000E+00 -0.74505805969E-08  0.93827000000E+00  0.93827000000E+00 0.  1.
     999902    2    1    2    0    0  0.62304332242E-02  0.22218253836E-01 -0.52447927700E-02  0.10202661678E+01  0.10199917040E+01 0.  0.
     999903    2    3    3    0    0 -0.10754442733E+00  0.59767985644E-01  0.40463710602E-01  0.13097208344E+00  0.19451447413E-01 0.  0.
         14    1    1    2    0    0 -0.62304332242E-02 -0.22218253836E-01  0.52447927700E-02  0.23663832168E-01  0.00000000000E+00 0.  1.
     999901    1    3    3    0    0  0.11377486056E+00 -0.37549731808E-01 -0.45708503372E-01  0.88929408439E+00  0.88000000000E+00 0. -1.
        -11    1    4    4    0    0 -0.54556515354E-01  0.23923216924E-01  0.11180679585E-01  0.60613549579E-01  0.51100000000E-03 0.  1.
         11    1    4    4    0    0 -0.52987911980E-01  0.35844768720E-01  0.29283031016E-01  0.70358533861E-01  0.51100000000E-03 0. -1.
</event>
<event>
 8    1  0.1094134E+005  0.1043930E+01  0.7957747E-01            NaN
         13   -1    0    0    0    0  0.00000000000E+00  0.00000000000E+00  0.74505805969E-08  0.10566000000E+00  0.10566000000E+00 0. -1.
     999900   -1    0    0    0    0 -0.00000000000E+00 -0.00000000000E+00 -0.74505805969E-08  0.93827000000E+00  0.93827000000E+00 0. -1.
     999902    2    1    2    0    0  0.17996230534E-01 -0.13802166649E-01 -0.65979584456E-02  0.10203101530E+01  0.10200367205E+01 0.  0.
     999903    2    3    3    0    0  0.10855010694E+00 -0.25718009472E-01  0.68424901567E-01  0.13240789408E+00  0.20133095426E-01 0.  0.
         14    1    1    2    0    0 -0.17996230534E-01  0.13802166649E-01  0.65979584456E-02  0.23619847021E-01  0.00000000000E+00 0. -1.
     999901    1    3    3    0    0 -0.90553876404E-01  0.11915842823E-01 -0.75022860012E-01  0.88790225890E+00  0.88000000000E+00 0.  1.
        -11    1    4    4    0    0  0.22509837009E-01 -0.13972494143E-01  0.14983553160E-01  0.30441605428E-01  0.51100000000E-03 0. -1.
         11    1    4    4    0    0  0.86040269929E-01 -0.11745515329E-01  0.53441348407E-01  0.10196628865E+00  0.51100000000E-03 0.  1.
</event>
<event>
 8    1  0.1094134E+005  0.1043930E+01  0.7957747E-01            NaN
         13   -1    0    0    0    0  0.00000000000E+00  0.00000000000E+00  0.74505805969E-08  0.10566000000E+00  0.10566000000E+00 0.  1.
     999900   -1    0    0    0    0 -0.00000000000E+00 -0.00000000000E+00 -0.74505805969E-08  0.93827000000E+00  0.93827000000E+00 0. -1.
     999902    2    1    2    0    0 -0.10028515585E-01  0.53578142755E-02 -0.21354588619E-01  0.10197371136E+01  0.10194500895E+01 0.  0.
     999903    2    3    3    0    0  0.12055492211E+00 -0.72320000355E-02 -0.36437941543E-01  0.12988429138E+00  0.30925951789E-01 0.  0.
         14    1    1    2    0    0  0.10028515585E-01 -0.53578142755E-02  0.21354588619E-01  0.24192886429E-01  0.00000000000E+00 0.  1.
     999901    1    3    3    0    0 -0.13058343770E+00  0.12589814311E-01  0.15083352924E-01  0.88985282219E+00  0.88000000000E+00 0.  1.
        -11    1    4    4    0    0  0.98690770662E-01  0.59700666359E-02 -0.25589524405E-01  0.10213028341E+00  0.51100000000E-03 0. -1.
         11    1    4    4    0    0  0.21864151449E-01 -0.13202066671E-01 -0.10848417138E-01  0.27754007970E-01  0.51100000000E-03 0.  1.
</event>
<event>
 8    1  0.1094134E+005  0.1043930E+01  0.7957747E-01            NaN
         13   -1    0    0    0    0  0.00000000000E+00  0.00000000000E+00  0.74505805969E-08  0.10566000000E+00  0.10566000000E+00 0.  1.
     999900   -1    0    0    0    0 -0.00000000000E+00 -0.00000000000E+00 -0.74505805969E-08  0.93827000000E+00  0.93827000000E+00 0. -1.
     999902    2    1    2    0    0 -0.19348889436E-01 -0.35948747944E-02  0.17134842761E-01  0.10178358343E+01  0.10175012924E+01 0.  0.
     999903    2    3    3    0    0 -0.67824643424E-01 -0.17898727702E-01 -0.10510594314E+00  0.12794971312E+00  0.20082905553E-01 0.  0.
         14    1    1    2    0    0  0.19348889436E-01  0.35948747944E-02 -0.17134842761E-01  0.26094165701E-01  0.00000000000E+00 0. -1.
     999901    1    3    3    0    0  0.48475753988E-01  0.14303852908E-01  0.12224078590E+00  0.88988612118E+00  0.88000000000E+00 0.  1.
        -11    1    4    4    0    0 -0.47684604890E-01 -0.71434500130E-02 -0.83982183847E-01  0.96840687453E-01  0.51100000000E-03 0.  1.
         11    1    4    4    0    0 -0.20140038534E-01 -0.10755277690E-01 -0.21123759290E-01  0.31109025666E-01  0.51100000000E-03 0. -1.
</event>
<event>
 8    1  0.1094134E+005  0.1043930E+01  0.7957747E-01            NaN
         13   -1    0    0    0    0  0.00000000000E+00  0.00000000000E+00  0.74505805969E-08  0.10566000000E+00  0.10566000000E+00 0. -1.
     999900   -1    0    0    0    0 -0.00000000000E+00 -0.00000000000E+00 -0.74505805969E-08  0.93827000000E+00  0.93827000000E+00 0. -1.
     999902    2    1    2    0    0 -0.13541733942E-01 -0.27090059847E-02  0.20035335736E-01  0.10195962385E+01  0.10193058214E+01 0.  0.
     999903    2    3    3    0    0 -0.35999875499E-01  0.99765156437E-01  0.75374881193E-01  0.13163915203E+00  0.19960364670E-01 0.  0.
         14    1    1    2    0    0  0.13541733942E-01  0.27090059847E-02 -0.20035335736E-01  0.24333761518E-01  0.00000000000E+00 0.  1.
     999901    1    3    3    0    0  0.22458141558E-01 -0.10247416242E+00 -0.55339545457E-01  0.88795708645E+00  0.88000000000E+00 0. -1.
        -11    1    4    4    0    0 -0.20253695783E-01  0.51443434349E-01  0.27229198172E-01  0.61630588871E-01  0.51100000000E-03 0. -1.
         11    1    4    4    0    0 -0.15746179716E-01  0.48321722088E-01  0.48145683020E-01  0.70008563160E-01  0.51100000000E-03 0.  1.
</event>
<event>
 8    1  0.1094134E+005  0.1043930E+01  0.7957747E-01            NaN
         13   -1    0    0    0    0  0.00000000000E+00  0.00000000000E+00  0.74505805969E-08  0.10566000000E+00  0.10566000000E+00 0. -1.
     999900   -1    0    0    0    0 -0.00000000000E+00 -0.00000000000E+00 -0.74505805969E-08  0.93827000000E+00  0.93827000000E+00 0.  1.
     999902    2    1    2    0    0  0.45491111641E-02  0.19558611006E-01 -0.11876087395E-01  0.10206002951E+01  0.10203336157E+01 0.  0.
     999903    2    3    3    0    0  0.10097613566E-01  0.11800871268E+00 -0.58969793600E-01  0.13384157623E+00  0.20201804426E-01 0.  0.
         14    1    1    2    0    0 -0.45491111641E-02 -0.19558611006E-01  0.11876087395E-01  0.23329704857E-01  0.00000000000E+00 0. -1.
     999901    1    3    3    0    0 -0.55485024016E-02 -0.98450101678E-01  0.47093706205E-01  0.88675871891E+00  0.88000000000E+00 0. -1.
        -11    1    4    4    0    0  0.88861582107E-02  0.73124073116E-01 -0.25937880689E-01  0.78096918329E-01  0.51100000000E-03 0. -1.
         11    1    4    4    0    0  0.12114553549E-02  0.44884639569E-01 -0.33031912911E-01  0.55744657904E-01  0.51100000000E-03 0.  1.
</event>
<event>
 8    1  0.1094134E+005  0.1043930E+01  0.7957747E-01            NaN
         13   -1    0    0    0    0  0.00000000000E+00  0.00000000000E+00  0.74505805969E-08  0.10566000000E+00  0.10566000000E+00 0.  1.
     999900   -1    0    0    0    0 -0.00000000000E+00 -0.00000000000E+00 -0.74505805969E-08  0.93827000000E+00  0.93827000000E+00 0.  1.
     999902    2    1    2    0    0 -0.49510408778E-02  0.32605789554E-02  0.23191935067E-01  0.10199923720E+01  0.10197114440E+01 0.  0.
     999903    2    3    3    0    0 -0.59052895345E-01  0.47709836709E-01  0.10683463836E+00  0.13325743475E+00  0.24092135540E-01 0.  0.
         14    1    1    2    0    0  0.49510408778E-02 -0.32605789554E-02 -0.23191935067E-01  0.23937627974E-01  0.00000000000E+00 0. -1.
     999901    1    3    3    0    0  0.54101854467E-01 -0.44449257754E-01 -0.83642703294E-01  0.88673493728E+00  0.88000000000E+00 0.  1.
        -11    1    4    4    0    0 -0.23463940900E-01  0.84271358331E-02  0.22168003027E-01  0.33365470476E-01  0.51100000000E-03 0. -1.
         11    1    4    4    0    0 -0.35588954446E-01  0.39282700876E-01  0.84666635334E-01  0.99891964273E-01  0.51100000000E-03 0.  1.
</event>
<event>
 8    1  0.1094134E+005  0.1043930E+01  0.7957747E-01            NaN
         13   -1    0    0    0    0  0.00000000000E+00  0.00000000000E+00  0.74505805969E-08  0.10566000000E+00  0.10566000000E+00 0. -1.
     999900   -1    0    0    0    0 -0.00000000000E+00 -0.00000000000E+00 -0.74505805969E-08  0.93827000000E+00  0.93827000000E+00 0. -1.
     999902    2    1    2    0    0  0.24072972358E-02  0.11883481313E-01 -0.20194213124E-01  0.10203754155E+01  0.10201035095E+01 0.  0.
     999903    2    3    3    0    0  0.68398376593E-02  0.25548182379E-01  0.12413370912E+00  0.12850271122E+00  0.20106617049E-01 0.  0.
         14    1    1    2    0    0 -0.24072972358E-02 -0.11883481313E-01  0.20194213124E-01  0.23554584518E-01  0.00000000000E+00 0. -1.
     999901    1    3    3    0    0 -0.44325404235E-02 -0.13664701066E-01 -0.14432792224E+00  0.89187270426E+00  0.88000000000E+00 0. -1.
        -11    1    4    4    0    0  0.53037126145E-02 -0.61830021139E-03  0.95036728385E-02  0.10912954736E-01  0.51100000000E-03 0.  1.
         11    1    4    4    0    0  0.15361250448E-02  0.26166482590E-01  0.11463003628E+00  0.11758975648E+00  0.51100000000E-03 0. -1.
</event>
<event>
 8    1  0.1094134E+005  0.1043930E+01  0.7957747E-01            NaN
         13   -1    0    0    0    0  0.00000000000E+00  0.00000000000E+00  0.74505805969E-08  0.10566000000E+00  0.10566000000E+00 0. -1.
     999900   -1    0    0    0    0 -0.00000000000E+00 -0.00000000000E+00 -0.74505805969E-08  0.93827000000E+00  0.93827000000E+00 0.  1.
     999902    2    1    2    0    0 -0.22335870499E-01 -0.59835654316E-02 -0.37733221772E-02  0.10205006994E+01  0.10202317116E+01 0.  0.
     999903    2    3    3    0    0  0.60565505002E-01 -0.10318743479E+00  0.44873418256E-01  0.12994596463E+00  0.23590315004E-01 0.  0.
         14    1    1    2    0    0  0.22335870499E-01  0.59835654316E-02  0.37733221772E-02  0.23429300597E-01  0.00000000000E+00 0.  1.
     999901    1    3    3    0    0 -0.82901375501E-01  0.97203869358E-01 -0.48646740433E-01  0.89055473478E+00  0.88000000000E+00 0. -1.
        -11    1    4    4    0    0  0.13044531307E-01 -0.17638177449E-01  0.18210445378E-01  0.28515724480E-01  0.51100000000E-03 0.  1.
         11    1    4    4    0    0  0.47520973695E-01 -0.85549257341E-01  0.26662972878E-01  0.10143024015E+00  0.51100000000E-03 0. -1.
</event>
<event>
 8    1  0.1094134E+005  0.1043930E+01  0.7957747E-01            NaN
         13   -1    0    0    0    0  0.00000000000E+00  0.00000000000E+00  0.74505805969E-08  0.10566000000E+00  0.10566000000E+00 0. -1.
     999900   -1    0    0    0    0 -0.00000000000E+00 -0.00000000000E+00 -0.74505805969E-08  0.93827000000E+00  0.93827000000E+00 0.  1.
     999902    2    1    2    0    0 -0.14584711637E-01  0.72740474510E-02 -0.17518456832E-01  0.10200025699E+01  0.10197218840E+01 0.  0.
     999903    2    3    3    0    0 -0.46404569439E-01 -0.11889181219E+00 -0.17521750225E-01  0.13043507530E+00  0.20436488667E-01 0.  0.
         14    1    1    2    0    0  0.14584711637E-01 -0.72740474510E-02  0.17518456832E-01  0.23927430067E-01  0.00000000000E+00 0. -1.
     999901    1    3    3    0    0  0.31819857802E-01  0.12616585964E+00  0.32933927703E-05  0.88956749463E+00  0.88000000000E+00 0. -1.
        -11    1    4    4    0    0 -0.29367380719E-01 -0.51674000541E-01 -0.13628303868E-01  0.60980629461E-01  0.51100000000E-03 0. -1.
         11    1    4    4    0    0 -0.17037188721E-01 -0.67217811645E-01 -0.38934463564E-02  0.69454445843E-01  0.51100000000E-03 0.  1.
</event>
<event>
 8    1  0.1094134E+005  0.1043930E+01  0.7957747E-01            NaN
         13   -1    0    0    0    0  0.00000000000E+00  0.00000000000E+00  0.74505805969E-08  0.10566000000E+00  0.10566000000E+00 0.  1.
     999900   -1    0    0    0    0 -0.00000000000E+00 -0.00000000000E+00 -0.74505805969E-08  0.93827000000E+00  0.93827000000E+00 0. -1.
     999902    2    1    2    0    0 -0.16417507806E-01  0.15629729009E-01  0.41824834527E-02  0.10208797037E+01  0.10206194459E+01 0.  0.
     999903    2    3    3    0    0 -0.28032999241E-01  0.12900252772E+00  0.28735292004E-02  0.13352970258E+00  0.19860088055E-01 0.  0.
         14    1    1    2    0    0  0.16417507806E-01 -0.15629729009E-01 -0.41824834527E-02  0.23050296295E-01  0.00000000000E+00 0.  1.
     999901    1    3    3    0    0  0.11615491435E-01 -0.11337279871E+00  0.13089542523E-02  0.88735000112E+00  0.88000000000E+00 0.  1.
        -11    1    4    4    0    0 -0.47133254006E-02  0.61388630333E-01  0.65005083658E-02  0.61913626130E-01  0.51100000000E-03 0.  1.
         11    1    4    4    0    0 -0.23319673840E-01  0.67613897386E-01 -0.36269791654E-02  0.71616076454E-01  0.51100000000E-03 0. -1.
</event>
<event>
 8    1  0.1094134E+005  0.1043930E+01  0.7957747E-01            NaN
         13   -1    0    0    0    0  0.00000000000E+00  0.00000000000E+00  0.74505805969E-08  0.10566000000E+00  0.10566000000E+00 0.  1.
     999900   -1    0    0    0    0 -0.00000000000E+00 -0.00000000000E+00 -0.74505805969E-08  0.93827000000E+00  0.93827000000E+00 0. -1.
     999902    2    1    2    0    0  0.19675285248E-01 -0.31151875475E-03 -0.14545340546E-01  0.10194600015E+01  0.10191662837E+01 0.  0.
     999903    2    3    3    0    0  0.15717854575E-01 -0.12539959514E+00 -0.25818646468E-01  0.13053380913E+00  0.20009083071E-01 0.  0.
         14    1    1    2    0    0 -0.19675285248E-01  0.31151875475E-03  0.14545340546E-01  0.24469998470E-01  0.00000000000E+00 0.  1.
     999901    1    3    3    0    0  0.39574306724E-02  0.12508807639E+00  0.11273305922E-01  0.88892619240E+00  0.88000000000E+00 0. -1.
        -11    1    4    4    0    0  0.12530197109E-01 -0.35633493608E-01 -0.12111078844E-01  0.39669775120E-01  0.51100000000E-03 0. -1.
         11    1    4    4    0    0  0.31876574661E-02 -0.89766101535E-01 -0.13707567625E-01  0.90864034008E-01  0.51100000000E-03 0.  1.
</event>
<event>
 8    1  0.1094134E+005  0.1043930E+01  0.7957747E-01            NaN
         13   -1    0    0    0    0  0.00000000000E+00  0.00000000000E+00  0.74505805969E-08  0.10566000000E+00  0.10566000000E+00 0.  1.
     999900   -1    0    0    0    0 -0.00000000000E+00 -0.00000000000E+00 -0.74505805969E-08  0.93827000000E+00  0.93827000000E+00 0.  1.
     999902    2    1    2    0    0  0.26521975925E-01 -0.14670872417E-01 -0.10126814576E-02  0.10136038524E+01  0.10131500848E+01 0.  0.
     999903    2    3    3    0    0 -0.10487924021E+00 -0.52144140089E-01 -0.30120314432E-01  0.12258321308E+00  0.20018601731E-01 0.  0.
         14    1    1    2    0    0 -0.26521975925E-01  0.14670872417E-01  0.10126814576E-02  0.30326147599E-01  0.00000000000E+00 0. -1.
     999901    1    3    3    0    0  0.13140121614E+00  0.37473267672E-01  0.29107632974E-01  0.89102063932E+00  0.88000000000E+00 0. -1.
        -11    1    4    4    0    0 -0.38295416759E-01 -0.15068179807E-01 -0.15300853130E-02  0.41184842715E-01  0.51100000000E-03 0. -1.
         11    1    4    4    0    0 -0.66583823453E-01 -0.37075960283E-01 -0.28590229119E-01  0.81398370368E-01  0.51100000000E-03 0.  1.
</event>
<event>
 8    1  0.1094134E+005  0.1043930E+01  0.7957747E-01            NaN
         13   -1    0    0    0    0  0.00000000000E+00  0.00000000000E+00  0.74505805969E-08  0.10566000000E+00  0.10566000000E+00 0. -1.
     999900   -1    0    0    0    0 -0.00000000000E+00 -0.00000000000E+00 -0.74505805969E-08  0.93827000000E+00  0.93827000000E+00 0.  1.
     999902    2    1    2    0    0  0.23047747731E-01 -0.47937698311E-02  0.22780517591E-02  0.10202790291E+01  0.10200048670E+01 0.  0.
     999903    2    3    3    0    0  0.23739530721E-01 -0.12771201726E+00 -0.11754738278E-01  0.13162482565E+00  0.17691698189E-01 0.  0.
         14    1    1    2    0    0 -0.23047747731E-01  0.47937698311E-02 -0.22780517591E-02  0.23650970899E-01  0.00000000000E+00 0.  1.
     999901    1    3    3    0    0 -0.69178299018E-03  0.12291824743E+00  0.14032790037E-01  0.88865420345E+00  0.88000000000E+00 0. -1.
        -11    1    4    4    0    0  0.13585650857E-01 -0.38074202067E-01  0.14298114508E-02  0.40453927548E-01  0.51100000000E-03 0. -1.
         11    1    4    4    0    0  0.10153879865E-01 -0.89637815189E-01 -0.13184549728E-01  0.91170898102E-01  0.51100000000E-03 0.  1.
</event>
<event>
 8    1  0.1094134E+005  0.1043930E+01  0.7957747E-01            NaN
         13   -1    0    0    0    0  0.00000000000E+00  0.00000000000E+00  0.74505805969E-08  0.10566000000E+00  0.10566000000E+00 0. -1.
     999900   -1    0    0    0    0 -0.00000000000E+00 -0.00000000000E+00 -0.74505805969E-08  0.93827000000E+00  0.93827000000E+00 0. -1.
     999902    2    1    2    0    0  0.16734451527E-02  0.19775268282E-01  0.12303711187E-01  0.10205795618E+01  0.10203124027E+01 0.  0.
     999903    2    3    3    0    0  0.63024698049E-02 -0.10429252616E+00  0.74167787555E-01  0.12971402234E+00  0.20204324849E-01 0.  0.
         14    1    1    2    0    0 -0.16734451527E-02 -0.19775268282E-01 -0.12303711187E-01  0.23350438182E-01  0.00000000000E+00 0. -1.
     999901    1    3    3    0    0 -0.46290246523E-02  0.12406779444E+00 -0.61864076368E-01  0.89086553948E+00  0.88000000000E+00 0. -1.
        -11    1    4    4    0    0  0.12720695391E-01 -0.44707677949E-01  0.32758874626E-01  0.56868247261E-01  0.51100000000E-03 0. -1.
         11    1    4    4    0    0 -0.64182255861E-02 -0.59584848208E-01  0.41408912929E-01  0.72845775078E-01  0.51100000000E-03 0.  1.
</event>
<event>
 8    1  0.1094134E+005  0.1043930E+01  0.7957747E-01            NaN
         13   -1    0    0    0    0  0.00000000000E+00  0.00000000000E+00  0.74505805969E-08  0.10566000000E+00  0.10566000000E+00 0. -1.
     999900   -1    0    0    0    0 -0.00000000000E+00 -0.00000000000E+00 -0.74505805969E-08  0.93827000000E+00  0.93827000000E+00 0.  1.
     999902    2    1    2    0    0  0.22065196024E-02 -0.24082136048E-01  0.31084596594E-02  0.10195480287E+01  0.10192564457E+01 0.  0.
     999903    2    3    3    0    0  0.96204723535E-01  0.81366838129E-01 -0.79969102527E-02  0.12821280679E+00  0.22330742774E-01 0.  0.
         14    1    1    2    0    0 -0.22065196024E-02  0.24082136048E-01 -0.31084596594E-02  0.24381971348E-01  0.00000000000E+00 0.  1.
     999901    1    3    3    0    0 -0.93998203933E-01 -0.10544897418E+00  0.11105369912E-01  0.89133522187E+00  0.88000000000E+00 0. -1.
        -11    1    4    4    0    0  0.21691871839E-01  0.19247376986E-01  0.75312118846E-02  0.29966299374E-01  0.51100000000E-03 0.  1.
         11    1    4    4    0    0  0.74512851696E-01  0.62119461143E-01 -0.15528122137E-01  0.98246507412E-01  0.51100000000E-03 0. -1.
</event>
<event>
 8    1  0.1094134E+005  0.1043930E+01  0.7957747E-01            NaN
         13   -1    0    0    0    0  0.00000000000E+00  0.00000000000E+00  0.74505805969E-08  0.10566000000E+00  0.10566000000E+00 0.  1.
     999900   -1    0    0    0    0 -0.00000000000E+00 -0.00000000000E+00 -0.74505805969E-08  0.93827000000E+00  0.93827000000E+00 0.  1.
     999902    2    1    2    0    0  0.49401941026E-02  0.18126233692E-02  0.24321138780E-01  0.10190460913E+01  0.10187422281E+01 0.  0.
     999903    2    3    3    0    0  0.83943959197E-01  0.67019874754E-01  0.73720070004E-01  0.13172775217E+00  0.19475627646E-01 0.  0.
         14    1    1    2    0    0 -0.49401941026E-02 -0.18126233692E-02 -0.24321138780E-01  0.24883908712E-01  0.00000000000E+00 0. -1.
     999901    1    3    3    0    0 -0.79003765094E-01 -0.65207251385E-01 -0.49398931224E-01  0.88731833912E+00  0.88000000000E+00 0.  1.
        -11    1    4    4    0    0  0.60985823514E-02  0.11489034382E-01  0.13327953781E-01  0.18630246663E-01  0.51100000000E-03 0. -1.
         11    1    4    4    0    0  0.77845376845E-01  0.55530840372E-01  0.60392116223E-01  0.11309750551E+00  0.51100000000E-03 0.  1.
</event>
<event>
 8    1  0.1094134E+005  0.1043930E+01  0.7957747E-01            NaN
         13   -1    0    0    0    0  0.00000000000E+00  0.00000000000E+00  0.74505805969E-08  0.10566000000E+00  0.10566000000E+00 0. -1.
     999900   -1    0    0    0    0 -0.00000000000E+00 -0.00000000000E+00 -0.74505805969E-08  0.93827000000E+00  0.93827000000E+00 0.  1.
     999902    2    1    2    0    0  0.13544397527E-02  0.20748700883E-01 -0.10696355538E-01  0.10205472047E+01  0.10202792960E+01 0.  0.
     999903    2    3    3    0    0  0.34301459348E-01 -0.12162523826E+00  0.74836430191E-02  0.12831048889E+00  0.20935327861E-01 0.  0.
         14    1    1    2    0    0 -0.13544397527E-02 -0.20748700883E-01  0.10696355538E-01  0.23382795324E-01  0.00000000000E+00 0. -1.
     999901    1    3    3    0    0 -0.32947019596E-01  0.14237393914E+00 -0.18179998557E-01  0.89223671578E+00  0.88000000000E+00 0. -1.
        -11    1    4    4    0    0  0.14133542203E-01 -0.85562632695E-01  0.34539694605E-02  0.86792350786E-01  0.51100000000E-03 0. -1.
         11    1    4    4    0    0  0.20167917145E-01 -0.36062605560E-01  0.40296735586E-02  0.41518138105E-01  0.51100000000E-03 0.  1.
</event>
<event>
 8    1  0.1094134E+005  0.1043930E+01  0.7957747E-01            NaN
         13   -1    0    0    0    0  0.00000000000E+00  0.00000000000E+00  0.74505805969E-08  0.10566000000E+00  0.10566000000E+00 0.  1.
     999900   -1    0    0    0    0 -0.00000000000E+00 -0.00000000000E+00 -0.74505805969E-08  0.93827000000E+00  0.93827000000E+00 0. -1.
     999902    2    1    2    0    0 -0.15733903765E-02 -0.70538303091E-02  0.23601567750E-01  0.10192466842E+01  0.10189477598E+01 0.  0.
     999903    2    3    3    0    0 -0.79567273232E-01  0.63770108988E-01  0.80046945748E-01  0.13116720754E+00  0.19993625003E-01 0.  0.
         14    1    1    2    0    0  0.15733903765E-02  0.70538303091E-02 -0.23601567750E-01  0.24683315814E-01  0.00000000000E+00 0. -1.
     999901    1    3    3    0    0  0.77993882855E-01 -0.70823939298E-01 -0.56445377998E-01  0.88807947664E+00  0.88000000000E+00 0. -1.
        -11    1    4    4    0    0 -0.12297532699E-01  0.14893896747E-01  0.72031732456E-02  0.20620482453E-01  0.51100000000E-03 0. -1.
         11    1    4    4    0    0 -0.67269740533E-01  0.48876212241E-01  0.72843772502E-01  0.11054672509E+00  0.51100000000E-03 0.  1.
</event>
<event>
 8    1  0.1094134E+005  0.1043930E+01  0.7957747E-01            NaN
         13   -1    0    0    0    0  0.00000000000E+00  0.00000000000E+00  0.74505805969E-08  0.10566000000E+00  0.10566000000E+00 0.  1.
     999900   -1    0    0    0    0 -0.00000000000E+00 -0.00000000000E+00 -0.74505805969E-08  0.93827000000E+00  0.93827000000E+00 0. -1.
     999902    2    1    2    0    0 -0.19103747372E-01  0.87865858425E-02 -0.17314411667E-01  0.10166913123E+01  0.10163263642E+01 0.  0.
     999903    2    3    3    0    0 -0.11225670590E+00 -0.56996388492E-01  0.17288201536E-01  0.12865853465E+00  0.20099261306E-01 0.  0.
         14    1    1    2    0    0  0.19103747372E-01 -0.87865858425E-02  0.17314411667E-01  0.27238687667E-01  0.00000000000E+00 0.  1.
     999901    1    3    3    0    0  0.93152958531E-01  0.65782974335E-01 -0.34602613203E-01  0.88803277768E+00  0.88000000000E+00 0.  1.
        -11    1    4    4    0    0 -0.72428315712E-01 -0.39041796105E-01  0.17961281044E-02  0.82301943824E-01  0.51100000000E-03 0.  1.
         11    1    4    4    0    0 -0.39828390191E-01 -0.17954592388E-01  0.15492073432E-01  0.46356590828E-01  0.51100000000E-03 0. -1.
</event>
<event>
 8    1  0.1094134E+005  0.1043930E+01  0.7957747E-01            NaN
         13   -1    0    0    0    0  0.00000000000E+00  0.00000000000E+00  0.74505805969E-08  0.10566000000E+00  0.10566000000E+00 0. -1.
     999900   -1    0    0    0    0 -0.00000000000E+00 -0.00000000000E+00 -0.74505805969E-08  0.93827000000E+00  0.93827000000E+00 0.  1.
     999902    2    1    2    0    0 -0.18024816823E-02  0.92340565003E-02 -0.21726065996E-01  0.10202543018E+01  0.10199795595E+01 0.  0.
     999903    2    3    3    0    0 -0.34932932325E-01  0.12053366749E+00 -0.37532285608E-01  0.13248458691E+00  0.19870041448E-01 0.  0.
         14    1    1    2    0    0  0.18024816823E-02 -0.92340565003E-02  0.21726065996E-01  0.23675698159E-01  0.00000000000E+00 0. -1.
     999901    1    3    3    0    0  0.33130450642E-01 -0.11129961099E+00  0.15806219612E-01  0.88776971493E+00  0.88000000000E+00 0. -1.
        -11    1    4    4    0    0 -0.26361769509E-01  0.64799073164E-01 -0.13820570606E-01  0.71310111958E-01  0.51100000000E-03 0. -1.
         11    1    4    4    0    0 -0.85711628154E-02  0.55734594325E-01 -0.23711715002E-01  0.61174474954E-01  0.51100000000E-03 0.  1.
</event>
<event>
 8    1  0.1094134E+005  0.1043930E+01  0.7957747E-01            NaN
         13   -1    0    0    0    0  0.00000000000E+00  0.00000000000E+00  0.74505805969E-08  0.10566000000E+00  0.10566000000E+00 0.  1.
     999900   -1    0    0    0    0 -0.00000000000E+00 -0.00000000000E+00 -0.74505805969E-08  0.93827000000E+00  0.93827000000E+00 0.  1.
     999902    2    1    2    0    0 -0.26649920545E-05 -0.17814610233E-01  0.15668774588E-01  0.10202051008E+01  0.10199292019E+01 0.  0.
     999903    2    3    3    0    0 -0.60476887845E-01  0.10230949862E+00 -0.43362016625E-01  0.12803271417E+00  0.19683087693E-01 0.  0.
         14    1    1    2    0    0  0.26649920545E-05  0.17814610233E-01 -0.15668774588E-01  0.23724899198E-01  0.00000000000E+00 0.  1.
     999901    1    3    3    0    0  0.60474222853E-01 -0.12012410885E+00  0.59030791213E-01  0.89217238663E+00  0.88000000000E+00 0. -1.
        -11    1    4    4    0    0 -0.51895042953E-01  0.73398836762E-01 -0.27803735315E-01  0.94094598886E-01  0.51100000000E-03 0.  1.
         11    1    4    4    0    0 -0.85818448918E-02  0.28910661856E-01 -0.15558281310E-01  0.33938115284E-01  0.51100000000E-03 0. -1.
</event>
<event>
 7    1  0.1094134E+005  0.1043930E+01  0.7957747E-01            NaN
         13   -1    0    0    0    0  0.00000000000E+00  0.00000000000E+00  0.74505805969E-08  0.10566000000E+00  0.10566000000E+00 0.  1.
     999900   -1    0    0    0    0 -0.00000000000E+00 -0.00000000000E+00 -0.74505805969E-08  0.93827000000E+00  0.93827000000E+00 0. -1.
     999902    2    1    2    0    0  0.15038705130E-01  0.19247901348E-01  0.22858092678E-01  0.10104764986E+01  0.10099225799E+01 0.  0.
         14    1    1    2    0    0 -0.15038705130E-01 -0.19247901348E-01 -0.22858092678E-01  0.33453501448E-01  0.00000000000E+00 0. -1.
     999901    1    3    3    0    0 -0.79165234183E-02 -0.10246440120E+00  0.27903741832E-01  0.88641990257E+00  0.88000000000E+00 0.  1.
        -11    1    3    3    0    0  0.20926381751E-01  0.11078946381E+00 -0.32912612902E-02  0.11279766073E+00  0.51100000000E-03 0. -1.
         11    1    3    3    0    0  0.20288467969E-02  0.10922838731E-01 -0.17543878633E-02  0.11258935254E-01  0.51100000000E-03 0.  1.
</event>
<event>
 8    1  0.1094134E+005  0.1043930E+01  0.7957747E-01            NaN
         13   -1    0    0    0    0  0.00000000000E+00  0.00000000000E+00  0.74505805969E-08  0.10566000000E+00  0.10566000000E+00 0. -1.
     999900   -1    0    0    0    0 -0.00000000000E+00 -0.00000000000E+00 -0.74505805969E-08  0.93827000000E+00  0.93827000000E+00 0. -1.
     999902    2    1    2    0    0  0.19078485326E-01  0.94654834199E-02  0.92955629976E-02  0.10206922835E+01  0.10204277270E+01 0.  0.
     999903    2    3    3    0    0  0.12682911277E+00  0.12837117785E-01  0.29707059520E-01  0.13387877723E+00  0.28117648728E-01 0.  0.
         14    1    1    2    0    0 -0.19078485326E-01 -0.94654834199E-02 -0.92955629976E-02  0.23237716544E-01  0.00000000000E+00 0.  1.
     999901    1    3    3    0    0 -0.10775062744E+00 -0.33716343652E-02 -0.20411496522E-01  0.88681350622E+00  0.88000000000E+00 0.  1.
        -11    1    4    4    0    0  0.66409253628E-01  0.84213834044E-02  0.29847178189E-01  0.73295455744E-01  0.51100000000E-03 0. -1.
         11    1    4    4    0    0  0.60419859137E-01  0.44157343807E-02 -0.14011866939E-03  0.60583321488E-01  0.51100000000E-03 0.  1.
</event>
<event>
 8    1  0.1094134E+005  0.1043930E+01  0.7957747E-01            NaN
         13   -1    0    0    0    0  0.00000000000E+00  0.00000000000E+00  0.74505805969E-08  0.10566000000E+00  0.10566000000E+00 0. -1.
     999900   -1    0    0    0    0 -0.00000000000E+00 -0.00000000000E+00 -0.74505805969E-08  0.93827000000E+00  0.93827000000E+00 0.  1.
     999902    2    1    2    0    0 -0.15866780464E-01 -0.24887990952E-02  0.16728526530E-01  0.10207396476E+01  0.10204761809E+01 0.  0.
     999903    2    3    3    0    0 -0.83033373218E-01 -0.53438989303E-01 -0.83738347941E-01  0.13102010422E+00  0.20097018362E-01 0.  0.
         14    1    1    2    0    0  0.15866780464E-01  0.24887990952E-02 -0.16728526530E-01  0.23190352372E-01  0.00000000000E+00 0.  1.
     999901    1    3    3    0    0  0.67166592754E-01  0.50950190208E-01  0.10046687447E+00  0.88971954341E+00  0.88000000000E+00 0. -1.
        -11    1    4    4    0    0 -0.48614768658E-01 -0.25654043985E-01 -0.57677747544E-01  0.79677533767E-01  0.51100000000E-03 0.  1.
         11    1    4    4    0    0 -0.34418604560E-01 -0.27784945318E-01 -0.26060600397E-01  0.51342570448E-01  0.51100000000E-03 0. -1.
</event>
<event>
 8    1  0.1094134E+005  0.1043930E+01  0.7957747E-01            NaN
         13   -1    0    0    0    0  0.00000000000E+00  0.00000000000E+00  0.74505805969E-08  0.10566000000E+00  0.10566000000E+00 0.  1.
     999900   -1    0    0    0    0 -0.00000000000E+00 -0.00000000000E+00 -0.74505805969E-08  0.93827000000E+00  0.93827000000E+00 0. -1.
     999902    2    1    2    0    0 -0.61730902472E-02  0.17739836540E-01 -0.15136725655E-01  0.10198067890E+01  0.10195214356E+01 0.  0.
     999903    2    3    3    0    0  0.65309716755E-01  0.37735359666E-01  0.10258959742E+00  0.12886958598E+00  0.19835025103E-01 0.  0.
         14    1    1    2    0    0  0.61730902472E-02 -0.17739836540E-01  0.15136725655E-01  0.24123210964E-01  0.00000000000E+00 0. -1.
     999901    1    3    3    0    0 -0.71482807002E-01 -0.19995523127E-01 -0.11772632307E+00  0.89093720305E+00  0.88000000000E+00 0. -1.
        -11    1    4    4    0    0  0.52661260134E-01  0.21493904617E-01  0.68434895683E-01  0.88987596454E-01  0.51100000000E-03 0.  1.
         11    1    4    4    0    0  0.12648456621E-01  0.16241455050E-01  0.34154701736E-01  0.39881989528E-01  0.51100000000E-03 0. -1.
</event>
<event>
 8    1  0.1094134E+005  0.1043930E+01  0.7957747E-01            NaN
         13   -1    0    0    0    0  0.00000000000E+00  0.00000000000E+00  0.74505805969E-08  0.10566000000E+00  0.10566000000E+00 0. -1.
     999900   -1    0    0    0    0 -0.00000000000E+00 -0.00000000000E+00 -0.74505805969E-08  0.93827000000E+00  0.93827000000E+00 0. -1.
     999902    2    1    2    0    0  0.20593797623E-01  0.11087640175E-01  0.14734069116E-04  0.10205411034E+01  0.10202730533E+01 0.  0.
     999903    2    3    3    0    0 -0.60901150179E-01  0.39814131751E-01 -0.10634142902E+00  0.12993553908E+00  0.16752003217E-01 0.  0.
         14    1    1    2    0    0 -0.20593797623E-01 -0.11087640175E-01 -0.14734069116E-04  0.23388896560E-01  0.00000000000E+00 0. -1.
     999901    1    3    3    0    0  0.81494947802E-01 -0.28726491575E-01  0.10635616309E+00  0.89060556436E+00  0.88000000000E+00 0.  1.
        -11    1    4    4    0    0 -0.19621839384E-01  0.20053708354E-01 -0.50114590610E-01  0.57436061081E-01  0.51100000000E-03 0.  1.
         11    1    4    4    0    0 -0.41279310795E-01  0.19760423396E-01 -0.56226838406E-01  0.72499478003E-01  0.51100000000E-03 0. -1.
</event>
<event>
 8    1  0.1094134E+005  0.1043930E+01  0.7957747E-01            NaN
         13   -1    0    0    0    0  0.00000000000E+00  0.00000000000E+00  0.74505805969E-08  0.10566000000E+00  0.10566000000E+00 0. -1.
     999900   -1    0    0    0    0 -0.00000000000E+00 -0.00000000000E+00 -0.74505805969E-08  0.93827000000E+00  0.93827000000E+00 0. -1.
     999902    2    1    2    0    0 -0.18613985363E-01  0.75200519928E-02 -0.52081812999E-02  0.10231897786E+01  0.10229795531E+01 0.  0.
     999903    2    3    3    0    0 -0.62095373439E-01 -0.15612528219E-01 -0.11687284301E+00  0.13476716288E+00  0.20083334286E-01 0.  0.
         14    1    1    2    0    0  0.18613985363E-01 -0.75200519928E-02  0.52081812999E-02  0.20740221443E-01  0.00000000000E+00 0.  1.
     999901    1    3    3    0    0  0.43481388076E-01  0.23132580211E-01  0.11166466171E+00  0.88842261568E+00  0.88000000000E+00 0.  1.
        -11    1    4    4    0    0 -0.13833346421E-01  0.18844709370E-02 -0.39624286650E-01  0.42014972539E-01  0.51100000000E-03 0.  1.
         11    1    4    4    0    0 -0.48262027019E-01 -0.17496999156E-01 -0.77248556362E-01  0.92752190338E-01  0.51100000000E-03 0. -1.
</event>
<event>
 8    1  0.1094134E+005  0.1043930E+01  0.7957747E-01            NaN
         13   -1    0    0    0    0  0.00000000000E+00  0.00000000000E+00  0.74505805969E-08  0.10566000000E+00  0.10566000000E+00 0.  1.
     999900   -1    0    0    0    0 -0.00000000000E+00 -0.00000000000E+00 -0.74505805969E-08  0.93827000000E+00  0.93827000000E+00 0.  1.
     999902    2    1    2    0    0 -0.79337577132E-02  0.19746318293E-01 -0.13254825431E-01  0.10188590608E+01  0.10185505553E+01 0.  0.
     999903    2    3    3    0    0 -0.95110373945E-01  0.97924247085E-02 -0.87730282414E-01  0.13136515311E+00  0.20453023853E-01 0.  0.
         14    1    1    2    0    0  0.79337577132E-02 -0.19746318293E-01  0.13254825431E-01  0.25070939248E-01  0.00000000000E+00 0.  1.
     999901    1    3    3    0    0  0.87176616231E-01  0.99538935848E-02  0.74475456983E-01  0.88749390765E+00  0.88000000000E+00 0. -1.
        -11    1    4    4    0    0 -0.35655548335E-01  0.12480103029E-01 -0.40488454765E-01  0.55377316556E-01  0.51100000000E-03 0.  1.
         11    1    4    4    0    0 -0.59454825609E-01 -0.26876783205E-02 -0.47241827648E-01  0.75987836550E-01  0.51100000000E-03 0. -1.
</event>
<event>
 8    1  0.1094134E+005  0.1043930E+01  0.7957747E-01            NaN
         13   -1    0    0    0    0  0.00000000000E+00  0.00000000000E+00  0.74505805969E-08  0.10566000000E+00  0.10566000000E+00 0. -1.
     999900   -1    0    0    0    0 -0.00000000000E+00 -0.00000000000E+00 -0.74505805969E-08  0.93827000000E+00  0.93827000000E+00 0. -1.
     999902    2    1    2    0    0  0.12571231542E-01  0.44936653653E-02  0.17939196419E-01  0.10215683440E+01  0.10213235716E+01 0.  0.
     999903    2    3    3    0    0 -0.85956206813E-01  0.95197694032E-01 -0.16241268910E-01  0.13078038880E+00  0.19714482984E-01 0.  0.
         14    1    1    2    0    0 -0.12571231542E-01 -0.44936653653E-02 -0.17939196419E-01  0.22361656000E-01  0.00000000000E+00 0.  1.
     999901    1    3    3    0    0  0.98527438355E-01 -0.90704028667E-01  0.34180465329E-01  0.89078795520E+00  0.88000000000E+00 0.  1.
        -11    1    4    4    0    0 -0.24830227868E-02  0.96705526391E-02 -0.34985035529E-02  0.10591772213E-01  0.51100000000E-03 0.  1.
         11    1    4    4    0    0 -0.83473184026E-01  0.85527141393E-01 -0.12742765357E-01  0.12018861658E+00  0.51100000000E-03 0. -1.
</event>
<event>
 8    1  0.1094134E+005  0.1043930E+01  0.7957747E-01            NaN
         13   -1    0    0    0    0  0.00000000000E+00  0.00000000000E+00  0.74505805969E-08  0.10566000000E+00  0.10566000000E+00 0. -1.
     999900   -1    0    0    0    0 -0.00000000000E+00 -0.00000000000E+00 -0.74505805969E-08  0.93827000000E+00  0.93827000000E+00 0.  1.
     999902    2    1    2    0    0 -0.29146812872E-01 -0.17626269204E-02  0.87641372878E-02  0.10134430576E+01  0.10129843915E+01 0.  0.
     999903    2    3    3    0    0  0.97353193011E-01 -0.30780308568E-01 -0.62168562836E-01  0.12110022815E+00  0.19371718231E-01 0.  0.
         14    1    1    2    0    0  0.29146812872E-01  0.17626269204E-02 -0.87641372878E-02  0.30486942396E-01  0.00000000000E+00 0.  1.
     999901    1    3    3    0    0 -0.12650000588E+00  0.29017681648E-01  0.70932700124E-01  0.89234282946E+00  0.88000000000E+00 0. -1.
        -11    1    4    4    0    0  0.60261116871E-01 -0.10050916060E-01 -0.31855186605E-01  0.68901648419E-01  0.51100000000E-03 0.  1.
         11    1    4    4    0    0  0.37092076140E-01 -0.20729392509E-01 -0.30313376230E-01  0.52198579728E-01  0.51100000000E-03 0. -1.
</event>
<event>
 8    1  0.1094134E+005  0.1043930E+01  0.7957747E-01            NaN
         13   -1    0    0    0    0  0.00000000000E+00  0.00000000000E+00  0.74505805969E-08  0.10566000000E+00  0.10566000000E+00 0.  1.
     999900   -1    0    0    0    0 -0.00000000000E+00 -0.00000000000E+00 -0.74505805969E-08  0.93827000000E+00  0.93827000000E+00 0. -1.
     999902    2    1    2    0    0  0.24091592020E-01  0.37796776178E-02  0.31038834289E-02  0.10193469802E+01  0.10190505097E+01 0.  0.
     999903    2    3    3    0    0 -0.81325688612E-01 -0.61313086330E-01  0.74398890945E-01  0.12781299373E+00  0.20683428371E-01 0.  0.
         14    1    1    2    0    0 -0.24091592020E-01 -0.37796776178E-02 -0.31038834289E-02  0.24583019776E-01  0.00000000000E+00 0. -1.
     999901    1    3    3    0    0  0.10541728063E+00  0.65092763948E-01 -0.71295007516E-01  0.89153398649E+00  0.88000000000E+00 0. -1.
        -11    1    4    4    0    0 -0.42583278740E-01 -0.30345532671E-01  0.25563206678E-01  0.58205890062E-01  0.51100000000E-03 0.  1.
         11    1    4    4    0    0 -0.38742409873E-01 -0.30967553659E-01  0.48835684267E-01  0.69607103669E-01  0.51100000000E-03 0. -1.
</event>
<event>
 8    1  0.1094134E+005  0.1043930E+01  0.7957747E-01            NaN
         13   -1    0    0    0    0  0.00000000000E+00  0.00000000000E+00  0.74505805969E-08  0.10566000000E+00  0.10566000000E+00 0. -1.
     999900   -1    0    0    0    0 -0.00000000000E+00 -0.00000000000E+00 -0.74505805969E-08  0.93827000000E+00  0.93827000000E+00 0. -1.
     999902    2    1    2    0    0 -0.18783489826E-01  0.92462341685E-02 -0.10334149317E-01  0.10205824738E+01  0.10203153821E+01 0.  0.
     999903    2    3    3    0    0  0.47450258942E-01  0.10591260532E+00  0.55511365394E-01  0.13037635803E+00  0.21153628681E-01 0.  0.
         14    1    1    2    0    0  0.18783489826E-01 -0.92462341685E-02  0.10334149317E-01  0.23347526174E-01  0.00000000000E+00 0. -1.
     999901    1    3    3    0    0 -0.66233748768E-01 -0.96666371153E-01 -0.65845514711E-01  0.89020611579E+00  0.88000000000E+00 0. -1.
        -11    1    4    4    0    0  0.16413972682E-01  0.55750860574E-01  0.35408766927E-01  0.68055997900E-01  0.51100000000E-03 0. -1.
         11    1    4    4    0    0  0.31036286259E-01  0.50161744748E-01  0.20102598467E-01  0.62320360133E-01  0.51100000000E-03 0.  1.
</event>
<event>
 8    1  0.1094134E+005  0.1043930E+01  0.7957747E-01            NaN
         13   -1    0    0    0    0  0.00000000000E+00  0.00000000000E+00  0.74505805969E-08  0.10566000000E+00  0.10566000000E+00 0.  1.
     999900   -1    0    0    0    0 -0.00000000000E+00 -0.00000000000E+00 -0.74505805969E-08  0.93827000000E+00  0.93827000000E+00 0.  1.
     999902    2    1    2    0    0 -0.61837720579E-02  0.21569087554E-01 -0.98180020113E-02  0.10194380066E+01  0.10191437542E+01 0.  0.
     999903    2    3    3    0    0  0.64733308349E-01 -0.49203604801E-01 -0.98653700620E-01  0.12930892184E+00  0.19412590918E-01 0.  0.
         14    1    1    2    0    0  0.61837720579E-02 -0.21569087554E-01  0.98180020113E-02  0.24491993351E-01  0.00000000000E+00 0.  1.
     999901    1    3    3    0    0 -0.70917080406E-01  0.70772692355E-01  0.88835698609E-01  0.89012908481E+00  0.88000000000E+00 0. -1.
        -11    1    4    4    0    0  0.25197979261E-01 -0.26542782252E-01 -0.55927746074E-01  0.66840342238E-01  0.51100000000E-03 0.  1.
         11    1    4    4    0    0  0.39535329087E-01 -0.22660822549E-01 -0.42725954546E-01  0.62468579602E-01  0.51100000000E-03 0. -1.
</event>
<event>
 8    1  0.1094134E+005  0.1043930E+01  0.7957747E-01            NaN
         13   -1    0    0    0    0  0.00000000000E+00  0.00000000000E+00  0.74505805969E-08  0.10566000000E+00  0.10566000000E+00 0.  1.
     999900   -1    0    0    0    0 -0.00000000000E+00 -0.00000000000E+00 -0.74505805969E-08  0.93827000000E+00  0.93827000000E+00 0.  1.
     999902    2    1    2    0    0  0.24106667692E-01  0.34165263072E-03 -0.37805045962E-03  0.10198179475E+01  0.10195328611E+01 0.  0.
     999903    2    3    3    0    0 -0.80460711095E-01  0.20135625993E-01  0.95909847221E-01  0.12819162592E+00  0.18842099096E-01 0.  0.
         14    1    1    2    0    0 -0.24106667692E-01 -0.34165263072E-03  0.37805045962E-03  0.24112052503E-01  0.00000000000E+00 0. -1.
     999901    1    3    3    0    0  0.10456737879E+00 -0.19793973362E-01 -0.96287897680E-01  0.89162632158E+00  0.88000000000E+00 0. -1.
        -11    1    4    4    0    0 -0.42947246470E-01  0.51742837065E-02  0.61139083986E-01  0.74896514625E-01  0.51100000000E-03 0. -1.
         11    1    4    4    0    0 -0.37513464626E-01  0.14961342286E-01  0.34770763234E-01  0.53295111297E-01  0.51100000000E-03 0.  1.
</event>
<event>
 8    1  0.1094134E+005  0.1043930E+01  0.7957747E-01            NaN
         13   -1    0    0    0    0  0.00000000000E+00  0.00000000000E+00  0.74505805969E-08  0.10566000000E+00  0.10566000000E+00 0.  1.
     999900   -1    0    0    0    0 -0.00000000000E+00 -0.00000000000E+00 -0.74505805969E-08  0.93827000000E+00  0.93827000000E+00 0. -1.
     999902    2    1    2    0    0  0.15788060802E-01 -0.71824621584E-02  0.15146831408E-01  0.10209022531E+01  0.10206425100E+01 0.  0.
     999903    2    3    3    0    0 -0.77992875520E-01 -0.72877778782E-01  0.74155223450E-01  0.13152453300E+00  0.20140663934E-01 0.  0.
         14    1    1    2    0    0 -0.15788060802E-01  0.71824621584E-02 -0.15146831408E-01  0.23027746920E-01  0.00000000000E+00 0. -1.
     999901    1    3    3    0    0  0.93780936322E-01  0.65695316624E-01 -0.59008392043E-01  0.88937772008E+00  0.88000000000E+00 0. -1.
        -11    1    4    4    0    0 -0.57845057332E-01 -0.64916012705E-01  0.59909632771E-01  0.10559149863E+00  0.51100000000E-03 0. -1.
         11    1    4    4    0    0 -0.20147818187E-01 -0.79617660773E-02  0.14245590679E-01  0.25933034369E-01  0.51100000000E-03 0.  1.
</event>
<event>
 8    1  0.1094134E+005  0.1043930E+01  0.7957747E-01            NaN
         13   -1    0    0    0    0  0.00000000000E+00  0.00000000000E+00  0.74505805969E-08  0.10566000000E+00  0.10566000000E+00 0.  1.
     999900   -1    0    0    0    0 -0.00000000000E+00 -0.00000000000E+00 -0.74505805969E-08  0.93827000000E+00  0.93827000000E+00 0.  1.
     999902    2    1    2    0    0 -0.11104066987E-01  0.17120724226E-02  0.21556829842E-01  0.10196209809E+01  0.10193311613E+01 0.  0.
     999903    2    3    3    0    0 -0.93658036813E-01  0.87191707072E-01 -0.19692564202E-01  0.13067585417E+00  0.17724563064E-01 0.  0.
         14    1    1    2    0    0  0.11104066987E-01 -0.17120724226E-02 -0.21556829842E-01  0.24309019077E-01  0.00000000000E+00 0. -1.
     999901    1    3    3    0    0  0.82553969826E-01 -0.85479634649E-01  0.41249394045E-01  0.88894512676E+00  0.88000000000E+00 0. -1.
        -11    1    4    4    0    0 -0.24231778000E-01  0.33075596302E-01 -0.92063633521E-02  0.42026091692E-01  0.51100000000E-03 0. -1.
         11    1    4    4    0    0 -0.69426258813E-01  0.54116110770E-01 -0.10486200850E-01  0.88649762475E-01  0.51100000000E-03 0.  1.
</event>
<event>
 8    1  0.1094134E+005  0.1043930E+01  0.7957747E-01            NaN
         13   -1    0    0    0    0  0.00000000000E+00  0.00000000000E+00  0.74505805969E-08  0.10566000000E+00  0.10566000000E+00 0.  1.
     999900   -1    0    0    0    0 -0.00000000000E+00 -0.00000000000E+00 -0.74505805969E-08  0.93827000000E+00  0.93827000000E+00 0.  1.
     999902    2    1    2    0    0  0.16542851433E-01  0.52629936078E-02 -0.15007890821E-01  0.10209821935E+01  0.10207242711E+01 0.  0.
     999903    2    3    3    0    0  0.63513327928E-01 -0.11048312570E+00 -0.28976081747E-01  0.13205109374E+00  0.18905400205E-01 0.  0.
         14    1    1    2    0    0 -0.16542851433E-01 -0.52629936078E-02  0.15007890821E-01  0.22947806478E-01  0.00000000000E+00 0. -1.
     999901    1    3    3    0    0 -0.46970476495E-01  0.11574611931E+00  0.13968190926E-01  0.88893109978E+00  0.88000000000E+00 0. -1.
        -11    1    4    4    0    0  0.19058569173E-01 -0.51879436777E-01 -0.12038825438E-01  0.56567653815E-01  0.51100000000E-03 0.  1.
         11    1    4    4    0    0  0.44454758755E-01 -0.58603688921E-01 -0.16937256309E-01  0.75483439928E-01  0.51100000000E-03 0. -1.
</event>
<event>
 8    1  0.1094134E+005  0.1043930E+01  0.7957747E-01            NaN
         13   -1    0    0    0    0  0.00000000000E+00  0.00000000000E+00  0.74505805969E-08  0.10566000000E+00  0.10566000000E+00 0.  1.
     999900   -1    0    0    0    0 -0.00000000000E+00 -0.00000000000E+00 -0.74505805969E-08  0.93827000000E+00  0.93827000000E+00 0.  1.
     999902    2    1    2    0    0 -0.30681341652E-02 -0.24566404582E-01  0.61863723944E-02  0.10184115188E+01  0.10180917585E+01 0.  0.
     999903    2    3    3    0    0 -0.54487594554E-01  0.88563564594E-01  0.70986840264E-01  0.12732148320E+00  0.18953249349E-01 0.  0.
         14    1    1    2    0    0  0.30681341652E-02  0.24566404582E-01 -0.61863723944E-02  0.25518481239E-01  0.00000000000E+00 0. -1.
     999901    1    3    3    0    0  0.51419460388E-01 -0.11312996918E+00 -0.64800467870E-01  0.89109003556E+00  0.88000000000E+00 0.  1.
        -11    1    4    4    0    0 -0.14658636602E-01  0.41516052779E-01  0.28350050699E-01  0.52368356485E-01  0.51100000000E-03 0. -1.
         11    1    4    4    0    0 -0.39828957952E-01  0.47047511815E-01  0.42636789565E-01  0.74953126719E-01  0.51100000000E-03 0.  1.
</event>
<event>
 8    1  0.1094134E+005  0.1043930E+01  0.7957747E-01            NaN
         13   -1    0    0    0    0  0.00000000000E+00  0.00000000000E+00  0.74505805969E-08  0.10566000000E+00  0.10566000000E+00 0. -1.
     999900   -1    0    0    0    0 -0.00000000000E+00 -0.00000000000E+00 -0.74505805969E-08  0.93827000000E+00  0.93827000000E+00 0. -1.
     999902    2    1    2    0    0  0.13835010703E-01 -0.84406475243E-02 -0.16986773640E-01  0.10204522972E+01  0.10201821839E+01 0.  0.
     999903    2    3    3    0    0  0.46375069834E-01 -0.12068546323E+00 -0.22277284208E-01  0.13271036191E+00  0.20003365493E-01 0.  0.
         14    1    1    2    0    0 -0.13835010703E-01  0.84406475243E-02  0.16986773640E-01  0.23477702837E-01  0.00000000000E+00 0. -1.
     999901    1    3    3    0    0 -0.32540059131E-01  0.11224481570E+00  0.52905105673E-02  0.88774193525E+00  0.88000000000E+00 0.  1.
        -11    1    4    4    0    0  0.27608177913E-01 -0.93793652513E-01 -0.13054283452E-01  0.98641452629E-01  0.51100000000E-03 0. -1.
         11    1    4    4    0    0  0.18766891921E-01 -0.26891810714E-01 -0.92230007555E-02  0.34068909284E-01  0.51100000000E-03 0.  1.
</event>
<event>
 8    1  0.1094134E+005  0.1043930E+01  0.7957747E-01            NaN
         13   -1    0    0    0    0  0.00000000000E+00  0.00000000000E+00  0.74505805969E-08  0.10566000000E+00  0.10566000000E+00 0.  1.
     999900   -1    0    0    0    0 -0.00000000000E+00 -0.00000000000E+00 -0.74505805969E-08  0.93827000000E+00  0.93827000000E+00 0. -1.
     999902    2    1    2    0    0 -0.23195595623E-01 -0.79591377026E-02 -0.42225357249E-02  0.10190460024E+01  0.10187421370E+01 0.  0.
     999903    2    3    3    0    0  0.33525593712E-02 -0.58200424866E-01  0.11366959714E+00  0.12936766362E+00  0.20412887295E-01 0.  0.
         14    1    1    2    0    0  0.23195595623E-01  0.79591377026E-02  0.42225357249E-02  0.24883997613E-01  0.00000000000E+00 0.  1.
     999901    1    3    3    0    0 -0.26548154994E-01  0.50241287163E-01 -0.11789213287E+00  0.88967833876E+00  0.88000000000E+00 0. -1.
        -11    1    4    4    0    0  0.10099315335E-03 -0.26443012293E-01  0.73126157721E-01  0.77762067635E-01  0.51100000000E-03 0.  1.
         11    1    4    4    0    0  0.32515662179E-02 -0.31757412573E-01  0.40543439424E-01  0.51605595990E-01  0.51100000000E-03 0. -1.
</event>
<event>
 8    1  0.1094134E+005  0.1043930E+01  0.7957747E-01            NaN
         13   -1    0    0    0    0  0.00000000000E+00  0.00000000000E+00  0.74505805969E-08  0.10566000000E+00  0.10566000000E+00 0.  1.
     999900   -1    0    0    0    0 -0.00000000000E+00 -0.00000000000E+00 -0.74505805969E-08  0.93827000000E+00  0.93827000000E+00 0.  1.
     999902    2    1    2    0    0  0.10292634768E-01  0.19512829747E-01  0.17171789831E-01  0.10159736193E+01  0.10155889109E+01 0.  0.
     999903    2    3    3    0    0  0.86173969333E-01 -0.86399014028E-01 -0.21319068677E-01  0.12554852882E+00  0.20425175255E-01 0.  0.
         14    1    1    2    0    0 -0.10292634768E-01 -0.19512829747E-01 -0.17171789831E-01  0.27956380688E-01  0.00000000000E+00 0.  1.
     999901    1    3    3    0    0 -0.75881334564E-01  0.10591184377E+00  0.38490858508E-01  0.89042509049E+00  0.88000000000E+00 0. -1.
        -11    1    4    4    0    0  0.37995261625E-01 -0.52467643026E-01 -0.12055015961E-01  0.65894445907E-01  0.51100000000E-03 0.  1.
         11    1    4    4    0    0  0.48178707708E-01 -0.33931371002E-01 -0.92640527161E-02  0.59654082913E-01  0.51100000000E-03 0. -1.
</event>
<event>
 8    1  0.1094134E+005  0.1043930E+01  0.7957747E-01            NaN
         13   -1    0    0    0    0  0.00000000000E+00  0.00000000000E+00  0.74505805969E-08  0.10566000000E+00  0.10566000000E+00 0. -1.
     999900   -1    0    0    0    0 -0.00000000000E+00 -0.00000000000E+00 -0.74505805969E-08  0.93827000000E+00  0.93827000000E+00 0.  1.
     999902    2    1    2    0    0 -0.16352048271E-01 -0.12192583783E-01  0.13425770860E-01  0.10195107472E+01  0.10192182611E+01 0.  0.
     999903    2    3    3    0    0  0.25403326926E-01  0.11114937492E+00  0.56965331169E-01  0.12886354243E+00  0.19006605378E-01 0.  0.
         14    1    1    2    0    0  0.16352048271E-01  0.12192583783E-01 -0.13425770860E-01  0.24419252755E-01  0.00000000000E+00 0.  1.
     999901    1    3    3    0    0 -0.41755375196E-01 -0.12334195870E+00 -0.43539560308E-01  0.89064720482E+00  0.88000000000E+00 0.  1.
        -11    1    4    4    0    0  0.47512976379E-02  0.52953555577E-01  0.33268623529E-01  0.62719345580E-01  0.51100000000E-03 0.  1.
         11    1    4    4    0    0  0.20652029288E-01  0.58195819344E-01  0.23696707640E-01  0.66144196849E-01  0.51100000000E-03 0. -1.
</event>
<event>
 8    1  0.1094134E+005  0.1043930E+01  0.7957747E-01            NaN
         13   -1    0    0    0    0  0.00000000000E+00  0.00000000000E+00  0.74505805969E-08  0.10566000000E+00  0.10566000000E+00 0. -1.
     999900   -1    0    0    0    0 -0.00000000000E+00 -0.00000000000E+00 -0.74505805969E-08  0.93827000000E+00  0.93827000000E+00 0. -1.
     999902    2    1    2    0    0 -0.17739589709E-01 -0.15360608475E-01  0.17872969333E-02  0.10203962845E+01  0.10201248657E+01 0.  0.
     999903    2    3    3    0    0  0.98184273696E-01  0.38940567604E-01  0.70427014679E-01  0.12848913086E+00  0.19823545237E-01 0.  0.
         14    1    1    2    0    0  0.17739589709E-01  0.15360608475E-01 -0.17872969333E-02  0.23533715519E-01  0.00000000000E+00 0.  1.
     999901    1    3    3    0    0 -0.11592386341E+00 -0.54301176079E-01 -0.68639717745E-01  0.89190715362E+00  0.88000000000E+00 0. -1.
        -11    1    4    4    0    0  0.12495706179E-01 -0.42391449213E-03  0.39810809179E-02  0.13131355706E-01  0.51100000000E-03 0.  1.
         11    1    4    4    0    0  0.85688567518E-01  0.39364482096E-01  0.66445933761E-01  0.11535777515E+00  0.51100000000E-03 0. -1.
</event>
<event>
 8    1  0.1094134E+005  0.1043930E+01  0.7957747E-01            NaN
         13   -1    0    0    0    0  0.00000000000E+00  0.00000000000E+00  0.74505805969E-08  0.10566000000E+00  0.10566000000E+00 0. -1.
     999900   -1    0    0    0    0 -0.00000000000E+00 -0.00000000000E+00 -0.74505805969E-08  0.93827000000E+00  0.93827000000E+00 0. -1.
     999902    2    1    2    0    0  0.14667125442E-01 -0.46913137958E-02 -0.17864779470E-01  0.10203443404E+01  0.10200717081E+01 0.  0.
     999903    2    3    3    0    0  0.11660859024E+00  0.97228172980E-02 -0.60649297921E-01  0.13330976133E+00  0.20026448373E-01 0.  0.
         14    1    1    2    0    0 -0.14667125442E-01  0.46913137958E-02  0.17864779470E-01  0.23585659613E-01  0.00000000000E+00 0. -1.
     999901    1    3    3    0    0 -0.10194146480E+00 -0.14414131094E-01  0.42784518452E-01  0.88703457905E+00  0.88000000000E+00 0. -1.
        -11    1    4    4    0    0  0.82486518222E-01  0.10264837994E-01 -0.52178691400E-01  0.98144126389E-01  0.51100000000E-03 0.  1.
         11    1    4    4    0    0  0.34122072016E-01 -0.54202069579E-03 -0.84706065220E-02  0.35165634943E-01  0.51100000000E-03 0. -1.
</event>
<event>
 8    1  0.1094134E+005  0.1043930E+01  0.7957747E-01            NaN
         13   -1    0    0    0    0  0.00000000000E+00  0.00000000000E+00  0.74505805969E-08  0.10566000000E+00  0.10566000000E+00 0. -1.
     999900   -1    0    0    0    0 -0.00000000000E+00 -0.00000000000E+00 -0.74505805969E-08  0.93827000000E+00  0.93827000000E+00 0.  1.
     999902    2    1    2    0    0  0.19974210510E-02 -0.22582183281E-01 -0.37016268317E-02  0.10209594377E+01  0.10207009977E+01 0.  0.
     999903    2    3    3    0    0 -0.40897858379E-01  0.10634968022E+00 -0.56932219517E-01  0.12894098135E+00  0.20040203315E-01 0.  0.
         14    1    1    2    0    0 -0.19974210510E-02  0.22582183281E-01  0.37016268317E-02  0.22970562331E-01  0.00000000000E+00 0. -1.
     999901    1    3    3    0    0  0.42895279430E-01 -0.12893186350E+00  0.53230592686E-01  0.89201845632E+00  0.88000000000E+00 0. -1.
        -11    1    4    4    0    0 -0.32086857050E-01  0.58495852330E-01 -0.28237326646E-01  0.72449560884E-01  0.51100000000E-03 0. -1.
         11    1    4    4    0    0 -0.88110013292E-02  0.47853827888E-01 -0.28694892871E-01  0.56491420463E-01  0.51100000000E-03 0.  1.
</event>
<event>
 8    1  0.1437692E+005  0.1043930E+01  0.7957747E-01            NaN
         13   -1    0    0    0    0  0.00000000000E+00  0.00000000000E+00  0.74505805969E-08  0.10566000000E+00  0.10566000000E+00 0.  1.
     999900   -1    0    0    0    0 -0.00000000000E+00 -0.00000000000E+00 -0.74505805969E-08  0.93827000000E+00  0.93827000000E+00 0. -1.
     999902    2    1    2    0    0  0.22628979161E-01 -0.81365470415E-02  0.54398535530E-03  0.10198765176E+01  0.10195928311E+01 0.  0.
     999903    2    3    3    0    0  0.27393640906E-02  0.21483280461E-01 -0.12660986562E+00  0.13002201669E+00  0.20165100982E-01 0.  0.
         14    1    1    2    0    0 -0.22628979161E-01  0.81365470415E-02 -0.54398535530E-03  0.24053482402E-01  0.00000000000E+00 0.  1.
     999901    1    3    3    0    0  0.19889615070E-01 -0.29619827503E-01  0.12715385097E+00  0.88985450091E+00  0.88000000000E+00 0.  1.
        -11    1    4    4    0    0 -0.61894661725E-02  0.55871048654E-02 -0.71177113882E-01  0.71665667469E-01  0.51100000000E-03 0. -1.
         11    1    4    4    0    0  0.89288302631E-02  0.15896175596E-01 -0.55432751735E-01  0.58356349221E-01  0.51100000000E-03 0.  1.
</event>
<event>
 8    1  0.1094134E+005  0.1043930E+01  0.7957747E-01            NaN
         13   -1    0    0    0    0  0.00000000000E+00  0.00000000000E+00  0.74505805969E-08  0.10566000000E+00  0.10566000000E+00 0. -1.
     999900   -1    0    0    0    0 -0.00000000000E+00 -0.00000000000E+00 -0.74505805969E-08  0.93827000000E+00  0.93827000000E+00 0. -1.
     999902    2    1    2    0    0 -0.13622920420E-01  0.45591552420E-02 -0.18526889115E-01  0.10204861207E+01  0.10202167941E+01 0.  0.
     999903    2    3    3    0    0  0.42802186312E-01  0.10673530710E-01 -0.12326298993E+00  0.13245975335E+00  0.20146219530E-01 0.  0.
         14    1    1    2    0    0  0.13622920420E-01 -0.45591552420E-02  0.18526889115E-01  0.23443879320E-01  0.00000000000E+00 0. -1.
     999901    1    3    3    0    0 -0.56425106733E-01 -0.61143754675E-02  0.10473610081E+00  0.88802636733E+00  0.88000000000E+00 0.  1.
        -11    1    4    4    0    0  0.35429497584E-01  0.67625017485E-02 -0.72125915574E-01  0.80643595823E-01  0.51100000000E-03 0. -1.
         11    1    4    4    0    0  0.73726887283E-02  0.39110289611E-02 -0.51137074352E-01  0.51816157528E-01  0.51100000000E-03 0.  1.
</event>
<event>
 8    1  0.1094134E+005  0.1043930E+01  0.7957747E-01            NaN
         13   -1    0    0    0    0  0.00000000000E+00  0.00000000000E+00  0.74505805969E-08  0.10566000000E+00  0.10566000000E+00 0.  1.
     999900   -1    0    0    0    0 -0.00000000000E+00 -0.00000000000E+00 -0.74505805969E-08  0.93827000000E+00  0.93827000000E+00 0.  1.
     999902    2    1    2    0    0 -0.47130047348E-02 -0.14819425955E-01  0.16735711918E-01  0.10210846098E+01  0.10208290104E+01 0.  0.
     999903    2    3    3    0    0  0.19671159460E-01  0.10610883336E+00 -0.66451765790E-01  0.12859461670E+00  0.21787593631E-01 0.  0.
         14    1    1    2    0    0  0.47130047348E-02  0.14819425955E-01 -0.16735711918E-01  0.22845390184E-01  0.00000000000E+00 0.  1.
     999901    1    3    3    0    0 -0.24384164194E-01 -0.12092825931E+00  0.83187477708E-01  0.89248999312E+00  0.88000000000E+00 0. -1.
        -11    1    4    4    0    0  0.66342046462E-03  0.11162648495E-01 -0.15662978225E-01  0.19251879286E-01  0.51100000000E-03 0.  1.
         11    1    4    4    0    0  0.19007738995E-01  0.94946184865E-01 -0.50788787565E-01  0.10934273741E+00  0.51100000000E-03 0. -1.
</event>
<event>
 8    1  0.1094134E+005  0.1043930E+01  0.7957747E-01            NaN
         13   -1    0    0    0    0  0.00000000000E+00  0.00000000000E+00  0.74505805969E-08  0.10566000000E+00  0.10566000000E+00 0.  1.
     999900   -1    0    0    0    0 -0.00000000000E+00 -0.00000000000E+00 -0.74505805969E-08  0.93827000000E+00  0.93827000000E+00 0. -1.
     999902    2    1    2    0    0  0.16167862355E-01 -0.89360831151E-02 -0.15661975977E-01  0.10197111882E+01  0.10194235412E+01 0.  0.
     999903    2    3    3    0    0  0.43290657834E-01  0.12064567920E+00  0.79091887711E-03  0.12965625903E+00  0.19510483985E-01 0.  0.
         14    1    1    2    0    0 -0.16167862355E-01  0.89360831151E-02  0.15661975977E-01  0.24218811822E-01  0.00000000000E+00 0.  1.
     999901    1    3    3    0    0 -0.27122795480E-01 -0.12958176232E+00 -0.16452894854E-01  0.89005492915E+00  0.88000000000E+00 0. -1.
        -11    1    4    4    0    0  0.39768692960E-01  0.98853397043E-01 -0.55016784691E-02  0.10669616972E+00  0.51100000000E-03 0. -1.
         11    1    4    4    0    0  0.35219648742E-02  0.21792282161E-01  0.62925973462E-02  0.22960089301E-01  0.51100000000E-03 0.  1.
</event>
<event>
 8    1  0.1094134E+005  0.1043930E+01  0.7957747E-01            NaN
         13   -1    0    0    0    0  0.00000000000E+00  0.00000000000E+00  0.74505805969E-08  0.10566000000E+00  0.10566000000E+00 0.  1.
     999900   -1    0    0    0    0 -0.00000000000E+00 -0.00000000000E+00 -0.74505805969E-08  0.93827000000E+00  0.93827000000E+00 0. -1.
     999902    2    1    2    0    0 -0.19065855867E-01 -0.97791561886E-02 -0.18591607593E-04  0.10225024686E+01  0.10222779266E+01 0.  0.
     999903    2    3    3    0    0 -0.11652070930E+00 -0.52574614357E-01 -0.39896443573E-01  0.13519240850E+00  0.18549806921E-01 0.  0.
         14    1    1    2    0    0  0.19065855867E-01  0.97791561886E-02  0.18591607593E-04  0.21427531387E-01  0.00000000000E+00 0.  1.
     999901    1    3    3    0    0  0.97454853431E-01  0.42795458169E-01  0.39877851966E-01  0.88731006011E+00  0.88000000000E+00 0. -1.
        -11    1    4    4    0    0 -0.18496704208E-01 -0.22003747565E-02 -0.24566158421E-02  0.18795366398E-01  0.51100000000E-03 0. -1.
         11    1    4    4    0    0 -0.98024005089E-01 -0.50374239601E-01 -0.37439827731E-01  0.11639704210E+00  0.51100000000E-03 0.  1.
</event>
<event>
 8    1  0.1094134E+005  0.1043930E+01  0.7957747E-01            NaN
         13   -1    0    0    0    0  0.00000000000E+00  0.00000000000E+00  0.74505805969E-08  0.10566000000E+00  0.10566000000E+00 0.  1.
     999900   -1    0    0    0    0 -0.00000000000E+00 -0.00000000000E+00 -0.74505805969E-08  0.93827000000E+00  0.93827000000E+00 0. -1.
     999902    2    1    2    0    0  0.21619704837E-02 -0.25792608384E-02  0.24165804789E-01  0.10195309667E+01  0.10192389707E+01 0.  0.
     999903    2    3    3    0    0 -0.60351846470E-01 -0.10249545507E-01 -0.10969410634E+00  0.12718278000E+00  0.19881247623E-01 0.  0.
         14    1    1    2    0    0 -0.21619704837E-02  0.25792608384E-02 -0.24165804789E-01  0.24399033258E-01  0.00000000000E+00 0. -1.
     999901    1    3    3    0    0  0.62513816953E-01  0.76702846687E-02  0.13385991113E+00  0.89234818674E+00  0.88000000000E+00 0. -1.
        -11    1    4    4    0    0 -0.38792891846E-01 -0.67517918275E-02 -0.50189090779E-01  0.63794052269E-01  0.51100000000E-03 0.  1.
         11    1    4    4    0    0 -0.21558954623E-01 -0.34977536795E-02 -0.59505015561E-01  0.63388727729E-01  0.51100000000E-03 0. -1.
</event>
<event>
 8    1  0.1094134E+005  0.1043930E+01  0.7957747E-01            NaN
         13   -1    0    0    0    0  0.00000000000E+00  0.00000000000E+00  0.74505805969E-08  0.10566000000E+00  0.10566000000E+00 0.  1.
     999900   -1    0    0    0    0 -0.00000000000E+00 -0.00000000000E+00 -0.74505805969E-08  0.93827000000E+00  0.93827000000E+00 0.  1.
     999902    2    1    2    0    0  0.15556467591E-01  0.23203329633E-01 -0.11646650230E-01  0.10136638035E+01  0.10132118554E+01 0.  0.
     999903    2    3    3    0    0 -0.32311823452E-01  0.85069578978E-01  0.83517014075E-01  0.12508351499E+00  0.19746059864E-01 0.  0.
         14    1    1    2    0    0 -0.15556467591E-01 -0.23203329633E-01  0.11646650230E-01  0.30266196516E-01  0.00000000000E+00 0.  1.
     999901    1    3    3    0    0  0.47868291043E-01 -0.61866249345E-01 -0.95163664305E-01  0.88858028849E+00  0.88000000000E+00 0. -1.
        -11    1    4    4    0    0 -0.17456476380E-01  0.55092334139E-01  0.64467860064E-01  0.86580944501E-01  0.51100000000E-03 0.  1.
         11    1    4    4    0    0 -0.14855347072E-01  0.29977244839E-01  0.19049154011E-01  0.38502570490E-01  0.51100000000E-03 0. -1.
</event>
<event>
 8    1  0.1094134E+005  0.1043930E+01  0.7957747E-01            NaN
         13   -1    0    0    0    0  0.00000000000E+00  0.00000000000E+00  0.74505805969E-08  0.10566000000E+00  0.10566000000E+00 0. -1.
     999900   -1    0    0    0    0 -0.00000000000E+00 -0.00000000000E+00 -0.74505805969E-08  0.93827000000E+00  0.93827000000E+00 0.  1.
     999902    2    1    2    0    0  0.95231686907E-02  0.20844865679E-01 -0.34043565530E-02  0.10207612967E+01  0.10204983273E+01 0.  0.
     999903    2    3    3    0    0 -0.88178799873E-01  0.94396813814E-01  0.15003557277E-01  0.13211377662E+00  0.23295579746E-01 0.  0.
         14    1    1    2    0    0 -0.95231686907E-02 -0.20844865679E-01  0.34043565530E-02  0.23168703257E-01  0.00000000000E+00 0. -1.
     999901    1    3    3    0    0  0.97701968563E-01 -0.73551948135E-01 -0.18407913830E-01  0.88864752013E+00  0.88000000000E+00 0.  1.
        -11    1    4    4    0    0 -0.68033624379E-01  0.73179472816E-01  0.16126586789E-02  0.99933333162E-01  0.51100000000E-03 0. -1.
         11    1    4    4    0    0 -0.20145175493E-01  0.21217340997E-01  0.13390898598E-01  0.32180443454E-01  0.51100000000E-03 0.  1.
</event>
<event>
 8    1  0.1094134E+005  0.1043930E+01  0.7957747E-01            NaN
         13   -1    0    0    0    0  0.00000000000E+00  0.00000000000E+00  0.74505805969E-08  0.10566000000E+00  0.10566000000E+00 0. -1.
     999900   -1    0    0    0    0 -0.00000000000E+00 -0.00000000000E+00 -0.74505805969E-08  0.93827000000E+00  0.93827000000E+00 0.  1.
     999902    2    1    2    0    0  0.17813995039E-01 -0.14936414761E-01 -0.59765110014E-02  0.10199268004E+01  0.10196443128E+01 0.  0.
     999903    2    3    3    0    0 -0.11141967025E+00 -0.16098263031E-01 -0.58847825193E-01  0.12891722362E+00  0.21979240722E-01 0.  0.
         14    1    1    2    0    0 -0.17813995039E-01  0.14936414761E-01  0.59765110014E-02  0.24003199556E-01  0.00000000000E+00 0. -1.
     999901    1    3    3    0    0  0.12923366529E+00  0.11618482701E-02  0.52871314192E-01  0.89100957683E+00  0.88000000000E+00 0.  1.
        -11    1    4    4    0    0 -0.37730460786E-01  0.41952447087E-02 -0.15181612728E-01  0.40889243516E-01  0.51100000000E-03 0. -1.
         11    1    4    4    0    0 -0.73689209468E-01 -0.20293507740E-01 -0.43666212465E-01  0.88027980100E-01  0.51100000000E-03 0.  1.
</event>
<event>
 8    1  0.1094134E+005  0.1043930E+01  0.7957747E-01            NaN
         13   -1    0    0    0    0  0.00000000000E+00  0.00000000000E+00  0.74505805969E-08  0.10566000000E+00  0.10566000000E+00 0. -1.
     999900   -1    0    0    0    0 -0.00000000000E+00 -0.00000000000E+00 -0.74505805969E-08  0.93827000000E+00  0.93827000000E+00 0. -1.
     999902    2    1    2    0    0 -0.13516010689E-02 -0.79543630247E-02 -0.22153796877E-01  0.10203526924E+01  0.10200802554E+01 0.  0.
     999903    2    3    3    0    0 -0.16208532687E-01 -0.10351971168E+00 -0.79769062166E-01  0.13318135436E+00  0.19877691825E-01 0.  0.
         14    1    1    2    0    0  0.13516010689E-02  0.79543630247E-02  0.22153796877E-01  0.23577307578E-01  0.00000000000E+00 0. -1.
     999901    1    3    3    0    0  0.14856931618E-01  0.95565348657E-01  0.57615265289E-01  0.88717133806E+00  0.88000000000E+00 0.  1.
        -11    1    4    4    0    0 -0.20084946536E-01 -0.87219821736E-01 -0.71116373834E-01  0.11431754952E+00  0.51100000000E-03 0.  1.
         11    1    4    4    0    0  0.38764138492E-02 -0.16299889945E-01 -0.86526883321E-02  0.18863804837E-01  0.51100000000E-03 0. -1.
</event>
<event>
 8    1  0.1094134E+005  0.1043930E+01  0.7957747E-01            NaN
         13   -1    0    0    0    0  0.00000000000E+00  0.00000000000E+00  0.74505805969E-08  0.10566000000E+00  0.10566000000E+00 0.  1.
     999900   -1    0    0    0    0 -0.00000000000E+00 -0.00000000000E+00 -0.74505805969E-08  0.93827000000E+00  0.93827000000E+00 0. -1.
     999902    2    1    2    0    0 -0.15614684011E-01 -0.88801416921E-02  0.14641579379E-01  0.10207556366E+01  0.10204925372E+01 0.  0.
     999903    2    3    3    0    0  0.33199409032E-01 -0.11448875787E+00  0.54030373289E-01  0.13222456083E+00  0.18819585790E-01 0.  0.
         14    1    1    2    0    0  0.15614684011E-01  0.88801416921E-02 -0.14641579379E-01  0.23174363421E-01  0.00000000000E+00 0. -1.
     999901    1    3    3    0    0 -0.48814093044E-01  0.10560861618E+00 -0.39388793910E-01  0.88853107575E+00  0.88000000000E+00 0. -1.
        -11    1    4    4    0    0  0.13087621888E-01 -0.33298149923E-01  0.25138460347E-01  0.43729348779E-01  0.51100000000E-03 0.  1.
         11    1    4    4    0    0  0.20111787145E-01 -0.81190607948E-01  0.28891912942E-01  0.88495212049E-01  0.51100000000E-03 0. -1.
</event>
<event>
 8    1  0.1094134E+005  0.1043930E+01  0.7957747E-01            NaN
         13   -1    0    0    0    0  0.00000000000E+00  0.00000000000E+00  0.74505805969E-08  0.10566000000E+00  0.10566000000E+00 0. -1.
     999900   -1    0    0    0    0 -0.00000000000E+00 -0.00000000000E+00 -0.74505805969E-08  0.93827000000E+00  0.93827000000E+00 0.  1.
     999902    2    1    2    0    0 -0.11147691985E-01  0.16044568328E-01  0.13340943663E-01  0.10202724433E+01  0.10199981268E+01 0.  0.
     999903    2    3    3    0    0  0.75223244026E-01  0.66064061800E-01 -0.80054672115E-01  0.12971945257E+00  0.19884394506E-01 0.  0.
         14    1    1    2    0    0  0.11147691985E-01 -0.16044568328E-01 -0.13340943663E-01  0.23657556662E-01  0.00000000000E+00 0.  1.
     999901    1    3    3    0    0 -0.86370936012E-01 -0.50019493472E-01  0.93395615778E-01  0.89055299077E+00  0.88000000000E+00 0.  1.
        -11    1    4    4    0    0  0.46581106317E-01  0.46955091765E-01 -0.62784575585E-01  0.91196185013E-01  0.51100000000E-03 0.  1.
         11    1    4    4    0    0  0.28642137709E-01  0.19108970034E-01 -0.17270096530E-01  0.38523267560E-01  0.51100000000E-03 0. -1.
</event>
<event>
 8    1  0.1094134E+005  0.1043930E+01  0.7957747E-01            NaN
         13   -1    0    0    0    0  0.00000000000E+00  0.00000000000E+00  0.74505805969E-08  0.10566000000E+00  0.10566000000E+00 0.  1.
     999900   -1    0    0    0    0 -0.00000000000E+00 -0.00000000000E+00 -0.74505805969E-08  0.93827000000E+00  0.93827000000E+00 0. -1.
     999902    2    1    2    0    0 -0.13170978985E-01 -0.10336353322E-01 -0.16900974079E-01  0.10201401322E+01  0.10198627022E+01 0.  0.
     999903    2    3    3    0    0  0.43965709778E-01  0.97493152729E-01  0.66928914350E-01  0.12777291303E+00  0.20212354179E-01 0.  0.
         14    1    1    2    0    0  0.13170978985E-01  0.10336353322E-01  0.16900974079E-01  0.23789867848E-01  0.00000000000E+00 0.  1.
     999901    1    3    3    0    0 -0.57136688763E-01 -0.10782950605E+00 -0.83829888429E-01  0.89236721913E+00  0.88000000000E+00 0. -1.
        -11    1    4    4    0    0  0.33562006622E-01  0.50525151269E-01  0.39654096103E-01  0.72470046626E-01  0.51100000000E-03 0.  1.
         11    1    4    4    0    0  0.10403703156E-01  0.46968001461E-01  0.27274818247E-01  0.55302866399E-01  0.51100000000E-03 0. -1.
</event>
<event>
 8    1  0.1094134E+005  0.1043930E+01  0.7957747E-01            NaN
         13   -1    0    0    0    0  0.00000000000E+00  0.00000000000E+00  0.74505805969E-08  0.10566000000E+00  0.10566000000E+00 0. -1.
     999900   -1    0    0    0    0 -0.00000000000E+00 -0.00000000000E+00 -0.74505805969E-08  0.93827000000E+00  0.93827000000E+00 0.  1.
     999902    2    1    2    0    0 -0.57956043281E-02 -0.17545797158E-01 -0.15891086007E-01  0.10195584871E+01  0.10192671573E+01 0.  0.
     999903    2    3    3    0    0  0.45485692112E-01  0.98375319127E-02  0.11721531639E+00  0.12765213974E+00  0.19746218915E-01 0.  0.
         14    1    1    2    0    0  0.57956043281E-02  0.17545797158E-01  0.15891086007E-01  0.24371512918E-01  0.00000000000E+00 0. -1.
     999901    1    3    3    0    0 -0.51281296440E-01 -0.27383329070E-01 -0.13310640240E+00  0.89190634735E+00  0.88000000000E+00 0.  1.
        -11    1    4    4    0    0  0.26542150089E-01  0.68704330951E-02  0.43010939522E-01  0.51008730840E-01  0.51100000000E-03 0. -1.
         11    1    4    4    0    0  0.18943542023E-01  0.29670988176E-02  0.74204376870E-01  0.76643408897E-01  0.51100000000E-03 0.  1.
</event>
<event>
 8    1  0.1094134E+005  0.1043930E+01  0.7957747E-01            NaN
         13   -1    0    0    0    0  0.00000000000E+00  0.00000000000E+00  0.74505805969E-08  0.10566000000E+00  0.10566000000E+00 0.  1.
     999900   -1    0    0    0    0 -0.00000000000E+00 -0.00000000000E+00 -0.74505805969E-08  0.93827000000E+00  0.93827000000E+00 0.  1.
     999902    2    1    2    0    0 -0.94320955918E-02  0.19694694927E-01 -0.88114732661E-02  0.10203824418E+01  0.10201106999E+01 0.  0.
     999903    2    3    3    0    0 -0.21918028121E-01 -0.11439884788E+00  0.49827304025E-01  0.12820786084E+00  0.19672290160E-01 0.  0.
         14    1    1    2    0    0  0.94320955918E-02 -0.19694694927E-01  0.88114732661E-02  0.23547558188E-01  0.00000000000E+00 0.  1.
     999901    1    3    3    0    0  0.12485932529E-01  0.13409354281E+00 -0.58638777291E-01  0.89217458097E+00  0.88000000000E+00 0.  1.
        -11    1    4    4    0    0 -0.25102743602E-01 -0.95895151541E-01  0.44685985277E-01  0.10873419989E+00  0.51100000000E-03 0. -1.
         11    1    4    4    0    0  0.31847154817E-02 -0.18503696344E-01  0.51413187482E-02  0.19473660944E-01  0.51100000000E-03 0.  1.
</event>
<event>
 8    1  0.1094134E+005  0.1043930E+01  0.7957747E-01            NaN
         13   -1    0    0    0    0  0.00000000000E+00  0.00000000000E+00  0.74505805969E-08  0.10566000000E+00  0.10566000000E+00 0.  1.
     999900   -1    0    0    0    0 -0.00000000000E+00 -0.00000000000E+00 -0.74505805969E-08  0.93827000000E+00  0.93827000000E+00 0.  1.
     999902    2    1    2    0    0 -0.15365525859E-01  0.36918032164E-02  0.18017540637E-01  0.10199641792E+01  0.10196825811E+01 0.  0.
     999903    2    3    3    0    0 -0.98952189196E-01  0.63614615860E-01 -0.54106142276E-01  0.13104387940E+00  0.20166025854E-01 0.  0.
         14    1    1    2    0    0  0.15365525859E-01 -0.36918032164E-02 -0.18017540637E-01  0.23965820798E-01  0.00000000000E+00 0.  1.
     999901    1    3    3    0    0  0.83586663337E-01 -0.59922812644E-01  0.72123682913E-01  0.88892029980E+00  0.88000000000E+00 0. -1.
        -11    1    4    4    0    0 -0.25540206775E-01  0.18258286410E-01 -0.24447930973E-01  0.39794844322E-01  0.51100000000E-03 0.  1.
         11    1    4    4    0    0 -0.73411982421E-01  0.45356329450E-01 -0.29658211303E-01  0.91249035079E-01  0.51100000000E-03 0. -1.
</event>
<event>
 8    1  0.1094134E+005  0.1043930E+01  0.7957747E-01            NaN
         13   -1    0    0    0    0  0.00000000000E+00  0.00000000000E+00  0.74505805969E-08  0.10566000000E+00  0.10566000000E+00 0.  1.
     999900   -1    0    0    0    0 -0.00000000000E+00 -0.00000000000E+00 -0.74505805969E-08  0.93827000000E+00  0.93827000000E+00 0.  1.
     999902    2    1    2    0    0  0.54198909027E-02 -0.22119383842E-01  0.52602675537E-02  0.10205566653E+01  0.10202889759E+01 0.  0.
     999903    2    3    3    0    0  0.11085463761E-01  0.10466639394E+00  0.71695192971E-01  0.12897361733E+00  0.20397346496E-01 0.  0.
         14    1    1    2    0    0 -0.54198909027E-02  0.22119383842E-01 -0.52602675537E-02  0.23373334672E-01  0.00000000000E+00 0. -1.
     999901    1    3    3    0    0 -0.56655728580E-02 -0.12678577778E+00 -0.66434925417E-01  0.89158304800E+00  0.88000000000E+00 0.  1.
        -11    1    4    4    0    0  0.11279181046E-01  0.89217130094E-01  0.68841776368E-01  0.11325355412E+00  0.51100000000E-03 0. -1.
         11    1    4    4    0    0 -0.19371728489E-03  0.15449263848E-01  0.28534166024E-02  0.15720063204E-01  0.51100000000E-03 0.  1.
</event>
<event>
 8    1  0.1094134E+005  0.1043930E+01  0.7957747E-01            NaN
         13   -1    0    0    0    0  0.00000000000E+00  0.00000000000E+00  0.74505805969E-08  0.10566000000E+00  0.10566000000E+00 0.  1.
     999900   -1    0    0    0    0 -0.00000000000E+00 -0.00000000000E+00 -0.74505805969E-08  0.93827000000E+00  0.93827000000E+00 0. -1.
     999902    2    1    2    0    0  0.15108736813E-01  0.37731161608E-02  0.16144403560E-01  0.10214989479E+01  0.10212526369E+01 0.  0.
     999903    2    3    3    0    0 -0.67271939404E-01  0.98834832089E-01  0.51519743834E-01  0.13185029792E+00  0.20889691031E-01 0.  0.
         14    1    1    2    0    0 -0.15108736813E-01 -0.37731161608E-02 -0.16144403560E-01  0.22431052137E-01  0.00000000000E+00 0. -1.
     999901    1    3    3    0    0  0.82380676217E-01 -0.95061715928E-01 -0.35375340274E-01  0.88964864994E+00  0.88000000000E+00 0. -1.
        -11    1    4    4    0    0 -0.25476579336E-01  0.21010521730E-01  0.14411869301E-01  0.36034167339E-01  0.51100000000E-03 0. -1.
         11    1    4    4    0    0 -0.41795360068E-01  0.77824310358E-01  0.37107874532E-01  0.95816130579E-01  0.51100000000E-03 0.  1.
</event>
<event>
 8    1  0.1094134E+005  0.1043930E+01  0.7957747E-01            NaN
         13   -1    0    0    0    0  0.00000000000E+00  0.00000000000E+00  0.74505805969E-08  0.10566000000E+00  0.10566000000E+00 0. -1.
     999900   -1    0    0    0    0 -0.00000000000E+00 -0.00000000000E+00 -0.74505805969E-08  0.93827000000E+00  0.93827000000E+00 0. -1.
     999902    2    1    2    0    0 -0.11778822773E-02 -0.21223185276E-01 -0.11453482638E-01  0.10197847465E+01  0.10194988651E+01 0.  0.
     999903    2    3    3    0    0  0.41202211741E-01  0.72694851429E-01  0.93832180833E-01  0.12753940981E+00  0.21901123685E-01 0.  0.
         14    1    1    2    0    0  0.11778822773E-02  0.21223185276E-01  0.11453482638E-01  0.24145253456E-01  0.00000000000E+00 0. -1.
     999901    1    3    3    0    0 -0.42380094018E-01 -0.93918036705E-01 -0.10528566347E+00  0.89224533673E+00  0.88000000000E+00 0. -1.
        -11    1    4    4    0    0  0.29662338660E-01  0.30333280864E-01  0.44065019449E-01  0.61171474747E-01  0.51100000000E-03 0.  1.
         11    1    4    4    0    0  0.11539873081E-01  0.42361570566E-01  0.49767161384E-01  0.66367935065E-01  0.51100000000E-03 0. -1.
</event>
<event>
 8    1  0.1094134E+005  0.1043930E+01  0.7957747E-01            NaN
         13   -1    0    0    0    0  0.00000000000E+00  0.00000000000E+00  0.74505805969E-08  0.10566000000E+00  0.10566000000E+00 0. -1.
     999900   -1    0    0    0    0 -0.00000000000E+00 -0.00000000000E+00 -0.74505805969E-08  0.93827000000E+00  0.93827000000E+00 0.  1.
     999902    2    1    2    0    0 -0.10322981859E-01  0.13723665880E-01  0.15547878379E-01  0.10207645196E+01  0.10205016242E+01 0.  0.
     999903    2    3    3    0    0  0.44288564741E-01 -0.19174432180E-01 -0.11761207946E+00  0.12846620612E+00  0.18488619853E-01 0.  0.
         14    1    1    2    0    0  0.10322981859E-01 -0.13723665880E-01 -0.15547878379E-01  0.23165480390E-01  0.00000000000E+00 0.  1.
     999901    1    3    3    0    0 -0.54611546599E-01  0.32898098059E-01  0.13315995784E+00  0.89229831349E+00  0.88000000000E+00 0. -1.
        -11    1    4    4    0    0  0.10591337673E-01  0.27039337863E-02 -0.18132500174E-01  0.21178677371E-01  0.51100000000E-03 0.  1.
         11    1    4    4    0    0  0.33697227067E-01 -0.21878365966E-01 -0.99479579289E-01  0.10728752875E+00  0.51100000000E-03 0. -1.
</event>
<event>
 8    1  0.1094134E+005  0.1043930E+01  0.7957747E-01            NaN
         13   -1    0    0    0    0  0.00000000000E+00  0.00000000000E+00  0.74505805969E-08  0.10566000000E+00  0.10566000000E+00 0.  1.
     999900   -1    0    0    0    0 -0.00000000000E+00 -0.00000000000E+00 -0.74505805969E-08  0.93827000000E+00  0.93827000000E+00 0. -1.
     999902    2    1    2    0    0  0.22946961156E-01  0.32908862986E-02  0.24397291861E-02  0.10206202330E+01  0.10203540144E+01 0.  0.
     999903    2    3    3    0    0  0.43555703746E-01  0.12258934077E+00 -0.10917707200E-01  0.13223109382E+00  0.20990951464E-01 0.  0.
         14    1    1    2    0    0 -0.22946961156E-01 -0.32908862986E-02 -0.24397291861E-02  0.23309766997E-01  0.00000000000E+00 0.  1.
     999901    1    3    3    0    0 -0.20608742590E-01 -0.11929845447E+00  0.13357436386E-01  0.88838913918E+00  0.88000000000E+00 0. -1.
        -11    1    4    4    0    0  0.48207427632E-02  0.38418339607E-01 -0.79228088668E-02  0.39525186910E-01  0.51100000000E-03 0.  1.
         11    1    4    4    0    0  0.38734960983E-01  0.84171001163E-01 -0.29948983330E-02  0.92705906911E-01  0.51100000000E-03 0. -1.
</event>
<event>
 8    1  0.1094134E+005  0.1043930E+01  0.7957747E-01            NaN
         13   -1    0    0    0    0  0.00000000000E+00  0.00000000000E+00  0.74505805969E-08  0.10566000000E+00  0.10566000000E+00 0. -1.
     999900   -1    0    0    0    0 -0.00000000000E+00 -0.00000000000E+00 -0.74505805969E-08  0.93827000000E+00  0.93827000000E+00 0.  1.
     999902    2    1    2    0    0 -0.17238793808E-01 -0.92235898502E-02  0.13591047019E-01  0.10201189273E+01  0.10198409968E+01 0.  0.
     999903    2    3    3    0    0  0.84288168823E-02  0.95071902239E-01 -0.83097406446E-01  0.12833137813E+00  0.21308498434E-01 0.  0.
         14    1    1    2    0    0  0.17238793808E-01  0.92235898502E-02 -0.13591047019E-01  0.23811072650E-01  0.00000000000E+00 0.  1.
     999901    1    3    3    0    0 -0.25667610690E-01 -0.10429549209E+00  0.96688453465E-01  0.89178754922E+00  0.88000000000E+00 0. -1.
        -11    1    4    4    0    0  0.11681438374E-01  0.83696819191E-01 -0.79315684897E-01  0.11590018351E+00  0.51100000000E-03 0. -1.
         11    1    4    4    0    0 -0.32526214922E-02  0.11375083047E-01 -0.37817215496E-02  0.12431194624E-01  0.51100000000E-03 0.  1.
</event>
<event>
 8    1  0.1094134E+005  0.1043930E+01  0.7957747E-01            NaN
         13   -1    0    0    0    0  0.00000000000E+00  0.00000000000E+00  0.74505805969E-08  0.10566000000E+00  0.10566000000E+00 0.  1.
     999900   -1    0    0    0    0 -0.00000000000E+00 -0.00000000000E+00 -0.74505805969E-08  0.93827000000E+00  0.93827000000E+00 0. -1.
     999902    2    1    2    0    0 -0.23254626775E-01  0.45769479234E-02  0.60106309506E-03  0.10202216176E+01  0.10199461072E+01 0.  0.
     999903    2    3    3    0    0 -0.71392124407E-01  0.93172666237E-02 -0.10893944048E+00  0.13211193338E+00  0.20052789440E-01 0.  0.
         14    1    1    2    0    0  0.23254626775E-01 -0.45769479234E-02 -0.60106309506E-03  0.23708382391E-01  0.00000000000E+00 0.  1.
     999901    1    3    3    0    0  0.48137497631E-01 -0.47403187003E-02  0.10954050358E+00  0.88810968423E+00  0.88000000000E+00 0.  1.
        -11    1    4    4    0    0 -0.57708109574E-01  0.15129799733E-01 -0.90898525494E-01  0.10872874417E+00  0.51100000000E-03 0. -1.
         11    1    4    4    0    0 -0.13684014833E-01 -0.58125331095E-02 -0.18040914987E-01  0.23383189211E-01  0.51100000000E-03 0.  1.
</event>
<event>
 8    1  0.1094134E+005  0.1043930E+01  0.7957747E-01            NaN
         13   -1    0    0    0    0  0.00000000000E+00  0.00000000000E+00  0.74505805969E-08  0.10566000000E+00  0.10566000000E+00 0.  1.
     999900   -1    0    0    0    0 -0.00000000000E+00 -0.00000000000E+00 -0.74505805969E-08  0.93827000000E+00  0.93827000000E+00 0.  1.
     999902    2    1    2    0    0  0.15642011353E-01 -0.51103432332E-02 -0.17197343115E-01  0.10201279678E+01  0.10198502507E+01 0.  0.
     999903    2    3    3    0    0 -0.44895567445E-01 -0.11641300921E+00  0.30416991521E-01  0.12977960520E+00  0.18707000354E-01 0.  0.
         14    1    1    2    0    0 -0.15642011353E-01  0.51103432332E-02  0.17197343115E-01  0.23802032210E-01  0.00000000000E+00 0.  1.
     999901    1    3    3    0    0  0.60537578799E-01  0.11130266598E+00 -0.47614334636E-01  0.89034836259E+00  0.88000000000E+00 0.  1.
        -11    1    4    4    0    0 -0.33685287419E-01 -0.69566850325E-01  0.25333580055E-01  0.81340621168E-01  0.51100000000E-03 0.  1.
         11    1    4    4    0    0 -0.11210280027E-01 -0.46846158890E-01  0.50834114667E-02  0.48438984033E-01  0.51100000000E-03 0. -1.
</event>
<event>
 8    1  0.1094134E+005  0.1043930E+01  0.7957747E-01            NaN
         13   -1    0    0    0    0  0.00000000000E+00  0.00000000000E+00  0.74505805969E-08  0.10566000000E+00  0.10566000000E+00 0. -1.
     999900   -1    0    0    0    0 -0.00000000000E+00 -0.00000000000E+00 -0.74505805969E-08  0.93827000000E+00  0.93827000000E+00 0.  1.
     999902    2    1    2    0    0  0.17949666800E-03  0.19297260067E-01  0.12448925842E-01  0.10209649783E+01  0.10207066644E+01 0.  0.
     999903    2    3    3    0    0 -0.12046363950E+00  0.45876200565E-01 -0.17473224558E-01  0.13183251270E+00  0.21409895079E-01 0.  0.
         14    1    1    2    0    0 -0.17949666800E-03 -0.19297260067E-01 -0.12448925842E-01  0.22965021658E-01  0.00000000000E+00 0.  1.
     999901    1    3    3    0    0  0.12064313617E+00 -0.26578940498E-01  0.29922150400E-01  0.88913246565E+00  0.88000000000E+00 0.  1.
        -11    1    4    4    0    0 -0.53820619624E-01  0.31443903036E-01 -0.52468450444E-02  0.62555324623E-01  0.51100000000E-03 0. -1.
         11    1    4    4    0    0 -0.66643019876E-01  0.14432297530E-01 -0.12226379514E-01  0.69277188072E-01  0.51100000000E-03 0.  1.
</event>
<event>
 8    1  0.1094134E+005  0.1043930E+01  0.7957747E-01            NaN
         13   -1    0    0    0    0  0.00000000000E+00  0.00000000000E+00  0.74505805969E-08  0.10566000000E+00  0.10566000000E+00 0. -1.
     999900   -1    0    0    0    0 -0.00000000000E+00 -0.00000000000E+00 -0.74505805969E-08  0.93827000000E+00  0.93827000000E+00 0. -1.
     999902    2    1    2    0    0 -0.23693213517E-01 -0.31070494275E-02  0.15594610071E-02  0.10199830995E+01  0.10197019512E+01 0.  0.
     999903    2    3    3    0    0 -0.40535298607E-01 -0.34039796122E-01 -0.11930720080E+00  0.13102346008E+00  0.11450798075E-01 0.  0.
         14    1    1    2    0    0  0.23693213517E-01  0.31070494275E-02 -0.15594610071E-02  0.23946900458E-01  0.00000000000E+00 0. -1.
     999901    1    3    3    0    0  0.16842085090E-01  0.30932746694E-01  0.12086666181E+00  0.88895963946E+00  0.88000000000E+00 0.  1.
        -11    1    4    4    0    0 -0.13887038220E-01 -0.50765723665E-02 -0.33000115948E-01  0.36164764497E-01  0.51100000000E-03 0. -1.
         11    1    4    4    0    0 -0.26648260388E-01 -0.28963223755E-01 -0.86307084852E-01  0.94858695588E-01  0.51100000000E-03 0.  1.
</event>
<event>
 8    1  0.1094134E+005  0.1043930E+01  0.7957747E-01            NaN
         13   -1    0    0    0    0  0.00000000000E+00  0.00000000000E+00  0.74505805969E-08  0.10566000000E+00  0.10566000000E+00 0. -1.
     999900   -1    0    0    0    0 -0.00000000000E+00 -0.00000000000E+00 -0.74505805969E-08  0.93827000000E+00  0.93827000000E+00 0. -1.
     999902    2    1    2    0    0 -0.12015662928E-01 -0.55445564663E-02 -0.16654633900E-01  0.10226580680E+01  0.10224368092E+01 0.  0.
     999903    2    3    3    0    0 -0.12629178301E+00  0.17739746187E-01 -0.38730682015E-01  0.13468929472E+00  0.19412040916E-01 0.  0.
         14    1    1    2    0    0  0.12015662928E-01  0.55445564663E-02  0.16654633900E-01  0.21271932031E-01  0.00000000000E+00 0. -1.
     999901    1    3    3    0    0  0.11427612008E+00 -0.23284302653E-01  0.22076048115E-01  0.88796877325E+00  0.88000000000E+00 0. -1.
        -11    1    4    4    0    0 -0.39813320146E-01  0.10694186817E-01 -0.20437274295E-01  0.46015316953E-01  0.51100000000E-03 0. -1.
         11    1    4    4    0    0 -0.86478462860E-01  0.70455593695E-02 -0.18293407720E-01  0.88673977763E-01  0.51100000000E-03 0.  1.
</event>
<event>
 8    1  0.1094134E+005  0.1043930E+01  0.7957747E-01            NaN
         13   -1    0    0    0    0  0.00000000000E+00  0.00000000000E+00  0.74505805969E-08  0.10566000000E+00  0.10566000000E+00 0.  1.
     999900   -1    0    0    0    0 -0.00000000000E+00 -0.00000000000E+00 -0.74505805969E-08  0.93827000000E+00  0.93827000000E+00 0. -1.
     999902    2    1    2    0    0 -0.38653627403E-02  0.23323238177E-01  0.43137938849E-03  0.10202846927E+01  0.10200106635E+01 0.  0.
     999903    2    3    3    0    0  0.41467355313E-01  0.56456068660E-01  0.10983254120E+00  0.13173449493E+00  0.19594917775E-01 0.  0.
         14    1    1    2    0    0  0.38653627403E-02 -0.23323238177E-01 -0.43137938849E-03  0.23645307280E-01  0.00000000000E+00 0. -1.
     999901    1    3    3    0    0 -0.45332718053E-01 -0.33132830482E-01 -0.10940116182E+00  0.88855019779E+00  0.88000000000E+00 0. -1.
        -11    1    4    4    0    0  0.22602549754E-01  0.14844092720E-01  0.40597138373E-01  0.48781257765E-01  0.51100000000E-03 0. -1.
         11    1    4    4    0    0  0.18864805559E-01  0.41611975939E-01  0.69235402831E-01  0.82953237167E-01  0.51100000000E-03 0.  1.
</event>
<event>
 8    1  0.1094134E+005  0.1043930E+01  0.7957747E-01            NaN
         13   -1    0    0    0    0  0.00000000000E+00  0.00000000000E+00  0.74505805969E-08  0.10566000000E+00  0.10566000000E+00 0. -1.
     999900   -1    0    0    0    0 -0.00000000000E+00 -0.00000000000E+00 -0.74505805969E-08  0.93827000000E+00  0.93827000000E+00 0.  1.
     999902    2    1    2    0    0  0.48611502449E-02 -0.15078208416E-01  0.15590699500E-01  0.10217026956E+01  0.10214608877E+01 0.  0.
     999903    2    3    3    0    0 -0.83113262065E-01  0.78786353366E-01  0.60810118617E-01  0.13120011330E+00  0.20012381095E-01 0.  0.
         14    1    1    2    0    0 -0.48611502449E-02  0.15078208416E-01 -0.15590699500E-01  0.22227304417E-01  0.00000000000E+00 0. -1.
     999901    1    3    3    0    0  0.87974412310E-01 -0.93864561782E-01 -0.45219419118E-01  0.89050258228E+00  0.88000000000E+00 0. -1.
        -11    1    4    4    0    0 -0.51021147120E-01  0.36782849084E-01  0.27000071288E-01  0.68449984739E-01  0.51100000000E-03 0. -1.
         11    1    4    4    0    0 -0.32092114945E-01  0.42003504282E-01  0.33810047329E-01  0.62750128566E-01  0.51100000000E-03 0.  1.
</event>
<event>
 8    1  0.1094134E+005  0.1043930E+01  0.7957747E-01            NaN
         13   -1    0    0    0    0  0.00000000000E+00  0.00000000000E+00  0.74505805969E-08  0.10566000000E+00  0.10566000000E+00 0.  1.
     999900   -1    0    0    0    0 -0.00000000000E+00 -0.00000000000E+00 -0.74505805969E-08  0.93827000000E+00  0.93827000000E+00 0. -1.
     999902    2    1    2    0    0  0.13264915652E-01  0.70795570936E-02  0.17097486261E-01  0.10211615536E+01  0.10209076924E+01 0.  0.
     999903    2    3    3    0    0  0.12284476835E-01  0.94698895612E-01 -0.86921714783E-01  0.13071329347E+00  0.20292643704E-01 0.  0.
         14    1    1    2    0    0 -0.13264915652E-01 -0.70795570936E-02 -0.17097486261E-01  0.22768446420E-01  0.00000000000E+00 0. -1.
     999901    1    3    3    0    0  0.98043881687E-03 -0.87619338519E-01  0.10401920104E+00  0.89044826011E+00  0.88000000000E+00 0.  1.
        -11    1    4    4    0    0  0.51979254954E-02  0.58751570121E-01 -0.66010878682E-01  0.88523797064E-01  0.51100000000E-03 0.  1.
         11    1    4    4    0    0  0.70865513400E-02  0.35947325491E-01 -0.20910836100E-01  0.42189496409E-01  0.51100000000E-03 0. -1.
</event>
<event>
 8    1  0.1094134E+005  0.1043930E+01  0.7957747E-01            NaN
         13   -1    0    0    0    0  0.00000000000E+00  0.00000000000E+00  0.74505805969E-08  0.10566000000E+00  0.10566000000E+00 0. -1.
     999900   -1    0    0    0    0 -0.00000000000E+00 -0.00000000000E+00 -0.74505805969E-08  0.93827000000E+00  0.93827000000E+00 0. -1.
     999902    2    1    2    0    0 -0.34786956464E-02 -0.87187454010E-02 -0.22129218431E-01  0.10198921101E+01  0.10196087956E+01 0.  0.
     999903    2    3    3    0    0  0.10397325420E+00  0.69466983130E-01  0.23242116921E-01  0.12875941076E+00  0.20067150467E-01 0.  0.
         14    1    1    2    0    0  0.34786956464E-02  0.87187454010E-02  0.22129218431E-01  0.24037889948E-01  0.00000000000E+00 0. -1.
     999901    1    3    3    0    0 -0.10745194984E+00 -0.78185728531E-01 -0.45371335352E-01  0.89113269929E+00  0.88000000000E+00 0.  1.
        -11    1    4    4    0    0  0.95175230620E-01  0.63778657342E-01  0.26837027136E-01  0.11767127433E+00  0.51100000000E-03 0. -1.
         11    1    4    4    0    0  0.87980235752E-02  0.56883257882E-02 -0.35949102149E-02  0.11088136433E-01  0.51100000000E-03 0.  1.
</event>
<event>
 8    1  0.1094134E+005  0.1043930E+01  0.7957747E-01            NaN
         13   -1    0    0    0    0  0.00000000000E+00  0.00000000000E+00  0.74505805969E-08  0.10566000000E+00  0.10566000000E+00 0.  1.
     999900   -1    0    0    0    0 -0.00000000000E+00 -0.00000000000E+00 -0.74505805969E-08  0.93827000000E+00  0.93827000000E+00 0. -1.
     999902    2    1    2    0    0  0.20062622508E-01 -0.31811169423E-03  0.13192829325E-01  0.10199162381E+01  0.10196334988E+01 0.  0.
     999903    2    3    3    0    0  0.11284334682E+00  0.47688882705E-01  0.48760698414E-01  0.13302390659E+00  0.17604077861E-01 0.  0.
         14    1    1    2    0    0 -0.20062622508E-01  0.31811169423E-03 -0.13192829325E-01  0.24013761941E-01  0.00000000000E+00 0. -1.
     999901    1    3    3    0    0 -0.92780724316E-01 -0.48006994399E-01 -0.35567869088E-01  0.88689233147E+00  0.88000000000E+00 0.  1.
        -11    1    4    4    0    0  0.97337440187E-01  0.40363794821E-01  0.35018768980E-01  0.11104228247E+00  0.51100000000E-03 0. -1.
         11    1    4    4    0    0  0.15505906637E-01  0.73250878838E-02  0.13741929433E-01  0.21981624114E-01  0.51100000000E-03 0.  1.
</event>
<event>
 8    1  0.1094134E+005  0.1043930E+01  0.7957747E-01            NaN
         13   -1    0    0    0    0  0.00000000000E+00  0.00000000000E+00  0.74505805969E-08  0.10566000000E+00  0.10566000000E+00 0.  1.
     999900   -1    0    0    0    0 -0.00000000000E+00 -0.00000000000E+00 -0.74505805969E-08  0.93827000000E+00  0.93827000000E+00 0. -1.
     999902    2    1    2    0    0  0.11349300945E-01  0.12654759654E-01 -0.16714537982E-01  0.10200904246E+01  0.10198118204E+01 0.  0.
     999903    2    3    3    0    0 -0.12644194147E-01 -0.36073083614E-01 -0.12442850753E+00  0.13186050521E+00  0.21061726936E-01 0.  0.
         14    1    1    2    0    0 -0.11349300945E-01 -0.12654759654E-01  0.16714537982E-01  0.23839575369E-01  0.00000000000E+00 0.  1.
     999901    1    3    3    0    0  0.23993495092E-01  0.48727843268E-01  0.10771396955E+00  0.88822991942E+00  0.88000000000E+00 0.  1.
        -11    1    4    4    0    0 -0.12559457620E-01 -0.66782486135E-02 -0.39266873657E-01  0.41767061999E-01  0.51100000000E-03 0. -1.
         11    1    4    4    0    0 -0.84736526907E-04 -0.29394835000E-01 -0.85161633873E-01  0.90093443212E-01  0.51100000000E-03 0.  1.
</event>
<event>
 8    1  0.1094134E+005  0.1043930E+01  0.7957747E-01            NaN
         13   -1    0    0    0    0  0.00000000000E+00  0.00000000000E+00  0.74505805969E-08  0.10566000000E+00  0.10566000000E+00 0.  1.
     999900   -1    0    0    0    0 -0.00000000000E+00 -0.00000000000E+00 -0.74505805969E-08  0.93827000000E+00  0.93827000000E+00 0. -1.
     999902    2    1    2    0    0  0.22214541530E-01  0.93373857633E-02 -0.49367915542E-02  0.10193323469E+01  0.10190355189E+01 0.  0.
     999903    2    3    3    0    0 -0.67067762329E-02 -0.65275438776E-02 -0.12818241707E+00  0.13013179423E+00  0.20395150101E-01 0.  0.
         14    1    1    2    0    0 -0.22214541530E-01 -0.93373857633E-02  0.49367915542E-02  0.24597653122E-01  0.00000000000E+00 0.  1.
     999901    1    3    3    0    0  0.28921317763E-01  0.15864929641E-01  0.12324562552E+00  0.88920055264E+00  0.88000000000E+00 0.  1.
        -11    1    4    4    0    0  0.26077201499E-02  0.61369243503E-02 -0.35588798392E-01  0.36211679564E-01  0.51100000000E-03 0.  1.
         11    1    4    4    0    0 -0.93144963829E-02 -0.12664468228E-01 -0.92593618679E-01  0.93920114669E-01  0.51100000000E-03 0. -1.
</event>
<event>
 8    1  0.1094134E+005  0.1043930E+01  0.7957747E-01            NaN
         13   -1    0    0    0    0  0.00000000000E+00  0.00000000000E+00  0.74505805969E-08  0.10566000000E+00  0.10566000000E+00 0.  1.
     999900   -1    0    0    0    0 -0.00000000000E+00 -0.00000000000E+00 -0.74505805969E-08  0.93827000000E+00  0.93827000000E+00 0. -1.
     999902    2    1    2    0    0  0.39320902723E-02  0.23211023523E-01  0.49873737518E-02  0.10198657767E+01  0.10195818337E+01 0.  0.
     999903    2    3    3    0    0  0.65479895148E-01  0.58222333726E-01 -0.96684345504E-01  0.13118638420E+00  0.13584841585E-01 0.  0.
         14    1    1    2    0    0 -0.39320902723E-02 -0.23211023523E-01 -0.49873737518E-02  0.24064223317E-01  0.00000000000E+00 0. -1.
     999901    1    3    3    0    0 -0.61547804876E-01 -0.35011310203E-01  0.10167171926E+00  0.88867939248E+00  0.88000000000E+00 0.  1.
        -11    1    4    4    0    0  0.43885941481E-01  0.40158078250E-01 -0.74512889131E-01  0.95347149282E-01  0.51100000000E-03 0.  1.
         11    1    4    4    0    0  0.21593953667E-01  0.18064255476E-01 -0.22171456372E-01  0.35839234918E-01  0.51100000000E-03 0. -1.
</event>
<event>
 8    1  0.1094134E+005  0.1043930E+01  0.7957747E-01            NaN
         13   -1    0    0    0    0  0.00000000000E+00  0.00000000000E+00  0.74505805969E-08  0.10566000000E+00  0.10566000000E+00 0. -1.
     999900   -1    0    0    0    0 -0.00000000000E+00 -0.00000000000E+00 -0.74505805969E-08  0.93827000000E+00  0.93827000000E+00 0.  1.
     999902    2    1    2    0    0  0.11562931153E-01  0.12153511244E-01  0.17313306516E-01  0.10198227439E+01  0.10195377724E+01 0.  0.
     999903    2    3    3    0    0  0.82459898150E-01  0.88103738256E-01  0.52365863430E-01  0.13301752369E+00  0.19737640634E-01 0.  0.
         14    1    1    2    0    0 -0.11562931153E-01 -0.12153511244E-01 -0.17313306516E-01  0.24107256064E-01  0.00000000000E+00 0.  1.
     999901    1    3    3    0    0 -0.70896966996E-01 -0.75950227013E-01 -0.35052556914E-01  0.88680522025E+00  0.88000000000E+00 0.  1.
        -11    1    4    4    0    0  0.12989022868E-01  0.22675457171E-01  0.55473807217E-02  0.26719386723E-01  0.51100000000E-03 0. -1.
         11    1    4    4    0    0  0.69470875282E-01  0.65428281085E-01  0.46818482708E-01  0.10629813697E+00  0.51100000000E-03 0.  1.
</event>
<event>
 8    1  0.1094134E+005  0.1043930E+01  0.7957747E-01            NaN
         13   -1    0    0    0    0  0.00000000000E+00  0.00000000000E+00  0.74505805969E-08  0.10566000000E+00  0.10566000000E+00 0.  1.
     999900   -1    0    0    0    0 -0.00000000000E+00 -0.00000000000E+00 -0.74505805969E-08  0.93827000000E+00  0.93827000000E+00 0. -1.
     999902    2    1    2    0    0 -0.16816382002E-01 -0.17237128915E-01  0.20417450695E-02  0.10197622935E+01  0.10194758737E+01 0.  0.
     999903    2    3    3    0    0 -0.19915196851E-01 -0.11017593368E+00  0.67870408280E-01  0.13241758198E+00  0.19815959910E-01 0.  0.
         14    1    1    2    0    0  0.16816382002E-01  0.17237128915E-01 -0.20417450695E-02  0.24167706548E-01  0.00000000000E+00 0.  1.
     999901    1    3    3    0    0  0.30988148494E-02  0.92938804770E-01 -0.65828663210E-01  0.88734471148E+00  0.88000000000E+00 0. -1.
        -11    1    4    4    0    0 -0.85113413836E-02 -0.26586353021E-01  0.26340150004E-01  0.38384133732E-01  0.51100000000E-03 0.  1.
         11    1    4    4    0    0 -0.11403855468E-01 -0.83589580664E-01  0.41530258276E-01  0.94033448243E-01  0.51100000000E-03 0. -1.
</event>
<event>
 8    1  0.1094134E+005  0.1043930E+01  0.7957747E-01            NaN
         13   -1    0    0    0    0  0.00000000000E+00  0.00000000000E+00  0.74505805969E-08  0.10566000000E+00  0.10566000000E+00 0. -1.
     999900   -1    0    0    0    0 -0.00000000000E+00 -0.00000000000E+00 -0.74505805969E-08  0.93827000000E+00  0.93827000000E+00 0. -1.
     999902    2    1    2    0    0  0.83184135859E-02 -0.22394814899E-01 -0.18537494271E-02  0.10199683614E+01  0.10196868628E+01 0.  0.
     999903    2    3    3    0    0  0.11353627295E+00 -0.37421718845E-01  0.52269999559E-01  0.13192219929E+00  0.19504960779E-01 0.  0.
         14    1    1    2    0    0 -0.83184135859E-02  0.22394814899E-01  0.18537494271E-02  0.23961638631E-01  0.00000000000E+00 0.  1.
     999901    1    3    3    0    0 -0.10521785937E+00  0.15026903946E-01 -0.54123748986E-01  0.88804616208E+00  0.88000000000E+00 0. -1.
        -11    1    4    4    0    0  0.52960916424E-01 -0.26572394252E-01  0.20790585043E-01  0.62796977254E-01  0.51100000000E-03 0. -1.
         11    1    4    4    0    0  0.60575356529E-01 -0.10849324594E-01  0.31479414516E-01  0.69125222040E-01  0.51100000000E-03 0.  1.
</event>
<event>
 8    1  0.1094134E+005  0.1043930E+01  0.7957747E-01            NaN
         13   -1    0    0    0    0  0.00000000000E+00  0.00000000000E+00  0.74505805969E-08  0.10566000000E+00  0.10566000000E+00 0. -1.
     999900   -1    0    0    0    0 -0.00000000000E+00 -0.00000000000E+00 -0.74505805969E-08  0.93827000000E+00  0.93827000000E+00 0. -1.
     999902    2    1    2    0    0 -0.15886595509E-01 -0.33553514956E-02  0.14449296842E-01  0.10221946721E+01  0.10219635625E+01 0.  0.
     999903    2    3    3    0    0 -0.59725126306E-01  0.76808605258E-01 -0.86450732213E-01  0.13172912384E+00  0.20302226793E-01 0.  0.
         14    1    1    2    0    0  0.15886595509E-01  0.33553514956E-02 -0.14449296842E-01  0.21735327920E-01  0.00000000000E+00 0. -1.
     999901    1    3    3    0    0  0.43838530797E-01 -0.80163956753E-01  0.10090002906E+00  0.89046554824E+00  0.88000000000E+00 0.  1.
        -11    1    4    4    0    0 -0.42073376054E-01  0.45684920896E-01 -0.43513333181E-01  0.75835033167E-01  0.51100000000E-03 0.  1.
         11    1    4    4    0    0 -0.17651750252E-01  0.31123684361E-01 -0.42937399032E-01  0.55894090670E-01  0.51100000000E-03 0. -1.
</event>
<event>
 8    1  0.1094134E+005  0.1043930E+01  0.7957747E-01            NaN
         13   -1    0    0    0    0  0.00000000000E+00  0.00000000000E+00  0.74505805969E-08  0.10566000000E+00  0.10566000000E+00 0. -1.
     999900   -1    0    0    0    0 -0.00000000000E+00 -0.00000000000E+00 -0.74505805969E-08  0.93827000000E+00  0.93827000000E+00 0. -1.
     999902    2    1    2    0    0  0.13309460962E-01 -0.20085930549E-01 -0.27665949484E-02  0.10196763321E+01  0.10193878467E+01 0.  0.
     999903    2    3    3    0    0 -0.39029650546E-01  0.81859286828E-01  0.87562366402E-01  0.12766089999E+00  0.20146486382E-01 0.  0.
         14    1    1    2    0    0 -0.13309460962E-01  0.20085930549E-01  0.27665949484E-02  0.24253667862E-01  0.00000000000E+00 0. -1.
     999901    1    3    3    0    0  0.52339111508E-01 -0.10194521738E+00 -0.90328961350E-01  0.89201543215E+00  0.88000000000E+00 0. -1.
        -11    1    4    4    0    0 -0.14800701367E-01  0.36581152703E-01  0.51616127663E-01  0.64974820123E-01  0.51100000000E-03 0. -1.
         11    1    4    4    0    0 -0.24228949178E-01  0.45278134125E-01  0.35946238739E-01  0.62686079863E-01  0.51100000000E-03 0.  1.
</event>
<event>
 8    1  0.1094134E+005  0.1043930E+01  0.7957747E-01            NaN
         13   -1    0    0    0    0  0.00000000000E+00  0.00000000000E+00  0.74505805969E-08  0.10566000000E+00  0.10566000000E+00 0. -1.
     999900   -1    0    0    0    0 -0.00000000000E+00 -0.00000000000E+00 -0.74505805969E-08  0.93827000000E+00  0.93827000000E+00 0. -1.
     999902    2    1    2    0    0 -0.72840566836E-02  0.22399154683E-01  0.14309082559E-02  0.10203328156E+01  0.10200599137E+01 0.  0.
     999903    2    3    3    0    0 -0.25041278979E-01  0.10380458313E+00 -0.76735931521E-01  0.13294777091E+00  0.19602282337E-01 0.  0.
         14    1    1    2    0    0  0.72840566836E-02 -0.22399154683E-01 -0.14309082559E-02  0.23597184381E-01  0.00000000000E+00 0. -1.
     999901    1    3    3    0    0  0.17757222296E-01 -0.81405428448E-01  0.78166839777E-01  0.88738504470E+00  0.88000000000E+00 0.  1.
        -11    1    4    4    0    0 -0.12582973704E-01  0.29973090826E-01 -0.14565005243E-01  0.35624681046E-01  0.51100000000E-03 0. -1.
         11    1    4    4    0    0 -0.12458305276E-01  0.73831492304E-01 -0.62170926278E-01  0.97323089868E-01  0.51100000000E-03 0.  1.
</event>
<event>
 8    1  0.1094134E+005  0.1043930E+01  0.7957747E-01            NaN
         13   -1    0    0    0    0  0.00000000000E+00  0.00000000000E+00  0.74505805969E-08  0.10566000000E+00  0.10566000000E+00 0. -1.
     999900   -1    0    0    0    0 -0.00000000000E+00 -0.00000000000E+00 -0.74505805969E-08  0.93827000000E+00  0.93827000000E+00 0. -1.
     999902    2    1    2    0    0  0.53019709956E-02 -0.14326330890E-01  0.17787399446E-01  0.10204833322E+01  0.10202139408E+01 0.  0.
     999903    2    3    3    0    0  0.12707266393E+00  0.10403367651E-01  0.26258675527E-01  0.13171372076E+00  0.20082186643E-01 0.  0.
         14    1    1    2    0    0 -0.53019709956E-02  0.14326330890E-01 -0.17787399446E-01  0.23446667829E-01  0.00000000000E+00 0.  1.
     999901    1    3    3    0    0 -0.12177069293E+00 -0.24729698541E-01 -0.84712760812E-02  0.88876961141E+00  0.88000000000E+00 0.  1.
        -11    1    4    4    0    0  0.91680566202E-01 -0.77760047065E-03  0.14848477625E-01  0.92879864827E-01  0.51100000000E-03 0. -1.
         11    1    4    4    0    0  0.35392097726E-01  0.11180968122E-01  0.11410197903E-01  0.38833855935E-01  0.51100000000E-03 0.  1.
</event>
<event>
 8    1  0.1094134E+005  0.1043930E+01  0.7957747E-01            NaN
         13   -1    0    0    0    0  0.00000000000E+00  0.00000000000E+00  0.74505805969E-08  0.10566000000E+00  0.10566000000E+00 0. -1.
     999900   -1    0    0    0    0 -0.00000000000E+00 -0.00000000000E+00 -0.74505805969E-08  0.93827000000E+00  0.93827000000E+00 0. -1.
     999902    2    1    2    0    0 -0.20272846802E-01  0.46075082339E-02  0.94899639008E-02  0.10210766225E+01  0.10208208423E+01 0.  0.
     999903    2    3    3    0    0  0.12305133619E+00  0.33569217543E-01  0.20481140821E-02  0.12898022456E+00  0.19057278205E-01 0.  0.
         14    1    1    2    0    0  0.20272846802E-01 -0.46075082339E-02 -0.94899639008E-02  0.22853377528E-01  0.00000000000E+00 0.  1.
     999901    1    3    3    0    0 -0.14332418299E+00 -0.28961709309E-01  0.74418498186E-02  0.89209639791E+00  0.88000000000E+00 0.  1.
        -11    1    4    4    0    0  0.79581095315E-01  0.14916794258E-01 -0.51391524802E-02  0.81131581346E-01  0.51100000000E-03 0.  1.
         11    1    4    4    0    0  0.43470240873E-01  0.18652423285E-01  0.71872665623E-02  0.47848643216E-01  0.51100000000E-03 0. -1.
</event>
<event>
 8    1  0.1094134E+005  0.1043930E+01  0.7957747E-01            NaN
         13   -1    0    0    0    0  0.00000000000E+00  0.00000000000E+00  0.74505805969E-08  0.10566000000E+00  0.10566000000E+00 0. -1.
     999900   -1    0    0    0    0 -0.00000000000E+00 -0.00000000000E+00 -0.74505805969E-08  0.93827000000E+00  0.93827000000E+00 0. -1.
     999902    2    1    2    0    0  0.13925345492E-01  0.18144801819E-01 -0.56305087652E-02  0.10203747095E+01  0.10201027870E+01 0.  0.
     999903    2    3    3    0    0 -0.12226824577E+00 -0.21117451333E-01 -0.28658439978E-01  0.12873548628E+00  0.18869249385E-01 0.  0.
         14    1    1    2    0    0 -0.13925345492E-01 -0.18144801819E-01  0.56305087652E-02  0.23555290469E-01  0.00000000000E+00 0. -1.
     999901    1    3    3    0    0  0.13619359126E+00  0.39262253152E-01  0.23027931212E-01  0.89163922325E+00  0.88000000000E+00 0. -1.
        -11    1    4    4    0    0 -0.97514651905E-01 -0.21036518334E-01 -0.16365537723E-01  0.10109270194E+00  0.51100000000E-03 0.  1.
         11    1    4    4    0    0 -0.24753593861E-01 -0.80932998703E-04 -0.12292902254E-01  0.27642784340E-01  0.51100000000E-03 0. -1.
</event>
<event>
 8    1  0.1094134E+005  0.1043930E+01  0.7957747E-01            NaN
         13   -1    0    0    0    0  0.00000000000E+00  0.00000000000E+00  0.74505805969E-08  0.10566000000E+00  0.10566000000E+00 0. -1.
     999900   -1    0    0    0    0 -0.00000000000E+00 -0.00000000000E+00 -0.74505805969E-08  0.93827000000E+00  0.93827000000E+00 0.  1.
     999902    2    1    2    0    0 -0.42787107847E-02 -0.13871741991E-01 -0.18380836033E-01  0.10205080504E+01  0.10202392333E+01 0.  0.
     999903    2    3    3    0    0 -0.84113031216E-01 -0.88746740006E-01  0.44091015095E-01  0.13152969504E+00  0.20126032440E-01 0.  0.
         14    1    1    2    0    0  0.42787107847E-02  0.13871741991E-01  0.18380836033E-01  0.23421949644E-01  0.00000000000E+00 0. -1.
     999901    1    3    3    0    0  0.79834320432E-01  0.74874998016E-01 -0.62471851127E-01  0.88897835532E+00  0.88000000000E+00 0.  1.
        -11    1    4    4    0    0 -0.54042132377E-01 -0.66427062976E-01  0.37568828954E-01  0.93513554084E-01  0.51100000000E-03 0. -1.
         11    1    4    4    0    0 -0.30070898839E-01 -0.22319677031E-01  0.65221861407E-02  0.38016140951E-01  0.51100000000E-03 0.  1.
</event>
<event>
 8    1  0.1094134E+005  0.1043930E+01  0.7957747E-01            NaN
         13   -1    0    0    0    0  0.00000000000E+00  0.00000000000E+00  0.74505805969E-08  0.10566000000E+00  0.10566000000E+00 0. -1.
     999900   -1    0    0    0    0 -0.00000000000E+00 -0.00000000000E+00 -0.74505805969E-08  0.93827000000E+00  0.93827000000E+00 0.  1.
     999902    2    1    2    0    0  0.18635730977E-01  0.13604693171E-01  0.51898782115E-02  0.10202802012E+01  0.10200060667E+01 0.  0.
     999903    2    3    3    0    0 -0.47555387913E-01  0.92635068124E-01  0.77545029551E-01  0.13131319831E+00  0.19676221080E-01 0.  0.
         14    1    1    2    0    0 -0.18635730977E-01 -0.13604693171E-01 -0.51898782115E-02  0.23649798755E-01  0.00000000000E+00 0. -1.
     999901    1    3    3    0    0  0.66191118889E-01 -0.79030374954E-01 -0.72355151339E-01  0.88896700294E+00  0.88000000000E+00 0. -1.
        -11    1    4    4    0    0 -0.44428992572E-01  0.69833818663E-01  0.63760583559E-01  0.10448143733E+00  0.51100000000E-03 0.  1.
         11    1    4    4    0    0 -0.31263953403E-02  0.22801249461E-01  0.13784445992E-01  0.26831760977E-01  0.51100000000E-03 0. -1.
</event>
<event>
 8    1  0.1094134E+005  0.1043930E+01  0.7957747E-01            NaN
         13   -1    0    0    0    0  0.00000000000E+00  0.00000000000E+00  0.74505805969E-08  0.10566000000E+00  0.10566000000E+00 0.  1.
     999900   -1    0    0    0    0 -0.00000000000E+00 -0.00000000000E+00 -0.74505805969E-08  0.93827000000E+00  0.93827000000E+00 0. -1.
     999902    2    1    2    0    0  0.35453727908E-02  0.47996868332E-02 -0.22842066531E-01  0.10203213858E+01  0.10200482163E+01 0.  0.
     999903    2    3    3    0    0 -0.69371275864E-01  0.10802976709E+00 -0.20817938706E-01  0.13128967419E+00  0.17910541151E-01 0.  0.
         14    1    1    2    0    0 -0.35453727908E-02 -0.47996868332E-02  0.22842066531E-01  0.23608614219E-01  0.00000000000E+00 0.  1.
     999901    1    3    3    0    0  0.72916648655E-01 -0.10323008026E+00 -0.20241278247E-02  0.88903171159E+00  0.88000000000E+00 0.  1.
        -11    1    4    4    0    0 -0.69177447525E-02  0.76236232631E-02  0.28596925257E-02  0.10696438027E-01  0.51100000000E-03 0. -1.
         11    1    4    4    0    0 -0.62453531112E-01  0.10040614383E+00 -0.23677631232E-01  0.12059323616E+00  0.51100000000E-03 0.  1.
</event>
<event>
 8    1  0.1094134E+005  0.1043930E+01  0.7957747E-01            NaN
         13   -1    0    0    0    0  0.00000000000E+00  0.00000000000E+00  0.74505805969E-08  0.10566000000E+00  0.10566000000E+00 0. -1.
     999900   -1    0    0    0    0 -0.00000000000E+00 -0.00000000000E+00 -0.74505805969E-08  0.93827000000E+00  0.93827000000E+00 0. -1.
     999902    2    1    2    0    0  0.44695236308E-02  0.49846417888E-02 -0.23146388961E-01  0.10198348010E+01  0.10195501178E+01 0.  0.
     999903    2    3    3    0    0 -0.61732853101E-02  0.41631922076E-01 -0.12377055505E+00  0.13327881550E+00  0.25937732713E-01 0.  0.
         14    1    1    2    0    0 -0.44695236308E-02 -0.49846417888E-02  0.23146388961E-01  0.24095199048E-01  0.00000000000E+00 0. -1.
     999901    1    3    3    0    0  0.10642808941E-01 -0.36647280288E-01  0.10062416609E+00  0.88655598545E+00  0.88000000000E+00 0.  1.
        -11    1    4    4    0    0 -0.84699183195E-02  0.22291363479E-02 -0.35781045184E-01  0.36840913135E-01  0.51100000000E-03 0.  1.
         11    1    4    4    0    0  0.22966330095E-02  0.39402785729E-01 -0.87989509862E-01  0.96437902368E-01  0.51100000000E-03 0. -1.
</event>
<event>
 8    1  0.1094134E+005  0.1043930E+01  0.7957747E-01            NaN
         13   -1    0    0    0    0  0.00000000000E+00  0.00000000000E+00  0.74505805969E-08  0.10566000000E+00  0.10566000000E+00 0. -1.
     999900   -1    0    0    0    0 -0.00000000000E+00 -0.00000000000E+00 -0.74505805969E-08  0.93827000000E+00  0.93827000000E+00 0. -1.
     999902    2    1    2    0    0 -0.90927184928E-03 -0.22769877699E-01 -0.16733138652E-02  0.10210806218E+01  0.10208249321E+01 0.  0.
     999903    2    3    3    0    0 -0.65773546428E-01  0.39727761960E-02  0.11153719389E+00  0.13105862052E+00  0.19846259893E-01 0.  0.
         14    1    1    2    0    0  0.90927184928E-03  0.22769877699E-01  0.16733138652E-02  0.22849378220E-01  0.00000000000E+00 0. -1.
     999901    1    3    3    0    0  0.64864274579E-01 -0.26742653895E-01 -0.11321050776E+00  0.89002200126E+00  0.88000000000E+00 0. -1.
        -11    1    4    4    0    0 -0.15786233811E-01 -0.41145239322E-02  0.15605882687E-01  0.22581832977E-01  0.51100000000E-03 0.  1.
         11    1    4    4    0    0 -0.49987312617E-01  0.80873001283E-02  0.95931311205E-01  0.10847678755E+00  0.51100000000E-03 0. -1.
</event>
<event>
 7    1  0.1094134E+005  0.1043930E+01  0.7957747E-01            NaN
         13   -1    0    0    0    0  0.00000000000E+00  0.00000000000E+00  0.74505805969E-08  0.10566000000E+00  0.10566000000E+00 0. -1.
     999900   -1    0    0    0    0 -0.00000000000E+00 -0.00000000000E+00 -0.74505805969E-08  0.93827000000E+00  0.93827000000E+00 0.  1.
     999903    2    1    2    0    0  0.72311338293E-01 -0.33515724345E-01 -0.13000384016E-01  0.83161941607E-01  0.19866180387E-01 0.  0.
         14    1    1    2    0    0 -0.71091065878E-01  0.21663172614E-01 -0.28779500304E-01  0.79696250433E-01  0.00000000000E+00 0. -1.
     999901    1    1    2    0    0 -0.12202724156E-02  0.11852551731E-01  0.41779884321E-01  0.88107180796E+00  0.88000000000E+00 0. -1.
        -11    1    3    3    0    0  0.45609385795E-01 -0.26942677053E-01 -0.16383288851E-01  0.55450853862E-01  0.51100000000E-03 0. -1.
         11    1    3    3    0    0  0.26701952498E-01 -0.65730472919E-02  0.33829048349E-02  0.27711087746E-01  0.51100000000E-03 0.  1.
</event>
<event>
 8    1  0.1094134E+005  0.1043930E+01  0.7957747E-01            NaN
         13   -1    0    0    0    0  0.00000000000E+00  0.00000000000E+00  0.74505805969E-08  0.10566000000E+00  0.10566000000E+00 0. -1.
     999900   -1    0    0    0    0 -0.00000000000E+00 -0.00000000000E+00 -0.74505805969E-08  0.93827000000E+00  0.93827000000E+00 0.  1.
     999902    2    1    2    0    0 -0.12787406976E-01 -0.11861620856E-01  0.16528897538E-01  0.10199004290E+01  0.10196173130E+01 0.  0.
     999903    2    3    3    0    0  0.18182036048E-01  0.17887486248E-01  0.12773896453E+00  0.13186225713E+00  0.20490563601E-01 0.  0.
         14    1    1    2    0    0  0.12787406976E-01  0.11861620856E-01 -0.16528897538E-01  0.24029570955E-01  0.00000000000E+00 0.  1.
     999901    1    3    3    0    0 -0.30969443023E-01 -0.29749107104E-01 -0.11121006699E+00  0.88803817191E+00  0.88000000000E+00 0.  1.
        -11    1    4    4    0    0 -0.17702981938E-02 -0.31830222069E-02  0.13093656095E-01  0.13600387384E-01  0.51100000000E-03 0. -1.
         11    1    4    4    0    0  0.19952334241E-01  0.21070508455E-01  0.11464530844E+00  0.11826186975E+00  0.51100000000E-03 0.  1.
</event>
<event>
 8    1  0.1094134E+005  0.1043930E+01  0.7957747E-01            NaN
         13   -1    0    0    0    0  0.00000000000E+00  0.00000000000E+00  0.74505805969E-08  0.10566000000E+00  0.10566000000E+00 0.  1.
     999900   -1    0    0    0    0 -0.00000000000E+00 -0.00000000000E+00 -0.74505805969E-08  0.93827000000E+00  0.93827000000E+00 0.  1.
     999902    2    1    2    0    0  0.13321929846E-01  0.19075041015E-01  0.49169365125E-02  0.10201496033E+01  0.10198723968E+01 0.  0.
     999903    2    3    3    0    0 -0.33919251316E-01  0.12050180994E+00 -0.35966080955E-01  0.13212339882E+00  0.22177279562E-01 0.  0.
         14    1    1    2    0    0 -0.13321929846E-01 -0.19075041015E-01 -0.49169365125E-02  0.23780396742E-01  0.00000000000E+00 0.  1.
     999901    1    3    3    0    0  0.47241181162E-01 -0.10142676892E+00  0.40883017468E-01  0.88802620444E+00  0.88000000000E+00 0. -1.
        -11    1    4    4    0    0 -0.11987713589E-01  0.47745603449E-01 -0.25413405492E-01  0.55402619302E-01  0.51100000000E-03 0. -1.
         11    1    4    4    0    0 -0.21931537727E-01  0.72756206487E-01 -0.10552675463E-01  0.76720779518E-01  0.51100000000E-03 0.  1.
</event>
<event>
 8    1  0.1311244E+005  0.1043930E+01  0.7957747E-01            NaN
         13   -1    0    0    0    0  0.00000000000E+00  0.00000000000E+00  0.74505805969E-08  0.10566000000E+00  0.10566000000E+00 0.  1.
     999900   -1    0    0    0    0 -0.00000000000E+00 -0.00000000000E+00 -0.74505805969E-08  0.93827000000E+00  0.93827000000E+00 0.  1.
     999902    2    1    2    0    0  0.19288425966E-03  0.23981538729E-01 -0.38489502375E-03  0.10199445972E+01  0.10196625333E+01 0.  0.
     999903    2    3    3    0    0 -0.94623540257E-01  0.81631416638E-01 -0.36549580781E-01  0.13223881976E+00  0.23106947914E-01 0.  0.
         14    1    1    2    0    0 -0.19288425966E-03 -0.23981538729E-01  0.38489502375E-03  0.23985402818E-01  0.00000000000E+00 0.  1.
     999901    1    3    3    0    0  0.94816424517E-01 -0.57649877909E-01  0.36164685757E-01  0.88770577743E+00  0.88000000000E+00 0. -1.
        -11    1    4    4    0    0 -0.27431376387E-01  0.38178444550E-01 -0.15378807656E-01  0.49465572722E-01  0.51100000000E-03 0. -1.
         11    1    4    4    0    0 -0.67192163870E-01  0.43452972088E-01 -0.21170773125E-01  0.82773247034E-01  0.51100000000E-03 0.  1.
</event>
<event>
 8    1  0.1094134E+005  0.1043930E+01  0.7957747E-01            NaN
         13   -1    0    0    0    0  0.00000000000E+00  0.00000000000E+00  0.74505805969E-08  0.10566000000E+00  0.10566000000E+00 0. -1.
     999900   -1    0    0    0    0 -0.00000000000E+00 -0.00000000000E+00 -0.74505805969E-08  0.93827000000E+00  0.93827000000E+00 0. -1.
     999902    2    1    2    0    0 -0.17387684373E-01  0.55527388878E-02  0.14639001582E-01  0.10205320333E+01  0.10202637729E+01 0.  0.
     999903    2    3    3    0    0 -0.48132153835E-01 -0.60772083084E-01 -0.10153958585E+00  0.12989087743E+00  0.23481955401E-01 0.  0.
         14    1    1    2    0    0  0.17387684373E-01 -0.55527388878E-02 -0.14639001582E-01  0.23397966671E-01  0.00000000000E+00 0.  1.
     999901    1    3    3    0    0  0.30744469462E-01  0.66324821972E-01  0.11617858743E+00  0.89064115590E+00  0.88000000000E+00 0.  1.
        -11    1    4    4    0    0 -0.12305778110E-01 -0.33317016865E-01 -0.50686492652E-01  0.61893759346E-01  0.51100000000E-03 0. -1.
         11    1    4    4    0    0 -0.35826375725E-01 -0.27455066219E-01 -0.50853093194E-01  0.67997118079E-01  0.51100000000E-03 0.  1.
</event>
<event>
 8    1  0.1094134E+005  0.1043930E+01  0.7957747E-01            NaN
         13   -1    0    0    0    0  0.00000000000E+00  0.00000000000E+00  0.74505805969E-08  0.10566000000E+00  0.10566000000E+00 0.  1.
     999900   -1    0    0    0    0 -0.00000000000E+00 -0.00000000000E+00 -0.74505805969E-08  0.93827000000E+00  0.93827000000E+00 0. -1.
     999902    2    1    2    0    0  0.49816563464E-02  0.13561404027E-01 -0.24091498857E-01  0.10158385619E+01  0.10154500750E+01 0.  0.
     999903    2    3    3    0    0 -0.49486272769E-01  0.10975354482E+00  0.34987670079E-01  0.12695722476E+00  0.19981693369E-01 0.  0.
         14    1    1    2    0    0 -0.49816563464E-02 -0.13561404027E-01  0.24091498857E-01  0.28091438132E-01  0.00000000000E+00 0.  1.
     999901    1    3    3    0    0  0.54467929116E-01 -0.96192140788E-01 -0.59079168936E-01  0.88888133711E+00  0.88000000000E+00 0. -1.
        -11    1    4    4    0    0 -0.45707290580E-01  0.95288065123E-01  0.23944778763E-01  0.10836321017E+00  0.51100000000E-03 0. -1.
         11    1    4    4    0    0 -0.37789821894E-02  0.14465479692E-01  0.11042891316E-01  0.18594014594E-01  0.51100000000E-03 0.  1.
</event>
<event>
 8    1  0.1094134E+005  0.1043930E+01  0.7957747E-01            NaN
         13   -1    0    0    0    0  0.00000000000E+00  0.00000000000E+00  0.74505805969E-08  0.10566000000E+00  0.10566000000E+00 0.  1.
     999900   -1    0    0    0    0 -0.00000000000E+00 -0.00000000000E+00 -0.74505805969E-08  0.93827000000E+00  0.93827000000E+00 0. -1.
     999902    2    1    2    0    0  0.18713119090E-02 -0.12859928399E-01 -0.14980134258E-01  0.10240986110E+01  0.10239065783E+01 0.  0.
     999903    2    3    3    0    0 -0.63211167992E-01  0.48237451296E-01  0.10295932284E+00  0.13175431954E+00  0.20882411012E-01 0.  0.
         14    1    1    2    0    0 -0.18713119090E-02  0.12859928399E-01  0.14980134258E-01  0.19831388985E-01  0.00000000000E+00 0. -1.
     999901    1    3    3    0    0  0.65082479901E-01 -0.61097379695E-01 -0.11793945710E+00  0.89234429148E+00  0.88000000000E+00 0. -1.
        -11    1    4    4    0    0 -0.11160108487E-01  0.28693261315E-02  0.25494000935E-01  0.27981891619E-01  0.51100000000E-03 0.  1.
         11    1    4    4    0    0 -0.52051059504E-01  0.45368125165E-01  0.77465321907E-01  0.10377242792E+00  0.51100000000E-03 0. -1.
</event>
<event>
 8    1  0.1094134E+005  0.1043930E+01  0.7957747E-01            NaN
         13   -1    0    0    0    0  0.00000000000E+00  0.00000000000E+00  0.74505805969E-08  0.10566000000E+00  0.10566000000E+00 0.  1.
     999900   -1    0    0    0    0 -0.00000000000E+00 -0.00000000000E+00 -0.74505805969E-08  0.93827000000E+00  0.93827000000E+00 0. -1.
     999902    2    1    2    0    0 -0.35115009972E-02 -0.14557963607E-01 -0.19008805813E-01  0.10197308339E+01  0.10194436590E+01 0.  0.
     999903    2    3    3    0    0 -0.27993504949E-01 -0.71918865938E-01 -0.10703017603E+00  0.13314332929E+00  0.17768735401E-01 0.  0.
         14    1    1    2    0    0  0.35115009972E-02  0.14557963607E-01  0.19008805813E-01  0.24199166144E-01  0.00000000000E+00 0.  1.
     999901    1    3    3    0    0  0.24482003951E-01  0.57360902331E-01  0.88021370213E-01  0.88658750456E+00  0.88000000000E+00 0.  1.
        -11    1    4    4    0    0 -0.15257541856E-01 -0.39890653820E-01 -0.44117647694E-01  0.61405902035E-01  0.51100000000E-03 0.  1.
         11    1    4    4    0    0 -0.12735963093E-01 -0.32028212118E-01 -0.62912528332E-01  0.71737427257E-01  0.51100000000E-03 0. -1.
</event>
<event>
 8    1  0.1094134E+005  0.1043930E+01  0.7957747E-01            NaN
         13   -1    0    0    0    0  0.00000000000E+00  0.00000000000E+00  0.74505805969E-08  0.10566000000E+00  0.10566000000E+00 0.  1.
     999900   -1    0    0    0    0 -0.00000000000E+00 -0.00000000000E+00 -0.74505805969E-08  0.93827000000E+00  0.93827000000E+00 0.  1.
     999902    2    1    2    0    0  0.38517521052E-02  0.34000164094E-02  0.22813145167E-01  0.10205454817E+01  0.10202775330E+01 0.  0.
     999903    2    3    3    0    0  0.25599255037E-01 -0.12128967612E+00  0.38940466256E-01  0.13134327530E+00  0.19188242775E-01 0.  0.
         14    1    1    2    0    0 -0.38517521052E-02 -0.34000164094E-02 -0.22813145167E-01  0.23384518346E-01  0.00000000000E+00 0. -1.
     999901    1    3    3    0    0 -0.21747502931E-01  0.12468969253E+00 -0.16127321089E-01  0.88920220636E+00  0.88000000000E+00 0.  1.
        -11    1    4    4    0    0  0.23787998752E-01 -0.92397206470E-01  0.22428940921E-01  0.98012403092E-01  0.51100000000E-03 0. -1.
         11    1    4    4    0    0  0.18112562848E-02 -0.28892469653E-01  0.16511525335E-01  0.33330872204E-01  0.51100000000E-03 0.  1.
</event>
<event>
 8    1  0.1094134E+005  0.1043930E+01  0.7957747E-01            NaN
         13   -1    0    0    0    0  0.00000000000E+00  0.00000000000E+00  0.74505805969E-08  0.10566000000E+00  0.10566000000E+00 0.  1.
     999900   -1    0    0    0    0 -0.00000000000E+00 -0.00000000000E+00 -0.74505805969E-08  0.93827000000E+00  0.93827000000E+00 0. -1.
     999902    2    1    2    0    0 -0.32450393715E-02  0.23523907197E-01 -0.72382489700E-03  0.10201722978E+01  0.10198956264E+01 0.  0.
     999903    2    3    3    0    0  0.12559516739E-01 -0.95878998482E-01  0.81595122416E-01  0.12816150923E+00  0.20422650049E-01 0.  0.
         14    1    1    2    0    0  0.32450393715E-02 -0.23523907197E-01  0.72382489700E-03  0.23757702179E-01  0.00000000000E+00 0. -1.
     999901    1    3    3    0    0 -0.15804556110E-01  0.11940290568E+00 -0.82318947313E-01  0.89201078859E+00  0.88000000000E+00 0. -1.
        -11    1    4    4    0    0  0.92972826662E-02 -0.17688968400E-01  0.11278997971E-01  0.22952472291E-01  0.51100000000E-03 0.  1.
         11    1    4    4    0    0  0.32622340725E-02 -0.78190030082E-01  0.70316124446E-01  0.10520903694E+00  0.51100000000E-03 0. -1.
</event>
<event>
 8    1  0.1094134E+005  0.1043930E+01  0.7957747E-01            NaN
         13   -1    0    0    0    0  0.00000000000E+00  0.00000000000E+00  0.74505805969E-08  0.10566000000E+00  0.10566000000E+00 0.  1.
     999900   -1    0    0    0    0 -0.00000000000E+00 -0.00000000000E+00 -0.74505805969E-08  0.93827000000E+00  0.93827000000E+00 0. -1.
     999902    2    1    2    0    0  0.60257112197E-02 -0.28187618146E-02  0.23199732846E-01  0.10197953316E+01  0.10195097038E+01 0.  0.
     999903    2    3    3    0    0 -0.76479707803E-01 -0.99522352090E-01  0.30547718636E-01  0.13063127396E+00  0.19429934388E-01 0.  0.
         14    1    1    2    0    0 -0.60257112197E-02  0.28187618146E-02 -0.23199732846E-01  0.24134668384E-01  0.00000000000E+00 0. -1.
     999901    1    3    3    0    0  0.82505419022E-01  0.96703590275E-01 -0.73479857895E-02  0.88916405766E+00  0.88000000000E+00 0.  1.
        -11    1    4    4    0    0 -0.66111382737E-02 -0.18439734148E-01  0.84502273380E-02  0.21340065787E-01  0.51100000000E-03 0. -1.
         11    1    4    4    0    0 -0.69868569529E-01 -0.81082617942E-01  0.22097491298E-01  0.10929120817E+00  0.51100000000E-03 0.  1.
</event>
<event>
 8    1  0.1094134E+005  0.1043930E+01  0.7957747E-01            NaN
         13   -1    0    0    0    0  0.00000000000E+00  0.00000000000E+00  0.74505805969E-08  0.10566000000E+00  0.10566000000E+00 0.  1.
     999900   -1    0    0    0    0 -0.00000000000E+00 -0.00000000000E+00 -0.74505805969E-08  0.93827000000E+00  0.93827000000E+00 0.  1.
     999902    2    1    2    0    0 -0.24066490880E-01 -0.35011050027E-02  0.22747635953E-02  0.10195040247E+01  0.10192113756E+01 0.  0.
     999903    2    3    3    0    0  0.11884850468E+00  0.40030906975E-01 -0.21921509515E-02  0.12690126572E+00  0.19279137356E-01 0.  0.
         14    1    1    2    0    0  0.24066490880E-01  0.35011050027E-02 -0.22747635953E-02  0.24425975291E-01  0.00000000000E+00 0. -1.
     999901    1    3    3    0    0 -0.14291499556E+00 -0.43532011978E-01  0.44669145468E-02  0.89260275899E+00  0.88000000000E+00 0.  1.
        -11    1    4    4    0    0  0.31460642182E-01  0.17320464060E-01  0.52689332787E-02  0.36301422295E-01  0.51100000000E-03 0. -1.
         11    1    4    4    0    0  0.87387862503E-01  0.22710442915E-01 -0.74610842302E-02  0.90599843428E-01  0.51100000000E-03 0.  1.
</event>
<event>
 8    1  0.1094134E+005  0.1043930E+01  0.7957747E-01            NaN
         13   -1    0    0    0    0  0.00000000000E+00  0.00000000000E+00  0.74505805969E-08  0.10566000000E+00  0.10566000000E+00 0. -1.
     999900   -1    0    0    0    0 -0.00000000000E+00 -0.00000000000E+00 -0.74505805969E-08  0.93827000000E+00  0.93827000000E+00 0. -1.
     999902    2    1    2    0    0 -0.20593738604E-01 -0.12345716494E-01 -0.56550925849E-03  0.10199125358E+01  0.10196297083E+01 0.  0.
     999903    2    3    3    0    0 -0.92369275982E-02  0.21321216304E-01 -0.12657982469E+00  0.13022604765E+00  0.19911212209E-01 0.  0.
         14    1    1    2    0    0  0.20593738604E-01  0.12345716494E-01  0.56550925849E-03  0.24017464190E-01  0.00000000000E+00 0.  1.
     999901    1    3    3    0    0 -0.11356811005E-01 -0.33666932798E-01  0.12601431543E+00  0.88968648816E+00  0.88000000000E+00 0.  1.
        -11    1    4    4    0    0  0.19257624260E-03  0.20905785120E-01 -0.79346744157E-01  0.82056418801E-01  0.51100000000E-03 0.  1.
         11    1    4    4    0    0 -0.94295038408E-02  0.41543118387E-03 -0.47233080534E-01  0.48169628849E-01  0.51100000000E-03 0. -1.
</event>
<event>
 8    1  0.1094134E+005  0.1043930E+01  0.7957747E-01            NaN
         13   -1    0    0    0    0  0.00000000000E+00  0.00000000000E+00  0.74505805969E-08  0.10566000000E+00  0.10566000000E+00 0.  1.
     999900   -1    0    0    0    0 -0.00000000000E+00 -0.00000000000E+00 -0.74505805969E-08  0.93827000000E+00  0.93827000000E+00 0. -1.
     999902    2    1    2    0    0 -0.44171427304E-02  0.19537579772E-01 -0.13324173550E-01  0.10198725318E+01  0.10195887502E+01 0.  0.
     999903    2    3    3    0    0  0.76420987750E-01  0.69787986925E-01 -0.79582076236E-01  0.13226337437E+00  0.21207613134E-01 0.  0.
         14    1    1    2    0    0  0.44171427304E-02 -0.19537579772E-01  0.13324173550E-01  0.24057468155E-01  0.00000000000E+00 0. -1.
     999901    1    3    3    0    0 -0.80838130481E-01 -0.50250407153E-01  0.66257902686E-01  0.88760915747E+00  0.88000000000E+00 0.  1.
        -11    1    4    4    0    0  0.18025082746E-01  0.21101724095E-01 -0.32900864309E-01  0.43045491763E-01  0.51100000000E-03 0. -1.
         11    1    4    4    0    0  0.58395905004E-01  0.48686262830E-01 -0.46681211927E-01  0.89217882611E-01  0.51100000000E-03 0.  1.
</event>
<event>
 8    1  0.1094134E+005  0.1043930E+01  0.7957747E-01            NaN
         13   -1    0    0    0    0  0.00000000000E+00  0.00000000000E+00  0.74505805969E-08  0.10566000000E+00  0.10566000000E+00 0. -1.
     999900   -1    0    0    0    0 -0.00000000000E+00 -0.00000000000E+00 -0.74505805969E-08  0.93827000000E+00  0.93827000000E+00 0.  1.
     999902    2    1    2    0    0  0.38089209193E-02 -0.97598188360E-02 -0.23388471745E-01  0.10183022308E+01  0.10179796907E+01 0.  0.
     999903    2    3    3    0    0  0.12425615648E+00  0.34326230844E-03 -0.32627478184E-01  0.12999205524E+00  0.19841165303E-01 0.  0.
         14    1    1    2    0    0 -0.38089209193E-02  0.97598188360E-02  0.23388471745E-01  0.25627769174E-01  0.00000000000E+00 0. -1.
     999901    1    3    3    0    0 -0.12044723556E+00 -0.10103081144E-01  0.92390064388E-02  0.88831017558E+00  0.88000000000E+00 0.  1.
        -11    1    4    4    0    0  0.52540860721E-01 -0.57346007388E-02 -0.57668709413E-02  0.53169028695E-01  0.51100000000E-03 0.  1.
         11    1    4    4    0    0  0.71715295763E-01  0.60778630472E-02 -0.26860607242E-01  0.76823026548E-01  0.51100000000E-03 0. -1.
</event>
<event>
 8    1  0.1094134E+005  0.1043930E+01  0.7957747E-01            NaN
         13   -1    0    0    0    0  0.00000000000E+00  0.00000000000E+00  0.74505805969E-08  0.10566000000E+00  0.10566000000E+00 0. -1.
     999900   -1    0    0    0    0 -0.00000000000E+00 -0.00000000000E+00 -0.74505805969E-08  0.93827000000E+00  0.93827000000E+00 0. -1.
     999902    2    1    2    0    0  0.17360719903E-01 -0.94178588061E-02  0.12364717320E-01  0.10206281354E+01  0.10203620994E+01 0.  0.
     999903    2    3    3    0    0  0.98694738555E-01 -0.84868445242E-01  0.22811333042E-01  0.13360099636E+00  0.19635806531E-01 0.  0.
         14    1    1    2    0    0 -0.17360719903E-01  0.94178588061E-02 -0.12364717320E-01  0.23301864613E-01  0.00000000000E+00 0. -1.
     999901    1    3    3    0    0 -0.81334018652E-01  0.75450586436E-01 -0.10446615722E-01  0.88702713902E+00  0.88000000000E+00 0.  1.
        -11    1    4    4    0    0  0.75038025156E-01 -0.61248117314E-01  0.25185410432E-01  0.10008298114E+00  0.51100000000E-03 0. -1.
         11    1    4    4    0    0  0.23656713398E-01 -0.23620327927E-01 -0.23740773897E-02  0.33518015225E-01  0.51100000000E-03 0.  1.
</event>
<event>
 8    1  0.1094134E+005  0.1043930E+01  0.7957747E-01            NaN
         13   -1    0    0    0    0  0.00000000000E+00  0.00000000000E+00  0.74505805969E-08  0.10566000000E+00  0.10566000000E+00 0.  1.
     999900   -1    0    0    0    0 -0.00000000000E+00 -0.00000000000E+00 -0.74505805969E-08  0.93827000000E+00  0.93827000000E+00 0.  1.
     999902    2    1    2    0    0 -0.22283287938E-01  0.17064880313E-02 -0.11212898513E-01  0.10189262780E+01  0.10186194450E+01 0.  0.
     999903    2    3    3    0    0  0.10630166731E+00  0.55652755424E-01  0.35497629454E-01  0.12672329438E+00  0.20035917330E-01 0.  0.
         14    1    1    2    0    0  0.22283287938E-01 -0.17064880313E-02  0.11212898513E-01  0.25003722038E-01  0.00000000000E+00 0.  1.
     999901    1    3    3    0    0 -0.12858495525E+00 -0.53946267393E-01 -0.46710527967E-01  0.89220298358E+00  0.88000000000E+00 0.  1.
        -11    1    4    4    0    0  0.15428632139E-01  0.71368271989E-02 -0.19393436085E-02  0.17117218430E-01  0.51100000000E-03 0.  1.
         11    1    4    4    0    0  0.90873035172E-01  0.48515928225E-01  0.37436973062E-01  0.10960607595E+00  0.51100000000E-03 0. -1.
</event>
<event>
 8    1  0.1094134E+005  0.1043930E+01  0.7957747E-01            NaN
         13   -1    0    0    0    0  0.00000000000E+00  0.00000000000E+00  0.74505805969E-08  0.10566000000E+00  0.10566000000E+00 0.  1.
     999900   -1    0    0    0    0 -0.00000000000E+00 -0.00000000000E+00 -0.74505805969E-08  0.93827000000E+00  0.93827000000E+00 0.  1.
     999902    2    1    2    0    0  0.14799274454E-01 -0.17988180946E-01  0.46856717911E-02  0.10201697665E+01  0.10198930354E+01 0.  0.
     999903    2    3    3    0    0  0.13196959764E-01  0.74270468415E-02  0.12845001461E+00  0.13114439349E+00  0.21682364218E-01 0.  0.
         14    1    1    2    0    0 -0.14799274454E-01  0.17988180946E-01 -0.46856717911E-02  0.23760233548E-01  0.00000000000E+00 0.  1.
     999901    1    3    3    0    0  0.16023146902E-02 -0.25415227787E-01 -0.12376434282E+00  0.88902537296E+00  0.88000000000E+00 0.  1.
        -11    1    4    4    0    0  0.12162914743E-01  0.94354001680E-02  0.43210674654E-01  0.45873595852E-01  0.51100000000E-03 0. -1.
         11    1    4    4    0    0  0.10340450216E-02 -0.20083533265E-02  0.85239339959E-01  0.85270797639E-01  0.51100000000E-03 0.  1.
</event>
<event>
 8    1  0.1094134E+005  0.1043930E+01  0.7957747E-01            NaN
         13   -1    0    0    0    0  0.00000000000E+00  0.00000000000E+00  0.74505805969E-08  0.10566000000E+00  0.10566000000E+00 0.  1.
     999900   -1    0    0    0    0 -0.00000000000E+00 -0.00000000000E+00 -0.74505805969E-08  0.93827000000E+00  0.93827000000E+00 0.  1.
     999902    2    1    2    0    0  0.22187209576E-01  0.37734579053E-02 -0.79095737405E-02  0.10200747572E+01  0.10197957823E+01 0.  0.
     999903    2    3    3    0    0 -0.92641963785E-01  0.16598229211E-01 -0.86078053129E-01  0.12908624716E+00  0.19894554750E-01 0.  0.
         14    1    1    2    0    0 -0.22187209576E-01 -0.37734579053E-02  0.79095737405E-02  0.23855242822E-01  0.00000000000E+00 0.  1.
     999901    1    3    3    0    0  0.11482917336E+00 -0.12824771305E-01  0.78168479388E-01  0.89098851002E+00  0.88000000000E+00 0. -1.
        -11    1    4    4    0    0 -0.25395972558E-01  0.89521334949E-02 -0.14544345103E-01  0.30608744041E-01  0.51100000000E-03 0. -1.
         11    1    4    4    0    0 -0.67245991227E-01  0.76460957158E-02 -0.71533708026E-01  0.98477503120E-01  0.51100000000E-03 0.  1.
</event>
<event>
 8    1  0.1094134E+005  0.1043930E+01  0.7957747E-01            NaN
         13   -1    0    0    0    0  0.00000000000E+00  0.00000000000E+00  0.74505805969E-08  0.10566000000E+00  0.10566000000E+00 0.  1.
     999900   -1    0    0    0    0 -0.00000000000E+00 -0.00000000000E+00 -0.74505805969E-08  0.93827000000E+00  0.93827000000E+00 0. -1.
     999902    2    1    2    0    0  0.75947058505E-02 -0.16777206741E-01 -0.94796754484E-02  0.10232172390E+01  0.10230075756E+01 0.  0.
     999903    2    3    3    0    0  0.92175634216E-01 -0.35130939270E-01 -0.90540505357E-01  0.13526360781E+00  0.19186715461E-01 0.  0.
         14    1    1    2    0    0 -0.75947058505E-02  0.16777206741E-01  0.94796754484E-02  0.20712761033E-01  0.00000000000E+00 0.  1.
     999901    1    3    3    0    0 -0.84580928365E-01  0.18353732528E-01  0.81060829909E-01  0.88795363116E+00  0.88000000000E+00 0.  1.
        -11    1    4    4    0    0  0.44354595813E-01 -0.24160188328E-01 -0.36806881657E-01  0.62498420205E-01  0.51100000000E-03 0. -1.
         11    1    4    4    0    0  0.47821038402E-01 -0.10970750941E-01 -0.53733623700E-01  0.72765187604E-01  0.51100000000E-03 0.  1.
</event>
<event>
 8    1  0.1094134E+005  0.1043930E+01  0.7957747E-01            NaN
         13   -1    0    0    0    0  0.00000000000E+00  0.00000000000E+00  0.74505805969E-08  0.10566000000E+00  0.10566000000E+00 0.  1.
     999900   -1    0    0    0    0 -0.00000000000E+00 -0.00000000000E+00 -0.74505805969E-08  0.93827000000E+00  0.93827000000E+00 0. -1.
     999902    2    1    2    0    0 -0.19147285659E-01  0.26161096878E-02  0.15433129348E-01  0.10191985613E+01  0.10188984558E+01 0.  0.
     999903    2    3    3    0    0 -0.98229051877E-01 -0.51259280823E-01 -0.65491643918E-01  0.13031988434E+00  0.20436641805E-01 0.  0.
         14    1    1    2    0    0  0.19147285659E-01 -0.26161096878E-02 -0.15433129348E-01  0.24731438686E-01  0.00000000000E+00 0. -1.
     999901    1    3    3    0    0  0.79081766218E-01  0.53875390511E-01  0.80924773266E-01  0.88887867697E+00  0.88000000000E+00 0. -1.
        -11    1    4    4    0    0 -0.15646072512E-01 -0.16539232501E-01 -0.17263628254E-01  0.28576909879E-01  0.51100000000E-03 0.  1.
         11    1    4    4    0    0 -0.82582979365E-01 -0.34720048322E-01 -0.48228015664E-01  0.10174297446E+00  0.51100000000E-03 0. -1.
</event>
<event>
 8    1  0.1094134E+005  0.1043930E+01  0.7957747E-01            NaN
         13   -1    0    0    0    0  0.00000000000E+00  0.00000000000E+00  0.74505805969E-08  0.10566000000E+00  0.10566000000E+00 0.  1.
     999900   -1    0    0    0    0 -0.00000000000E+00 -0.00000000000E+00 -0.74505805969E-08  0.93827000000E+00  0.93827000000E+00 0. -1.
     999902    2    1    2    0    0 -0.18862940352E-01 -0.15330078223E-01  0.17932345939E-03  0.10196225120E+01  0.10193327293E+01 0.  0.
     999903    2    3    3    0    0  0.11655891589E+00  0.43153013680E-01 -0.17434372368E-01  0.12717106037E+00  0.20502628927E-01 0.  0.
         14    1    1    2    0    0  0.18862940352E-01  0.15330078223E-01 -0.17932345939E-03  0.24307488022E-01  0.00000000000E+00 0.  1.
     999901    1    3    3    0    0 -0.13542185625E+00 -0.58483091903E-01  0.17613695828E-01  0.89245145160E+00  0.88000000000E+00 0.  1.
        -11    1    4    4    0    0  0.75831562529E-01  0.36138347402E-01 -0.56504089045E-02  0.84193789975E-01  0.51100000000E-03 0. -1.
         11    1    4    4    0    0  0.40727353365E-01  0.70146662781E-02 -0.11783963464E-01  0.42977270400E-01  0.51100000000E-03 0.  1.
</event>
<event>
 8    1  0.1094134E+005  0.1043930E+01  0.7957747E-01            NaN
         13   -1    0    0    0    0  0.00000000000E+00  0.00000000000E+00  0.74505805969E-08  0.10566000000E+00  0.10566000000E+00 0.  1.
     999900   -1    0    0    0    0 -0.00000000000E+00 -0.00000000000E+00 -0.74505805969E-08  0.93827000000E+00  0.93827000000E+00 0. -1.
     999902    2    1    2    0    0 -0.23709730897E-01  0.58740897016E-03  0.48736764697E-02  0.10197174183E+01  0.10194299212E+01 0.  0.
     999903    2    3    3    0    0  0.86418915798E-01 -0.66883991629E-01 -0.61826343131E-01  0.12779275709E+00  0.23807450853E-01 0.  0.
         14    1    1    2    0    0  0.23709730897E-01 -0.58740897016E-03 -0.48736764697E-02  0.24212581664E-01  0.00000000000E+00 0. -1.
     999901    1    3    3    0    0 -0.11012864670E+00  0.67471400599E-01  0.66700019601E-01  0.89192466124E+00  0.88000000000E+00 0.  1.
        -11    1    4    4    0    0  0.77302192815E-01 -0.63840944531E-01 -0.48548628656E-01  0.11139356210E+00  0.51100000000E-03 0.  1.
         11    1    4    4    0    0  0.91167229830E-02 -0.30430470978E-02 -0.13277714475E-01  0.16399194988E-01  0.51100000000E-03 0. -1.
</event>
<event>
 8    1  0.1094134E+005  0.1043930E+01  0.7957747E-01            NaN
         13   -1    0    0    0    0  0.00000000000E+00  0.00000000000E+00  0.74505805969E-08  0.10566000000E+00  0.10566000000E+00 0. -1.
     999900   -1    0    0    0    0 -0.00000000000E+00 -0.00000000000E+00 -0.74505805969E-08  0.93827000000E+00  0.93827000000E+00 0. -1.
     999902    2    1    2    0    0  0.25519406517E-01 -0.23067654409E-02 -0.10463182251E-02  0.10182851943E+01  0.10179622198E+01 0.  0.
     999903    2    3    3    0    0  0.56587646447E-01  0.10382753875E+00 -0.50266830086E-01  0.12999898773E+00  0.19765198478E-01 0.  0.
         14    1    1    2    0    0 -0.25519406517E-01  0.23067654409E-02  0.10463182251E-02  0.25644805665E-01  0.00000000000E+00 0. -1.
     999901    1    3    3    0    0 -0.31068239930E-01 -0.10613430419E+00  0.49220511861E-01  0.88828620661E+00  0.88000000000E+00 0.  1.
        -11    1    4    4    0    0  0.37767269839E-01  0.49891788189E-01 -0.22682478007E-01  0.66560597422E-01  0.51100000000E-03 0.  1.
         11    1    4    4    0    0  0.18820376609E-01  0.53935750559E-01 -0.27584352080E-01  0.63438390306E-01  0.51100000000E-03 0. -1.
</event>
<event>
 7    1  0.2190191E+005  0.1043930E+01  0.7957747E-01            NaN
         13   -1    0    0    0    0  0.00000000000E+00  0.00000000000E+00  0.74505805969E-08  0.10566000000E+00  0.10566000000E+00 0.  1.
     999900   -1    0    0    0    0 -0.00000000000E+00 -0.00000000000E+00 -0.74505805969E-08  0.93827000000E+00  0.93827000000E+00 0.  1.
     999903    2    1    2    0    0 -0.88936015299E-01  0.59502480702E-01 -0.16850673804E-02  0.10857701706E+00  0.18329461393E-01 0.  0.
         14    1    1    2    0    0 -0.42939056845E-03  0.19493513928E-01  0.42090884237E-01  0.46387756977E-01  0.00000000000E+00 0. -1.
     999901    1    1    2    0    0  0.89365405867E-01 -0.78995994630E-01 -0.40405816856E-01  0.88896522596E+00  0.88000000000E+00 0. -1.
        -11    1    3    3    0    0 -0.55957206993E-01  0.47538484241E-01 -0.27167092718E-02  0.73476241933E-01  0.51100000000E-03 0.  1.
         11    1    3    3    0    0 -0.32978808306E-01  0.11963996461E-01  0.10316418913E-02  0.35100775128E-01  0.51100000000E-03 0. -1.
</event>
<event>
 8    1  0.1094134E+005  0.1043930E+01  0.7957747E-01            NaN
         13   -1    0    0    0    0  0.00000000000E+00  0.00000000000E+00  0.74505805969E-08  0.10566000000E+00  0.10566000000E+00 0. -1.
     999900   -1    0    0    0    0 -0.00000000000E+00 -0.00000000000E+00 -0.74505805969E-08  0.93827000000E+00  0.93827000000E+00 0. -1.
     999902    2    1    2    0    0  0.18057686395E-01  0.13780923628E-01 -0.78952201187E-02  0.10198815407E+01  0.10195979740E+01 0.  0.
     999903    2    3    3    0    0 -0.38953831322E-01 -0.11970916702E+00  0.92302469862E-02  0.12782593757E+00  0.20164007846E-01 0.  0.
         14    1    1    2    0    0 -0.18057686395E-01 -0.13780923628E-01  0.78952201187E-02  0.24048459300E-01  0.00000000000E+00 0. -1.
     999901    1    3    3    0    0  0.57011517717E-01  0.13349009065E+00 -0.17125467105E-01  0.89205560313E+00  0.88000000000E+00 0. -1.
        -11    1    4    4    0    0 -0.21679037731E-01 -0.84043710138E-01  0.13963190301E-01  0.87912215847E-01  0.51100000000E-03 0. -1.
         11    1    4    4    0    0 -0.17274793592E-01 -0.35665456883E-01 -0.47329433148E-02  0.39913721722E-01  0.51100000000E-03 0.  1.
</event>
<event>
 8    1  0.1094134E+005  0.1043930E+01  0.7957747E-01            NaN
         13   -1    0    0    0    0  0.00000000000E+00  0.00000000000E+00  0.74505805969E-08  0.10566000000E+00  0.10566000000E+00 0.  1.
     999900   -1    0    0    0    0 -0.00000000000E+00 -0.00000000000E+00 -0.74505805969E-08  0.93827000000E+00  0.93827000000E+00 0. -1.
     999902    2    1    2    0    0  0.14741728722E-01 -0.26073082206E-01 -0.61724028196E-02  0.10133485884E+01  0.10128870316E+01 0.  0.
     999903    2    3    3    0    0 -0.11906307869E+00  0.16816626825E-01 -0.50740630131E-02  0.12220075552E+00  0.21176942405E-01 0.  0.
         14    1    1    2    0    0 -0.14741728722E-01  0.26073082206E-01  0.61724028196E-02  0.30581411642E-01  0.00000000000E+00 0. -1.
     999901    1    3    3    0    0  0.13380480741E+00 -0.42889709031E-01 -0.10983398065E-02  0.89114783284E+00  0.88000000000E+00 0. -1.
        -11    1    4    4    0    0 -0.93533817912E-01  0.18986790807E-01  0.25093739469E-02  0.95475815770E-01  0.51100000000E-03 0. -1.
         11    1    4    4    0    0 -0.25529260774E-01 -0.21701639820E-02 -0.75834369601E-02  0.26724939747E-01  0.51100000000E-03 0.  1.
</event>
<event>
 8    1  0.1094134E+005  0.1043930E+01  0.7957747E-01            NaN
         13   -1    0    0    0    0  0.00000000000E+00  0.00000000000E+00  0.74505805969E-08  0.10566000000E+00  0.10566000000E+00 0.  1.
     999900   -1    0    0    0    0 -0.00000000000E+00 -0.00000000000E+00 -0.74505805969E-08  0.93827000000E+00  0.93827000000E+00 0.  1.
     999902    2    1    2    0    0 -0.22351875389E-01  0.57402782287E-02  0.14853911220E-01  0.10164855870E+01  0.10161150293E+01 0.  0.
     999903    2    3    3    0    0 -0.54734311051E-01 -0.76102814592E-01  0.88133337681E-01  0.12906416042E+00  0.10128627644E-01 0.  0.
         14    1    1    2    0    0  0.22351875389E-01 -0.57402782287E-02 -0.14853911220E-01  0.27444413021E-01  0.00000000000E+00 0. -1.
     999901    1    3    3    0    0  0.32382435662E-01  0.81843092820E-01 -0.73279426461E-01  0.88742142656E+00  0.88000000000E+00 0. -1.
        -11    1    4    4    0    0 -0.16545221570E-01 -0.30946633491E-01  0.30805711753E-01  0.46697874457E-01  0.51100000000E-03 0. -1.
         11    1    4    4    0    0 -0.38189089481E-01 -0.45156181100E-01  0.57327625928E-01  0.82366285958E-01  0.51100000000E-03 0.  1.
</event>
<event>
 8    1  0.1094134E+005  0.1043930E+01  0.7957747E-01            NaN
         13   -1    0    0    0    0  0.00000000000E+00  0.00000000000E+00  0.74505805969E-08  0.10566000000E+00  0.10566000000E+00 0. -1.
     999900   -1    0    0    0    0 -0.00000000000E+00 -0.00000000000E+00 -0.74505805969E-08  0.93827000000E+00  0.93827000000E+00 0.  1.
     999902    2    1    2    0    0  0.14742014391E-02  0.25431850025E-01  0.52943388750E-02  0.10179111167E+01  0.10175785273E+01 0.  0.
     999903    2    3    3    0    0  0.11820913916E+00  0.52585637084E-01  0.80981480354E-04  0.12977173970E+00  0.10101883805E-01 0.  0.
         14    1    1    2    0    0 -0.14742014391E-02 -0.25431850025E-01 -0.52943388750E-02  0.26018883329E-01  0.00000000000E+00 0.  1.
     999901    1    3    3    0    0 -0.11673493772E+00 -0.27153787059E-01  0.52133573947E-02  0.88813937697E+00  0.88000000000E+00 0.  1.
        -11    1    4    4    0    0  0.69404995616E-01  0.31301902635E-01  0.49775941806E-02  0.76301376723E-01  0.51100000000E-03 0.  1.
         11    1    4    4    0    0  0.48804143548E-01  0.21283734449E-01 -0.48966127002E-02  0.53470362973E-01  0.51100000000E-03 0. -1.
</event>
<event>
 8    1  0.1094134E+005  0.1043930E+01  0.7957747E-01            NaN
         13   -1    0    0    0    0  0.00000000000E+00  0.00000000000E+00  0.74505805969E-08  0.10566000000E+00  0.10566000000E+00 0.  1.
     999900   -1    0    0    0    0 -0.00000000000E+00 -0.00000000000E+00 -0.74505805969E-08  0.93827000000E+00  0.93827000000E+00 0. -1.
     999902    2    1    2    0    0  0.95054766696E-02 -0.13191438020E-01 -0.14167972831E-01  0.10223638326E+01  0.10221363444E+01 0.  0.
     999903    2    3    3    0    0  0.39630369329E-01 -0.18962641093E-01  0.12210044243E+00  0.13134761669E+00  0.20335447840E-01 0.  0.
         14    1    1    2    0    0 -0.95054766696E-02  0.13191438020E-01  0.14167972831E-01  0.21566167436E-01  0.00000000000E+00 0.  1.
     999901    1    3    3    0    0 -0.30124892660E-01  0.57712030733E-02 -0.13626841526E+00  0.89101621587E+00  0.88000000000E+00 0. -1.
        -11    1    4    4    0    0  0.31158551461E-01 -0.67574444502E-02  0.65824717432E-01  0.73141458358E-01  0.51100000000E-03 0. -1.
         11    1    4    4    0    0  0.84718178680E-02 -0.12205196643E-01  0.56275725000E-01  0.58206158337E-01  0.51100000000E-03 0.  1.
</event>
<event>
 8    1  0.1094134E+005  0.1043930E+01  0.7957747E-01            NaN
         13   -1    0    0    0    0  0.00000000000E+00  0.00000000000E+00  0.74505805969E-08  0.10566000000E+00  0.10566000000E+00 0.  1.
     999900   -1    0    0    0    0 -0.00000000000E+00 -0.00000000000E+00 -0.74505805969E-08  0.93827000000E+00  0.93827000000E+00 0. -1.
     999902    2    1    2    0    0 -0.13726134994E-01 -0.48391070679E-02  0.18899417832E-01  0.10200760332E+01  0.10197970885E+01 0.  0.
     999903    2    3    3    0    0  0.86544788442E-01  0.25122370380E-01  0.92644244863E-01  0.13081215347E+00  0.20192312662E-01 0.  0.
         14    1    1    2    0    0  0.13726134994E-01  0.48391070679E-02 -0.18899417832E-01  0.23853966829E-01  0.00000000000E+00 0. -1.
     999901    1    3    3    0    0 -0.10027092344E+00 -0.29961477448E-01 -0.73744827030E-01  0.88926387970E+00  0.88000000000E+00 0. -1.
        -11    1    4    4    0    0  0.45057682937E-01  0.17313636682E-01  0.36261783931E-01  0.60374952602E-01  0.51100000000E-03 0. -1.
         11    1    4    4    0    0  0.41487105504E-01  0.78087336984E-02  0.56382460932E-01  0.70437200873E-01  0.51100000000E-03 0.  1.
</event>
<event>
 8    1  0.1094134E+005  0.1043930E+01  0.7957747E-01            NaN
         13   -1    0    0    0    0  0.00000000000E+00  0.00000000000E+00  0.74505805969E-08  0.10566000000E+00  0.10566000000E+00 0.  1.
     999900   -1    0    0    0    0 -0.00000000000E+00 -0.00000000000E+00 -0.74505805969E-08  0.93827000000E+00  0.93827000000E+00 0.  1.
     999902    2    1    2    0    0 -0.12321789155E-01  0.15259318166E-01 -0.14773687559E-01  0.10193752627E+01  0.10190794822E+01 0.  0.
     999903    2    3    3    0    0  0.10745840909E+00  0.49727125173E-01  0.45330612032E-01  0.12856223383E+00  0.21290535874E-01 0.  0.
         14    1    1    2    0    0  0.12321789155E-01 -0.15259318166E-01  0.14773687559E-01  0.24554737281E-01  0.00000000000E+00 0. -1.
     999901    1    3    3    0    0 -0.11978019824E+00 -0.34467807007E-01 -0.60104299591E-01  0.89081302889E+00  0.88000000000E+00 0.  1.
        -11    1    4    4    0    0  0.86809067306E-01  0.43875073355E-01  0.28725208775E-01  0.10142107754E+00  0.51100000000E-03 0. -1.
         11    1    4    4    0    0  0.20649341783E-01  0.58520518188E-02  0.16605403257E-01  0.27141156292E-01  0.51100000000E-03 0.  1.
</event>
<event>
 8    1  0.1094134E+005  0.1043930E+01  0.7957747E-01            NaN
         13   -1    0    0    0    0  0.00000000000E+00  0.00000000000E+00  0.74505805969E-08  0.10566000000E+00  0.10566000000E+00 0.  1.
     999900   -1    0    0    0    0 -0.00000000000E+00 -0.00000000000E+00 -0.74505805969E-08  0.93827000000E+00  0.93827000000E+00 0. -1.
     999902    2    1    2    0    0  0.88188864941E-02  0.22723421796E-01 -0.62509462654E-02  0.10187665148E+01  0.10184556990E+01 0.  0.
     999903    2    3    3    0    0  0.62912417548E-01  0.79170090130E-02 -0.11242947231E+00  0.13061156249E+00  0.19958524463E-01 0.  0.
         14    1    1    2    0    0 -0.88188864941E-02 -0.22723421796E-01  0.62509462654E-02  0.25163485178E-01  0.00000000000E+00 0.  1.
     999901    1    3    3    0    0 -0.54093531054E-01  0.14806412783E-01  0.10617852604E+00  0.88815495233E+00  0.88000000000E+00 0.  1.
        -11    1    4    4    0    0  0.22249182353E-01  0.94944361428E-02 -0.56315319357E-01  0.61293121542E-01  0.51100000000E-03 0. -1.
         11    1    4    4    0    0  0.40663235195E-01 -0.15774271298E-02 -0.56114152951E-01  0.69318440947E-01  0.51100000000E-03 0.  1.
</event>
<event>
 8    1  0.1094134E+005  0.1043930E+01  0.7957747E-01            NaN
         13   -1    0    0    0    0  0.00000000000E+00  0.00000000000E+00  0.74505805969E-08  0.10566000000E+00  0.10566000000E+00 0. -1.
     999900   -1    0    0    0    0 -0.00000000000E+00 -0.00000000000E+00 -0.74505805969E-08  0.93827000000E+00  0.93827000000E+00 0.  1.
     999902    2    1    2    0    0 -0.85480109261E-02  0.23240389254E-01  0.20799704714E-02  0.10190802422E+01  0.10187772228E+01 0.  0.
     999903    2    3    3    0    0  0.45521840116E-01  0.10552410060E+00 -0.63071473183E-01  0.13119575169E+00  0.51711504845E-02 0.  0.
         14    1    1    2    0    0  0.85480109261E-02 -0.23240389254E-01 -0.20799704714E-02  0.24849757758E-01  0.00000000000E+00 0. -1.
     999901    1    3    3    0    0 -0.54069851042E-01 -0.82283711351E-01  0.65151443654E-01  0.88788449055E+00  0.88000000000E+00 0. -1.
        -11    1    4    4    0    0  0.37778805823E-01  0.84258819412E-01 -0.52341173653E-01  0.10614446005E+00  0.51100000000E-03 0.  1.
         11    1    4    4    0    0  0.77430342937E-02  0.21265281192E-01 -0.10730299530E-01  0.25051291649E-01  0.51100000000E-03 0. -1.
</event>
<event>
 8    1  0.1094134E+005  0.1043930E+01  0.7957747E-01            NaN
         13   -1    0    0    0    0  0.00000000000E+00  0.00000000000E+00  0.74505805969E-08  0.10566000000E+00  0.10566000000E+00 0.  1.
     999900   -1    0    0    0    0 -0.00000000000E+00 -0.00000000000E+00 -0.74505805969E-08  0.93827000000E+00  0.93827000000E+00 0.  1.
     999902    2    1    2    0    0  0.21761319946E-01  0.79596233954E-02 -0.49595248970E-02  0.10202338497E+01  0.10199586269E+01 0.  0.
     999903    2    3    3    0    0  0.10689169506E+00 -0.32424153194E-01  0.67903326156E-01  0.13220962414E+00  0.19782892306E-01 0.  0.
         14    1    1    2    0    0 -0.21761319946E-01 -0.79596233954E-02  0.49595248970E-02  0.23696150269E-01  0.00000000000E+00 0.  1.
     999901    1    3    3    0    0 -0.85130375115E-01  0.40383776590E-01 -0.72862851053E-01  0.88802422559E+00  0.88000000000E+00 0.  1.
        -11    1    4    4    0    0  0.16186180955E-01 -0.12486045209E-01  0.99754413089E-02  0.22752237894E-01  0.51100000000E-03 0. -1.
         11    1    4    4    0    0  0.90705514106E-01 -0.19938107985E-01  0.57927884847E-01  0.10945738624E+00  0.51100000000E-03 0.  1.
</event>
<event>
 8    1  0.1094134E+005  0.1043930E+01  0.7957747E-01            NaN
         13   -1    0    0    0    0  0.00000000000E+00  0.00000000000E+00  0.74505805969E-08  0.10566000000E+00  0.10566000000E+00 0. -1.
     999900   -1    0    0    0    0 -0.00000000000E+00 -0.00000000000E+00 -0.74505805969E-08  0.93827000000E+00  0.93827000000E+00 0.  1.
     999902    2    1    2    0    0 -0.22264618557E-01 -0.16434968473E-02  0.36791098221E-02  0.10213036841E+01  0.10210530177E+01 0.  0.
     999903    2    3    3    0    0 -0.11985267374E+00  0.25345109570E-01  0.50571525095E-01  0.13425762443E+00  0.21461420848E-01 0.  0.
         14    1    1    2    0    0  0.22264618557E-01  0.16434968473E-02 -0.36791098221E-02  0.22626315884E-01  0.00000000000E+00 0.  1.
     999901    1    3    3    0    0  0.97588055187E-01 -0.26988606418E-01 -0.46892415273E-01  0.88704605968E+00  0.88000000000E+00 0.  1.
        -11    1    4    4    0    0 -0.14971565737E-01 -0.39087110625E-02  0.60846303381E-02  0.16634591974E-01  0.51100000000E-03 0. -1.
         11    1    4    4    0    0 -0.10488110801E+00  0.29253820633E-01  0.44486894757E-01  0.11762303246E+00  0.51100000000E-03 0.  1.
</event>
<event>
 8    1  0.1094134E+005  0.1043930E+01  0.7957747E-01            NaN
         13   -1    0    0    0    0  0.00000000000E+00  0.00000000000E+00  0.74505805969E-08  0.10566000000E+00  0.10566000000E+00 0.  1.
     999900   -1    0    0    0    0 -0.00000000000E+00 -0.00000000000E+00 -0.74505805969E-08  0.93827000000E+00  0.93827000000E+00 0.  1.
     999902    2    1    2    0    0  0.14077803852E-01 -0.19042501136E-01 -0.49417148154E-02  0.10197386388E+01  0.10194516514E+01 0.  0.
     999903    2    3    3    0    0 -0.11562913221E+00 -0.27419587462E-01  0.45012294312E-01  0.12879000513E+00  0.20948240735E-01 0.  0.
         14    1    1    2    0    0 -0.14077803852E-01  0.19042501136E-01  0.49417148154E-02  0.24191361188E-01  0.00000000000E+00 0.  1.
     999901    1    3    3    0    0  0.12970693606E+00  0.83770863265E-02 -0.49954009127E-01  0.89094863368E+00  0.88000000000E+00 0.  1.
        -11    1    4    4    0    0 -0.80242679899E-01 -0.15396285507E-01  0.20995941106E-01  0.84362455801E-01  0.51100000000E-03 0.  1.
         11    1    4    4    0    0 -0.35386452308E-01 -0.12023301955E-01  0.24016353206E-01  0.44427549326E-01  0.51100000000E-03 0. -1.
</event>
<event>
 7    1  0.1094134E+005  0.1043930E+01  0.7957747E-01            NaN
         13   -1    0    0    0    0  0.00000000000E+00  0.00000000000E+00  0.74505805969E-08  0.10566000000E+00  0.10566000000E+00 0. -1.
     999900   -1    0    0    0    0 -0.00000000000E+00 -0.00000000000E+00 -0.74505805969E-08  0.93827000000E+00  0.93827000000E+00 0. -1.
     999902    2    1    2    0    0 -0.22473480829E-01  0.74032957357E-02  0.45228235303E-02  0.10198401253E+01  0.10195555695E+01 0.  0.
         14    1    1    2    0    0  0.22473480829E-01 -0.74032957357E-02 -0.45228235303E-02  0.24089874657E-01  0.00000000000E+00 0.  1.
     999901    1    3    3    0    0  0.10126072205E+00 -0.11230537460E-01  0.27589245502E-01  0.88630752297E+00  0.88000000000E+00 0. -1.
        -11    1    3    3    0    0 -0.28201988986E-01  0.10349414690E-02 -0.22970771594E-01  0.36391492896E-01  0.51100000000E-03 0. -1.
         11    1    3    3    0    0 -0.95532213891E-01  0.17598891727E-01 -0.95650378465E-04  0.97141109479E-01  0.51100000000E-03 0.  1.
</event>
<event>
 8    1  0.1094134E+005  0.1043930E+01  0.7957747E-01            NaN
         13   -1    0    0    0    0  0.00000000000E+00  0.00000000000E+00  0.74505805969E-08  0.10566000000E+00  0.10566000000E+00 0. -1.
     999900   -1    0    0    0    0 -0.00000000000E+00 -0.00000000000E+00 -0.74505805969E-08  0.93827000000E+00  0.93827000000E+00 0.  1.
     999902    2    1    2    0    0  0.18301756067E-01  0.10716440158E-01  0.12448763275E-01  0.10193379673E+01  0.10190412767E+01 0.  0.
     999903    2    3    3    0    0  0.81618192188E-01 -0.88808203573E-01 -0.43091011416E-01  0.12973199140E+00  0.20618632617E-01 0.  0.
         14    1    1    2    0    0 -0.18301756067E-01 -0.10716440158E-01 -0.12448763275E-01  0.24592032691E-01  0.00000000000E+00 0.  1.
     999901    1    3    3    0    0 -0.63316436121E-01  0.99524643731E-01  0.55539774691E-01  0.88960597590E+00  0.88000000000E+00 0.  1.
        -11    1    4    4    0    0  0.54252830214E-01 -0.43983120486E-01 -0.24977501230E-01  0.74175610295E-01  0.51100000000E-03 0.  1.
         11    1    4    4    0    0  0.27365361973E-01 -0.44825083087E-01 -0.18113510186E-01  0.55556381109E-01  0.51100000000E-03 0. -1.
</event>
<event>
 8    1  0.1094134E+005  0.1043930E+01  0.7957747E-01            NaN
         13   -1    0    0    0    0  0.00000000000E+00  0.00000000000E+00  0.74505805969E-08  0.10566000000E+00  0.10566000000E+00 0. -1.
     999900   -1    0    0    0    0 -0.00000000000E+00 -0.00000000000E+00 -0.74505805969E-08  0.93827000000E+00  0.93827000000E+00 0.  1.
     999902    2    1    2    0    0  0.23828132655E-01 -0.44352395827E-02  0.18139544661E-03  0.10196919275E+01  0.10194038173E+01 0.  0.
     999903    2    3    3    0    0 -0.63131855814E-01 -0.22124083243E-01  0.10788449498E+00  0.12869535484E+00  0.21173658642E-01 0.  0.
         14    1    1    2    0    0 -0.23828132655E-01  0.44352395827E-02 -0.18139544661E-03  0.24238072537E-01  0.00000000000E+00 0. -1.
     999901    1    3    3    0    0  0.86959988469E-01  0.17688843660E-01 -0.10770309954E+00  0.89099657263E+00  0.88000000000E+00 0.  1.
        -11    1    4    4    0    0 -0.41071227800E-01 -0.10025141217E-01  0.49378478545E-01  0.65006495628E-01  0.51100000000E-03 0. -1.
         11    1    4    4    0    0 -0.22060628014E-01 -0.12098942026E-01  0.58506016439E-01  0.63688859207E-01  0.51100000000E-03 0.  1.
</event>
<event>
 8    1  0.1094134E+005  0.1043930E+01  0.7957747E-01            NaN
         13   -1    0    0    0    0  0.00000000000E+00  0.00000000000E+00  0.74505805969E-08  0.10566000000E+00  0.10566000000E+00 0.  1.
     999900   -1    0    0    0    0 -0.00000000000E+00 -0.00000000000E+00 -0.74505805969E-08  0.93827000000E+00  0.93827000000E+00 0. -1.
     999902    2    1    2    0    0  0.20278602038E-01 -0.34172363060E-02 -0.11977831371E-01  0.10201315200E+01  0.10198538868E+01 0.  0.
     999903    2    3    3    0    0 -0.52669939099E-01  0.70037806388E-01  0.91317661305E-01  0.12806252507E+00  0.19536587566E-01 0.  0.
         14    1    1    2    0    0 -0.20278602038E-01  0.34172363060E-02  0.11977831371E-01  0.23798479971E-01  0.00000000000E+00 0. -1.
     999901    1    3    3    0    0  0.72948541138E-01 -0.73455042695E-01 -0.10329549268E+00  0.89206899495E+00  0.88000000000E+00 0. -1.
        -11    1    4    4    0    0 -0.29362127805E-01  0.24792441983E-01  0.45709937900E-01  0.59719839857E-01  0.51100000000E-03 0.  1.
         11    1    4    4    0    0 -0.23307811294E-01  0.45245364405E-01  0.45607723405E-01  0.68342685217E-01  0.51100000000E-03 0. -1.
</event>
<event>
 8    1  0.1094134E+005  0.1043930E+01  0.7957747E-01            NaN
         13   -1    0    0    0    0  0.00000000000E+00  0.00000000000E+00  0.74505805969E-08  0.10566000000E+00  0.10566000000E+00 0. -1.
     999900   -1    0    0    0    0 -0.00000000000E+00 -0.00000000000E+00 -0.74505805969E-08  0.93827000000E+00  0.93827000000E+00 0.  1.
     999902    2    1    2    0    0 -0.11993286296E-01  0.17748118965E-01  0.96655478334E-02  0.10204298413E+01  0.10201592050E+01 0.  0.
     999903    2    3    3    0    0 -0.96538856796E-01 -0.32063408037E-01 -0.79272753581E-01  0.13052020368E+00  0.20088332468E-01 0.  0.
         14    1    1    2    0    0  0.11993286296E-01 -0.17748118965E-01 -0.96655478334E-02  0.23500158678E-01  0.00000000000E+00 0.  1.
     999901    1    3    3    0    0  0.84545570501E-01  0.49811527002E-01  0.88938301414E-01  0.88990963764E+00  0.88000000000E+00 0. -1.
        -11    1    4    4    0    0 -0.41297528961E-01 -0.23318963265E-01 -0.31226215041E-01  0.56785540174E-01  0.51100000000E-03 0.  1.
         11    1    4    4    0    0 -0.55241327835E-01 -0.87444447714E-02 -0.48046538540E-01  0.73734663504E-01  0.51100000000E-03 0. -1.
</event>
<event>
 8    1  0.1094134E+005  0.1043930E+01  0.7957747E-01            NaN
         13   -1    0    0    0    0  0.00000000000E+00  0.00000000000E+00  0.74505805969E-08  0.10566000000E+00  0.10566000000E+00 0.  1.
     999900   -1    0    0    0    0 -0.00000000000E+00 -0.00000000000E+00 -0.74505805969E-08  0.93827000000E+00  0.93827000000E+00 0.  1.
     999902    2    1    2    0    0 -0.91593207722E-02  0.19456447059E-01  0.92319174095E-02  0.10205275474E+01  0.10202591829E+01 0.  0.
     999903    2    3    3    0    0  0.11865462897E+00  0.22616434261E-01 -0.42233524890E-01  0.12980026981E+00  0.21771893445E-01 0.  0.
         14    1    1    2    0    0  0.91593207722E-02 -0.19456447059E-01 -0.92319174095E-02  0.23402452611E-01  0.00000000000E+00 0. -1.
     999901    1    3    3    0    0 -0.12781394974E+00 -0.31599872018E-02  0.51465442300E-01  0.89072727758E+00  0.88000000000E+00 0.  1.
        -11    1    4    4    0    0  0.48448672517E-01  0.95639208030E-02 -0.60799462410E-02  0.49759112905E-01  0.51100000000E-03 0.  1.
         11    1    4    4    0    0  0.70205956452E-01  0.13052513458E-01 -0.36153578649E-01  0.80041156907E-01  0.51100000000E-03 0. -1.
</event>
<event>
 8    1  0.1094134E+005  0.1043930E+01  0.7957747E-01            NaN
         13   -1    0    0    0    0  0.00000000000E+00  0.00000000000E+00  0.74505805969E-08  0.10566000000E+00  0.10566000000E+00 0.  1.
     999900   -1    0    0    0    0 -0.00000000000E+00 -0.00000000000E+00 -0.74505805969E-08  0.93827000000E+00  0.93827000000E+00 0. -1.
     999902    2    1    2    0    0  0.11245322849E-01  0.20836209192E-01  0.18165046943E-02  0.10201833247E+01  0.10199069131E+01 0.  0.
     999903    2    3    3    0    0  0.12652393366E+00  0.33828824575E-01 -0.25473983316E-02  0.13255896167E+00  0.20314869373E-01 0.  0.
         14    1    1    2    0    0 -0.11245322849E-01 -0.20836209192E-01 -0.18165046943E-02  0.23746675321E-01  0.00000000000E+00 0. -1.
     999901    1    3    3    0    0 -0.11527861082E+00 -0.12992615382E-01  0.43639030258E-02  0.88762436301E+00  0.88000000000E+00 0. -1.
        -11    1    4    4    0    0  0.69021293818E-01  0.17995877312E-01  0.87124309247E-02  0.71860685874E-01  0.51100000000E-03 0.  1.
         11    1    4    4    0    0  0.57502639846E-01  0.15832947263E-01 -0.11259829256E-01  0.60698275792E-01  0.51100000000E-03 0. -1.
</event>
<event>
 8    1  0.1094134E+005  0.1043930E+01  0.7957747E-01            NaN
         13   -1    0    0    0    0  0.00000000000E+00  0.00000000000E+00  0.74505805969E-08  0.10566000000E+00  0.10566000000E+00 0.  1.
     999900   -1    0    0    0    0 -0.00000000000E+00 -0.00000000000E+00 -0.74505805969E-08  0.93827000000E+00  0.93827000000E+00 0.  1.
     999902    2    1    2    0    0 -0.17190553834E-01  0.16393586638E-01 -0.32415415361E-02  0.10199555883E+01  0.10196737859E+01 0.  0.
     999903    2    3    3    0    0  0.10225594310E-02 -0.90599153627E-01 -0.90089917068E-01  0.12904492821E+00  0.18087235089E-01 0.  0.
         14    1    1    2    0    0  0.17190553834E-01 -0.16393586638E-01  0.32415415361E-02  0.23974411682E-01  0.00000000000E+00 0.  1.
     999901    1    3    3    0    0 -0.18213113265E-01  0.10699274027E+00  0.86848375532E-01  0.89091066011E+00  0.88000000000E+00 0. -1.
        -11    1    4    4    0    0 -0.55585589161E-02 -0.23792090739E-01 -0.32031513977E-01  0.40289454794E-01  0.51100000000E-03 0. -1.
         11    1    4    4    0    0  0.65811183471E-02 -0.66807062888E-01 -0.58058403091E-01  0.88755473414E-01  0.51100000000E-03 0.  1.
</event>
<event>
 8    1  0.1094134E+005  0.1043930E+01  0.7957747E-01            NaN
         13   -1    0    0    0    0  0.00000000000E+00  0.00000000000E+00  0.74505805969E-08  0.10566000000E+00  0.10566000000E+00 0.  1.
     999900   -1    0    0    0    0 -0.00000000000E+00 -0.00000000000E+00 -0.74505805969E-08  0.93827000000E+00  0.93827000000E+00 0.  1.
     999902    2    1    2    0    0  0.17568533641E-01  0.14106670668E-01 -0.29439350654E-01  0.10068580848E+01  0.10061753704E+01 0.  0.
     999903    2    3    3    0    0  0.17596675690E-01  0.65898815891E-01 -0.99906096952E-01  0.12252331251E+00  0.19453456486E-01 0.  0.
         14    1    1    2    0    0 -0.17568533641E-01 -0.14106670668E-01  0.29439350654E-01  0.37071915226E-01  0.00000000000E+00 0.  1.
     999901    1    3    3    0    0 -0.28142049302E-04 -0.51792145223E-01  0.70466746299E-01  0.88433477226E+00  0.88000000000E+00 0. -1.
        -11    1    4    4    0    0  0.11680350498E-01  0.21476833035E-01 -0.48558559806E-01  0.54368003425E-01  0.51100000000E-03 0.  1.
         11    1    4    4    0    0  0.59163251924E-02  0.44421982856E-01 -0.51347537146E-01  0.68155309086E-01  0.51100000000E-03 0. -1.
</event>
<event>
 8    1  0.1094134E+005  0.1043930E+01  0.7957747E-01            NaN
         13   -1    0    0    0    0  0.00000000000E+00  0.00000000000E+00  0.74505805969E-08  0.10566000000E+00  0.10566000000E+00 0. -1.
     999900   -1    0    0    0    0 -0.00000000000E+00 -0.00000000000E+00 -0.74505805969E-08  0.93827000000E+00  0.93827000000E+00 0. -1.
     999902    2    1    2    0    0 -0.10815087897E-01 -0.19959465408E-01  0.10016099124E-01  0.10191173293E+01  0.10188152248E+01 0.  0.
     999903    2    3    3    0    0 -0.10869712802E+00 -0.72430367860E-02 -0.68717528997E-01  0.13010575146E+00  0.18381527396E-01 0.  0.
         14    1    1    2    0    0  0.10815087897E-01  0.19959465408E-01 -0.10016099124E-01  0.24812670700E-01  0.00000000000E+00 0.  1.
     999901    1    3    3    0    0  0.97882040126E-01 -0.12716428622E-01  0.78733628121E-01  0.88901157784E+00  0.88000000000E+00 0.  1.
        -11    1    4    4    0    0 -0.38633018045E-01 -0.10711007530E-01 -0.29091510874E-01  0.49535975730E-01  0.51100000000E-03 0.  1.
         11    1    4    4    0    0 -0.70064109977E-01  0.34679707436E-02 -0.39626018123E-01  0.80569775730E-01  0.51100000000E-03 0. -1.
</event>
<event>
 8    1  0.1094134E+005  0.1043930E+01  0.7957747E-01            NaN
         13   -1    0    0    0    0  0.00000000000E+00  0.00000000000E+00  0.74505805969E-08  0.10566000000E+00  0.10566000000E+00 0. -1.
     999900   -1    0    0    0    0 -0.00000000000E+00 -0.00000000000E+00 -0.74505805969E-08  0.93827000000E+00  0.93827000000E+00 0.  1.
     999902    2    1    2    0    0  0.11710233178E-01 -0.20656615188E-01  0.57771537124E-02  0.10194923075E+01  0.10191993741E+01 0.  0.
     999903    2    3    3    0    0 -0.11352160698E+00 -0.39926594449E-01  0.43068563449E-01  0.12963558015E+00  0.21660893002E-01 0.  0.
         14    1    1    2    0    0 -0.11710233178E-01  0.20656615188E-01 -0.57771537124E-02  0.24437692549E-01  0.00000000000E+00 0.  1.
     999901    1    3    3    0    0  0.12523184016E+00  0.19269979261E-01 -0.37291409736E-01  0.88985672731E+00  0.88000000000E+00 0.  1.
        -11    1    4    4    0    0 -0.82095014026E-01 -0.27763510554E-01  0.40991460817E-01  0.95869519802E-01  0.51100000000E-03 0. -1.
         11    1    4    4    0    0 -0.31426592957E-01 -0.12163083895E-01  0.20771026322E-02  0.33766060343E-01  0.51100000000E-03 0.  1.
</event>
<event>
 8    1  0.1094134E+005  0.1043930E+01  0.7957747E-01            NaN
         13   -1    0    0    0    0  0.00000000000E+00  0.00000000000E+00  0.74505805969E-08  0.10566000000E+00  0.10566000000E+00 0. -1.
     999900   -1    0    0    0    0 -0.00000000000E+00 -0.00000000000E+00 -0.74505805969E-08  0.93827000000E+00  0.93827000000E+00 0.  1.
     999902    2    1    2    0    0 -0.32734463467E-02 -0.83438649928E-03  0.23559548942E-01  0.10201294958E+01  0.10198518149E+01 0.  0.
     999903    2    3    3    0    0  0.82973654235E-01  0.98651820923E-01  0.32455042535E-02  0.13010212085E+00  0.17297961817E-01 0.  0.
         14    1    1    2    0    0  0.32734463467E-02  0.83438649928E-03 -0.23559548942E-01  0.23800504158E-01  0.00000000000E+00 0.  1.
     999901    1    3    3    0    0 -0.86247100581E-01 -0.99486207422E-01  0.20314044689E-01  0.89002737499E+00  0.88000000000E+00 0.  1.
        -11    1    4    4    0    0  0.54935460091E-01  0.59277700439E-01  0.94271616993E-02  0.81368808787E-01  0.51100000000E-03 0. -1.
         11    1    4    4    0    0  0.28038194144E-01  0.39374120483E-01 -0.61816574458E-02  0.48733312062E-01  0.51100000000E-03 0.  1.
</event>
<event>
 8    1  0.1094134E+005  0.1043930E+01  0.7957747E-01            NaN
         13   -1    0    0    0    0  0.00000000000E+00  0.00000000000E+00  0.74505805969E-08  0.10566000000E+00  0.10566000000E+00 0.  1.
     999900   -1    0    0    0    0 -0.00000000000E+00 -0.00000000000E+00 -0.74505805969E-08  0.93827000000E+00  0.93827000000E+00 0. -1.
     999902    2    1    2    0    0 -0.23552612312E-01  0.37951812504E-02  0.10323943574E-02  0.10200512482E+01  0.10197717167E+01 0.  0.
     999903    2    3    3    0    0  0.11151940431E+00 -0.30285046707E-01  0.50615354306E-01  0.12771477497E+00  0.19884367272E-01 0.  0.
         14    1    1    2    0    0  0.23552612312E-01 -0.37951812504E-02 -0.10323943574E-02  0.23878751759E-01  0.00000000000E+00 0.  1.
     999901    1    3    3    0    0 -0.13507201663E+00  0.34080227957E-01 -0.49582959948E-01  0.89233647327E+00  0.88000000000E+00 0. -1.
        -11    1    4    4    0    0  0.63585684817E-01 -0.13775969786E-01  0.18282649090E-01  0.67582786536E-01  0.51100000000E-03 0. -1.
         11    1    4    4    0    0  0.47933719497E-01 -0.16509076921E-01  0.32332705216E-01  0.60131988435E-01  0.51100000000E-03 0.  1.
</event>
<event>
 8    1  0.1094134E+005  0.1043930E+01  0.7957747E-01            NaN
         13   -1    0    0    0    0  0.00000000000E+00  0.00000000000E+00  0.74505805969E-08  0.10566000000E+00  0.10566000000E+00 0.  1.
     999900   -1    0    0    0    0 -0.00000000000E+00 -0.00000000000E+00 -0.74505805969E-08  0.93827000000E+00  0.93827000000E+00 0. -1.
     999902    2    1    2    0    0 -0.31271497380E-02  0.22061849912E-01  0.54962238129E-02  0.10209797764E+01  0.10207217991E+01 0.  0.
     999903    2    3    3    0    0  0.12050829944E+00  0.30902215426E-01  0.37853267019E-01  0.13170431031E+00  0.20879616312E-01 0.  0.
         14    1    1    2    0    0  0.31271497380E-02 -0.22061849912E-01 -0.54962238129E-02  0.22950223598E-01  0.00000000000E+00 0. -1.
     999901    1    3    3    0    0 -0.12363544918E+00 -0.88403655140E-02 -0.32357043206E-01  0.88927546610E+00  0.88000000000E+00 0.  1.
        -11    1    4    4    0    0  0.84724711274E-01  0.15323338310E-01  0.33668499456E-01  0.92449501751E-01  0.51100000000E-03 0.  1.
         11    1    4    4    0    0  0.35783588165E-01  0.15578877115E-01  0.41847675635E-02  0.39254808555E-01  0.51100000000E-03 0. -1.
</event>
<event>
 8    1  0.1094134E+005  0.1043930E+01  0.7957747E-01            NaN
         13   -1    0    0    0    0  0.00000000000E+00  0.00000000000E+00  0.74505805969E-08  0.10566000000E+00  0.10566000000E+00 0.  1.
     999900   -1    0    0    0    0 -0.00000000000E+00 -0.00000000000E+00 -0.74505805969E-08  0.93827000000E+00  0.93827000000E+00 0.  1.
     999902    2    1    2    0    0  0.62032621096E-02  0.22744350096E-01  0.36623380163E-02  0.10200721157E+01  0.10197930783E+01 0.  0.
     999903    2    3    3    0    0 -0.57420970542E-01 -0.19994127545E-01  0.11324883228E+00  0.12996885196E+00  0.19226842528E-01 0.  0.
         14    1    1    2    0    0 -0.62032621096E-02 -0.22744350096E-01 -0.36623380163E-02  0.23857884270E-01  0.00000000000E+00 0. -1.
     999901    1    3    3    0    0  0.63624232652E-01  0.42738477641E-01 -0.10958649426E+00  0.89010326377E+00  0.88000000000E+00 0. -1.
        -11    1    4    4    0    0 -0.16705733831E-01 -0.13611798687E-01  0.28539959794E-01  0.35765248949E-01  0.51100000000E-03 0.  1.
         11    1    4    4    0    0 -0.40715236711E-01 -0.63823288582E-02  0.84708872481E-01  0.94203603010E-01  0.51100000000E-03 0. -1.
</event>
<event>
 8    1  0.1094134E+005  0.1043930E+01  0.7957747E-01            NaN
         13   -1    0    0    0    0  0.00000000000E+00  0.00000000000E+00  0.74505805969E-08  0.10566000000E+00  0.10566000000E+00 0. -1.
     999900   -1    0    0    0    0 -0.00000000000E+00 -0.00000000000E+00 -0.74505805969E-08  0.93827000000E+00  0.93827000000E+00 0. -1.
     999902    2    1    2    0    0 -0.11222439759E-01 -0.20359714973E-01  0.26499943433E-02  0.10205316322E+01  0.10202633624E+01 0.  0.
     999903    2    3    3    0    0 -0.54607073934E-02  0.68128232457E-01 -0.10758510364E+00  0.12923196805E+00  0.21332408608E-01 0.  0.
         14    1    1    2    0    0  0.11222439759E-01  0.20359714973E-01 -0.26499943433E-02  0.23398367848E-01  0.00000000000E+00 0. -1.
     999901    1    3    3    0    0 -0.57617323658E-02 -0.88487947430E-01  0.11023509799E+00  0.89129966410E+00  0.88000000000E+00 0.  1.
        -11    1    4    4    0    0 -0.13470770524E-01  0.34891779396E-01 -0.56596887684E-01  0.67840745459E-01  0.51100000000E-03 0.  1.
         11    1    4    4    0    0  0.80100631301E-02  0.33236453062E-01 -0.50988215960E-01  0.61391222592E-01  0.51100000000E-03 0. -1.
</event>
<event>
 8    1  0.1094134E+005  0.1043930E+01  0.7957747E-01            NaN
         13   -1    0    0    0    0  0.00000000000E+00  0.00000000000E+00  0.74505805969E-08  0.10566000000E+00  0.10566000000E+00 0.  1.
     999900   -1    0    0    0    0 -0.00000000000E+00 -0.00000000000E+00 -0.74505805969E-08  0.93827000000E+00  0.93827000000E+00 0.  1.
     999902    2    1    2    0    0 -0.18205111447E-01  0.13844628000E-01 -0.37660143911E-02  0.10207506413E+01  0.10204874271E+01 0.  0.
     999903    2    3    3    0    0 -0.52165939525E-01  0.58552554028E-02 -0.12092932449E+00  0.13230007474E+00  0.11128296854E-01 0.  0.
         14    1    1    2    0    0  0.18205111447E-01 -0.13844628000E-01  0.37660143911E-02  0.23179358742E-01  0.00000000000E+00 0.  1.
     999901    1    3    3    0    0  0.33960828078E-01  0.79893725977E-02  0.11716331010E+00  0.88845056652E+00  0.88000000000E+00 0. -1.
        -11    1    4    4    0    0 -0.42527091581E-01  0.86520841436E-02 -0.10247276012E+00  0.11128494851E+00  0.51100000000E-03 0. -1.
         11    1    4    4    0    0 -0.96388479448E-02 -0.27968287408E-02 -0.18456564372E-01  0.21015126222E-01  0.51100000000E-03 0.  1.
</event>
<event>
 8    1  0.1094134E+005  0.1043930E+01  0.7957747E-01            NaN
         13   -1    0    0    0    0  0.00000000000E+00  0.00000000000E+00  0.74505805969E-08  0.10566000000E+00  0.10566000000E+00 0. -1.
     999900   -1    0    0    0    0 -0.00000000000E+00 -0.00000000000E+00 -0.74505805969E-08  0.93827000000E+00  0.93827000000E+00 0. -1.
     999902    2    1    2    0    0  0.20845764005E-01 -0.10187682650E-01 -0.60768025662E-02  0.10199453740E+01  0.10196633286E+01 0.  0.
     999903    2    3    3    0    0  0.39594155615E-01 -0.96876022339E-01 -0.78796781299E-01  0.13250266276E+00  0.19883712771E-01 0.  0.
         14    1    1    2    0    0 -0.20845764005E-01  0.10187682650E-01  0.60768025662E-02  0.23984625996E-01  0.00000000000E+00 0. -1.
     999901    1    3    3    0    0 -0.18748391610E-01  0.86688339689E-01  0.72719978733E-01  0.88744271124E+00  0.88000000000E+00 0. -1.
        -11    1    4    4    0    0  0.22380213646E-01 -0.76082879881E-01 -0.54993830661E-01  0.96509383511E-01  0.51100000000E-03 0. -1.
         11    1    4    4    0    0  0.17213941969E-01 -0.20793142457E-01 -0.23802950637E-01  0.35993279253E-01  0.51100000000E-03 0.  1.
</event>
<event>
 8    1  0.1094134E+005  0.1043930E+01  0.7957747E-01            NaN
         13   -1    0    0    0    0  0.00000000000E+00  0.00000000000E+00  0.74505805969E-08  0.10566000000E+00  0.10566000000E+00 0.  1.
     999900   -1    0    0    0    0 -0.00000000000E+00 -0.00000000000E+00 -0.74505805969E-08  0.93827000000E+00  0.93827000000E+00 0. -1.
     999902    2    1    2    0    0  0.30391632569E-02 -0.12273766444E-01 -0.19038703000E-01  0.10210749334E+01  0.10208191150E+01 0.  0.
     999903    2    3    3    0    0 -0.93148531498E-01 -0.35319511092E-01 -0.85623146201E-01  0.13303401824E+00  0.21038299848E-01 0.  0.
         14    1    1    2    0    0 -0.30391632569E-02  0.12273766444E-01  0.19038703000E-01  0.22855066570E-01  0.00000000000E+00 0.  1.
     999901    1    3    3    0    0  0.96187694755E-01  0.23045744649E-01  0.66584443201E-01  0.88804091519E+00  0.88000000000E+00 0.  1.
        -11    1    4    4    0    0 -0.43092368812E-01 -0.56527398967E-02 -0.40355726338E-01  0.59310635534E-01  0.51100000000E-03 0.  1.
         11    1    4    4    0    0 -0.50056162686E-01 -0.29666771196E-01 -0.45267419863E-01  0.73723382709E-01  0.51100000000E-03 0. -1.
</event>
<event>
 8    1  0.2193682E+005  0.1043930E+01  0.7957747E-01            NaN
         13   -1    0    0    0    0  0.00000000000E+00  0.00000000000E+00  0.74505805969E-08  0.10566000000E+00  0.10566000000E+00 0. -1.
     999900   -1    0    0    0    0 -0.00000000000E+00 -0.00000000000E+00 -0.74505805969E-08  0.93827000000E+00  0.93827000000E+00 0. -1.
     999902    2    1    2    0    0  0.28103118035E-01  0.15288299845E-01 -0.19228657197E-01  0.10066036204E+01  0.10059113231E+01 0.  0.
     999903    2    3    3    0    0  0.74524667561E-01  0.88901878499E-01 -0.32921068516E-01  0.12220472775E+00  0.19817382663E-01 0.  0.
         14    1    1    2    0    0 -0.28103118035E-01 -0.15288299845E-01  0.19228657197E-01  0.37326379587E-01  0.00000000000E+00 0.  1.
     999901    1    3    3    0    0 -0.46421549525E-01 -0.73613578653E-01  0.13692411319E-01  0.88439889267E+00  0.88000000000E+00 0. -1.
        -11    1    4    4    0    0  0.39499339135E-01  0.50120017081E-01 -0.80270365705E-02  0.64318802394E-01  0.51100000000E-03 0.  1.
         11    1    4    4    0    0  0.35025328425E-01  0.38781861418E-01 -0.24894031946E-01  0.57885925352E-01  0.51100000000E-03 0. -1.
</event>
<event>
 8    1  0.1094134E+005  0.1043930E+01  0.7957747E-01            NaN
         13   -1    0    0    0    0  0.00000000000E+00  0.00000000000E+00  0.74505805969E-08  0.10566000000E+00  0.10566000000E+00 0.  1.
     999900   -1    0    0    0    0 -0.00000000000E+00 -0.00000000000E+00 -0.74505805969E-08  0.93827000000E+00  0.93827000000E+00 0. -1.
     999902    2    1    2    0    0  0.14053697760E-01 -0.14950518794E-01  0.13382341421E-01  0.10194328268E+01  0.10191384483E+01 0.  0.
     999903    2    3    3    0    0 -0.60997720266E-01 -0.11235783536E+00 -0.17392933973E-01  0.13035014322E+00  0.18537546743E-01 0.  0.
         14    1    1    2    0    0 -0.14053697760E-01  0.14950518794E-01 -0.13382341421E-01  0.24497173201E-01  0.00000000000E+00 0. -1.
     999901    1    3    3    0    0  0.75051418026E-01  0.97407316570E-01  0.30775275394E-01  0.88908268358E+00  0.88000000000E+00 0.  1.
        -11    1    4    4    0    0 -0.12595105164E-01 -0.41481704968E-01 -0.55379119293E-02  0.43706957234E-01  0.51100000000E-03 0.  1.
         11    1    4    4    0    0 -0.48402615102E-01 -0.70876130396E-01 -0.11855022044E-01  0.86643185983E-01  0.51100000000E-03 0. -1.
</event>
<event>
 8    1  0.1094134E+005  0.1043930E+01  0.7957747E-01            NaN
         13   -1    0    0    0    0  0.00000000000E+00  0.00000000000E+00  0.74505805969E-08  0.10566000000E+00  0.10566000000E+00 0. -1.
     999900   -1    0    0    0    0 -0.00000000000E+00 -0.00000000000E+00 -0.74505805969E-08  0.93827000000E+00  0.93827000000E+00 0. -1.
     999902    2    1    2    0    0 -0.19156583516E-01  0.84658956294E-02  0.11353980908E-01  0.10201065040E+01  0.10198282799E+01 0.  0.
     999903    2    3    3    0    0  0.16349046979E-01  0.12444877915E+00 -0.31097558815E-01  0.13077258901E+00  0.19483888285E-01 0.  0.
         14    1    1    2    0    0  0.19156583516E-01 -0.84658956294E-02 -0.11353980908E-01  0.23823496034E-01  0.00000000000E+00 0.  1.
     999901    1    3    3    0    0 -0.35505630496E-01 -0.11598288352E+00  0.42451539723E-01  0.88933391496E+00  0.88000000000E+00 0.  1.
        -11    1    4    4    0    0  0.62568171180E-02  0.10228404447E+00 -0.22313936094E-01  0.10487776875E+00  0.51100000000E-03 0. -1.
         11    1    4    4    0    0  0.10092229861E-01  0.22164734685E-01 -0.87836227206E-02  0.25894820261E-01  0.51100000000E-03 0.  1.
</event>
<event>
 8    1  0.1094134E+005  0.1043930E+01  0.7957747E-01            NaN
         13   -1    0    0    0    0  0.00000000000E+00  0.00000000000E+00  0.74505805969E-08  0.10566000000E+00  0.10566000000E+00 0. -1.
     999900   -1    0    0    0    0 -0.00000000000E+00 -0.00000000000E+00 -0.74505805969E-08  0.93827000000E+00  0.93827000000E+00 0.  1.
     999902    2    1    2    0    0 -0.16117839409E-01  0.34963213536E-03  0.15717142173E-01  0.10214147708E+01  0.10211665870E+01 0.  0.
     999903    2    3    3    0    0 -0.94920492382E-01  0.68792052960E-01 -0.57610793785E-01  0.13221782447E+00  0.20501295663E-01 0.  0.
         14    1    1    2    0    0  0.16117839409E-01 -0.34963213536E-03 -0.15717142173E-01  0.22515229244E-01  0.00000000000E+00 0.  1.
     999901    1    3    3    0    0  0.78802652972E-01 -0.68442420824E-01  0.73327935958E-01  0.88919694628E+00  0.88000000000E+00 0. -1.
        -11    1    4    4    0    0 -0.33545227975E-01  0.27214908961E-01 -0.32089577240E-01  0.53813898559E-01  0.51100000000E-03 0. -1.
         11    1    4    4    0    0 -0.61375264407E-01  0.41577143998E-01 -0.25521216545E-01  0.78403925916E-01  0.51100000000E-03 0.  1.
</event>
<event>
 8    1  0.1094134E+005  0.1043930E+01  0.7957747E-01            NaN
         13   -1    0    0    0    0  0.00000000000E+00  0.00000000000E+00  0.74505805969E-08  0.10566000000E+00  0.10566000000E+00 0.  1.
     999900   -1    0    0    0    0 -0.00000000000E+00 -0.00000000000E+00 -0.74505805969E-08  0.93827000000E+00  0.93827000000E+00 0.  1.
     999902    2    1    2    0    0  0.10776640571E-01 -0.20095483921E-01 -0.52409498711E-02  0.10205327350E+01  0.10202644908E+01 0.  0.
     999903    2    3    3    0    0 -0.20020334277E-01  0.10418458154E+00  0.69037563886E-01  0.12816998028E+00  0.20152364659E-01 0.  0.
         14    1    1    2    0    0 -0.10776640571E-01  0.20095483921E-01  0.52409498711E-02  0.23397265045E-01  0.00000000000E+00 0.  1.
     999901    1    3    3    0    0  0.30796974848E-01 -0.12428006546E+00 -0.74278513757E-01  0.89236275468E+00  0.88000000000E+00 0.  1.
        -11    1    4    4    0    0  0.11139097765E-02  0.30535506369E-01  0.26966434204E-01  0.40756688272E-01  0.51100000000E-03 0.  1.
         11    1    4    4    0    0 -0.21134244053E-01  0.73649075172E-01  0.42071129682E-01  0.87413292005E-01  0.51100000000E-03 0. -1.
</event>
<event>
 8    1  0.1094134E+005  0.1043930E+01  0.7957747E-01            NaN
         13   -1    0    0    0    0  0.00000000000E+00  0.00000000000E+00  0.74505805969E-08  0.10566000000E+00  0.10566000000E+00 0.  1.
     999900   -1    0    0    0    0 -0.00000000000E+00 -0.00000000000E+00 -0.74505805969E-08  0.93827000000E+00  0.93827000000E+00 0. -1.
     999902    2    1    2    0    0 -0.38773880165E-02 -0.16903957296E-01  0.20244377569E-01  0.10172726796E+01  0.10169233461E+01 0.  0.
     999903    2    3    3    0    0 -0.59104988328E-01 -0.25538488486E-01  0.11209354297E+00  0.13072831397E+00  0.19476027820E-01 0.  0.
         14    1    1    2    0    0  0.38773880165E-02  0.16903957296E-01 -0.20244377569E-01  0.26657320444E-01  0.00000000000E+00 0. -1.
     999901    1    3    3    0    0  0.55227600312E-01  0.86345311903E-02 -0.91849165398E-01  0.88654436558E+00  0.88000000000E+00 0. -1.
        -11    1    4    4    0    0 -0.35599565238E-01 -0.25408865856E-01  0.74261634929E-01  0.86185793798E-01  0.51100000000E-03 0. -1.
         11    1    4    4    0    0 -0.23505423090E-01 -0.12962263009E-03  0.37831908038E-01  0.44542520174E-01  0.51100000000E-03 0.  1.
</event>
<event>
 8    1  0.1094134E+005  0.1043930E+01  0.7957747E-01            NaN
         13   -1    0    0    0    0  0.00000000000E+00  0.00000000000E+00  0.74505805969E-08  0.10566000000E+00  0.10566000000E+00 0. -1.
     999900   -1    0    0    0    0 -0.00000000000E+00 -0.00000000000E+00 -0.74505805969E-08  0.93827000000E+00  0.93827000000E+00 0. -1.
     999902    2    1    2    0    0  0.21764790105E-01  0.34333782455E-02  0.82186904529E-02  0.10204131752E+01  0.10201421505E+01 0.  0.
     999903    2    3    3    0    0 -0.10797375940E+00  0.65196009438E-01 -0.12763421520E-01  0.12851241681E+00  0.21063807380E-01 0.  0.
         14    1    1    2    0    0 -0.21764790105E-01 -0.34333782455E-02 -0.82186904529E-02  0.23516824770E-01  0.00000000000E+00 0.  1.
     999901    1    3    3    0    0  0.12973854950E+00 -0.61762631192E-01  0.20982111973E-01  0.89190075842E+00  0.88000000000E+00 0.  1.
        -11    1    4    4    0    0 -0.49438829196E-01  0.35765508039E-01 -0.15419173811E-01  0.62939506191E-01  0.51100000000E-03 0. -1.
         11    1    4    4    0    0 -0.58534930202E-01  0.29430501399E-01  0.26557522911E-02  0.65572910623E-01  0.51100000000E-03 0.  1.
</event>
<event>
 8    1  0.1094134E+005  0.1043930E+01  0.7957747E-01            NaN
         13   -1    0    0    0    0  0.00000000000E+00  0.00000000000E+00  0.74505805969E-08  0.10566000000E+00  0.10566000000E+00 0. -1.
     999900   -1    0    0    0    0 -0.00000000000E+00 -0.00000000000E+00 -0.74505805969E-08  0.93827000000E+00  0.93827000000E+00 0. -1.
     999902    2    1    2    0    0  0.28975137869E-03  0.17481331801E-01 -0.15493890690E-01  0.10205688877E+01  0.10203014815E+01 0.  0.
     999903    2    3    3    0    0  0.65437683496E-01 -0.10262550965E+00  0.36170954316E-01  0.12852675721E+00  0.19917422826E-01 0.  0.
         14    1    1    2    0    0 -0.28975137869E-03 -0.17481331801E-01  0.15493890690E-01  0.23361112262E-01  0.00000000000E+00 0.  1.
     999901    1    3    3    0    0 -0.65147932118E-01  0.12010684145E+00 -0.51664845007E-01  0.89204213052E+00  0.88000000000E+00 0.  1.
        -11    1    4    4    0    0  0.47836616998E-01 -0.57322534360E-01  0.19867098133E-01  0.77260452888E-01  0.51100000000E-03 0.  1.
         11    1    4    4    0    0  0.17601066498E-01 -0.45302975287E-01  0.16303856183E-01  0.51266304325E-01  0.51100000000E-03 0. -1.
</event>
<event>
 8    1  0.1094134E+005  0.1043930E+01  0.7957747E-01            NaN
         13   -1    0    0    0    0  0.00000000000E+00  0.00000000000E+00  0.74505805969E-08  0.10566000000E+00  0.10566000000E+00 0. -1.
     999900   -1    0    0    0    0 -0.00000000000E+00 -0.00000000000E+00 -0.74505805969E-08  0.93827000000E+00  0.93827000000E+00 0.  1.
     999902    2    1    2    0    0  0.67320597199E-02  0.67001051588E-02  0.21571873243E-01  0.10203597274E+01  0.10200874548E+01 0.  0.
     999903    2    3    3    0    0 -0.94650515568E-01 -0.52421551641E-01  0.71314305814E-01  0.13117577200E+00  0.20362066973E-01 0.  0.
         14    1    1    2    0    0 -0.67320597199E-02 -0.67001051588E-02 -0.21571873243E-01  0.23570272642E-01  0.00000000000E+00 0.  1.
     999901    1    3    3    0    0  0.10138257529E+00  0.59121656800E-01 -0.49742432571E-01  0.88918395536E+00  0.88000000000E+00 0.  1.
        -11    1    4    4    0    0 -0.21521798132E-01 -0.41037713792E-02  0.93107009907E-02  0.23811321011E-01  0.51100000000E-03 0. -1.
         11    1    4    4    0    0 -0.73128717436E-01 -0.48317780262E-01  0.62003604823E-01  0.10736445098E+00  0.51100000000E-03 0.  1.
</event>
<event>
 8    1  0.1094134E+005  0.1043930E+01  0.7957747E-01            NaN
         13   -1    0    0    0    0  0.00000000000E+00  0.00000000000E+00  0.74505805969E-08  0.10566000000E+00  0.10566000000E+00 0. -1.
     999900   -1    0    0    0    0 -0.00000000000E+00 -0.00000000000E+00 -0.74505805969E-08  0.93827000000E+00  0.93827000000E+00 0.  1.
     999902    2    1    2    0    0 -0.12594568928E-01 -0.15513211658E-01 -0.11655387627E-01  0.10207971021E+01  0.10205349542E+01 0.  0.
     999903    2    3    3    0    0  0.10054986258E+00  0.26137120055E-01 -0.75970043830E-01  0.13025076000E+00  0.20009722899E-01 0.  0.
         14    1    1    2    0    0  0.12594568928E-01  0.15513211658E-01  0.11655387627E-01  0.23132897855E-01  0.00000000000E+00 0.  1.
     999901    1    3    3    0    0 -0.11314443151E+00 -0.41650331713E-01  0.64314656203E-01  0.89054634215E+00  0.88000000000E+00 0.  1.
        -11    1    4    4    0    0  0.35848044973E-01  0.58002366195E-02 -0.15886147193E-01  0.39640331316E-01  0.51100000000E-03 0.  1.
         11    1    4    4    0    0  0.64701817607E-01  0.20336883435E-01 -0.60083896637E-01  0.90610428680E-01  0.51100000000E-03 0. -1.
</event>
<event>
 8    1  0.1094134E+005  0.1043930E+01  0.7957747E-01            NaN
         13   -1    0    0    0    0  0.00000000000E+00  0.00000000000E+00  0.74505805969E-08  0.10566000000E+00  0.10566000000E+00 0.  1.
     999900   -1    0    0    0    0 -0.00000000000E+00 -0.00000000000E+00 -0.74505805969E-08  0.93827000000E+00  0.93827000000E+00 0.  1.
     999902    2    1    2    0    0 -0.19380843512E-01  0.91027656530E-02  0.93676987145E-02  0.10205584100E+01  0.10202907611E+01 0.  0.
     999903    2    3    3    0    0  0.12217786222E+00  0.33560001696E-01 -0.11125271534E-01  0.12867445717E+00  0.19484366330E-01 0.  0.
         14    1    1    2    0    0  0.19380843512E-01 -0.91027656530E-02 -0.93676987145E-02  0.23371589954E-01  0.00000000000E+00 0. -1.
     999901    1    3    3    0    0 -0.14155870573E+00 -0.24457236043E-01  0.20492970249E-01  0.89188395287E+00  0.88000000000E+00 0. -1.
        -11    1    4    4    0    0  0.18067768461E-01  0.10863124602E-01  0.25581832501E-02  0.21242814216E-01  0.51100000000E-03 0.  1.
         11    1    4    4    0    0  0.10411009376E+00  0.22696877093E-01 -0.13683454784E-01  0.10743164296E+00  0.51100000000E-03 0. -1.
</event>
<event>
 8    1  0.1094134E+005  0.1043930E+01  0.7957747E-01            NaN
         13   -1    0    0    0    0  0.00000000000E+00  0.00000000000E+00  0.74505805969E-08  0.10566000000E+00  0.10566000000E+00 0.  1.
     999900   -1    0    0    0    0 -0.00000000000E+00 -0.00000000000E+00 -0.74505805969E-08  0.93827000000E+00  0.93827000000E+00 0. -1.
     999902    2    1    2    0    0 -0.16310777098E-01 -0.17466361866E-01  0.98353001476E-02  0.10180872375E+01  0.10177591929E+01 0.  0.
     999903    2    3    3    0    0  0.15998079050E-01 -0.50389267048E-01 -0.11478104133E+00  0.12811138811E+00  0.21043373050E-01 0.  0.
         14    1    1    2    0    0  0.16310777098E-01  0.17466361866E-01 -0.98353001476E-02  0.25842762534E-01  0.00000000000E+00 0. -1.
     999901    1    3    3    0    0 -0.32308856148E-01  0.32922905182E-01  0.12461634147E+00  0.88997584935E+00  0.88000000000E+00 0.  1.
        -11    1    4    4    0    0  0.13661429219E-01 -0.11312249167E-01 -0.36767392290E-01  0.40825284890E-01  0.51100000000E-03 0.  1.
         11    1    4    4    0    0  0.23366498307E-02 -0.39077017881E-01 -0.78013649036E-01  0.87286103223E-01  0.51100000000E-03 0. -1.
</event>
<event>
 7    1  0.1094134E+005  0.1043930E+01  0.7957747E-01            NaN
         13   -1    0    0    0    0  0.00000000000E+00  0.00000000000E+00  0.74505805969E-08  0.10566000000E+00  0.10566000000E+00 0.  1.
     999900   -1    0    0    0    0 -0.00000000000E+00 -0.00000000000E+00 -0.74505805969E-08  0.93827000000E+00  0.93827000000E+00 0. -1.
     999903    2    1    2    0    0  0.21261454959E-01  0.14912377407E-01  0.42468266862E-01  0.53634691384E-01  0.19967422534E-01 0.  0.
         14    1    1    2    0    0  0.64162772435E-01  0.33263151899E-01  0.66444452024E-01  0.98174150597E-01  0.00000000000E+00 0.  1.
     999901    1    1    2    0    0 -0.85424227394E-01 -0.48175529306E-01 -0.10891271889E+00  0.89212115802E+00  0.88000000000E+00 0. -1.
        -11    1    3    3    0    0  0.31457168161E-02  0.65707288609E-02  0.68756839171E-03  0.73351130423E-02  0.51100000000E-03 0. -1.
         11    1    3    3    0    0  0.18115738143E-01  0.83416485463E-02  0.41780698470E-01  0.46299578342E-01  0.51100000000E-03 0.  1.
</event>
<event>
 8    1  0.1094134E+005  0.1043930E+01  0.7957747E-01            NaN
         13   -1    0    0    0    0  0.00000000000E+00  0.00000000000E+00  0.74505805969E-08  0.10566000000E+00  0.10566000000E+00 0.  1.
     999900   -1    0    0    0    0 -0.00000000000E+00 -0.00000000000E+00 -0.74505805969E-08  0.93827000000E+00  0.93827000000E+00 0.  1.
     999902    2    1    2    0    0  0.58041859423E-02  0.64754728868E-02 -0.22257711627E-01  0.10200338486E+01  0.10197539048E+01 0.  0.
     999903    2    3    3    0    0  0.95514175610E-02 -0.12755861069E+00 -0.72104636674E-02  0.12974985069E+00  0.20508637912E-01 0.  0.
         14    1    1    2    0    0 -0.58041859423E-02 -0.64754728868E-02  0.22257711627E-01  0.23896151373E-01  0.00000000000E+00 0.  1.
     999901    1    3    3    0    0 -0.37472316186E-02  0.13403408358E+00 -0.15047247960E-01  0.89028399793E+00  0.88000000000E+00 0. -1.
        -11    1    4    4    0    0  0.56657519180E-02 -0.60676634971E-01  0.67458391192E-02  0.61314943061E-01  0.51100000000E-03 0. -1.
         11    1    4    4    0    0  0.38856656429E-02 -0.66881975723E-01 -0.13956302787E-01  0.68434907632E-01  0.51100000000E-03 0.  1.
</event>
<event>
 8    1  0.1094134E+005  0.1043930E+01  0.7957747E-01            NaN
         13   -1    0    0    0    0  0.00000000000E+00  0.00000000000E+00  0.74505805969E-08  0.10566000000E+00  0.10566000000E+00 0.  1.
     999900   -1    0    0    0    0 -0.00000000000E+00 -0.00000000000E+00 -0.74505805969E-08  0.93827000000E+00  0.93827000000E+00 0.  1.
     999902    2    1    2    0    0  0.18432624330E-01 -0.55841047018E-02  0.14254292981E-01  0.10199690164E+01  0.10196875334E+01 0.  0.
     999903    2    3    3    0    0 -0.53839836813E-01 -0.91735725417E-01  0.73178791537E-01  0.13085850198E+00  0.21322304351E-01 0.  0.
         14    1    1    2    0    0 -0.18432624330E-01  0.55841047018E-02 -0.14254292981E-01  0.23960983565E-01  0.00000000000E+00 0. -1.
     999901    1    3    3    0    0  0.72272461143E-01  0.86151620715E-01 -0.58924498556E-01  0.88911051446E+00  0.88000000000E+00 0.  1.
        -11    1    4    4    0    0 -0.93353167915E-02 -0.24621180553E-01  0.28331051328E-01  0.38681523519E-01  0.51100000000E-03 0.  1.
         11    1    4    4    0    0 -0.44504520021E-01 -0.67114544863E-01  0.44847740209E-01  0.92176978457E-01  0.51100000000E-03 0. -1.
</event>
<event>
 8    1  0.1094134E+005  0.1043930E+01  0.7957747E-01            NaN
         13   -1    0    0    0    0  0.00000000000E+00  0.00000000000E+00  0.74505805969E-08  0.10566000000E+00  0.10566000000E+00 0. -1.
     999900   -1    0    0    0    0 -0.00000000000E+00 -0.00000000000E+00 -0.74505805969E-08  0.93827000000E+00  0.93827000000E+00 0. -1.
     999902    2    1    2    0    0 -0.79825939864E-02 -0.24780249945E-02 -0.21931386415E-01  0.10204598461E+01  0.10201899085E+01 0.  0.
     999903    2    3    3    0    0  0.11953977860E-01  0.12789956581E+00 -0.47743982269E-02  0.13046538244E+00  0.22298533905E-01 0.  0.
         14    1    1    2    0    0  0.79825939864E-02  0.24780249945E-02  0.21931386415E-01  0.23470153914E-01  0.00000000000E+00 0. -1.
     999901    1    3    3    0    0 -0.19936571847E-01 -0.13037759081E+00 -0.17156988188E-01  0.88999446365E+00  0.88000000000E+00 0. -1.
        -11    1    4    4    0    0  0.16605330447E-01  0.92379800334E-01  0.25557673051E-02  0.93896525903E-01  0.51100000000E-03 0. -1.
         11    1    4    4    0    0 -0.46513525869E-02  0.35519765479E-01 -0.73301655321E-02  0.36568856535E-01  0.51100000000E-03 0.  1.
</event>
<event>
 8    1  0.1094134E+005  0.1043930E+01  0.7957747E-01            NaN
         13   -1    0    0    0    0  0.00000000000E+00  0.00000000000E+00  0.74505805969E-08  0.10566000000E+00  0.10566000000E+00 0.  1.
     999900   -1    0    0    0    0 -0.00000000000E+00 -0.00000000000E+00 -0.74505805969E-08  0.93827000000E+00  0.93827000000E+00 0. -1.
     999902    2    1    2    0    0 -0.74637104675E-02  0.98234220847E-02 -0.19706731511E-01  0.10206800137E+01  0.10204151746E+01 0.  0.
     999903    2    3    3    0    0  0.48559394664E-01  0.48170914503E-01 -0.11236747094E+00  0.13321444756E+00  0.21004492338E-01 0.  0.
         14    1    1    2    0    0  0.74637104675E-02 -0.98234220847E-02  0.19706731511E-01  0.23249986285E-01  0.00000000000E+00 0.  1.
     999901    1    3    3    0    0 -0.56023105131E-01 -0.38347492418E-01  0.92660739430E-01  0.88746556616E+00  0.88000000000E+00 0.  1.
        -11    1    4    4    0    0  0.24881759494E-01  0.18079295294E-01 -0.33128347086E-01  0.45207426110E-01  0.51100000000E-03 0. -1.
         11    1    4    4    0    0  0.23677635170E-01  0.30091619209E-01 -0.79239123855E-01  0.88007021448E-01  0.51100000000E-03 0.  1.
</event>
<event>
 8    1  0.1094134E+005  0.1043930E+01  0.7957747E-01            NaN
         13   -1    0    0    0    0  0.00000000000E+00  0.00000000000E+00  0.74505805969E-08  0.10566000000E+00  0.10566000000E+00 0.  1.
     999900   -1    0    0    0    0 -0.00000000000E+00 -0.00000000000E+00 -0.74505805969E-08  0.93827000000E+00  0.93827000000E+00 0.  1.
     999902    2    1    2    0    0 -0.67889270899E-03  0.25369756011E-01  0.48099418927E-03  0.10185466044E+01  0.10182302631E+01 0.  0.
     999903    2    3    3    0    0 -0.78263702937E-01 -0.52963249756E-01 -0.83538872936E-01  0.12769599931E+00  0.19930176258E-01 0.  0.
         14    1    1    2    0    0  0.67889270899E-03 -0.25369756011E-01 -0.48099418927E-03  0.25383395572E-01  0.00000000000E+00 0. -1.
     999901    1    3    3    0    0  0.77584810228E-01  0.78333005767E-01  0.84019867126E-01  0.89085060512E+00  0.88000000000E+00 0. -1.
        -11    1    4    4    0    0 -0.67512181825E-01 -0.52503045245E-01 -0.77078800402E-01  0.11513412634E+00  0.51100000000E-03 0.  1.
         11    1    4    4    0    0 -0.10751521112E-01 -0.46020451118E-03 -0.64600725344E-02  0.12561872972E-01  0.51100000000E-03 0. -1.
</event>
<event>
 8    1  0.1094134E+005  0.1043930E+01  0.7957747E-01            NaN
         13   -1    0    0    0    0  0.00000000000E+00  0.00000000000E+00  0.74505805969E-08  0.10566000000E+00  0.10566000000E+00 0.  1.
     999900   -1    0    0    0    0 -0.00000000000E+00 -0.00000000000E+00 -0.74505805969E-08  0.93827000000E+00  0.93827000000E+00 0.  1.
     999902    2    1    2    0    0  0.41666019623E-02  0.35898037470E-02 -0.22976302993E-01  0.10203046373E+01  0.10200310756E+01 0.  0.
     999903    2    3    3    0    0  0.94216140827E-01 -0.87494006017E-01  0.96295635349E-02  0.13043480280E+00  0.19713624870E-01 0.  0.
         14    1    1    2    0    0 -0.41666019623E-02 -0.35898037470E-02  0.22976302993E-01  0.23625362686E-01  0.00000000000E+00 0.  1.
     999901    1    3    3    0    0 -0.90049538865E-01  0.91083809764E-01 -0.32605866527E-01  0.88986983452E+00  0.88000000000E+00 0.  1.
        -11    1    4    4    0    0  0.32140551254E-01 -0.42883421829E-01  0.55803975886E-02  0.53883252137E-01  0.51100000000E-03 0.  1.
         11    1    4    4    0    0  0.62075589574E-01 -0.44610584188E-01  0.40491659463E-02  0.76551550659E-01  0.51100000000E-03 0. -1.
</event>
<event>
 8    1  0.1094134E+005  0.1043930E+01  0.7957747E-01            NaN
         13   -1    0    0    0    0  0.00000000000E+00  0.00000000000E+00  0.74505805969E-08  0.10566000000E+00  0.10566000000E+00 0. -1.
     999900   -1    0    0    0    0 -0.00000000000E+00 -0.00000000000E+00 -0.74505805969E-08  0.93827000000E+00  0.93827000000E+00 0.  1.
     999902    2    1    2    0    0 -0.23916673381E-01  0.12373590340E-02 -0.42700278679E-02  0.10196036468E+01  0.10193134087E+01 0.  0.
     999903    2    3    3    0    0  0.11208723797E+00 -0.54935655876E-01  0.14022530753E-01  0.12719841976E+00  0.20033257856E-01 0.  0.
         14    1    1    2    0    0  0.23916673381E-01 -0.12373590340E-02  0.42700278679E-02  0.24326353220E-01  0.00000000000E+00 0. -1.
     999901    1    3    3    0    0 -0.13600391135E+00  0.56173014910E-01 -0.18292558621E-01  0.89240522702E+00  0.88000000000E+00 0.  1.
        -11    1    4    4    0    0  0.10039601034E+00 -0.53695337689E-01  0.16852961579E-01  0.11509488093E+00  0.51100000000E-03 0.  1.
         11    1    4    4    0    0  0.11691227623E-01 -0.12403181871E-02 -0.28304308259E-02  0.12103538830E-01  0.51100000000E-03 0. -1.
</event>
<event>
 8    1  0.1094134E+005  0.1043930E+01  0.7957747E-01            NaN
         13   -1    0    0    0    0  0.00000000000E+00  0.00000000000E+00  0.74505805969E-08  0.10566000000E+00  0.10566000000E+00 0.  1.
     999900   -1    0    0    0    0 -0.00000000000E+00 -0.00000000000E+00 -0.74505805969E-08  0.93827000000E+00  0.93827000000E+00 0.  1.
     999902    2    1    2    0    0  0.16106289647E-02  0.48581676595E-02  0.22061757163E-01  0.10212823280E+01  0.10210311829E+01 0.  0.
     999903    2    3    3    0    0 -0.15812625087E-01  0.12827747947E+00 -0.15274640500E-01  0.13171507201E+00  0.20258200806E-01 0.  0.
         14    1    1    2    0    0 -0.16106289647E-02 -0.48581676595E-02 -0.22061757163E-01  0.22647672017E-01  0.00000000000E+00 0. -1.
     999901    1    3    3    0    0  0.17423254052E-01 -0.12341931181E+00  0.37336397662E-01  0.88956725597E+00  0.88000000000E+00 0.  1.
        -11    1    4    4    0    0 -0.19685836526E-01  0.89584230689E-01 -0.14155657435E-01  0.92808999059E-01  0.51100000000E-03 0.  1.
         11    1    4    4    0    0  0.38732114394E-02  0.38693248785E-01 -0.11189830646E-02  0.38906072951E-01  0.51100000000E-03 0. -1.
</event>
<event>
 8    1  0.1094134E+005  0.1043930E+01  0.7957747E-01            NaN
         13   -1    0    0    0    0  0.00000000000E+00  0.00000000000E+00  0.74505805969E-08  0.10566000000E+00  0.10566000000E+00 0. -1.
     999900   -1    0    0    0    0 -0.00000000000E+00 -0.00000000000E+00 -0.74505805969E-08  0.93827000000E+00  0.93827000000E+00 0.  1.
     999902    2    1    2    0    0 -0.12906655281E-01 -0.19343369686E-01  0.58825695161E-02  0.10199434970E+01  0.10196614069E+01 0.  0.
     999903    2    3    3    0    0  0.58753553036E-01 -0.10559988799E+00  0.48603945484E-01  0.13179908963E+00  0.20133061696E-01 0.  0.
         14    1    1    2    0    0  0.12906655281E-01  0.19343369686E-01 -0.58825695161E-02  0.23986502985E-01  0.00000000000E+00 0.  1.
     999901    1    3    3    0    0 -0.71660208317E-01  0.86256518301E-01 -0.42721375968E-01  0.88814440739E+00  0.88000000000E+00 0.  1.
        -11    1    4    4    0    0  0.33943333963E-01 -0.62998554952E-01  0.18074332252E-01  0.73809961752E-01  0.51100000000E-03 0.  1.
         11    1    4    4    0    0  0.24810219073E-01 -0.42601333035E-01  0.30529613232E-01  0.57989127877E-01  0.51100000000E-03 0. -1.
</event>
<event>
 8    1  0.1094134E+005  0.1043930E+01  0.7957747E-01            NaN
         13   -1    0    0    0    0  0.00000000000E+00  0.00000000000E+00  0.74505805969E-08  0.10566000000E+00  0.10566000000E+00 0. -1.
     999900   -1    0    0    0    0 -0.00000000000E+00 -0.00000000000E+00 -0.74505805969E-08  0.93827000000E+00  0.93827000000E+00 0.  1.
     999902    2    1    2    0    0  0.77683372749E-02 -0.18495748207E-01  0.20474658731E-01  0.10152655374E+01  0.10148608082E+01 0.  0.
     999903    2    3    3    0    0 -0.23965402342E-01  0.21694635617E-02 -0.11931504610E+00  0.12342741152E+00  0.20474340229E-01 0.  0.
         14    1    1    2    0    0 -0.77683372749E-02  0.18495748207E-01 -0.20474658731E-01  0.28664462596E-01  0.00000000000E+00 0.  1.
     999901    1    3    3    0    0  0.31733739617E-01 -0.20665211769E-01  0.13978970483E+00  0.89183812589E+00  0.88000000000E+00 0. -1.
        -11    1    4    4    0    0 -0.22347236379E-01  0.69144039377E-02 -0.68970775536E-01  0.72831565647E-01  0.51100000000E-03 0.  1.
         11    1    4    4    0    0 -0.16181659632E-02 -0.47449403761E-02 -0.50344270560E-01  0.50595845872E-01  0.51100000000E-03 0. -1.
</event>
<event>
 8    1  0.1094134E+005  0.1043930E+01  0.7957747E-01            NaN
         13   -1    0    0    0    0  0.00000000000E+00  0.00000000000E+00  0.74505805969E-08  0.10566000000E+00  0.10566000000E+00 0. -1.
     999900   -1    0    0    0    0 -0.00000000000E+00 -0.00000000000E+00 -0.74505805969E-08  0.93827000000E+00  0.93827000000E+00 0.  1.
     999902    2    1    2    0    0 -0.40167316953E-02  0.41531068385E-02  0.23327680310E-01  0.10198974575E+01  0.10196142706E+01 0.  0.
     999903    2    3    3    0    0 -0.91914957498E-01 -0.47986486853E-01 -0.72799198489E-01  0.12878297993E+00  0.23114287482E-01 0.  0.
         14    1    1    2    0    0  0.40167316953E-02 -0.41531068385E-02 -0.23327680310E-01  0.24032542491E-01  0.00000000000E+00 0.  1.
     999901    1    3    3    0    0  0.87898225802E-01  0.52139593691E-01  0.96126878799E-01  0.89111447758E+00  0.88000000000E+00 0. -1.
        -11    1    4    4    0    0 -0.36266817107E-01 -0.31137012634E-01 -0.28175386813E-01  0.55487918702E-01  0.51100000000E-03 0. -1.
         11    1    4    4    0    0 -0.55648140390E-01 -0.16849474219E-01 -0.44623811676E-01  0.73295061224E-01  0.51100000000E-03 0.  1.
</event>
<event>
 8    1  0.1094134E+005  0.1043930E+01  0.7957747E-01            NaN
         13   -1    0    0    0    0  0.00000000000E+00  0.00000000000E+00  0.74505805969E-08  0.10566000000E+00  0.10566000000E+00 0. -1.
     999900   -1    0    0    0    0 -0.00000000000E+00 -0.00000000000E+00 -0.74505805969E-08  0.93827000000E+00  0.93827000000E+00 0.  1.
     999902    2    1    2    0    0  0.32326340492E-02  0.22971910446E-01  0.43194178225E-02  0.10203330518E+01  0.10200601554E+01 0.  0.
     999903    2    3    3    0    0 -0.91362479954E-01  0.80798229100E-01 -0.46217999348E-01  0.13193778549E+00  0.19900231354E-01 0.  0.
         14    1    1    2    0    0 -0.32326340492E-02 -0.22971910446E-01 -0.43194178225E-02  0.23596948166E-01  0.00000000000E+00 0. -1.
     999901    1    3    3    0    0  0.94595114003E-01 -0.57826318654E-01  0.50537417170E-01  0.88839526634E+00  0.88000000000E+00 0. -1.
        -11    1    4    4    0    0 -0.38355806530E-01  0.32480429457E-01 -0.87633481853E-02  0.51021599197E-01  0.51100000000E-03 0. -1.
         11    1    4    4    0    0 -0.53006673424E-01  0.48317799644E-01 -0.37454651162E-01  0.80916186296E-01  0.51100000000E-03 0.  1.
</event>
<event>
 8    1  0.1094134E+005  0.1043930E+01  0.7957747E-01            NaN
         13   -1    0    0    0    0  0.00000000000E+00  0.00000000000E+00  0.74505805969E-08  0.10566000000E+00  0.10566000000E+00 0. -1.
     999900   -1    0    0    0    0 -0.00000000000E+00 -0.00000000000E+00 -0.74505805969E-08  0.93827000000E+00  0.93827000000E+00 0. -1.
     999902    2    1    2    0    0  0.23113557427E-01  0.54549120789E-02 -0.24665919472E-02  0.10200537214E+01  0.10197742485E+01 0.  0.
     999903    2    3    3    0    0  0.11857552252E-01  0.10469544555E+00 -0.76064009817E-01  0.13135131845E+00  0.19123216366E-01 0.  0.
         14    1    1    2    0    0 -0.23113557427E-01 -0.54549120789E-02  0.24665919472E-02  0.23876278574E-01  0.00000000000E+00 0. -1.
     999901    1    3    3    0    0  0.11256005175E-01 -0.99240533475E-01  0.73597417869E-01  0.88870240298E+00  0.88000000000E+00 0.  1.
        -11    1    4    4    0    0  0.16800562367E-02  0.48885756870E-01 -0.45986073948E-01  0.67138810920E-01  0.51100000000E-03 0. -1.
         11    1    4    4    0    0  0.10177496016E-01  0.55809688684E-01 -0.30077935869E-01  0.64212507530E-01  0.51100000000E-03 0.  1.
</event>
<event>
 8    1  0.1094134E+005  0.1043930E+01  0.7957747E-01            NaN
         13   -1    0    0    0    0  0.00000000000E+00  0.00000000000E+00  0.74505805969E-08  0.10566000000E+00  0.10566000000E+00 0.  1.
     999900   -1    0    0    0    0 -0.00000000000E+00 -0.00000000000E+00 -0.74505805969E-08  0.93827000000E+00  0.93827000000E+00 0. -1.
     999902    2    1    2    0    0 -0.78206856521E-02  0.18165699030E-01 -0.14001338441E-01  0.10196979299E+01  0.10194099641E+01 0.  0.
     999903    2    3    3    0    0 -0.10465420167E+00 -0.13574668107E-01  0.72300450492E-01  0.12962367481E+00  0.20932472074E-01 0.  0.
         14    1    1    2    0    0  0.78206856521E-02 -0.18165699030E-01  0.14001338441E-01  0.24232070144E-01  0.00000000000E+00 0. -1.
     999901    1    3    3    0    0  0.96833516019E-01  0.31740367137E-01 -0.86301788933E-01  0.89007425505E+00  0.88000000000E+00 0. -1.
        -11    1    4    4    0    0 -0.54349460653E-01  0.90993469551E-03  0.28565396983E-01  0.61407938251E-01  0.51100000000E-03 0. -1.
         11    1    4    4    0    0 -0.50304741018E-01 -0.14484602803E-01  0.43735053510E-01  0.68215736555E-01  0.51100000000E-03 0.  1.
</event>
<event>
 8    1  0.1094134E+005  0.1043930E+01  0.7957747E-01            NaN
         13   -1    0    0    0    0  0.00000000000E+00  0.00000000000E+00  0.74505805969E-08  0.10566000000E+00  0.10566000000E+00 0. -1.
     999900   -1    0    0    0    0 -0.00000000000E+00 -0.00000000000E+00 -0.74505805969E-08  0.93827000000E+00  0.93827000000E+00 0.  1.
     999902    2    1    2    0    0  0.76699995698E-02 -0.14406050606E-01  0.18269415084E-01  0.10194323529E+01  0.10191379629E+01 0.  0.
     999903    2    3    3    0    0 -0.73823311205E-01  0.79473225211E-01 -0.62812192109E-01  0.12700380942E+00  0.20462681348E-01 0.  0.
         14    1    1    2    0    0 -0.76699995698E-02  0.14406050606E-01 -0.18269415084E-01  0.24497647132E-01  0.00000000000E+00 0.  1.
     999901    1    3    3    0    0  0.81493310775E-01 -0.93879275817E-01  0.81081607193E-01  0.89242854344E+00  0.88000000000E+00 0. -1.
        -11    1    4    4    0    0 -0.18845973713E-01  0.27856563350E-01 -0.28776894655E-01  0.44266574679E-01  0.51100000000E-03 0.  1.
         11    1    4    4    0    0 -0.54977337492E-01  0.51616661861E-01 -0.34035297454E-01  0.82737234745E-01  0.51100000000E-03 0. -1.
</event>
<event>
 8    1  0.1094134E+005  0.1043930E+01  0.7957747E-01            NaN
         13   -1    0    0    0    0  0.00000000000E+00  0.00000000000E+00  0.74505805969E-08  0.10566000000E+00  0.10566000000E+00 0.  1.
     999900   -1    0    0    0    0 -0.00000000000E+00 -0.00000000000E+00 -0.74505805969E-08  0.93827000000E+00  0.93827000000E+00 0.  1.
     999902    2    1    2    0    0  0.14850245379E-01 -0.19462700217E-01  0.12576211471E-01  0.10164075077E+01  0.10160348095E+01 0.  0.
     999903    2    3    3    0    0 -0.41140420867E-01  0.64921018069E-01 -0.95421856704E-01  0.12404034708E+00  0.19323668152E-01 0.  0.
         14    1    1    2    0    0 -0.14850245379E-01  0.19462700217E-01 -0.12576211471E-01  0.27522492302E-01  0.00000000000E+00 0. -1.
     999901    1    3    3    0    0  0.55990666246E-01 -0.84383718286E-01  0.10799806818E+00  0.89236716062E+00  0.88000000000E+00 0.  1.
        -11    1    4    4    0    0 -0.13335276999E-02  0.16000465662E-01 -0.22137489150E-01  0.27351832560E-01  0.51100000000E-03 0.  1.
         11    1    4    4    0    0 -0.39806893167E-01  0.48920552407E-01 -0.73284367554E-01  0.96688514521E-01  0.51100000000E-03 0. -1.
</event>
<event>
 8    1  0.1313543E+005  0.1043930E+01  0.7957747E-01            NaN
         13   -1    0    0    0    0  0.00000000000E+00  0.00000000000E+00  0.74505805969E-08  0.10566000000E+00  0.10566000000E+00 0. -1.
     999900   -1    0    0    0    0 -0.00000000000E+00 -0.00000000000E+00 -0.74505805969E-08  0.93827000000E+00  0.93827000000E+00 0. -1.
     999902    2    1    2    0    0  0.20931522390E-01  0.11630577568E-03 -0.11672189219E-01  0.10199637287E+01  0.10196821200E+01 0.  0.
     999903    2    3    3    0    0  0.81851170107E-01 -0.69099988384E-01  0.71422597682E-01  0.13125295326E+00  0.25528960763E-01 0.  0.
         14    1    1    2    0    0 -0.20931522390E-01 -0.11630577568E-03  0.11672189219E-01  0.23966271253E-01  0.00000000000E+00 0. -1.
     999901    1    3    3    0    0 -0.60919647716E-01  0.69216294160E-01 -0.83094786900E-01  0.88871077549E+00  0.88000000000E+00 0. -1.
        -11    1    4    4    0    0  0.28758702937E-01 -0.40777274197E-01  0.34162888746E-01  0.60474897056E-01  0.51100000000E-03 0.  1.
         11    1    4    4    0    0  0.53092467170E-01 -0.28322714188E-01  0.37259708935E-01  0.70778056205E-01  0.51100000000E-03 0. -1.
</event>
<event>
 8    1  0.1094134E+005  0.1043930E+01  0.7957747E-01            NaN
         13   -1    0    0    0    0  0.00000000000E+00  0.00000000000E+00  0.74505805969E-08  0.10566000000E+00  0.10566000000E+00 0. -1.
     999900   -1    0    0    0    0 -0.00000000000E+00 -0.00000000000E+00 -0.74505805969E-08  0.93827000000E+00  0.93827000000E+00 0. -1.
     999902    2    1    2    0    0  0.48314420326E-02 -0.22522919228E-01 -0.14211828571E-02  0.10208509081E+01  0.10205899921E+01 0.  0.
     999903    2    3    3    0    0  0.57616238451E-01 -0.11006180173E+00  0.45633015546E-01  0.13368497757E+00  0.18869816813E-01 0.  0.
         14    1    1    2    0    0 -0.48314420326E-02  0.22522919228E-01  0.14211828571E-02  0.23079091910E-01  0.00000000000E+00 0.  1.
     999901    1    3    3    0    0 -0.52784796419E-01  0.87538882506E-01 -0.47054198403E-01  0.88716593052E+00  0.88000000000E+00 0.  1.
        -11    1    4    4    0    0  0.78072781452E-03 -0.71011316906E-02 -0.87594040690E-03  0.72155387743E-02  0.51100000000E-03 0.  1.
         11    1    4    4    0    0  0.56835510637E-01 -0.10296067004E+00  0.46508955953E-01  0.12646943880E+00  0.51100000000E-03 0. -1.
</event>
<event>
 8    1  0.1094134E+005  0.1043930E+01  0.7957747E-01            NaN
         13   -1    0    0    0    0  0.00000000000E+00  0.00000000000E+00  0.74505805969E-08  0.10566000000E+00  0.10566000000E+00 0. -1.
     999900   -1    0    0    0    0 -0.00000000000E+00 -0.00000000000E+00 -0.74505805969E-08  0.93827000000E+00  0.93827000000E+00 0. -1.
     999902    2    1    2    0    0  0.14071632457E-01 -0.13858552053E-01  0.12819319136E-01  0.10203841883E+01  0.10201124872E+01 0.  0.
     999903    2    3    3    0    0 -0.87123357178E-01 -0.31382201107E-03  0.95301503854E-01  0.13064984794E+00  0.19910506764E-01 0.  0.
         14    1    1    2    0    0 -0.14071632457E-01  0.13858552053E-01 -0.12819319136E-01  0.23545811690E-01  0.00000000000E+00 0.  1.
     999901    1    3    3    0    0  0.10119498963E+00 -0.13544730042E-01 -0.82482184718E-01  0.88973434037E+00  0.88000000000E+00 0. -1.
        -11    1    4    4    0    0 -0.73485977094E-02  0.56926423826E-02  0.11425591449E-01  0.14738158859E-01  0.51100000000E-03 0.  1.
         11    1    4    4    0    0 -0.79774759468E-01 -0.60064643936E-02  0.83875912405E-01  0.11591168908E+00  0.51100000000E-03 0. -1.
</event>
<event>
 8    1  0.1094134E+005  0.1043930E+01  0.7957747E-01            NaN
         13   -1    0    0    0    0  0.00000000000E+00  0.00000000000E+00  0.74505805969E-08  0.10566000000E+00  0.10566000000E+00 0. -1.
     999900   -1    0    0    0    0 -0.00000000000E+00 -0.00000000000E+00 -0.74505805969E-08  0.93827000000E+00  0.93827000000E+00 0.  1.
     999902    2    1    2    0    0 -0.83113576909E-03 -0.12066545356E-01  0.19086520185E-01  0.10213338154E+01  0.10210838237E+01 0.  0.
     999903    2    3    3    0    0  0.46529471289E-01 -0.11173880946E+00 -0.48107470806E-01  0.13189993946E+00  0.20801731758E-01 0.  0.
         14    1    1    2    0    0  0.83113576909E-03  0.12066545356E-01 -0.19086520185E-01  0.22596184552E-01  0.00000000000E+00 0.  1.
     999901    1    3    3    0    0 -0.47360607058E-01  0.99672264103E-01  0.67193990991E-01  0.88943387599E+00  0.88000000000E+00 0. -1.
        -11    1    4    4    0    0  0.23808135075E-01 -0.81791596950E-01 -0.34751016625E-01  0.92003189645E-01  0.51100000000E-03 0. -1.
         11    1    4    4    0    0  0.22721336214E-01 -0.29947212509E-01 -0.13356454181E-01  0.39896749814E-01  0.51100000000E-03 0.  1.
</event>
<event>
 8    1  0.1094134E+005  0.1043930E+01  0.7957747E-01            NaN
         13   -1    0    0    0    0  0.00000000000E+00  0.00000000000E+00  0.74505805969E-08  0.10566000000E+00  0.10566000000E+00 0. -1.
     999900   -1    0    0    0    0 -0.00000000000E+00 -0.00000000000E+00 -0.74505805969E-08  0.93827000000E+00  0.93827000000E+00 0. -1.
     999902    2    1    2    0    0 -0.67488685344E-02  0.10893814667E-01  0.19331611811E-01  0.10207366035E+01  0.10204730668E+01 0.  0.
     999903    2    3    3    0    0  0.11633533052E+00  0.40780918701E-01 -0.35910945785E-01  0.12995340925E+00  0.20032475890E-01 0.  0.
         14    1    1    2    0    0  0.67488685344E-02 -0.10893814667E-01 -0.19331611811E-01  0.23193396468E-01  0.00000000000E+00 0.  1.
     999901    1    3    3    0    0 -0.12308419906E+00 -0.29887104033E-01  0.55242557597E-01  0.89078319428E+00  0.88000000000E+00 0.  1.
        -11    1    4    4    0    0  0.64033070776E-01  0.32801569176E-01 -0.22228192614E-01  0.75302926645E-01  0.51100000000E-03 0. -1.
         11    1    4    4    0    0  0.52302259748E-01  0.79793495242E-02 -0.13682753171E-01  0.54650482605E-01  0.51100000000E-03 0.  1.
</event>
<event>
 8    1  0.1094134E+005  0.1043930E+01  0.7957747E-01            NaN
         13   -1    0    0    0    0  0.00000000000E+00  0.00000000000E+00  0.74505805969E-08  0.10566000000E+00  0.10566000000E+00 0. -1.
     999900   -1    0    0    0    0 -0.00000000000E+00 -0.00000000000E+00 -0.74505805969E-08  0.93827000000E+00  0.93827000000E+00 0.  1.
     999902    2    1    2    0    0 -0.13607217447E-01  0.15388900949E-01 -0.11862994872E-01  0.10202085901E+01  0.10199327733E+01 0.  0.
     999903    2    3    3    0    0  0.33760591319E-01  0.79790360656E-01 -0.98575423143E-01  0.13234018629E+00  0.17044989841E-01 0.  0.
         14    1    1    2    0    0  0.13607217447E-01 -0.15388900949E-01  0.11862994872E-01  0.23721409874E-01  0.00000000000E+00 0.  1.
     999901    1    3    3    0    0 -0.47367808766E-01 -0.64401459707E-01  0.86712428271E-01  0.88786840384E+00  0.88000000000E+00 0. -1.
        -11    1    4    4    0    0  0.12489686810E-01  0.41520686799E-01 -0.59703748293E-01  0.73788606099E-01  0.51100000000E-03 0.  1.
         11    1    4    4    0    0  0.21270904508E-01  0.38269673857E-01 -0.38871674851E-01  0.58551580187E-01  0.51100000000E-03 0. -1.
</event>
<event>
 8    1  0.1094134E+005  0.1043930E+01  0.7957747E-01            NaN
         13   -1    0    0    0    0  0.00000000000E+00  0.00000000000E+00  0.74505805969E-08  0.10566000000E+00  0.10566000000E+00 0.  1.
     999900   -1    0    0    0    0 -0.00000000000E+00 -0.00000000000E+00 -0.74505805969E-08  0.93827000000E+00  0.93827000000E+00 0.  1.
     999902    2    1    2    0    0 -0.43085861541E-03  0.21177235593E-01  0.94127044791E-02  0.10207511313E+01  0.10204879285E+01 0.  0.
     999903    2    3    3    0    0  0.93867586462E-01  0.66030300873E-01  0.63630074167E-01  0.13292033813E+00  0.21163778674E-01 0.  0.
         14    1    1    2    0    0  0.43085861541E-03 -0.21177235593E-01 -0.94127044791E-02  0.23178868655E-01  0.00000000000E+00 0. -1.
     999901    1    3    3    0    0 -0.94298445078E-01 -0.44853065280E-01 -0.54217369688E-01  0.88783079322E+00  0.88000000000E+00 0.  1.
        -11    1    4    4    0    0  0.33814186000E-01  0.28453745056E-01  0.35535736478E-01  0.56710355938E-01  0.51100000000E-03 0. -1.
         11    1    4    4    0    0  0.60053400463E-01  0.37576555817E-01  0.28094337689E-01  0.76209982190E-01  0.51100000000E-03 0.  1.
</event>
<event>
 8    1  0.1094134E+005  0.1043930E+01  0.7957747E-01            NaN
         13   -1    0    0    0    0  0.00000000000E+00  0.00000000000E+00  0.74505805969E-08  0.10566000000E+00  0.10566000000E+00 0. -1.
     999900   -1    0    0    0    0 -0.00000000000E+00 -0.00000000000E+00 -0.74505805969E-08  0.93827000000E+00  0.93827000000E+00 0. -1.
     999902    2    1    2    0    0 -0.84928828805E-02 -0.23648969230E-01  0.98531237301E-02  0.10169395044E+01  0.10165812652E+01 0.  0.
     999903    2    3    3    0    0 -0.52346245299E-01 -0.60819370248E-01 -0.99826109881E-01  0.12826954858E+00  0.69785158642E-02 0.  0.
         14    1    1    2    0    0  0.84928828805E-02  0.23648969230E-01 -0.98531237301E-02  0.26990495596E-01  0.00000000000E+00 0. -1.
     999901    1    3    3    0    0  0.43853362418E-01  0.37170401018E-01  0.10967923361E+00  0.88866995583E+00  0.88000000000E+00 0. -1.
        -11    1    4    4    0    0 -0.19594538891E-01 -0.17923896849E-01 -0.34073332979E-01  0.43202606101E-01  0.51100000000E-03 0.  1.
         11    1    4    4    0    0 -0.32751706408E-01 -0.42895473399E-01 -0.65752776902E-01  0.85066942475E-01  0.51100000000E-03 0. -1.
</event>
<event>
 8    1  0.1094134E+005  0.1043930E+01  0.7957747E-01            NaN
         13   -1    0    0    0    0  0.00000000000E+00  0.00000000000E+00  0.74505805969E-08  0.10566000000E+00  0.10566000000E+00 0.  1.
     999900   -1    0    0    0    0 -0.00000000000E+00 -0.00000000000E+00 -0.74505805969E-08  0.93827000000E+00  0.93827000000E+00 0. -1.
     999902    2    1    2    0    0 -0.14087752688E-01 -0.34590702772E-02  0.18817945380E-01  0.10201698440E+01  0.10198931148E+01 0.  0.
     999903    2    3    3    0    0  0.44308662555E-01 -0.10202288204E+00  0.67005206874E-01  0.13143648781E+00  0.20345184730E-01 0.  0.
         14    1    1    2    0    0  0.14087752688E-01  0.34590702772E-02 -0.18817945380E-01  0.23760155961E-01  0.00000000000E+00 0. -1.
     999901    1    3    3    0    0 -0.58396415243E-01  0.98563811766E-01 -0.48187261494E-01  0.88873335623E+00  0.88000000000E+00 0. -1.
        -11    1    4    4    0    0  0.42771474495E-01 -0.78109802212E-01  0.51154810785E-01  0.10270158723E+00  0.51100000000E-03 0. -1.
         11    1    4    4    0    0  0.15371880595E-02 -0.23913079832E-01  0.15850396089E-01  0.28734900580E-01  0.51100000000E-03 0.  1.
</event>
<event>
 8    1  0.1094134E+005  0.1043930E+01  0.7957747E-01            NaN
         13   -1    0    0    0    0  0.00000000000E+00  0.00000000000E+00  0.74505805969E-08  0.10566000000E+00  0.10566000000E+00 0. -1.
     999900   -1    0    0    0    0 -0.00000000000E+00 -0.00000000000E+00 -0.74505805969E-08  0.93827000000E+00  0.93827000000E+00 0.  1.
     999902    2    1    2    0    0  0.68952163934E-02  0.18558264220E-01 -0.14027439090E-01  0.10196664012E+01  0.10193776766E+01 0.  0.
     999903    2    3    3    0    0  0.48834181177E-01 -0.80805768765E-01 -0.87350704001E-01  0.13005503154E+00  0.19230606429E-01 0.  0.
         14    1    1    2    0    0 -0.68952163934E-02 -0.18558264220E-01  0.14027439090E-01  0.24263598814E-01  0.00000000000E+00 0. -1.
     999901    1    3    3    0    0 -0.41938964783E-01  0.99364032986E-01  0.73323264911E-01  0.88961136964E+00  0.88000000000E+00 0.  1.
        -11    1    4    4    0    0  0.48822701608E-01 -0.76657287871E-01 -0.77828756319E-01  0.11965605880E+00  0.51100000000E-03 0.  1.
         11    1    4    4    0    0  0.11479568478E-04 -0.41484808942E-02 -0.95219476821E-02  0.10398972746E-01  0.51100000000E-03 0. -1.
</event>
<event>
 8    1  0.1094134E+005  0.1043930E+01  0.7957747E-01            NaN
         13   -1    0    0    0    0  0.00000000000E+00  0.00000000000E+00  0.74505805969E-08  0.10566000000E+00  0.10566000000E+00 0. -1.
     999900   -1    0    0    0    0 -0.00000000000E+00 -0.00000000000E+00 -0.74505805969E-08  0.93827000000E+00  0.93827000000E+00 0. -1.
     999902    2    1    2    0    0 -0.12975464300E-01 -0.13181494381E-01 -0.19380143769E-01  0.10171399936E+01  0.10167871273E+01 0.  0.
     999903    2    3    3    0    0  0.83797199540E-01  0.77651540961E-01 -0.49380254774E-01  0.12668191185E+00  0.23625510869E-01 0.  0.
         14    1    1    2    0    0  0.12975464300E-01  0.13181494381E-01  0.19380143769E-01  0.26790006354E-01  0.00000000000E+00 0. -1.
     999901    1    3    3    0    0 -0.96772663841E-01 -0.90833035342E-01  0.30000111005E-01  0.89045808180E+00  0.88000000000E+00 0. -1.
        -11    1    4    4    0    0  0.23652157533E-01  0.27590983593E-01 -0.49116546166E-02  0.36675228747E-01  0.51100000000E-03 0. -1.
         11    1    4    4    0    0  0.60145042008E-01  0.50060557368E-01 -0.44468600158E-01  0.90006683103E-01  0.51100000000E-03 0.  1.
</event>
<event>
 8    1  0.1094134E+005  0.1043930E+01  0.7957747E-01            NaN
         13   -1    0    0    0    0  0.00000000000E+00  0.00000000000E+00  0.74505805969E-08  0.10566000000E+00  0.10566000000E+00 0. -1.
     999900   -1    0    0    0    0 -0.00000000000E+00 -0.00000000000E+00 -0.74505805969E-08  0.93827000000E+00  0.93827000000E+00 0.  1.
     999902    2    1    2    0    0 -0.19281561503E-01 -0.15947244958E-01  0.27873837670E-02  0.10187533691E+01  0.10184422243E+01 0.  0.
     999903    2    3    3    0    0 -0.12997917094E+00 -0.41707171890E-02 -0.66988238811E-02  0.13168931533E+00  0.19627067268E-01 0.  0.
         14    1    1    2    0    0  0.19281561503E-01  0.15947244958E-01 -0.27873837670E-02  0.25176630911E-01  0.00000000000E+00 0.  1.
     999901    1    3    3    0    0  0.11069760944E+00 -0.11776527769E-01  0.94862076482E-02  0.88706405376E+00  0.88000000000E+00 0.  1.
        -11    1    4    4    0    0 -0.38696143446E-01 -0.72614600044E-02  0.46569975913E-02  0.39649326180E-01  0.51100000000E-03 0. -1.
         11    1    4    4    0    0 -0.91283027495E-01  0.30907428154E-02 -0.11355821472E-01  0.92039989147E-01  0.51100000000E-03 0.  1.
</event>
<event>
 8    1  0.1094134E+005  0.1043930E+01  0.7957747E-01            NaN
         13   -1    0    0    0    0  0.00000000000E+00  0.00000000000E+00  0.74505805969E-08  0.10566000000E+00  0.10566000000E+00 0.  1.
     999900   -1    0    0    0    0 -0.00000000000E+00 -0.00000000000E+00 -0.74505805969E-08  0.93827000000E+00  0.93827000000E+00 0. -1.
     999902    2    1    2    0    0 -0.16837455792E-01 -0.14453727448E-01  0.68682489008E-02  0.10207010741E+01  0.10204367201E+01 0.  0.
     999903    2    3    3    0    0 -0.28382058683E-01 -0.46985066525E-01  0.11932049151E+00  0.13287391034E+00  0.20123583766E-01 0.  0.
         14    1    1    2    0    0  0.16837455792E-01  0.14453727448E-01 -0.68682489008E-02  0.23228925883E-01  0.00000000000E+00 0. -1.
     999901    1    3    3    0    0  0.11544602891E-01  0.32531339077E-01 -0.11245224261E+00  0.88782716378E+00  0.88000000000E+00 0. -1.
        -11    1    4    4    0    0  0.24405703314E-02 -0.85010377182E-02  0.13764939715E-01  0.16369444468E-01  0.51100000000E-03 0.  1.
         11    1    4    4    0    0 -0.30822629015E-01 -0.38484028807E-01  0.10555555179E+00  0.11650446587E+00  0.51100000000E-03 0. -1.
</event>
<event>
 8    1  0.1094134E+005  0.1043930E+01  0.7957747E-01            NaN
         13   -1    0    0    0    0  0.00000000000E+00  0.00000000000E+00  0.74505805969E-08  0.10566000000E+00  0.10566000000E+00 0.  1.
     999900   -1    0    0    0    0 -0.00000000000E+00 -0.00000000000E+00 -0.74505805969E-08  0.93827000000E+00  0.93827000000E+00 0. -1.
     999902    2    1    2    0    0  0.23363334352E-01 -0.45050827720E-03 -0.45570841931E-02  0.10201221155E+01  0.10198442602E+01 0.  0.
     999903    2    3    3    0    0  0.54545951970E-01 -0.80081186739E-01 -0.87440725282E-01  0.13210010079E+00  0.20403402752E-01 0.  0.
         14    1    1    2    0    0 -0.23363334352E-01  0.45050827720E-03  0.45570841931E-02  0.23807884536E-01  0.00000000000E+00 0.  1.
     999901    1    3    3    0    0 -0.31182617618E-01  0.79630678462E-01  0.82883641088E-01  0.88802201468E+00  0.88000000000E+00 0.  1.
        -11    1    4    4    0    0  0.15610738323E-01 -0.15226049081E-01 -0.30122501110E-01  0.37190777293E-01  0.51100000000E-03 0.  1.
         11    1    4    4    0    0  0.38935213648E-01 -0.64855137659E-01 -0.57318224172E-01  0.94909323492E-01  0.51100000000E-03 0. -1.
</event>
<event>
 8    1  0.1094134E+005  0.1043930E+01  0.7957747E-01            NaN
         13   -1    0    0    0    0  0.00000000000E+00  0.00000000000E+00  0.74505805969E-08  0.10566000000E+00  0.10566000000E+00 0.  1.
     999900   -1    0    0    0    0 -0.00000000000E+00 -0.00000000000E+00 -0.74505805969E-08  0.93827000000E+00  0.93827000000E+00 0. -1.
     999902    2    1    2    0    0  0.61094888103E-02  0.15459853209E-01  0.18208243055E-01  0.10192749188E+01  0.10189766862E+01 0.  0.
     999903    2    3    3    0    0 -0.10762548353E+00 -0.41672930862E-01  0.54850945670E-01  0.12936341385E+00  0.20159085587E-01 0.  0.
         14    1    1    2    0    0 -0.61094888103E-02 -0.15459853209E-01 -0.18208243055E-01  0.24655081219E-01  0.00000000000E+00 0. -1.
     999901    1    3    3    0    0  0.11373497234E+00  0.57132784071E-01 -0.36642702615E-01  0.88991150493E+00  0.88000000000E+00 0.  1.
        -11    1    4    4    0    0 -0.40284742233E-01 -0.24120529620E-01  0.28621949593E-01  0.54992158763E-01  0.51100000000E-03 0. -1.
         11    1    4    4    0    0 -0.67340741295E-01 -0.17552401242E-01  0.26228996077E-01  0.74371255090E-01  0.51100000000E-03 0.  1.
</event>
<event>
 8    1  0.1094134E+005  0.1043930E+01  0.7957747E-01            NaN
         13   -1    0    0    0    0  0.00000000000E+00  0.00000000000E+00  0.74505805969E-08  0.10566000000E+00  0.10566000000E+00 0. -1.
     999900   -1    0    0    0    0 -0.00000000000E+00 -0.00000000000E+00 -0.74505805969E-08  0.93827000000E+00  0.93827000000E+00 0.  1.
     999902    2    1    2    0    0 -0.16410187173E-01 -0.99855061134E-02 -0.13535058374E-01  0.10204310132E+01  0.10201604042E+01 0.  0.
     999903    2    3    3    0    0 -0.60479100560E-01  0.26613894277E-02 -0.11690694278E+00  0.13319499072E+00  0.20220476884E-01 0.  0.
         14    1    1    2    0    0  0.16410187173E-01  0.99855061134E-02  0.13535058374E-01  0.23498986799E-01  0.00000000000E+00 0. -1.
     999901    1    3    3    0    0  0.44068913387E-01 -0.12646895541E-01  0.10337188441E+00  0.88723602248E+00  0.88000000000E+00 0.  1.
        -11    1    4    4    0    0 -0.47246528664E-01  0.10471035567E-01 -0.86284440087E-01  0.98929989279E-01  0.51100000000E-03 0. -1.
         11    1    4    4    0    0 -0.13232571896E-01 -0.78096461388E-02 -0.30622502694E-01  0.34265001445E-01  0.51100000000E-03 0.  1.
</event>
<event>
 8    1  0.1094134E+005  0.1043930E+01  0.7957747E-01            NaN
         13   -1    0    0    0    0  0.00000000000E+00  0.00000000000E+00  0.74505805969E-08  0.10566000000E+00  0.10566000000E+00 0. -1.
     999900   -1    0    0    0    0 -0.00000000000E+00 -0.00000000000E+00 -0.74505805969E-08  0.93827000000E+00  0.93827000000E+00 0.  1.
     999902    2    1    2    0    0 -0.87481729235E-02  0.61179879749E-02 -0.23357398080E-01  0.10182487159E+01  0.10179248102E+01 0.  0.
     999903    2    3    3    0    0 -0.10590127623E+00  0.71748875438E-01 -0.15541217500E-01  0.13043835806E+00  0.20239920410E-01 0.  0.
         14    1    1    2    0    0  0.87481729235E-02 -0.61179879749E-02  0.23357398080E-01  0.25681284069E-01  0.00000000000E+00 0. -1.
     999901    1    3    3    0    0  0.97153103303E-01 -0.65630887463E-01 -0.78161805796E-02  0.88781035787E+00  0.88000000000E+00 0. -1.
        -11    1    4    4    0    0 -0.35232027198E-01  0.34142007442E-01 -0.99724322686E-03  0.49073699959E-01  0.51100000000E-03 0. -1.
         11    1    4    4    0    0 -0.70669249028E-01  0.37606867997E-01 -0.14543974273E-01  0.81364658098E-01  0.51100000000E-03 0.  1.
</event>
<event>
 8    1  0.1094134E+005  0.1043930E+01  0.7957747E-01            NaN
         13   -1    0    0    0    0  0.00000000000E+00  0.00000000000E+00  0.74505805969E-08  0.10566000000E+00  0.10566000000E+00 0.  1.
     999900   -1    0    0    0    0 -0.00000000000E+00 -0.00000000000E+00 -0.74505805969E-08  0.93827000000E+00  0.93827000000E+00 0.  1.
     999902    2    1    2    0    0 -0.22974125125E-01 -0.66632486146E-02  0.23009231786E-02  0.10198986964E+01  0.10196155390E+01 0.  0.
     999903    2    3    3    0    0 -0.11249381202E-01 -0.81831840501E-01  0.99916228033E-01  0.13123873069E+00  0.20429222033E-01 0.  0.
         14    1    1    2    0    0  0.22974125125E-01  0.66632486146E-02 -0.23009231786E-02  0.24031303644E-01  0.00000000000E+00 0.  1.
     999901    1    3    3    0    0 -0.11724743923E-01  0.75168591887E-01 -0.97615304854E-01  0.88865996566E+00  0.88000000000E+00 0.  1.
        -11    1    4    4    0    0 -0.40963402286E-03 -0.46637933497E-01  0.42956586554E-01  0.63409731827E-01  0.51100000000E-03 0.  1.
         11    1    4    4    0    0 -0.10839747179E-01 -0.35193907004E-01  0.56959641479E-01  0.67828998868E-01  0.51100000000E-03 0. -1.
</event>
<event>
 8    1  0.1094134E+005  0.1043930E+01  0.7957747E-01            NaN
         13   -1    0    0    0    0  0.00000000000E+00  0.00000000000E+00  0.74505805969E-08  0.10566000000E+00  0.10566000000E+00 0.  1.
     999900   -1    0    0    0    0 -0.00000000000E+00 -0.00000000000E+00 -0.74505805969E-08  0.93827000000E+00  0.93827000000E+00 0. -1.
     999902    2    1    2    0    0  0.10074523625E-01 -0.98380060146E-02  0.19636348709E-01  0.10197666273E+01  0.10194803115E+01 0.  0.
     999903    2    3    3    0    0  0.11365236225E+00 -0.30217021983E-01  0.58173130124E-01  0.13262021524E+00  0.19341162332E-01 0.  0.
         14    1    1    2    0    0 -0.10074523625E-01  0.98380060146E-02 -0.19636348709E-01  0.24163372679E-01  0.00000000000E+00 0. -1.
     999901    1    3    3    0    0 -0.10357783862E+00  0.20379015969E-01 -0.38536781415E-01  0.88714641208E+00  0.88000000000E+00 0. -1.
        -11    1    4    4    0    0  0.23836129889E-01 -0.20192715890E-02  0.19418613641E-01  0.30815292024E-01  0.51100000000E-03 0.  1.
         11    1    4    4    0    0  0.89816232357E-01 -0.28197750394E-01  0.38754516483E-01  0.10180492322E+00  0.51100000000E-03 0. -1.
</event>
<event>
 8    1  0.1094134E+005  0.1043930E+01  0.7957747E-01            NaN
         13   -1    0    0    0    0  0.00000000000E+00  0.00000000000E+00  0.74505805969E-08  0.10566000000E+00  0.10566000000E+00 0.  1.
     999900   -1    0    0    0    0 -0.00000000000E+00 -0.00000000000E+00 -0.74505805969E-08  0.93827000000E+00  0.93827000000E+00 0. -1.
     999902    2    1    2    0    0 -0.16313863854E-01 -0.73534956555E-02 -0.21729673134E-01  0.10157804930E+01  0.10153903757E+01 0.  0.
     999903    2    3    3    0    0  0.39489581842E-01 -0.34487714624E-01  0.11040975539E+00  0.12375408137E+00  0.19388889532E-01 0.  0.
         14    1    1    2    0    0  0.16313863854E-01  0.73534956555E-02  0.21729673134E-01  0.28149507042E-01  0.00000000000E+00 0.  1.
     999901    1    3    3    0    0 -0.55803445696E-01  0.27134218969E-01 -0.13213942853E+00  0.89202641158E+00  0.88000000000E+00 0. -1.
        -11    1    4    4    0    0  0.62427031738E-02 -0.11313224387E-01  0.44857005607E-01  0.46683749442E-01  0.51100000000E-03 0. -1.
         11    1    4    4    0    0  0.33246878668E-01 -0.23174490237E-01  0.65552749784E-01  0.77070331933E-01  0.51100000000E-03 0.  1.
</event>
<event>
 8    1  0.1094134E+005  0.1043930E+01  0.7957747E-01            NaN
         13   -1    0    0    0    0  0.00000000000E+00  0.00000000000E+00  0.74505805969E-08  0.10566000000E+00  0.10566000000E+00 0.  1.
     999900   -1    0    0    0    0 -0.00000000000E+00 -0.00000000000E+00 -0.74505805969E-08  0.93827000000E+00  0.93827000000E+00 0. -1.
     999902    2    1    2    0    0 -0.14031273858E-01  0.14677751661E-01  0.10607467532E-01  0.10210208008E+01  0.10207637554E+01 0.  0.
     999903    2    3    3    0    0 -0.90563136215E-01 -0.90595491277E-01 -0.17664316260E-01  0.13099896097E+00  0.20963659659E-01 0.  0.
         14    1    1    2    0    0  0.14031273858E-01 -0.14677751661E-01 -0.10607467532E-01  0.22909199186E-01  0.00000000000E+00 0. -1.
     999901    1    3    3    0    0  0.76531862358E-01  0.10527324294E+00  0.28271783792E-01  0.89002183984E+00  0.88000000000E+00 0. -1.
        -11    1    4    4    0    0 -0.87204319879E-01 -0.89808856332E-01 -0.14035673421E-01  0.12596620710E+00  0.51100000000E-03 0.  1.
         11    1    4    4    0    0 -0.33588163367E-02 -0.78663494482E-03 -0.36286428390E-02  0.50327538757E-02  0.51100000000E-03 0. -1.
</event>
<event>
 8    1  0.1094134E+005  0.1043930E+01  0.7957747E-01            NaN
         13   -1    0    0    0    0  0.00000000000E+00  0.00000000000E+00  0.74505805969E-08  0.10566000000E+00  0.10566000000E+00 0. -1.
     999900   -1    0    0    0    0 -0.00000000000E+00 -0.00000000000E+00 -0.74505805969E-08  0.93827000000E+00  0.93827000000E+00 0.  1.
     999902    2    1    2    0    0 -0.96308522381E-02 -0.22183855474E-02 -0.22996843313E-01  0.10188994317E+01  0.10185919313E+01 0.  0.
     999903    2    3    3    0    0  0.30374698710E-01 -0.15343683687E-01  0.12006692870E+00  0.12635253629E+00  0.19769802945E-01 0.  0.
         14    1    1    2    0    0  0.96308522381E-02  0.22183855474E-02  0.22996843313E-01  0.25030568344E-01  0.00000000000E+00 0. -1.
     999901    1    3    3    0    0 -0.40005550948E-01  0.13125298140E-01 -0.14306377202E+00  0.89254689536E+00  0.88000000000E+00 0.  1.
        -11    1    4    4    0    0  0.16316046362E-01 -0.18419084262E-01  0.83524582549E-01  0.87075214871E-01  0.51100000000E-03 0. -1.
         11    1    4    4    0    0  0.14058652348E-01  0.30754005750E-02  0.36542346156E-01  0.39277321422E-01  0.51100000000E-03 0.  1.
</event>
<event>
 8    1  0.1094134E+005  0.1043930E+01  0.7957747E-01            NaN
         13   -1    0    0    0    0  0.00000000000E+00  0.00000000000E+00  0.74505805969E-08  0.10566000000E+00  0.10566000000E+00 0.  1.
     999900   -1    0    0    0    0 -0.00000000000E+00 -0.00000000000E+00 -0.74505805969E-08  0.93827000000E+00  0.93827000000E+00 0.  1.
     999902    2    1    2    0    0 -0.88829701325E-02 -0.19907746297E-01  0.92208046222E-02  0.10202604255E+01  0.10199858269E+01 0.  0.
     999903    2    3    3    0    0  0.55443709853E-01 -0.10460667048E+00  0.56049357692E-01  0.13262044050E+00  0.20738617824E-01 0.  0.
         14    1    1    2    0    0  0.88829701325E-02  0.19907746297E-01 -0.92208046222E-02  0.23669574539E-01  0.00000000000E+00 0. -1.
     999901    1    3    3    0    0 -0.64326679986E-01  0.84698924186E-01 -0.46828553070E-01  0.88763998496E+00  0.88000000000E+00 0. -1.
        -11    1    4    4    0    0  0.48720576940E-01 -0.76923256715E-01  0.36672098889E-01  0.98163058219E-01  0.51100000000E-03 0. -1.
         11    1    4    4    0    0  0.67231329137E-02 -0.27683413768E-01  0.19377258804E-01  0.34457382283E-01  0.51100000000E-03 0.  1.
</event>
<event>
 8    1  0.1094134E+005  0.1043930E+01  0.7957747E-01            NaN
         13   -1    0    0    0    0  0.00000000000E+00  0.00000000000E+00  0.74505805969E-08  0.10566000000E+00  0.10566000000E+00 0. -1.
     999900   -1    0    0    0    0 -0.00000000000E+00 -0.00000000000E+00 -0.74505805969E-08  0.93827000000E+00  0.93827000000E+00 0.  1.
     999902    2    1    2    0    0  0.14267356030E-01  0.70303715695E-02  0.17538091502E-01  0.10202536779E+01  0.10199789209E+01 0.  0.
     999903    2    3    3    0    0 -0.12345529131E+00 -0.11179054140E-01 -0.25929903998E-01  0.12829595619E+00  0.20525892130E-01 0.  0.
         14    1    1    2    0    0 -0.14267356030E-01 -0.70303715695E-02 -0.17538091502E-01  0.23676322054E-01  0.00000000000E+00 0.  1.
     999901    1    3    3    0    0  0.13772264734E+00  0.18209425709E-01  0.43467995500E-01  0.89195772176E+00  0.88000000000E+00 0. -1.
        -11    1    4    4    0    0 -0.73977850046E-01 -0.13381278628E-01 -0.79283556197E-02  0.75596963292E-01  0.51100000000E-03 0.  1.
         11    1    4    4    0    0 -0.49477441266E-01  0.22022244888E-02 -0.18001548378E-01  0.52698992893E-01  0.51100000000E-03 0. -1.
</event>
<event>
 8    1  0.1094134E+005  0.1043930E+01  0.7957747E-01            NaN
         13   -1    0    0    0    0  0.00000000000E+00  0.00000000000E+00  0.74505805969E-08  0.10566000000E+00  0.10566000000E+00 0. -1.
     999900   -1    0    0    0    0 -0.00000000000E+00 -0.00000000000E+00 -0.74505805969E-08  0.93827000000E+00  0.93827000000E+00 0. -1.
     999902    2    1    2    0    0  0.17844868911E-01  0.12321450982E-01 -0.11238693309E-01  0.10195053050E+01  0.10192126869E+01 0.  0.
     999903    2    3    3    0    0  0.94731595366E-01 -0.84012357874E-01  0.24081980513E-01  0.13021383337E+00  0.18535079701E-01 0.  0.
         14    1    1    2    0    0 -0.17844868911E-01 -0.12321450982E-01  0.11238693309E-01  0.24424695045E-01  0.00000000000E+00 0.  1.
     999901    1    3    3    0    0 -0.76886726455E-01  0.96333808856E-01 -0.35320673822E-01  0.88929147158E+00  0.88000000000E+00 0. -1.
        -11    1    4    4    0    0  0.27610603740E-01 -0.14009058598E-01  0.67608179522E-02  0.31694935590E-01  0.51100000000E-03 0.  1.
         11    1    4    4    0    0  0.67120991626E-01 -0.70003299276E-01  0.17321162561E-01  0.98518897780E-01  0.51100000000E-03 0. -1.
</event>
<event>
 8    1  0.1094134E+005  0.1043930E+01  0.7957747E-01            NaN
         13   -1    0    0    0    0  0.00000000000E+00  0.00000000000E+00  0.74505805969E-08  0.10566000000E+00  0.10566000000E+00 0.  1.
     999900   -1    0    0    0    0 -0.00000000000E+00 -0.00000000000E+00 -0.74505805969E-08  0.93827000000E+00  0.93827000000E+00 0.  1.
     999902    2    1    2    0    0  0.92531701716E-02 -0.20298575537E-01  0.90042494325E-02  0.10198731957E+01  0.10195894298E+01 0.  0.
     999903    2    3    3    0    0  0.11149309343E+00 -0.61029710036E-01 -0.30114966352E-01  0.13215570667E+00  0.20071975913E-01 0.  0.
         14    1    1    2    0    0 -0.92531701716E-02  0.20298575537E-01 -0.90042494325E-02  0.24056804337E-01  0.00000000000E+00 0. -1.
     999901    1    3    3    0    0 -0.10223992326E+00  0.40731134499E-01  0.39119215785E-01  0.88771748900E+00  0.88000000000E+00 0. -1.
        -11    1    4    4    0    0  0.10815265507E-01 -0.10593766080E-01  0.14289963454E-02  0.15215156894E-01  0.51100000000E-03 0. -1.
         11    1    4    4    0    0  0.10067782792E+00 -0.50435943956E-01 -0.31543962698E-01  0.11694054977E+00  0.51100000000E-03 0.  1.
</event>
<event>
 7    1  0.1094134E+005  0.1043930E+01  0.7957747E-01            NaN
         13   -1    0    0    0    0  0.00000000000E+00  0.00000000000E+00  0.74505805969E-08  0.10566000000E+00  0.10566000000E+00 0.  1.
     999900   -1    0    0    0    0 -0.00000000000E+00 -0.00000000000E+00 -0.74505805969E-08  0.93827000000E+00  0.93827000000E+00 0.  1.
     999902    2    1    2    0    0  0.12767102274E-01  0.15875681051E-01 -0.13046893859E-01  0.10197379024E+01  0.10194508972E+01 0.  0.
         14    1    1    2    0    0 -0.12767102274E-01 -0.15875681051E-01  0.13046893859E-01  0.24192097650E-01  0.00000000000E+00 0.  1.
     999901    1    3    3    0    0 -0.10411073771E-01 -0.82095059389E-01  0.66153140706E-01  0.88635445915E+00  0.88000000000E+00 0. -1.
        -11    1    3    3    0    0  0.30016032655E-02  0.71708399582E-01 -0.66701033045E-01  0.97981595839E-01  0.51100000000E-03 0.  1.
         11    1    3    3    0    0  0.20176572779E-01  0.26262340858E-01 -0.12499001520E-01  0.35401847360E-01  0.51100000000E-03 0. -1.
</event>
<event>
 8    1  0.1094134E+005  0.1043930E+01  0.7957747E-01            NaN
         13   -1    0    0    0    0  0.00000000000E+00  0.00000000000E+00  0.74505805969E-08  0.10566000000E+00  0.10566000000E+00 0. -1.
     999900   -1    0    0    0    0 -0.00000000000E+00 -0.00000000000E+00 -0.74505805969E-08  0.93827000000E+00  0.93827000000E+00 0. -1.
     999902    2    1    2    0    0  0.23074876713E-01  0.30956017545E-02  0.29694477631E-02  0.10204597996E+01  0.10201898609E+01 0.  0.
     999903    2    3    3    0    0 -0.10719301407E+00 -0.67288227292E-01 -0.18092114856E-02  0.12807734667E+00  0.19557241266E-01 0.  0.
         14    1    1    2    0    0 -0.23074876713E-01 -0.30956017545E-02 -0.29694477631E-02  0.23470200373E-01  0.00000000000E+00 0.  1.
     999901    1    3    3    0    0  0.13026789078E+00  0.70383829047E-01  0.47786592487E-02  0.89238245296E+00  0.88000000000E+00 0.  1.
        -11    1    4    4    0    0 -0.64845067187E-01 -0.34411003140E-01  0.69973957720E-02  0.73744318725E-01  0.51100000000E-03 0.  1.
         11    1    4    4    0    0 -0.42347946884E-01 -0.32877224153E-01 -0.88066072576E-02  0.54333027945E-01  0.51100000000E-03 0. -1.
</event>
<event>
 8    1  0.1094134E+005  0.1043930E+01  0.7957747E-01            NaN
         13   -1    0    0    0    0  0.00000000000E+00  0.00000000000E+00  0.74505805969E-08  0.10566000000E+00  0.10566000000E+00 0. -1.
     999900   -1    0    0    0    0 -0.00000000000E+00 -0.00000000000E+00 -0.74505805969E-08  0.93827000000E+00  0.93827000000E+00 0.  1.
     999902    2    1    2    0    0  0.58108844202E-02 -0.22450324815E-01  0.60493400422E-03  0.10207319525E+01  0.10204683089E+01 0.  0.
     999903    2    3    3    0    0 -0.55359753900E-01  0.11388851380E+00  0.77010900928E-03  0.12813453307E+00  0.19559385742E-01 0.  0.
         14    1    1    2    0    0 -0.58108844202E-02  0.22450324815E-01 -0.60493400422E-03  0.23198047487E-01  0.00000000000E+00 0.  1.
     999901    1    3    3    0    0  0.61170638320E-01 -0.13633883862E+00 -0.16517500506E-03  0.89259741944E+00  0.88000000000E+00 0. -1.
        -11    1    4    4    0    0 -0.31861632035E-03  0.40709840900E-02 -0.32267458193E-02  0.52294777371E-02  0.51100000000E-03 0. -1.
         11    1    4    4    0    0 -0.55041137580E-01  0.10981752971E+00  0.39968548286E-02  0.12290505534E+00  0.51100000000E-03 0.  1.
</event>
<event>
 8    1  0.1094134E+005  0.1043930E+01  0.7957747E-01            NaN
         13   -1    0    0    0    0  0.00000000000E+00  0.00000000000E+00  0.74505805969E-08  0.10566000000E+00  0.10566000000E+00 0. -1.
     999900   -1    0    0    0    0 -0.00000000000E+00 -0.00000000000E+00 -0.74505805969E-08  0.93827000000E+00  0.93827000000E+00 0.  1.
     999902    2    1    2    0    0 -0.23039521934E-02  0.24007422123E-01 -0.14409804843E-02  0.10197692687E+01  0.10194830163E+01 0.  0.
     999903    2    3    3    0    0  0.12760713097E+00 -0.10103625436E-01 -0.41456992345E-02  0.12957391451E+00  0.19660859065E-01 0.  0.
         14    1    1    2    0    0  0.23039521934E-02 -0.24007422123E-01  0.14409804843E-02  0.24160731311E-01  0.00000000000E+00 0. -1.
     999901    1    3    3    0    0 -0.12991108316E+00  0.34111047559E-01  0.27047187502E-02  0.89019535418E+00  0.88000000000E+00 0.  1.
        -11    1    4    4    0    0  0.91756131594E-01 -0.32010653195E-02 -0.10844115665E-01  0.92451557422E-01  0.51100000000E-03 0.  1.
         11    1    4    4    0    0  0.35850999375E-01 -0.69025601161E-02  0.66984164301E-02  0.37122357091E-01  0.51100000000E-03 0. -1.
</event>
<event>
 8    1  0.1094134E+005  0.1043930E+01  0.7957747E-01            NaN
         13   -1    0    0    0    0  0.00000000000E+00  0.00000000000E+00  0.74505805969E-08  0.10566000000E+00  0.10566000000E+00 0. -1.
     999900   -1    0    0    0    0 -0.00000000000E+00 -0.00000000000E+00 -0.74505805969E-08  0.93827000000E+00  0.93827000000E+00 0.  1.
     999902    2    1    2    0    0 -0.15946115524E-02 -0.11869546068E-01  0.20130237822E-01  0.10205066060E+01  0.10202377554E+01 0.  0.
     999903    2    3    3    0    0  0.34868994293E-01  0.95137742782E-01  0.81642542781E-01  0.13114508333E+00  0.16324558939E-01 0.  0.
         14    1    1    2    0    0  0.15946115524E-02  0.11869546068E-01 -0.20130237822E-01  0.23423393961E-01  0.00000000000E+00 0.  1.
     999901    1    3    3    0    0 -0.36463605845E-01 -0.10700728885E+00 -0.61512304959E-01  0.88936152271E+00  0.88000000000E+00 0.  1.
        -11    1    4    4    0    0  0.20228129639E-01  0.50670504695E-01  0.33675970257E-01  0.64117153466E-01  0.51100000000E-03 0. -1.
         11    1    4    4    0    0  0.14640864653E-01  0.44467238087E-01  0.47966572524E-01  0.67027929862E-01  0.51100000000E-03 0.  1.
</event>
<event>
 8    1  0.1094134E+005  0.1043930E+01  0.7957747E-01            NaN
         13   -1    0    0    0    0  0.00000000000E+00  0.00000000000E+00  0.74505805969E-08  0.10566000000E+00  0.10566000000E+00 0. -1.
     999900   -1    0    0    0    0 -0.00000000000E+00 -0.00000000000E+00 -0.74505805969E-08  0.93827000000E+00  0.93827000000E+00 0.  1.
     999902    2    1    2    0    0 -0.67411236320E-02  0.69577855132E-03  0.23810485010E-01  0.10191738684E+01  0.10188731560E+01 0.  0.
     999903    2    3    3    0    0 -0.10077726319E+00 -0.25509915041E-01 -0.72837771755E-01  0.12851657209E+00  0.20108599342E-01 0.  0.
         14    1    1    2    0    0  0.67411236320E-02 -0.69577855132E-03 -0.23810485010E-01  0.24756131605E-01  0.00000000000E+00 0.  1.
     999901    1    3    3    0    0  0.94036139555E-01  0.26205693593E-01  0.96648256766E-01  0.89065729630E+00  0.88000000000E+00 0. -1.
        -11    1    4    4    0    0 -0.66367602786E-01 -0.17991007236E-01 -0.36275991685E-01  0.77746663817E-01  0.51100000000E-03 0.  1.
         11    1    4    4    0    0 -0.34409660401E-01 -0.75189078050E-02 -0.36561780070E-01  0.50769908276E-01  0.51100000000E-03 0. -1.
</event>
<event>
 8    1  0.1094134E+005  0.1043930E+01  0.7957747E-01            NaN
         13   -1    0    0    0    0  0.00000000000E+00  0.00000000000E+00  0.74505805969E-08  0.10566000000E+00  0.10566000000E+00 0.  1.
     999900   -1    0    0    0    0 -0.00000000000E+00 -0.00000000000E+00 -0.74505805969E-08  0.93827000000E+00  0.93827000000E+00 0. -1.
     999902    2    1    2    0    0 -0.17702506664E-01 -0.11182769637E-01 -0.10674937456E-01  0.10204270774E+01  0.10201563767E+01 0.  0.
     999903    2    3    3    0    0  0.48856327516E-01 -0.11807665016E+00 -0.23544239380E-01  0.13137027440E+00  0.19359280403E-01 0.  0.
         14    1    1    2    0    0  0.17702506664E-01  0.11182769637E-01  0.10674937456E-01  0.23502922555E-01  0.00000000000E+00 0.  1.
     999901    1    3    3    0    0 -0.66558834179E-01  0.10689388052E+00  0.12869301923E-01  0.88905680304E+00  0.88000000000E+00 0. -1.
        -11    1    4    4    0    0  0.45168273320E-01 -0.97445505365E-01 -0.25257833501E-01  0.11033593569E+00  0.51100000000E-03 0. -1.
         11    1    4    4    0    0  0.36880541960E-02 -0.20631144795E-01  0.17135941217E-02  0.21034338714E-01  0.51100000000E-03 0.  1.
</event>
<event>
 8    1  0.1094134E+005  0.1043930E+01  0.7957747E-01            NaN
         13   -1    0    0    0    0  0.00000000000E+00  0.00000000000E+00  0.74505805969E-08  0.10566000000E+00  0.10566000000E+00 0. -1.
     999900   -1    0    0    0    0 -0.00000000000E+00 -0.00000000000E+00 -0.74505805969E-08  0.93827000000E+00  0.93827000000E+00 0.  1.
     999902    2    1    2    0    0  0.22998634696E-02 -0.14801923927E-01  0.15651099506E-01  0.10222656690E+01  0.10220360829E+01 0.  0.
     999903    2    3    3    0    0 -0.61756559355E-01  0.86655203103E-01  0.76974023452E-01  0.13200880999E+00  0.13353979955E-01 0.  0.
         14    1    1    2    0    0 -0.22998634696E-02  0.14801923927E-01 -0.15651099506E-01  0.21664331046E-01  0.00000000000E+00 0.  1.
     999901    1    3    3    0    0  0.64056422824E-01 -0.10145712703E+00 -0.61322923946E-01  0.89025685896E+00  0.88000000000E+00 0.  1.
        -11    1    4    4    0    0 -0.60729286504E-01  0.79756177590E-01  0.72232464965E-01  0.12355923364E+00  0.51100000000E-03 0. -1.
         11    1    4    4    0    0 -0.10272728510E-02  0.68990255126E-02  0.47415584878E-02  0.84495763460E-02  0.51100000000E-03 0.  1.
</event>
<event>
 8    1  0.1094134E+005  0.1043930E+01  0.7957747E-01            NaN
         13   -1    0    0    0    0  0.00000000000E+00  0.00000000000E+00  0.74505805969E-08  0.10566000000E+00  0.10566000000E+00 0.  1.
     999900   -1    0    0    0    0 -0.00000000000E+00 -0.00000000000E+00 -0.74505805969E-08  0.93827000000E+00  0.93827000000E+00 0. -1.
     999902    2    1    2    0    0 -0.19269139431E-01 -0.96603884661E-02 -0.11801242398E-01  0.10193557826E+01  0.10190595269E+01 0.  0.
     999903    2    3    3    0    0  0.25887954826E-02 -0.12819786106E+00  0.14181102935E-01  0.13075914518E+00  0.21341436798E-01 0.  0.
         14    1    1    2    0    0  0.19269139431E-01  0.96603884661E-02  0.11801242398E-01  0.24574217422E-01  0.00000000000E+00 0.  1.
     999901    1    3    3    0    0 -0.21857934914E-01  0.11853747260E+00 -0.25982345334E-01  0.88859663740E+00  0.88000000000E+00 0. -1.
        -11    1    4    4    0    0 -0.75523182928E-02 -0.81714662153E-01  0.43832890629E-02  0.82181493454E-01  0.51100000000E-03 0. -1.
         11    1    4    4    0    0  0.10141113775E-01 -0.46483198909E-01  0.97978138726E-02  0.48577651725E-01  0.51100000000E-03 0.  1.
</event>
<event>
 8    1  0.1094134E+005  0.1043930E+01  0.7957747E-01            NaN
         13   -1    0    0    0    0  0.00000000000E+00  0.00000000000E+00  0.74505805969E-08  0.10566000000E+00  0.10566000000E+00 0. -1.
     999900   -1    0    0    0    0 -0.00000000000E+00 -0.00000000000E+00 -0.74505805969E-08  0.93827000000E+00  0.93827000000E+00 0. -1.
     999902    2    1    2    0    0 -0.21714588673E-01  0.76364763587E-02  0.39792054748E-02  0.10205703508E+01  0.10203029784E+01 0.  0.
     999903    2    3    3    0    0 -0.10848692857E+00 -0.68037065816E-01 -0.27642935424E-01  0.13250735547E+00  0.19889981919E-01 0.  0.
         14    1    1    2    0    0  0.21714588673E-01 -0.76364763587E-02 -0.39792054748E-02  0.23359649155E-01  0.00000000000E+00 0.  1.
     999901    1    3    3    0    0  0.86772339894E-01  0.75673542175E-01  0.31622140898E-01  0.88806299537E+00  0.88000000000E+00 0. -1.
        -11    1    4    4    0    0 -0.24105672957E-01 -0.73246815349E-02 -0.11245477217E-02  0.25224197844E-01  0.51100000000E-03 0.  1.
         11    1    4    4    0    0 -0.84381255609E-01 -0.60712384281E-01 -0.26518387702E-01  0.10728315763E+00  0.51100000000E-03 0. -1.
</event>
<event>
 8    1  0.1094134E+005  0.1043930E+01  0.7957747E-01            NaN
         13   -1    0    0    0    0  0.00000000000E+00  0.00000000000E+00  0.74505805969E-08  0.10566000000E+00  0.10566000000E+00 0. -1.
     999900   -1    0    0    0    0 -0.00000000000E+00 -0.00000000000E+00 -0.74505805969E-08  0.93827000000E+00  0.93827000000E+00 0.  1.
     999902    2    1    2    0    0 -0.24626314167E-01 -0.40921177771E-02 -0.37363312588E-02  0.10186879528E+01  0.10183751687E+01 0.  0.
     999903    2    3    3    0    0 -0.10460432209E+00 -0.62642302361E-01 -0.45996115833E-01  0.13211562336E+00  0.21743344290E-01 0.  0.
         14    1    1    2    0    0  0.24626314167E-01  0.40921177771E-02  0.37363312588E-02  0.25242047236E-01  0.00000000000E+00 0. -1.
     999901    1    3    3    0    0  0.79978007920E-01  0.58550184583E-01  0.42259784574E-01  0.88657232940E+00  0.88000000000E+00 0. -1.
        -11    1    4    4    0    0 -0.69148247828E-01 -0.29082720328E-01 -0.27009578174E-01  0.79731193605E-01  0.51100000000E-03 0.  1.
         11    1    4    4    0    0 -0.35456074259E-01 -0.33559582032E-01 -0.18986537658E-01  0.52384429760E-01  0.51100000000E-03 0. -1.
</event>
<event>
 8    1  0.1094134E+005  0.1043930E+01  0.7957747E-01            NaN
         13   -1    0    0    0    0  0.00000000000E+00  0.00000000000E+00  0.74505805969E-08  0.10566000000E+00  0.10566000000E+00 0.  1.
     999900   -1    0    0    0    0 -0.00000000000E+00 -0.00000000000E+00 -0.74505805969E-08  0.93827000000E+00  0.93827000000E+00 0.  1.
     999902    2    1    2    0    0 -0.17171382721E-01 -0.90897699460E-02 -0.75031109084E-02  0.10231026868E+01  0.10228906739E+01 0.  0.
     999903    2    3    3    0    0  0.15631255838E-02 -0.74046602836E-01  0.10864364151E+00  0.13290021542E+00  0.19330899200E-01 0.  0.
         14    1    1    2    0    0  0.17171382721E-01  0.90897699460E-02  0.75031109084E-02  0.20827313209E-01  0.00000000000E+00 0.  1.
     999901    1    3    3    0    0 -0.18734508305E-01  0.64956832890E-01 -0.11614675242E+00  0.89020247137E+00  0.88000000000E+00 0.  1.
        -11    1    4    4    0    0  0.87460559830E-02 -0.37187069836E-01  0.45298974094E-01  0.59259006346E-01  0.51100000000E-03 0.  1.
         11    1    4    4    0    0 -0.71829303991E-02 -0.36859533000E-01  0.63344667419E-01  0.73641209071E-01  0.51100000000E-03 0. -1.
</event>
<event>
 8    1  0.1094134E+005  0.1043930E+01  0.7957747E-01            NaN
         13   -1    0    0    0    0  0.00000000000E+00  0.00000000000E+00  0.74505805969E-08  0.10566000000E+00  0.10566000000E+00 0. -1.
     999900   -1    0    0    0    0 -0.00000000000E+00 -0.00000000000E+00 -0.74505805969E-08  0.93827000000E+00  0.93827000000E+00 0. -1.
     999902    2    1    2    0    0 -0.44045763657E-02 -0.18315308822E-01  0.14612333106E-01  0.10200894650E+01  0.10198108381E+01 0.  0.
     999903    2    3    3    0    0 -0.59207689544E-02  0.11741704225E+00 -0.45833258199E-01  0.12763260920E+00  0.19172325272E-01 0.  0.
         14    1    1    2    0    0  0.44045763657E-02  0.18315308822E-01 -0.14612333106E-01  0.23840534998E-01  0.00000000000E+00 0.  1.
     999901    1    3    3    0    0  0.15161925886E-02 -0.13573235107E+00  0.60445591305E-01  0.89245685581E+00  0.88000000000E+00 0.  1.
        -11    1    4    4    0    0 -0.12337294315E-01  0.88092627325E-01 -0.36955927167E-01  0.96325082371E-01  0.51100000000E-03 0.  1.
         11    1    4    4    0    0  0.64165253607E-02  0.29324414928E-01 -0.88773310321E-02  0.31307526824E-01  0.51100000000E-03 0. -1.
</event>
<event>
 8    1  0.1094134E+005  0.1043930E+01  0.7957747E-01            NaN
         13   -1    0    0    0    0  0.00000000000E+00  0.00000000000E+00  0.74505805969E-08  0.10566000000E+00  0.10566000000E+00 0. -1.
     999900   -1    0    0    0    0 -0.00000000000E+00 -0.00000000000E+00 -0.74505805969E-08  0.93827000000E+00  0.93827000000E+00 0.  1.
     999902    2    1    2    0    0  0.13376243990E-01 -0.15879451319E-01  0.12146181990E-01  0.10198756737E+01  0.10195919670E+01 0.  0.
     999903    2    3    3    0    0  0.75194488988E-01 -0.98982867364E-01  0.43202545026E-01  0.13325728291E+00  0.20957679896E-01 0.  0.
         14    1    1    2    0    0 -0.13376243990E-01  0.15879451319E-01 -0.12146181990E-01  0.24054326314E-01  0.00000000000E+00 0.  1.
     999901    1    3    3    0    0 -0.61818244998E-01  0.83103416045E-01 -0.31056363036E-01  0.88661839077E+00  0.88000000000E+00 0.  1.
        -11    1    4    4    0    0  0.45370730686E-01 -0.46873924660E-01  0.15091546515E-01  0.66960315958E-01  0.51100000000E-03 0. -1.
         11    1    4    4    0    0  0.29823758302E-01 -0.52108942704E-01  0.28110998511E-01  0.66296966954E-01  0.51100000000E-03 0.  1.
</event>
<event>
 8    1  0.1094134E+005  0.1043930E+01  0.7957747E-01            NaN
         13   -1    0    0    0    0  0.00000000000E+00  0.00000000000E+00  0.74505805969E-08  0.10566000000E+00  0.10566000000E+00 0.  1.
     999900   -1    0    0    0    0 -0.00000000000E+00 -0.00000000000E+00 -0.74505805969E-08  0.93827000000E+00  0.93827000000E+00 0. -1.
     999902    2    1    2    0    0  0.47749196030E-02 -0.21824571178E-01  0.14164771199E-01  0.10174771645E+01  0.10171332399E+01 0.  0.
     999903    2    3    3    0    0  0.11923267253E+00  0.28906123801E-01  0.32128574819E-01  0.12843448897E+00  0.20277535488E-01 0.  0.
         14    1    1    2    0    0 -0.47749196030E-02  0.21824571178E-01 -0.14164771199E-01  0.26452835527E-01  0.00000000000E+00 0. -1.
     999901    1    3    3    0    0 -0.11445775293E+00 -0.50730694979E-01 -0.17963803621E-01  0.88904267550E+00  0.88000000000E+00 0. -1.
        -11    1    4    4    0    0  0.16509920923E-01 -0.84589034517E-03  0.96602350065E-02  0.19153962534E-01  0.51100000000E-03 0.  1.
         11    1    4    4    0    0  0.10272275161E+00  0.29752014147E-01  0.22468339813E-01  0.10928052644E+00  0.51100000000E-03 0. -1.
</event>
<event>
 8    1  0.1094134E+005  0.1043930E+01  0.7957747E-01            NaN
         13   -1    0    0    0    0  0.00000000000E+00  0.00000000000E+00  0.74505805969E-08  0.10566000000E+00  0.10566000000E+00 0. -1.
     999900   -1    0    0    0    0 -0.00000000000E+00 -0.00000000000E+00 -0.74505805969E-08  0.93827000000E+00  0.93827000000E+00 0. -1.
     999902    2    1    2    0    0  0.20169272839E-01 -0.79580409897E-02 -0.73297828037E-02  0.10210421058E+01  0.10207855437E+01 0.  0.
     999903    2    3    3    0    0 -0.94890766951E-01  0.17604264462E-01  0.82980972808E-01  0.12860259708E+00  0.18401585451E-01 0.  0.
         14    1    1    2    0    0 -0.20169272839E-01  0.79580409897E-02  0.73297828037E-02  0.22887894162E-01  0.00000000000E+00 0.  1.
     999901    1    3    3    0    0  0.11506003979E+00 -0.25562305452E-01 -0.90310755612E-01  0.89243950876E+00  0.88000000000E+00 0.  1.
        -11    1    4    4    0    0 -0.64856680441E-01  0.32486543841E-02  0.55954533519E-01  0.85721139140E-01  0.51100000000E-03 0. -1.
         11    1    4    4    0    0 -0.30034086510E-01  0.14355610078E-01  0.27026439288E-01  0.42881457937E-01  0.51100000000E-03 0.  1.
</event>
<event>
 8    1  0.1094134E+005  0.1043930E+01  0.7957747E-01            NaN
         13   -1    0    0    0    0  0.00000000000E+00  0.00000000000E+00  0.74505805969E-08  0.10566000000E+00  0.10566000000E+00 0. -1.
     999900   -1    0    0    0    0 -0.00000000000E+00 -0.00000000000E+00 -0.74505805969E-08  0.93827000000E+00  0.93827000000E+00 0.  1.
     999902    2    1    2    0    0 -0.20658182110E-01 -0.58288254791E-02 -0.12516870986E-01  0.10190823089E+01  0.10187793404E+01 0.  0.
     999903    2    3    3    0    0 -0.93807594720E-01  0.19541253259E-01  0.85891702352E-01  0.13021858211E+00  0.19944151743E-01 0.  0.
         14    1    1    2    0    0  0.20658182110E-01  0.58288254791E-02  0.12516870986E-01  0.24847691117E-01  0.00000000000E+00 0. -1.
     999901    1    3    3    0    0  0.73149412609E-01 -0.25370078738E-01 -0.98408573337E-01  0.88886372677E+00  0.88000000000E+00 0. -1.
        -11    1    4    4    0    0 -0.37621252783E-01  0.47004727405E-02  0.46552157370E-01  0.60040133092E-01  0.51100000000E-03 0. -1.
         11    1    4    4    0    0 -0.56186341937E-01  0.14840780518E-01  0.39339544981E-01  0.70178449021E-01  0.51100000000E-03 0.  1.
</event>
<event>
 8    1  0.1094134E+005  0.1043930E+01  0.7957747E-01            NaN
         13   -1    0    0    0    0  0.00000000000E+00  0.00000000000E+00  0.74505805969E-08  0.10566000000E+00  0.10566000000E+00 0. -1.
     999900   -1    0    0    0    0 -0.00000000000E+00 -0.00000000000E+00 -0.74505805969E-08  0.93827000000E+00  0.93827000000E+00 0.  1.
     999902    2    1    2    0    0  0.22632073885E-01 -0.10853741511E-02 -0.85741117270E-02  0.10197038943E+01  0.10194160720E+01 0.  0.
     999903    2    3    3    0    0  0.18550740904E-01  0.45078231320E-01 -0.12073552399E+00  0.13137517240E+00  0.17498349779E-01 0.  0.
         14    1    1    2    0    0 -0.22632073885E-01  0.10853741511E-02  0.85741117270E-02  0.24226105698E-01  0.00000000000E+00 0. -1.
     999901    1    3    3    0    0  0.40813329808E-02 -0.46163605471E-01  0.11216141226E+00  0.88832872190E+00  0.88000000000E+00 0. -1.
        -11    1    4    4    0    0 -0.70852643903E-04  0.11570877720E-02 -0.18636970013E-01  0.18679979777E-01  0.51100000000E-03 0.  1.
         11    1    4    4    0    0  0.18621593548E-01  0.43921143548E-01 -0.10209855397E+00  0.11269519263E+00  0.51100000000E-03 0. -1.
</event>
<event>
 8    1  0.1094134E+005  0.1043930E+01  0.7957747E-01            NaN
         13   -1    0    0    0    0  0.00000000000E+00  0.00000000000E+00  0.74505805969E-08  0.10566000000E+00  0.10566000000E+00 0. -1.
     999900   -1    0    0    0    0 -0.00000000000E+00 -0.00000000000E+00 -0.74505805969E-08  0.93827000000E+00  0.93827000000E+00 0. -1.
     999902    2    1    2    0    0 -0.95254040112E-02  0.17816411876E-01  0.11850288435E-01  0.10205080618E+01  0.10202392450E+01 0.  0.
     999903    2    3    3    0    0  0.12371989025E+00 -0.29750194574E-01  0.99290434978E-02  0.12920531767E+00  0.20093354312E-01 0.  0.
         14    1    1    2    0    0  0.95254040112E-02 -0.17816411876E-01 -0.11850288435E-01  0.23421938214E-01  0.00000000000E+00 0.  1.
     999901    1    3    3    0    0 -0.13324529426E+00  0.47566606450E-01  0.19212449373E-02  0.89130274412E+00  0.88000000000E+00 0.  1.
        -11    1    4    4    0    0  0.38519915330E-01 -0.46801925465E-02  0.11174128345E-01  0.40383292889E-01  0.51100000000E-03 0.  1.
         11    1    4    4    0    0  0.85199974922E-01 -0.25070002027E-01 -0.12450848474E-02  0.88822024777E-01  0.51100000000E-03 0. -1.
</event>
<event>
 8    1  0.1094134E+005  0.1043930E+01  0.7957747E-01            NaN
         13   -1    0    0    0    0  0.00000000000E+00  0.00000000000E+00  0.74505805969E-08  0.10566000000E+00  0.10566000000E+00 0.  1.
     999900   -1    0    0    0    0 -0.00000000000E+00 -0.00000000000E+00 -0.74505805969E-08  0.93827000000E+00  0.93827000000E+00 0.  1.
     999902    2    1    2    0    0 -0.24944504323E-02  0.11415794922E-01 -0.16953822017E-01  0.10233393532E+01  0.10231321796E+01 0.  0.
     999903    2    3    3    0    0 -0.78402841992E-01 -0.61757489084E-01  0.82655862806E-01  0.13146576193E+00  0.22141856614E-01 0.  0.
         14    1    1    2    0    0  0.24944504323E-02 -0.11415794922E-01  0.16953822017E-01  0.20590646848E-01  0.00000000000E+00 0.  1.
     999901    1    3    3    0    0  0.75908391560E-01  0.73173284005E-01 -0.99609684823E-01  0.89187359122E+00  0.88000000000E+00 0.  1.
        -11    1    4    4    0    0 -0.72556156534E-02 -0.14849979093E-01  0.18380693574E-01  0.24724013728E-01  0.51100000000E-03 0. -1.
         11    1    4    4    0    0 -0.71147226338E-01 -0.46907509991E-01  0.64275169232E-01  0.10674174821E+00  0.51100000000E-03 0.  1.
</event>
<event>
 8    1  0.1094134E+005  0.1043930E+01  0.7957747E-01            NaN
         13   -1    0    0    0    0  0.00000000000E+00  0.00000000000E+00  0.74505805969E-08  0.10566000000E+00  0.10566000000E+00 0.  1.
     999900   -1    0    0    0    0 -0.00000000000E+00 -0.00000000000E+00 -0.74505805969E-08  0.93827000000E+00  0.93827000000E+00 0. -1.
     999902    2    1    2    0    0  0.11417679062E-02 -0.19566153373E-01  0.13473582756E-01  0.10201460679E+01  0.10198687781E+01 0.  0.
     999903    2    3    3    0    0 -0.33875780633E-02 -0.33809810842E-01 -0.12335073980E+00  0.12944730181E+00  0.19662653458E-01 0.  0.
         14    1    1    2    0    0 -0.11417679062E-02  0.19566153373E-01 -0.13473582756E-01  0.23783932056E-01  0.00000000000E+00 0. -1.
     999901    1    3    3    0    0  0.45293459695E-02  0.14243657469E-01  0.13682432256E+00  0.89069876614E+00  0.88000000000E+00 0.  1.
        -11    1    4    4    0    0 -0.64133848275E-03 -0.17902675169E-01 -0.31971581762E-01  0.36651879278E-01  0.51100000000E-03 0.  1.
         11    1    4    4    0    0 -0.27462395806E-02 -0.15907135673E-01 -0.91379158041E-01  0.92795422530E-01  0.51100000000E-03 0. -1.
</event>
<event>
 8    1  0.1094134E+005  0.1043930E+01  0.7957747E-01            NaN
         13   -1    0    0    0    0  0.00000000000E+00  0.00000000000E+00  0.74505805969E-08  0.10566000000E+00  0.10566000000E+00 0.  1.
     999900   -1    0    0    0    0 -0.00000000000E+00 -0.00000000000E+00 -0.74505805969E-08  0.93827000000E+00  0.93827000000E+00 0.  1.
     999902    2    1    2    0    0 -0.15769618649E-01 -0.17071085196E-01 -0.16317517207E-02  0.10206326732E+01  0.10203667420E+01 0.  0.
     999903    2    3    3    0    0 -0.12319368463E+00 -0.31954379039E-01 -0.34981785185E-01  0.13334823903E+00  0.18980550186E-01 0.  0.
         14    1    1    2    0    0  0.15769618649E-01  0.17071085196E-01  0.16317517207E-02  0.23297326795E-01  0.00000000000E+00 0.  1.
     999901    1    3    3    0    0  0.10742406599E+00  0.14883293842E-01  0.33350033465E-01  0.88728443417E+00  0.88000000000E+00 0. -1.
        -11    1    4    4    0    0 -0.82145476116E-01 -0.15977352442E-01 -0.15183096648E-01  0.85052587158E-01  0.51100000000E-03 0. -1.
         11    1    4    4    0    0 -0.41048208519E-01 -0.15977026597E-01 -0.19798688537E-01  0.48295651877E-01  0.51100000000E-03 0.  1.
</event>
<event>
 8    1  0.1094134E+005  0.1043930E+01  0.7957747E-01            NaN
         13   -1    0    0    0    0  0.00000000000E+00  0.00000000000E+00  0.74505805969E-08  0.10566000000E+00  0.10566000000E+00 0. -1.
     999900   -1    0    0    0    0 -0.00000000000E+00 -0.00000000000E+00 -0.74505805969E-08  0.93827000000E+00  0.93827000000E+00 0.  1.
     999902    2    1    2    0    0  0.13020009208E-01  0.11397454687E-02  0.21097082702E-01  0.10191125352E+01  0.10188103125E+01 0.  0.
     999903    2    3    3    0    0  0.22800627335E-02  0.12326490441E+00  0.37648867436E-01  0.13045969948E+00  0.20071388163E-01 0.  0.
         14    1    1    2    0    0 -0.13020009208E-01 -0.11397454687E-02 -0.21097082702E-01  0.24817464779E-01  0.00000000000E+00 0.  1.
     999901    1    3    3    0    0  0.10739946475E-01 -0.12212515894E+00 -0.16551784734E-01  0.88865283574E+00  0.88000000000E+00 0. -1.
        -11    1    4    4    0    0  0.64784872722E-02  0.10329334657E+00  0.25103409755E-01  0.10649849082E+00  0.51100000000E-03 0. -1.
         11    1    4    4    0    0 -0.41984245386E-02  0.19971557838E-01  0.12545457681E-01  0.23961208661E-01  0.51100000000E-03 0.  1.
</event>
<event>
 8    1  0.1094134E+005  0.1043930E+01  0.7957747E-01            NaN
         13   -1    0    0    0    0  0.00000000000E+00  0.00000000000E+00  0.74505805969E-08  0.10566000000E+00  0.10566000000E+00 0.  1.
     999900   -1    0    0    0    0 -0.00000000000E+00 -0.00000000000E+00 -0.74505805969E-08  0.93827000000E+00  0.93827000000E+00 0.  1.
     999902    2    1    2    0    0 -0.30898567415E-02 -0.18835168989E-01  0.13792928632E-01  0.10203809940E+01  0.10201092182E+01 0.  0.
     999903    2    3    3    0    0 -0.60730141702E-02 -0.11672716029E+00 -0.58165931592E-01  0.13202868842E+00  0.19651654285E-01 0.  0.
         14    1    1    2    0    0  0.30898567415E-02  0.18835168989E-01 -0.13792928632E-01  0.23549006046E-01  0.00000000000E+00 0. -1.
     999901    1    3    3    0    0  0.29831574287E-02  0.97891991302E-01  0.71958860224E-01  0.88835230554E+00  0.88000000000E+00 0. -1.
        -11    1    4    4    0    0  0.70036008957E-02 -0.32082597599E-01 -0.17527205737E-01  0.37226436254E-01  0.51100000000E-03 0. -1.
         11    1    4    4    0    0 -0.13076615066E-01 -0.84644562692E-01 -0.40638725855E-01  0.94802252162E-01  0.51100000000E-03 0.  1.
</event>
<event>
 8    1  0.1094134E+005  0.1043930E+01  0.7957747E-01            NaN
         13   -1    0    0    0    0  0.00000000000E+00  0.00000000000E+00  0.74505805969E-08  0.10566000000E+00  0.10566000000E+00 0.  1.
     999900   -1    0    0    0    0 -0.00000000000E+00 -0.00000000000E+00 -0.74505805969E-08  0.93827000000E+00  0.93827000000E+00 0.  1.
     999902    2    1    2    0    0 -0.48107255543E-02 -0.15343102150E-01 -0.16538258644E-01  0.10208634037E+01  0.10206027735E+01 0.  0.
     999903    2    3    3    0    0  0.92609734654E-01 -0.91988079577E-01 -0.85290165743E-03  0.13203764520E+00  0.19870645951E-01 0.  0.
         14    1    1    2    0    0  0.48107255543E-02  0.15343102150E-01  0.16538258644E-01  0.23066596258E-01  0.00000000000E+00 0.  1.
     999901    1    3    3    0    0 -0.97420460208E-01  0.76644977427E-01 -0.15685356987E-01  0.88882575855E+00  0.88000000000E+00 0.  1.
        -11    1    4    4    0    0  0.11714346879E-01 -0.54407431359E-02  0.38143832252E-02  0.13477323513E-01  0.51100000000E-03 0.  1.
         11    1    4    4    0    0  0.80895387774E-01 -0.86547336442E-01 -0.46672848827E-02  0.11856032168E+00  0.51100000000E-03 0. -1.
</event>
<event>
 8    1  0.1094134E+005  0.1043930E+01  0.7957747E-01            NaN
         13   -1    0    0    0    0  0.00000000000E+00  0.00000000000E+00  0.74505805969E-08  0.10566000000E+00  0.10566000000E+00 0.  1.
     999900   -1    0    0    0    0 -0.00000000000E+00 -0.00000000000E+00 -0.74505805969E-08  0.93827000000E+00  0.93827000000E+00 0.  1.
     999902    2    1    2    0    0  0.14858622080E-01  0.63186111455E-03 -0.17377322941E-01  0.10210575438E+01  0.10208013316E+01 0.  0.
     999903    2    3    3    0    0  0.33833324121E-01 -0.87995027186E-01 -0.92065823224E-01  0.13325512396E+00  0.19824066845E-01 0.  0.
         14    1    1    2    0    0 -0.14858622080E-01 -0.63186111455E-03  0.17377322941E-01  0.22872456169E-01  0.00000000000E+00 0.  1.
     999901    1    3    3    0    0 -0.18974702041E-01  0.88626888301E-01  0.74688500283E-01  0.88780241987E+00  0.88000000000E+00 0.  1.
        -11    1    4    4    0    0  0.17904507716E-01 -0.69459466970E-01 -0.71937168486E-01  0.10158940043E+00  0.51100000000E-03 0. -1.
         11    1    4    4    0    0  0.15928816405E-01 -0.18535560216E-01 -0.20128654738E-01  0.31665723537E-01  0.51100000000E-03 0.  1.
</event>
<event>
 8    1  0.1094134E+005  0.1043930E+01  0.7957747E-01            NaN
         13   -1    0    0    0    0  0.00000000000E+00  0.00000000000E+00  0.74505805969E-08  0.10566000000E+00  0.10566000000E+00 0. -1.
     999900   -1    0    0    0    0 -0.00000000000E+00 -0.00000000000E+00 -0.74505805969E-08  0.93827000000E+00  0.93827000000E+00 0. -1.
     999902    2    1    2    0    0 -0.36377786226E-02 -0.16540884859E-01 -0.15773428260E-01  0.10207862029E+01  0.10205238051E+01 0.  0.
     999903    2    3    3    0    0 -0.11985602028E+00  0.26113022118E-01 -0.43434213926E-01  0.13169050808E+00  0.20211468464E-01 0.  0.
         14    1    1    2    0    0  0.36377786226E-02  0.16540884859E-01  0.15773428260E-01  0.23143797102E-01  0.00000000000E+00 0. -1.
     999901    1    3    3    0    0  0.11621824166E+00 -0.42653906977E-01  0.27660785665E-01  0.88909569482E+00  0.88000000000E+00 0.  1.
        -11    1    4    4    0    0 -0.30637424743E-01 -0.16696394548E-02 -0.13901900978E-01  0.33689218789E-01  0.51100000000E-03 0.  1.
         11    1    4    4    0    0 -0.89218595540E-01  0.27782661573E-01 -0.29532312948E-01  0.98001289294E-01  0.51100000000E-03 0. -1.
</event>
<event>
 8    1  0.1094134E+005  0.1043930E+01  0.7957747E-01            NaN
         13   -1    0    0    0    0  0.00000000000E+00  0.00000000000E+00  0.74505805969E-08  0.10566000000E+00  0.10566000000E+00 0.  1.
     999900   -1    0    0    0    0 -0.00000000000E+00 -0.00000000000E+00 -0.74505805969E-08  0.93827000000E+00  0.93827000000E+00 0.  1.
     999902    2    1    2    0    0  0.14800974283E-01  0.12380408944E-01 -0.14537220743E-01  0.10197706508E+01  0.10194844315E+01 0.  0.
     999903    2    3    3    0    0 -0.87086978409E-02 -0.12637985536E+00  0.53228220423E-02  0.12836640082E+00  0.20047223405E-01 0.  0.
         14    1    1    2    0    0 -0.14800974283E-01 -0.12380408944E-01  0.14537220743E-01  0.24159349169E-01  0.00000000000E+00 0. -1.
     999901    1    3    3    0    0  0.23509672124E-01  0.13876026431E+00 -0.19860042785E-01  0.89140425001E+00  0.88000000000E+00 0. -1.
        -11    1    4    4    0    0 -0.34625292908E-02 -0.43451095189E-01 -0.76675520295E-02  0.44261035430E-01  0.51100000000E-03 0.  1.
         11    1    4    4    0    0 -0.52461685501E-02 -0.82928760173E-01  0.12990374072E-01  0.84105365393E-01  0.51100000000E-03 0. -1.
</event>
<event>
 8    1  0.1094134E+005  0.1043930E+01  0.7957747E-01            NaN
         13   -1    0    0    0    0  0.00000000000E+00  0.00000000000E+00  0.74505805969E-08  0.10566000000E+00  0.10566000000E+00 0. -1.
     999900   -1    0    0    0    0 -0.00000000000E+00 -0.00000000000E+00 -0.74505805969E-08  0.93827000000E+00  0.93827000000E+00 0.  1.
     999902    2    1    2    0    0 -0.11933945083E-02  0.24797479423E-02  0.23226418812E-01  0.10205411165E+01  0.10202730667E+01 0.  0.
     999903    2    3    3    0    0  0.14918584720E-01  0.79822042111E-01 -0.97907348370E-01  0.12873686899E+00  0.19829523306E-01 0.  0.
         14    1    1    2    0    0  0.11933945083E-02 -0.24797479423E-02 -0.23226418812E-01  0.23388883495E-01  0.00000000000E+00 0.  1.
     999901    1    3    3    0    0 -0.16111979229E-01 -0.77342294169E-01  0.12113376718E+00  0.89180424752E+00  0.88000000000E+00 0. -1.
        -11    1    4    4    0    0  0.90237339323E-02  0.75120270737E-01 -0.85150623248E-01  0.11390949306E+00  0.51100000000E-03 0. -1.
         11    1    4    4    0    0  0.58948507881E-02  0.47017713738E-02 -0.12756725122E-01  0.14827375921E-01  0.51100000000E-03 0.  1.
</event>
<event>
 8    1  0.1094134E+005  0.1043930E+01  0.7957747E-01            NaN
         13   -1    0    0    0    0  0.00000000000E+00  0.00000000000E+00  0.74505805969E-08  0.10566000000E+00  0.10566000000E+00 0. -1.
     999900   -1    0    0    0    0 -0.00000000000E+00 -0.00000000000E+00 -0.74505805969E-08  0.93827000000E+00  0.93827000000E+00 0.  1.
     999902    2    1    2    0    0 -0.11130734266E-01 -0.20998407064E-01  0.39745368781E-02  0.10198338740E+01  0.10195491686E+01 0.  0.
     999903    2    3    3    0    0  0.38512549982E-01  0.96841114426E-01  0.71690951230E-01  0.12801768147E+00  0.19685434500E-01 0.  0.
         14    1    1    2    0    0  0.11130734266E-01  0.20998407064E-01 -0.39745368781E-02  0.24096125994E-01  0.00000000000E+00 0.  1.
     999901    1    3    3    0    0 -0.49643284248E-01 -0.11783952149E+00 -0.67716414352E-01  0.89181619254E+00  0.88000000000E+00 0.  1.
        -11    1    4    4    0    0  0.51026713554E-03  0.22508545450E-01  0.13553973085E-01  0.26284335605E-01  0.51100000000E-03 0. -1.
         11    1    4    4    0    0  0.38002282847E-01  0.74332568976E-01  0.58136978144E-01  0.10173334586E+00  0.51100000000E-03 0.  1.
</event>
<event>
 8    1  0.1094134E+005  0.1043930E+01  0.7957747E-01            NaN
         13   -1    0    0    0    0  0.00000000000E+00  0.00000000000E+00  0.74505805969E-08  0.10566000000E+00  0.10566000000E+00 0. -1.
     999900   -1    0    0    0    0 -0.00000000000E+00 -0.00000000000E+00 -0.74505805969E-08  0.93827000000E+00  0.93827000000E+00 0. -1.
     999902    2    1    2    0    0 -0.11647574161E-01 -0.17871094832E-01  0.11474211397E-01  0.10197081185E+01  0.10194203978E+01 0.  0.
     999903    2    3    3    0    0 -0.13365272210E-01 -0.10351594831E+00  0.79885494799E-01  0.13290594493E+00  0.19700656436E-01 0.  0.
         14    1    1    2    0    0  0.11647574161E-01  0.17871094832E-01 -0.11474211397E-01  0.24221881461E-01  0.00000000000E+00 0.  1.
     999901    1    3    3    0    0  0.17176980490E-02  0.85644853477E-01 -0.68411283402E-01  0.88680217360E+00  0.88000000000E+00 0. -1.
        -11    1    4    4    0    0  0.62907109515E-03 -0.68472353273E-01  0.51981104192E-01  0.85971827986E-01  0.51100000000E-03 0. -1.
         11    1    4    4    0    0 -0.13994343305E-01 -0.35043595036E-01  0.27904390607E-01  0.46934116949E-01  0.51100000000E-03 0.  1.
</event>
<event>
 8    1  0.1094134E+005  0.1043930E+01  0.7957747E-01            NaN
         13   -1    0    0    0    0  0.00000000000E+00  0.00000000000E+00  0.74505805969E-08  0.10566000000E+00  0.10566000000E+00 0. -1.
     999900   -1    0    0    0    0 -0.00000000000E+00 -0.00000000000E+00 -0.74505805969E-08  0.93827000000E+00  0.93827000000E+00 0.  1.
     999902    2    1    2    0    0 -0.27665595635E-01  0.16256161032E-01 -0.32452647622E-02  0.10116781830E+01  0.10111639661E+01 0.  0.
     999903    2    3    3    0    0 -0.26292629035E-01 -0.48646455962E-01 -0.10830053188E+00  0.12305517869E+00  0.18862443577E-01 0.  0.
         14    1    1    2    0    0  0.27665595635E-01 -0.16256161032E-01  0.32452647622E-02  0.32251816952E-01  0.00000000000E+00 0.  1.
     999901    1    3    3    0    0 -0.13729665999E-02  0.64902616994E-01  0.10505526711E+00  0.88862300436E+00  0.88000000000E+00 0.  1.
        -11    1    4    4    0    0 -0.29167657060E-01 -0.45686094168E-01 -0.99022328310E-01  0.11288779404E+00  0.51100000000E-03 0.  1.
         11    1    4    4    0    0  0.28750280252E-02 -0.29603617939E-02 -0.92782035671E-02  0.10167384646E-01  0.51100000000E-03 0. -1.
</event>
<event>
 8    1  0.1094134E+005  0.1043930E+01  0.7957747E-01            NaN
         13   -1    0    0    0    0  0.00000000000E+00  0.00000000000E+00  0.74505805969E-08  0.10566000000E+00  0.10566000000E+00 0.  1.
     999900   -1    0    0    0    0 -0.00000000000E+00 -0.00000000000E+00 -0.74505805969E-08  0.93827000000E+00  0.93827000000E+00 0. -1.
     999902    2    1    2    0    0  0.16314673713E-01 -0.14554456123E-01 -0.33705371775E-02  0.10218084880E+01  0.10215690015E+01 0.  0.
     999903    2    3    3    0    0 -0.11818089613E+00  0.44516942502E-01 -0.21073799943E-01  0.12945659893E+00  0.19142193788E-01 0.  0.
         14    1    1    2    0    0 -0.16314673713E-01  0.14554456123E-01  0.33705371775E-02  0.22121511980E-01  0.00000000000E+00 0. -1.
     999901    1    3    3    0    0  0.13449556985E+00 -0.59071398626E-01  0.17703262765E-01  0.89235188909E+00  0.88000000000E+00 0. -1.
        -11    1    4    4    0    0 -0.24117767677E-01  0.36630936875E-02  0.15090511642E-02  0.24446335707E-01  0.51100000000E-03 0. -1.
         11    1    4    4    0    0 -0.94063128456E-01  0.40853848815E-01 -0.22582851107E-01  0.10501026323E+00  0.51100000000E-03 0.  1.
</event>
<event>
 7    1  0.1313040E+005  0.1043930E+01  0.7957747E-01            NaN
         13   -1    0    0    0    0  0.00000000000E+00  0.00000000000E+00  0.74505805969E-08  0.10566000000E+00  0.10566000000E+00 0. -1.
     999900   -1    0    0    0    0 -0.00000000000E+00 -0.00000000000E+00 -0.74505805969E-08  0.93827000000E+00  0.93827000000E+00 0.  1.
     999903    2    1    2    0    0 -0.70184370776E-01  0.43858077529E-01 -0.80908183132E-01  0.11750338043E+00  0.20286287236E-01 0.  0.
         14    1    1    2    0    0 -0.28336822703E-01 -0.41220894791E-02  0.25440487342E-01  0.38303858014E-01  0.00000000000E+00 0. -1.
     999901    1    1    2    0    0  0.98521193480E-01 -0.39735988050E-01  0.55467695790E-01  0.88812276155E+00  0.88000000000E+00 0. -1.
        -11    1    3    3    0    0 -0.53940563721E-01  0.28850582367E-01 -0.47565500797E-01  0.77489860656E-01  0.51100000000E-03 0. -1.
         11    1    3    3    0    0 -0.16243807055E-01  0.15007495162E-01 -0.33342682335E-01  0.40013519777E-01  0.51100000000E-03 0.  1.
</event>
<event>
 8    1  0.1094134E+005  0.1043930E+01  0.7957747E-01            NaN
         13   -1    0    0    0    0  0.00000000000E+00  0.00000000000E+00  0.74505805969E-08  0.10566000000E+00  0.10566000000E+00 0. -1.
     999900   -1    0    0    0    0 -0.00000000000E+00 -0.00000000000E+00 -0.74505805969E-08  0.93827000000E+00  0.93827000000E+00 0.  1.
     999902    2    1    2    0    0 -0.10189485740E-02  0.14485853098E-01  0.18160155597E-01  0.10206777002E+01  0.10204128077E+01 0.  0.
     999903    2    3    3    0    0  0.11747633433E+00  0.12300046284E-01 -0.51783349156E-01  0.12998246403E+00  0.16184728590E-01 0.  0.
         14    1    1    2    0    0  0.10189485740E-02 -0.14485853098E-01 -0.18160155597E-01  0.23252299832E-01  0.00000000000E+00 0.  1.
     999901    1    3    3    0    0 -0.11849528290E+00  0.21858068144E-02  0.69943504753E-01  0.89069523614E+00  0.88000000000E+00 0. -1.
        -11    1    4    4    0    0  0.84080527381E-01  0.15151490303E-01 -0.33245087762E-01  0.91676604019E-01  0.51100000000E-03 0. -1.
         11    1    4    4    0    0  0.33395806948E-01 -0.28514440194E-02 -0.18538261394E-01  0.38305860011E-01  0.51100000000E-03 0.  1.
</event>
<event>
 8    1  0.1094134E+005  0.1043930E+01  0.7957747E-01            NaN
         13   -1    0    0    0    0  0.00000000000E+00  0.00000000000E+00  0.74505805969E-08  0.10566000000E+00  0.10566000000E+00 0.  1.
     999900   -1    0    0    0    0 -0.00000000000E+00 -0.00000000000E+00 -0.74505805969E-08  0.93827000000E+00  0.93827000000E+00 0.  1.
     999902    2    1    2    0    0 -0.15711499993E-01 -0.72412860043E-03 -0.10758211828E-01  0.10248744308E+01  0.10246972647E+01 0.  0.
     999903    2    3    3    0    0  0.12769127094E+00  0.23499148433E-01 -0.19942554864E-01  0.13289042088E+00  0.20121824356E-01 0.  0.
         14    1    1    2    0    0  0.15711499993E-01  0.72412860043E-03  0.10758211828E-01  0.19055569160E-01  0.00000000000E+00 0.  1.
     999901    1    3    3    0    0 -0.14340277094E+00 -0.24223277034E-01  0.91843430352E-02  0.89198400996E+00  0.88000000000E+00 0.  1.
        -11    1    4    4    0    0  0.53043669693E-01  0.14401289682E-01 -0.17367025327E-01  0.57644624456E-01  0.51100000000E-03 0.  1.
         11    1    4    4    0    0  0.74647601252E-01  0.90978587512E-02 -0.25755295367E-02  0.75245796427E-01  0.51100000000E-03 0. -1.
</event>
<event>
 8    1  0.1094134E+005  0.1043930E+01  0.7957747E-01            NaN
         13   -1    0    0    0    0  0.00000000000E+00  0.00000000000E+00  0.74505805969E-08  0.10566000000E+00  0.10566000000E+00 0.  1.
     999900   -1    0    0    0    0 -0.00000000000E+00 -0.00000000000E+00 -0.74505805969E-08  0.93827000000E+00  0.93827000000E+00 0.  1.
     999902    2    1    2    0    0 -0.51440993199E-02  0.16032272693E-01 -0.16295898117E-01  0.10204981452E+01  0.10202290980E+01 0.  0.
     999903    2    3    3    0    0  0.13743298515E-01 -0.10118963459E+00 -0.78472833728E-01  0.13035002229E+00  0.20122680593E-01 0.  0.
         14    1    1    2    0    0  0.51440993199E-02 -0.16032272693E-01  0.16295898117E-01  0.23431854834E-01  0.00000000000E+00 0.  1.
     999901    1    3    3    0    0 -0.18887397835E-01  0.11722190728E+00  0.62176935610E-01  0.89014812288E+00  0.88000000000E+00 0. -1.
        -11    1    4    4    0    0  0.10101181489E-02 -0.59148217964E-01 -0.53807146959E-01  0.79968757724E-01  0.51100000000E-03 0. -1.
         11    1    4    4    0    0  0.12733180366E-01 -0.42041416626E-01 -0.24665686769E-01  0.50381264563E-01  0.51100000000E-03 0.  1.
</event>
<event>
 8    1  0.1094134E+005  0.1043930E+01  0.7957747E-01            NaN
         13   -1    0    0    0    0  0.00000000000E+00  0.00000000000E+00  0.74505805969E-08  0.10566000000E+00  0.10566000000E+00 0.  1.
     999900   -1    0    0    0    0 -0.00000000000E+00 -0.00000000000E+00 -0.74505805969E-08  0.93827000000E+00  0.93827000000E+00 0. -1.
     999902    2    1    2    0    0 -0.18191530849E-01  0.13467497334E-01  0.77426105777E-02  0.10200081836E+01  0.10197276310E+01 0.  0.
     999903    2    3    3    0    0  0.35511613137E-01  0.12017188332E+00  0.34453898791E-01  0.13153570429E+00  0.20303057725E-01 0.  0.
         14    1    1    2    0    0  0.18191530849E-01 -0.13467497334E-01 -0.77426105777E-02  0.23921816353E-01  0.00000000000E+00 0. -1.
     999901    1    3    3    0    0 -0.53703143987E-01 -0.10670438598E+00 -0.26711288213E-01  0.88847247936E+00  0.88000000000E+00 0. -1.
        -11    1    4    4    0    0  0.28723124004E-01  0.11162162279E+00  0.35380285994E-01  0.12056711942E+00  0.51100000000E-03 0.  1.
         11    1    4    4    0    0  0.67884891332E-02  0.85502605288E-02 -0.92638720287E-03  0.10968584871E-01  0.51100000000E-03 0. -1.
</event>
<event>
 8    1  0.1094134E+005  0.1043930E+01  0.7957747E-01            NaN
         13   -1    0    0    0    0  0.00000000000E+00  0.00000000000E+00  0.74505805969E-08  0.10566000000E+00  0.10566000000E+00 0.  1.
     999900   -1    0    0    0    0 -0.00000000000E+00 -0.00000000000E+00 -0.74505805969E-08  0.93827000000E+00  0.93827000000E+00 0. -1.
     999902    2    1    2    0    0 -0.16562273427E-01  0.96404620033E-02 -0.18758333143E-01  0.10171135410E+01  0.10167599682E+01 0.  0.
     999903    2    3    3    0    0  0.14498077062E-01  0.12622974485E+00  0.15017905357E-02  0.12864954129E+00  0.20107371181E-01 0.  0.
         14    1    1    2    0    0  0.16562273427E-01 -0.96404620033E-02  0.18758333143E-01  0.26816458957E-01  0.00000000000E+00 0.  1.
     999901    1    3    3    0    0 -0.31060350489E-01 -0.11658928285E+00 -0.20260123679E-01  0.88846399975E+00  0.88000000000E+00 0. -1.
        -11    1    4    4    0    0  0.19872231764E-02  0.63777665052E-01  0.92781511678E-02  0.64481662708E-01  0.51100000000E-03 0. -1.
         11    1    4    4    0    0  0.12510853885E-01  0.62452079797E-01 -0.77763606321E-02  0.64167878581E-01  0.51100000000E-03 0.  1.
</event>
<event>
 8    1  0.1094134E+005  0.1043930E+01  0.7957747E-01            NaN
         13   -1    0    0    0    0  0.00000000000E+00  0.00000000000E+00  0.74505805969E-08  0.10566000000E+00  0.10566000000E+00 0. -1.
     999900   -1    0    0    0    0 -0.00000000000E+00 -0.00000000000E+00 -0.74505805969E-08  0.93827000000E+00  0.93827000000E+00 0.  1.
     999902    2    1    2    0    0  0.91028988772E-02 -0.35909262576E-02  0.18063651652E-01  0.10233860707E+01  0.10231798457E+01 0.  0.
     999903    2    3    3    0    0 -0.81885291234E-01 -0.98122191108E-01  0.32720086383E-01  0.13353786914E+00  0.20702490985E-01 0.  0.
         14    1    1    2    0    0 -0.91028988772E-02  0.35909262576E-02 -0.18063651652E-01  0.20543929282E-01  0.00000000000E+00 0.  1.
     999901    1    3    3    0    0  0.90988190111E-01  0.94531264851E-01 -0.14656434731E-01  0.88984820158E+00  0.88000000000E+00 0. -1.
        -11    1    4    4    0    0 -0.56854338522E-01 -0.62764756232E-01  0.30987525371E-01  0.90179367281E-01  0.51100000000E-03 0. -1.
         11    1    4    4    0    0 -0.25030952712E-01 -0.35357434877E-01  0.17325610118E-02  0.43358501858E-01  0.51100000000E-03 0.  1.
</event>
<event>
 8    1  0.1094134E+005  0.1043930E+01  0.7957747E-01            NaN
         13   -1    0    0    0    0  0.00000000000E+00  0.00000000000E+00  0.74505805969E-08  0.10566000000E+00  0.10566000000E+00 0. -1.
     999900   -1    0    0    0    0 -0.00000000000E+00 -0.00000000000E+00 -0.74505805969E-08  0.93827000000E+00  0.93827000000E+00 0.  1.
     999902    2    1    2    0    0  0.14628222063E-01  0.10426167932E-01  0.20286284837E-01  0.10168334465E+01  0.10164723482E+01 0.  0.
     999903    2    3    3    0    0 -0.51726107687E-04 -0.11991798324E+00 -0.31523347180E-01  0.12560433086E+00  0.20059938486E-01 0.  0.
         14    1    1    2    0    0 -0.14628222063E-01 -0.10426167932E-01 -0.20286284837E-01  0.27096553488E-01  0.00000000000E+00 0.  1.
     999901    1    3    3    0    0  0.14679948170E-01  0.13034415117E+00  0.51809632016E-01  0.89122911566E+00  0.88000000000E+00 0. -1.
        -11    1    4    4    0    0 -0.10037620054E-01 -0.59023422069E-01 -0.15245921987E-01  0.61783633976E-01  0.51100000000E-03 0.  1.
         11    1    4    4    0    0  0.99858939463E-02 -0.60894561172E-01 -0.16277425193E-01  0.63820696880E-01  0.51100000000E-03 0. -1.
</event>
<event>
 8    1  0.1244779E+005  0.1043930E+01  0.7957747E-01            NaN
         13   -1    0    0    0    0  0.00000000000E+00  0.00000000000E+00  0.74505805969E-08  0.10566000000E+00  0.10566000000E+00 0. -1.
     999900   -1    0    0    0    0 -0.00000000000E+00 -0.00000000000E+00 -0.74505805969E-08  0.93827000000E+00  0.93827000000E+00 0.  1.
     999902    2    1    2    0    0  0.10561387805E-01 -0.18017676574E-01 -0.10967316492E-01  0.10203405614E+01  0.10200678407E+01 0.  0.
     999903    2    3    3    0    0  0.12724408012E+00 -0.22508304686E-01  0.19535020320E-01  0.13210331328E+00  0.19287007455E-01 0.  0.
         14    1    1    2    0    0 -0.10561387805E-01  0.18017676574E-01  0.10967316492E-01  0.23589438580E-01  0.00000000000E+00 0. -1.
     999901    1    3    3    0    0 -0.11668269231E+00  0.44906281121E-02 -0.30502336811E-01  0.88823724814E+00  0.88000000000E+00 0.  1.
        -11    1    4    4    0    0  0.68076454020E-01 -0.32087468099E-02  0.14363280660E-01  0.69651020095E-01  0.51100000000E-03 0.  1.
         11    1    4    4    0    0  0.59167626099E-01 -0.19299557876E-01  0.51717396600E-02  0.62452293188E-01  0.51100000000E-03 0. -1.
</event>
<event>
 8    1  0.1094134E+005  0.1043930E+01  0.7957747E-01            NaN
         13   -1    0    0    0    0  0.00000000000E+00  0.00000000000E+00  0.74505805969E-08  0.10566000000E+00  0.10566000000E+00 0. -1.
     999900   -1    0    0    0    0 -0.00000000000E+00 -0.00000000000E+00 -0.74505805969E-08  0.93827000000E+00  0.93827000000E+00 0.  1.
     999902    2    1    2    0    0 -0.12741973583E-01 -0.15372035860E-01  0.11606401209E-01  0.10208352836E+01  0.10205740102E+01 0.  0.
     999903    2    3    3    0    0  0.35761237522E-01  0.35656822495E-01  0.11981284966E+00  0.13141685486E+00  0.19104860549E-01 0.  0.
         14    1    1    2    0    0  0.12741973583E-01  0.15372035860E-01 -0.11606401209E-01  0.23094716415E-01  0.00000000000E+00 0.  1.
     999901    1    3    3    0    0 -0.48503211105E-01 -0.51028858355E-01 -0.10820644846E+00  0.88941842873E+00  0.88000000000E+00 0.  1.
        -11    1    4    4    0    0  0.19908770037E-01  0.30836805020E-01  0.91788879226E-01  0.98857104644E-01  0.51100000000E-03 0.  1.
         11    1    4    4    0    0  0.15852467485E-01  0.48200174753E-02  0.28023970438E-01  0.32559750213E-01  0.51100000000E-03 0. -1.
</event>
<event>
 8    1  0.1094134E+005  0.1043930E+01  0.7957747E-01            NaN
         13   -1    0    0    0    0  0.00000000000E+00  0.00000000000E+00  0.74505805969E-08  0.10566000000E+00  0.10566000000E+00 0. -1.
     999900   -1    0    0    0    0 -0.00000000000E+00 -0.00000000000E+00 -0.74505805969E-08  0.93827000000E+00  0.93827000000E+00 0. -1.
     999902    2    1    2    0    0  0.20158657966E-01 -0.15173837187E-01 -0.69447525770E-02  0.10177604296E+01  0.10174239262E+01 0.  0.
     999903    2    3    3    0    0 -0.83279727283E-01 -0.94995461357E-01 -0.64448324080E-02  0.12811373505E+00  0.20296368849E-01 0.  0.
         14    1    1    2    0    0 -0.20158657966E-01  0.15173837187E-01  0.69447525770E-02  0.26169570388E-01  0.00000000000E+00 0. -1.
     999901    1    3    3    0    0  0.10343838525E+00  0.79821624170E-01 -0.49992016907E-03  0.88964669456E+00  0.88000000000E+00 0. -1.
        -11    1    4    4    0    0 -0.55430707616E-01 -0.70017813869E-01  0.35961572994E-02  0.89377016475E-01  0.51100000000E-03 0.  1.
         11    1    4    4    0    0 -0.27849019667E-01 -0.24977647488E-01 -0.10040989707E-01  0.38736718573E-01  0.51100000000E-03 0. -1.
</event>
<event>
 8    1  0.1094134E+005  0.1043930E+01  0.7957747E-01            NaN
         13   -1    0    0    0    0  0.00000000000E+00  0.00000000000E+00  0.74505805969E-08  0.10566000000E+00  0.10566000000E+00 0.  1.
     999900   -1    0    0    0    0 -0.00000000000E+00 -0.00000000000E+00 -0.74505805969E-08  0.93827000000E+00  0.93827000000E+00 0.  1.
     999902    2    1    2    0    0  0.12337875624E-01  0.24776523329E-01 -0.74947356239E-02  0.10152547433E+01  0.10148497049E+01 0.  0.
     999903    2    3    3    0    0  0.85913530962E-01 -0.70065366380E-01 -0.55668570050E-01  0.12580037158E+00  0.20891467859E-01 0.  0.
         14    1    1    2    0    0 -0.12337875624E-01 -0.24776523329E-01  0.74947356239E-02  0.28675256673E-01  0.00000000000E+00 0.  1.
     999901    1    3    3    0    0 -0.73575655338E-01  0.94841889709E-01  0.48173834426E-01  0.88945437175E+00  0.88000000000E+00 0. -1.
        -11    1    4    4    0    0  0.38972276744E-01 -0.34465725855E-01 -0.14784342887E-01  0.54088469464E-01  0.51100000000E-03 0.  1.
         11    1    4    4    0    0  0.46941254218E-01 -0.35599640525E-01 -0.40884227163E-01  0.71711902113E-01  0.51100000000E-03 0. -1.
</event>
<event>
 8    1  0.1094134E+005  0.1043930E+01  0.7957747E-01            NaN
         13   -1    0    0    0    0  0.00000000000E+00  0.00000000000E+00  0.74505805969E-08  0.10566000000E+00  0.10566000000E+00 0.  1.
     999900   -1    0    0    0    0 -0.00000000000E+00 -0.00000000000E+00 -0.74505805969E-08  0.93827000000E+00  0.93827000000E+00 0.  1.
     999902    2    1    2    0    0  0.11464454554E-01  0.26451875747E-02  0.22151473558E-01  0.10188477649E+01  0.10185389779E+01 0.  0.
     999903    2    3    3    0    0  0.12872348248E+00  0.55693600429E-02  0.12839657861E-01  0.13101617035E+00  0.19990681954E-01 0.  0.
         14    1    1    2    0    0 -0.11464454554E-01 -0.26451875747E-02 -0.22151473558E-01  0.25082235074E-01  0.00000000000E+00 0. -1.
     999901    1    3    3    0    0 -0.11725902793E+00 -0.29241724682E-02  0.93118156965E-02  0.88783159458E+00  0.88000000000E+00 0.  1.
        -11    1    4    4    0    0  0.92550714059E-02 -0.48238027316E-02  0.48092960597E-03  0.10460297979E-01  0.51100000000E-03 0. -1.
         11    1    4    4    0    0  0.11946841108E+00  0.10393162775E-01  0.12358728255E-01  0.12055587237E+00  0.51100000000E-03 0.  1.
</event>
<event>
 8    1  0.1094134E+005  0.1043930E+01  0.7957747E-01            NaN
         13   -1    0    0    0    0  0.00000000000E+00  0.00000000000E+00  0.74505805969E-08  0.10566000000E+00  0.10566000000E+00 0.  1.
     999900   -1    0    0    0    0 -0.00000000000E+00 -0.00000000000E+00 -0.74505805969E-08  0.93827000000E+00  0.93827000000E+00 0.  1.
     999902    2    1    2    0    0 -0.34600278612E-02 -0.24561889895E-01  0.13306631428E-01  0.10157817377E+01  0.10153916555E+01 0.  0.
     999903    2    3    3    0    0 -0.79467665600E-01  0.10207744509E-01  0.96275983369E-01  0.12793602940E+00  0.26062515616E-01 0.  0.
         14    1    1    2    0    0  0.34600278612E-02  0.24561889895E-01 -0.13306631428E-01  0.28148262255E-01  0.00000000000E+00 0.  1.
     999901    1    3    3    0    0  0.76007637738E-01 -0.34769634404E-01 -0.82969351941E-01  0.88784570835E+00  0.88000000000E+00 0. -1.
        -11    1    4    4    0    0 -0.56521532509E-01  0.51301561830E-02  0.84108838392E-01  0.10146703877E+00  0.51100000000E-03 0. -1.
         11    1    4    4    0    0 -0.22946133090E-01  0.50775883255E-02  0.12167144977E-01  0.26468990628E-01  0.51100000000E-03 0.  1.
</event>
<event>
 8    1  0.1094134E+005  0.1043930E+01  0.7957747E-01            NaN
         13   -1    0    0    0    0  0.00000000000E+00  0.00000000000E+00  0.74505805969E-08  0.10566000000E+00  0.10566000000E+00 0. -1.
     999900   -1    0    0    0    0 -0.00000000000E+00 -0.00000000000E+00 -0.74505805969E-08  0.93827000000E+00  0.93827000000E+00 0.  1.
     999902    2    1    2    0    0 -0.17646590211E-01 -0.42451046547E-02  0.16741769870E-01  0.10192376952E+01  0.10189385503E+01 0.  0.
     999903    2    3    3    0    0 -0.12890637138E+00 -0.20242954192E-01  0.28220695467E-02  0.13197875430E+00  0.19590756286E-01 0.  0.
         14    1    1    2    0    0  0.17646590211E-01  0.42451046547E-02 -0.16741769870E-01  0.24692304833E-01  0.00000000000E+00 0. -1.
     999901    1    3    3    0    0  0.11125978117E+00  0.15997849537E-01  0.13919700323E-01  0.88725894087E+00  0.88000000000E+00 0.  1.
        -11    1    4    4    0    0 -0.36215081421E-01  0.25907881137E-03  0.72684011117E-02  0.36941711111E-01  0.51100000000E-03 0. -1.
         11    1    4    4    0    0 -0.92691289962E-01 -0.20502033003E-01 -0.44463315649E-02  0.95037043186E-01  0.51100000000E-03 0.  1.
</event>
<event>
 8    1  0.1094134E+005  0.1043930E+01  0.7957747E-01            NaN
         13   -1    0    0    0    0  0.00000000000E+00  0.00000000000E+00  0.74505805969E-08  0.10566000000E+00  0.10566000000E+00 0.  1.
     999900   -1    0    0    0    0 -0.00000000000E+00 -0.00000000000E+00 -0.74505805969E-08  0.93827000000E+00  0.93827000000E+00 0.  1.
     999902    2    1    2    0    0  0.12503646028E-01 -0.20003803127E-01  0.48287372123E-02  0.10198507557E+01  0.10195664539E+01 0.  0.
     999903    2    3    3    0    0  0.93285052178E-01 -0.83511780522E-01 -0.38048294517E-01  0.13283478141E+00  0.22827351824E-01 0.  0.
         14    1    1    2    0    0 -0.12503646028E-01  0.20003803127E-01 -0.48287372123E-02  0.24079244311E-01  0.00000000000E+00 0. -1.
     999901    1    3    3    0    0 -0.80781406150E-01  0.63507977395E-01  0.42877031730E-01  0.88701597428E+00  0.88000000000E+00 0. -1.
        -11    1    4    4    0    0  0.33107666048E-01 -0.29116496940E-01 -0.22010602466E-02  0.44147409124E-01  0.51100000000E-03 0.  1.
         11    1    4    4    0    0  0.60177386130E-01 -0.54395283582E-01 -0.35847234271E-01  0.88687372288E-01  0.51100000000E-03 0. -1.
</event>
<event>
 8    1  0.1094134E+005  0.1043930E+01  0.7957747E-01            NaN
         13   -1    0    0    0    0  0.00000000000E+00  0.00000000000E+00  0.74505805969E-08  0.10566000000E+00  0.10566000000E+00 0.  1.
     999900   -1    0    0    0    0 -0.00000000000E+00 -0.00000000000E+00 -0.74505805969E-08  0.93827000000E+00  0.93827000000E+00 0.  1.
     999902    2    1    2    0    0 -0.25941980896E-02  0.11596175191E-01 -0.20833055060E-01  0.10199463113E+01  0.10196642881E+01 0.  0.
     999903    2    3    3    0    0  0.66816941787E-01 -0.85078431008E-02 -0.11187177806E+00  0.13230329349E+00  0.21259812762E-01 0.  0.
         14    1    1    2    0    0  0.25941980896E-02 -0.11596175191E-01  0.20833055060E-01  0.23983688747E-01  0.00000000000E+00 0.  1.
     999901    1    3    3    0    0 -0.69411139877E-01  0.20104018292E-01  0.91038723001E-01  0.88764301776E+00  0.88000000000E+00 0. -1.
        -11    1    4    4    0    0  0.35251981418E-01 -0.14591654578E-01 -0.66995193555E-01  0.77098869367E-01  0.51100000000E-03 0. -1.
         11    1    4    4    0    0  0.31564960370E-01  0.60838114772E-02 -0.44876584507E-01  0.55204424127E-01  0.51100000000E-03 0.  1.
</event>
<event>
 8    1  0.1094134E+005  0.1043930E+01  0.7957747E-01            NaN
         13   -1    0    0    0    0  0.00000000000E+00  0.00000000000E+00  0.74505805969E-08  0.10566000000E+00  0.10566000000E+00 0.  1.
     999900   -1    0    0    0    0 -0.00000000000E+00 -0.00000000000E+00 -0.74505805969E-08  0.93827000000E+00  0.93827000000E+00 0.  1.
     999902    2    1    2    0    0  0.15110480968E-01  0.17437022227E-01  0.59836951680E-02  0.10200934527E+01  0.10198149201E+01 0.  0.
     999903    2    3    3    0    0  0.42162073112E-01 -0.10482403601E+00  0.59691507749E-01  0.12960814450E+00  0.21667396904E-01 0.  0.
         14    1    1    2    0    0 -0.15110480968E-01 -0.17437022227E-01 -0.59836951680E-02  0.23836547298E-01  0.00000000000E+00 0. -1.
     999901    1    3    3    0    0 -0.27051592145E-01  0.12226105823E+00 -0.53707812581E-01  0.89048530821E+00  0.88000000000E+00 0.  1.
        -11    1    4    4    0    0  0.27297541291E-01 -0.78427061685E-01  0.53196815432E-01  0.98621103513E-01  0.51100000000E-03 0. -1.
         11    1    4    4    0    0  0.14864531821E-01 -0.26396974321E-01  0.64946923173E-02  0.30987040983E-01  0.51100000000E-03 0.  1.
</event>
<event>
 8    1  0.1094134E+005  0.1043930E+01  0.7957747E-01            NaN
         13   -1    0    0    0    0  0.00000000000E+00  0.00000000000E+00  0.74505805969E-08  0.10566000000E+00  0.10566000000E+00 0.  1.
     999900   -1    0    0    0    0 -0.00000000000E+00 -0.00000000000E+00 -0.74505805969E-08  0.93827000000E+00  0.93827000000E+00 0. -1.
     999902    2    1    2    0    0  0.17744663604E-01 -0.15190081996E-01  0.32323374399E-02  0.10203490822E+01  0.10200765608E+01 0.  0.
     999903    2    3    3    0    0 -0.40742228391E-01  0.19145325618E-01  0.12033672886E+00  0.13000472456E+00  0.19845085720E-01 0.  0.
         14    1    1    2    0    0 -0.17744663604E-01  0.15190081996E-01 -0.32323374399E-02  0.23580917768E-01  0.00000000000E+00 0.  1.
     999901    1    3    3    0    0  0.58486891995E-01 -0.34335407614E-01 -0.11710439142E+00  0.89034435767E+00  0.88000000000E+00 0. -1.
        -11    1    4    4    0    0 -0.57831299749E-02  0.22976374792E-02  0.43260748573E-01  0.43709006148E-01  0.51100000000E-03 0. -1.
         11    1    4    4    0    0 -0.34959098416E-01  0.16847688139E-01  0.77075980288E-01  0.86295718411E-01  0.51100000000E-03 0.  1.
</event>
<event>
 8    1  0.1094134E+005  0.1043930E+01  0.7957747E-01            NaN
         13   -1    0    0    0    0  0.00000000000E+00  0.00000000000E+00  0.74505805969E-08  0.10566000000E+00  0.10566000000E+00 0.  1.
     999900   -1    0    0    0    0 -0.00000000000E+00 -0.00000000000E+00 -0.74505805969E-08  0.93827000000E+00  0.93827000000E+00 0. -1.
     999902    2    1    2    0    0 -0.54909448135E-02 -0.21880699166E-01  0.74128616257E-02  0.10201841374E+01  0.10199077450E+01 0.  0.
     999903    2    3    3    0    0 -0.42532818620E-01  0.10996827041E+00 -0.44434815457E-01  0.12808300371E+00  0.22994387532E-01 0.  0.
         14    1    1    2    0    0  0.54909448135E-02  0.21880699166E-01 -0.74128616257E-02  0.23745862553E-01  0.00000000000E+00 0. -1.
     999901    1    3    3    0    0  0.37041873807E-01 -0.13184896958E+00  0.51847677083E-01  0.89210113374E+00  0.88000000000E+00 0.  1.
        -11    1    4    4    0    0 -0.15767425582E-01  0.35856574426E-01 -0.26423948669E-01  0.47252426639E-01  0.51100000000E-03 0. -1.
         11    1    4    4    0    0 -0.26765393038E-01  0.74111695985E-01 -0.18010866788E-01  0.80830577072E-01  0.51100000000E-03 0.  1.
</event>
<event>
 7    1  0.1134210E+005  0.1043930E+01  0.7957747E-01            NaN
         13   -1    0    0    0    0  0.00000000000E+00  0.00000000000E+00  0.74505805969E-08  0.10566000000E+00  0.10566000000E+00 0.  1.
     999900   -1    0    0    0    0 -0.00000000000E+00 -0.00000000000E+00 -0.74505805969E-08  0.93827000000E+00  0.93827000000E+00 0.  1.
     999903    2    1    2    0    0  0.38399109487E-01 -0.62536581330E-01 -0.40881729701E-01  0.84449521292E-01  0.86654607087E-02 0.  0.
         14    1    1    2    0    0 -0.31728085140E-01  0.70240021031E-01 -0.11193418810E-01  0.77882119679E-01  0.00000000000E+00 0. -1.
     999901    1    1    2    0    0 -0.66710243467E-02 -0.77034397013E-02  0.52075148511E-01  0.88159835903E+00  0.88000000000E+00 0. -1.
        -11    1    3    3    0    0  0.33981405928E-01 -0.48966562087E-01 -0.32436611886E-01  0.67859082392E-01  0.51100000000E-03 0. -1.
         11    1    3    3    0    0  0.44177035594E-02 -0.13570019242E-01 -0.84451178156E-02  0.16590438900E-01  0.51100000000E-03 0.  1.
</event>
<event>
 7    1  0.1094134E+005  0.1043930E+01  0.7957747E-01            NaN
         13   -1    0    0    0    0  0.00000000000E+00  0.00000000000E+00  0.74505805969E-08  0.10566000000E+00  0.10566000000E+00 0.  1.
     999900   -1    0    0    0    0 -0.00000000000E+00 -0.00000000000E+00 -0.74505805969E-08  0.93827000000E+00  0.93827000000E+00 0.  1.
     999903    2    1    2    0    0 -0.42633647093E-01 -0.95237399494E-01 -0.37490560092E-01  0.11257261226E+00  0.19474619574E-01 0.  0.
         14    1    1    2    0    0 -0.32881631313E-01 -0.15414826224E-01 -0.15846591166E-01  0.39622380000E-01  0.00000000000E+00 0.  1.
     999901    1    1    2    0    0  0.75515278406E-01  0.11065222572E+00  0.53337151258E-01  0.89173500774E+00  0.88000000000E+00 0.  1.
        -11    1    3    3    0    0 -0.11203805245E-01 -0.16064676588E-01 -0.14396785740E-01  0.24313116759E-01  0.51100000000E-03 0.  1.
         11    1    3    3    0    0 -0.31429841848E-01 -0.79172722906E-01 -0.23093774352E-01  0.88259495499E-01  0.51100000000E-03 0. -1.
</event>
<event>
 8    1  0.1094134E+005  0.1043930E+01  0.7957747E-01            NaN
         13   -1    0    0    0    0  0.00000000000E+00  0.00000000000E+00  0.74505805969E-08  0.10566000000E+00  0.10566000000E+00 0.  1.
     999900   -1    0    0    0    0 -0.00000000000E+00 -0.00000000000E+00 -0.74505805969E-08  0.93827000000E+00  0.93827000000E+00 0.  1.
     999902    2    1    2    0    0 -0.15810601989E-01  0.51668999236E-03  0.16342543679E-01  0.10211853119E+01  0.10209319862E+01 0.  0.
     999903    2    3    3    0    0 -0.42988256341E-01  0.57748721897E-01  0.11120586583E+00  0.13382226314E+00  0.18940656137E-01 0.  0.
         14    1    1    2    0    0  0.15810601989E-01 -0.51668999236E-03 -0.16342543679E-01  0.22744688121E-01  0.00000000000E+00 0.  1.
     999901    1    3    3    0    0  0.27177654352E-01 -0.57232031905E-01 -0.94863322147E-01  0.88736304874E+00  0.88000000000E+00 0.  1.
        -11    1    4    4    0    0 -0.17949361521E-01  0.27721126251E-01  0.67702464863E-01  0.75329445035E-01  0.51100000000E-03 0.  1.
         11    1    4    4    0    0 -0.25038894819E-01  0.30027595646E-01  0.43503400963E-01  0.58492818110E-01  0.51100000000E-03 0. -1.
</event>
<event>
 8    1  0.1094134E+005  0.1043930E+01  0.7957747E-01            NaN
         13   -1    0    0    0    0  0.00000000000E+00  0.00000000000E+00  0.74505805969E-08  0.10566000000E+00  0.10566000000E+00 0. -1.
     999900   -1    0    0    0    0 -0.00000000000E+00 -0.00000000000E+00 -0.74505805969E-08  0.93827000000E+00  0.93827000000E+00 0.  1.
     999902    2    1    2    0    0 -0.10830201213E-01  0.86639575083E-02 -0.18837128841E-01  0.10205378038E+01  0.10202696772E+01 0.  0.
     999903    2    3    3    0    0  0.78523428628E-01 -0.67792565003E-01  0.72317547392E-01  0.12804755404E+00  0.20114366035E-01 0.  0.
         14    1    1    2    0    0  0.10830201213E-01 -0.86639575083E-02  0.18837128841E-01  0.23392196156E-01  0.00000000000E+00 0. -1.
     999901    1    3    3    0    0 -0.89353629841E-01  0.76456522512E-01 -0.91154676234E-01  0.89249024981E+00  0.88000000000E+00 0.  1.
        -11    1    4    4    0    0  0.73113459618E-01 -0.60434116599E-01  0.71646897548E-01  0.11887556299E+00  0.51100000000E-03 0. -1.
         11    1    4    4    0    0  0.54099690099E-02 -0.73584484039E-02  0.67064984425E-03  0.91719910497E-02  0.51100000000E-03 0.  1.
</event>
<event>
 8    1  0.1094134E+005  0.1043930E+01  0.7957747E-01            NaN
         13   -1    0    0    0    0  0.00000000000E+00  0.00000000000E+00  0.74505805969E-08  0.10566000000E+00  0.10566000000E+00 0.  1.
     999900   -1    0    0    0    0 -0.00000000000E+00 -0.00000000000E+00 -0.74505805969E-08  0.93827000000E+00  0.93827000000E+00 0. -1.
     999902    2    1    2    0    0 -0.30864764591E-02 -0.99871037664E-02 -0.21105281313E-01  0.10203778987E+01  0.10201060507E+01 0.  0.
     999903    2    3    3    0    0 -0.69416605728E-01 -0.66889985948E-01 -0.90368823180E-01  0.13334066027E+00  0.17896147817E-01 0.  0.
         14    1    1    2    0    0  0.30864764591E-02  0.99871037664E-02  0.21105281313E-01  0.23552101348E-01  0.00000000000E+00 0.  1.
     999901    1    3    3    0    0  0.66330129269E-01  0.56902882182E-01  0.69263541867E-01  0.88703723838E+00  0.88000000000E+00 0. -1.
        -11    1    4    4    0    0 -0.40082898594E-01 -0.37994094923E-01 -0.63559605254E-01  0.84203768026E-01  0.51100000000E-03 0. -1.
         11    1    4    4    0    0 -0.29333707134E-01 -0.28895891025E-01 -0.26809217926E-01  0.49136892241E-01  0.51100000000E-03 0.  1.
</event>
<event>
 8    1  0.1094134E+005  0.1043930E+01  0.7957747E-01            NaN
         13   -1    0    0    0    0  0.00000000000E+00  0.00000000000E+00  0.74505805969E-08  0.10566000000E+00  0.10566000000E+00 0. -1.
     999900   -1    0    0    0    0 -0.00000000000E+00 -0.00000000000E+00 -0.74505805969E-08  0.93827000000E+00  0.93827000000E+00 0.  1.
     999902    2    1    2    0    0 -0.11880833573E-01  0.88907460129E-02 -0.18414372544E-01  0.10202807149E+01  0.10200065924E+01 0.  0.
     999903    2    3    3    0    0 -0.11971376554E+00 -0.51446504098E-01 -0.18481851495E-02  0.13149335924E+00  0.17577237878E-01 0.  0.
         14    1    1    2    0    0  0.11880833573E-01 -0.88907460129E-02  0.18414372544E-01  0.23649285132E-01  0.00000000000E+00 0. -1.
     999901    1    3    3    0    0  0.10783293197E+00  0.60337250111E-01 -0.16566187394E-01  0.88878735563E+00  0.88000000000E+00 0.  1.
        -11    1    4    4    0    0 -0.68954025821E-01 -0.24175472305E-01 -0.81578333668E-02  0.73524978778E-01  0.51100000000E-03 0.  1.
         11    1    4    4    0    0 -0.50759739718E-01 -0.27271031793E-01  0.63096482172E-02  0.57968380458E-01  0.51100000000E-03 0. -1.
</event>
<event>
 8    1  0.1094134E+005  0.1043930E+01  0.7957747E-01            NaN
         13   -1    0    0    0    0  0.00000000000E+00  0.00000000000E+00  0.74505805969E-08  0.10566000000E+00  0.10566000000E+00 0. -1.
     999900   -1    0    0    0    0 -0.00000000000E+00 -0.00000000000E+00 -0.74505805969E-08  0.93827000000E+00  0.93827000000E+00 0. -1.
     999902    2    1    2    0    0  0.20009586548E-01 -0.84239191235E-02  0.10982830943E-01  0.10195995963E+01  0.10193092604E+01 0.  0.
     999903    2    3    3    0    0 -0.21578141954E-01 -0.77803069305E-01  0.10117805935E+00  0.13129886748E+00  0.21987703493E-01 0.  0.
         14    1    1    2    0    0 -0.20009586548E-01  0.84239191235E-02 -0.10982830943E-01  0.24330403670E-01  0.00000000000E+00 0.  1.
     999901    1    3    3    0    0  0.41587728502E-01  0.69379150181E-01 -0.90195228409E-01  0.88830072885E+00  0.88000000000E+00 0. -1.
        -11    1    4    4    0    0 -0.89162122477E-02 -0.17750975158E-01  0.39878975513E-01  0.44555468451E-01  0.51100000000E-03 0.  1.
         11    1    4    4    0    0 -0.12661929706E-01 -0.60052094147E-01  0.61299083838E-01  0.86743399033E-01  0.51100000000E-03 0. -1.
</event>
<event>
 8    1  0.1094134E+005  0.1043930E+01  0.7957747E-01            NaN
         13   -1    0    0    0    0  0.00000000000E+00  0.00000000000E+00  0.74505805969E-08  0.10566000000E+00  0.10566000000E+00 0. -1.
     999900   -1    0    0    0    0 -0.00000000000E+00 -0.00000000000E+00 -0.74505805969E-08  0.93827000000E+00  0.93827000000E+00 0. -1.
     999902    2    1    2    0    0 -0.12139533932E-01  0.93212804571E-02  0.17381813106E-01  0.10207700781E+01  0.10205073103E+01 0.  0.
     999903    2    3    3    0    0  0.62818406465E-02 -0.99238542674E-01  0.83704054527E-01  0.13143143514E+00  0.19496243847E-01 0.  0.
         14    1    1    2    0    0  0.12139533932E-01 -0.93212804571E-02 -0.17381813106E-01  0.23159921855E-01  0.00000000000E+00 0.  1.
     999901    1    3    3    0    0 -0.18421374579E-01  0.10855982313E+00 -0.66322241421E-01  0.88933864301E+00  0.88000000000E+00 0. -1.
        -11    1    4    4    0    0  0.87578559724E-02 -0.39691610020E-01  0.43509657304E-01  0.59543894287E-01  0.51100000000E-03 0.  1.
         11    1    4    4    0    0 -0.24760153259E-02 -0.59546932654E-01  0.40194397224E-01  0.71887540851E-01  0.51100000000E-03 0. -1.
</event>
<event>
 8    1  0.1094134E+005  0.1043930E+01  0.7957747E-01            NaN
         13   -1    0    0    0    0  0.00000000000E+00  0.00000000000E+00  0.74505805969E-08  0.10566000000E+00  0.10566000000E+00 0.  1.
     999900   -1    0    0    0    0 -0.00000000000E+00 -0.00000000000E+00 -0.74505805969E-08  0.93827000000E+00  0.93827000000E+00 0.  1.
     999902    2    1    2    0    0 -0.22439486534E-01  0.88607779453E-02  0.31951198013E-02  0.10195937568E+01  0.10193032798E+01 0.  0.
     999903    2    3    3    0    0  0.20413002642E-01  0.18397913294E-01  0.12536080711E+00  0.13007043057E+00  0.21161546706E-01 0.  0.
         14    1    1    2    0    0  0.22439486534E-01 -0.88607779453E-02 -0.31951198013E-02  0.24336243183E-01  0.00000000000E+00 0. -1.
     999901    1    3    3    0    0 -0.42852489176E-01 -0.95371353485E-02 -0.12216568731E+00  0.88952332625E+00  0.88000000000E+00 0.  1.
        -11    1    4    4    0    0  0.20652553365E-01  0.80767936913E-02  0.10401179345E+00  0.10635072569E+00  0.51100000000E-03 0.  1.
         11    1    4    4    0    0 -0.23955072300E-03  0.10321119603E-01  0.21349013658E-01  0.23719704880E-01  0.51100000000E-03 0. -1.
</event>
<event>
 8    1  0.1094134E+005  0.1043930E+01  0.7957747E-01            NaN
         13   -1    0    0    0    0  0.00000000000E+00  0.00000000000E+00  0.74505805969E-08  0.10566000000E+00  0.10566000000E+00 0. -1.
     999900   -1    0    0    0    0 -0.00000000000E+00 -0.00000000000E+00 -0.74505805969E-08  0.93827000000E+00  0.93827000000E+00 0. -1.
     999902    2    1    2    0    0  0.83792777587E-02 -0.18426356962E-01  0.10976203851E-01  0.10209034940E+01  0.10206437793E+01 0.  0.
     999903    2    3    3    0    0  0.19354748482E-01  0.44103506127E-01  0.12103076394E+00  0.13177895216E+00  0.19937925492E-01 0.  0.
         14    1    1    2    0    0 -0.83792777587E-02  0.18426356962E-01 -0.10976203851E-01  0.23026505980E-01  0.00000000000E+00 0.  1.
     999901    1    3    3    0    0 -0.10975470724E-01 -0.62529863090E-01 -0.11005456008E+00  0.88912454186E+00  0.88000000000E+00 0. -1.
        -11    1    4    4    0    0  0.20450688483E-01  0.22848096935E-01  0.66146027237E-01  0.72909699171E-01  0.51100000000E-03 0.  1.
         11    1    4    4    0    0 -0.10959400003E-02  0.21255409192E-01  0.54884736699E-01  0.58869252993E-01  0.51100000000E-03 0. -1.
</event>
<event>
 8    1  0.1094134E+005  0.1043930E+01  0.7957747E-01            NaN
         13   -1    0    0    0    0  0.00000000000E+00  0.00000000000E+00  0.74505805969E-08  0.10566000000E+00  0.10566000000E+00 0. -1.
     999900   -1    0    0    0    0 -0.00000000000E+00 -0.00000000000E+00 -0.74505805969E-08  0.93827000000E+00  0.93827000000E+00 0. -1.
     999902    2    1    2    0    0  0.49903466935E-02  0.14055363390E-01 -0.17432749504E-01  0.10209875164E+01  0.10207297150E+01 0.  0.
     999903    2    3    3    0    0  0.45135215741E-01  0.83560622670E-01  0.88148325921E-01  0.13104934151E+00  0.19601968929E-01 0.  0.
         14    1    1    2    0    0 -0.49903466935E-02 -0.14055363390E-01  0.17432749504E-01  0.22942483637E-01  0.00000000000E+00 0. -1.
     999901    1    3    3    0    0 -0.40144869048E-01 -0.69505259280E-01 -0.10558107542E+00  0.88993817486E+00  0.88000000000E+00 0. -1.
        -11    1    4    4    0    0  0.12605338566E-01  0.42195679433E-01  0.45363859024E-01  0.63225870889E-01  0.51100000000E-03 0.  1.
         11    1    4    4    0    0  0.32529877175E-01  0.41364943237E-01  0.42784466897E-01  0.67823470618E-01  0.51100000000E-03 0. -1.
</event>
<event>
 8    1  0.1094134E+005  0.1043930E+01  0.7957747E-01            NaN
         13   -1    0    0    0    0  0.00000000000E+00  0.00000000000E+00  0.74505805969E-08  0.10566000000E+00  0.10566000000E+00 0.  1.
     999900   -1    0    0    0    0 -0.00000000000E+00 -0.00000000000E+00 -0.74505805969E-08  0.93827000000E+00  0.93827000000E+00 0.  1.
     999902    2    1    2    0    0  0.23087579543E-01 -0.24911249638E-02  0.49635772369E-02  0.10201838607E+01  0.10199074617E+01 0.  0.
     999903    2    3    3    0    0  0.11801768768E+00 -0.48096145956E-02  0.58997497771E-01  0.13342754389E+00  0.19258705242E-01 0.  0.
         14    1    1    2    0    0 -0.23087579543E-01  0.24911249638E-02 -0.49635772369E-02  0.23746139301E-01  0.00000000000E+00 0. -1.
     999901    1    3    3    0    0 -0.94930108140E-01  0.23184896317E-02 -0.54033920534E-01  0.88675631681E+00  0.88000000000E+00 0. -1.
        -11    1    4    4    0    0  0.11129901336E-01 -0.43673819809E-02  0.11004776361E-01  0.16257765925E-01  0.51100000000E-03 0. -1.
         11    1    4    4    0    0  0.10688778635E+00 -0.44223261471E-03  0.47992721410E-01  0.11716977797E+00  0.51100000000E-03 0.  1.
</event>
<event>
 8    1  0.1094134E+005  0.1043930E+01  0.7957747E-01            NaN
         13   -1    0    0    0    0  0.00000000000E+00  0.00000000000E+00  0.74505805969E-08  0.10566000000E+00  0.10566000000E+00 0. -1.
     999900   -1    0    0    0    0 -0.00000000000E+00 -0.00000000000E+00 -0.74505805969E-08  0.93827000000E+00  0.93827000000E+00 0.  1.
     999902    2    1    2    0    0  0.74473946908E-02 -0.21323120374E-01  0.73207814229E-02  0.10201869380E+01  0.10199106116E+01 0.  0.
     999903    2    3    3    0    0  0.98174493045E-01  0.23017801316E-02  0.84754503717E-01  0.13182579322E+00  0.23477320554E-01 0.  0.
         14    1    1    2    0    0 -0.74473946908E-02  0.21323120374E-01 -0.73207814229E-02  0.23743061951E-01  0.00000000000E+00 0.  1.
     999901    1    3    3    0    0 -0.90727098354E-01 -0.23624900506E-01 -0.77433722294E-01  0.88836114483E+00  0.88000000000E+00 0.  1.
        -11    1    4    4    0    0  0.60306049486E-01 -0.52418583457E-02  0.39258855194E-01  0.72151337587E-01  0.51100000000E-03 0.  1.
         11    1    4    4    0    0  0.37868443559E-01  0.75436384773E-02  0.45495648524E-01  0.59674455629E-01  0.51100000000E-03 0. -1.
</event>
<event>
 8    1  0.1094134E+005  0.1043930E+01  0.7957747E-01            NaN
         13   -1    0    0    0    0  0.00000000000E+00  0.00000000000E+00  0.74505805969E-08  0.10566000000E+00  0.10566000000E+00 0.  1.
     999900   -1    0    0    0    0 -0.00000000000E+00 -0.00000000000E+00 -0.74505805969E-08  0.93827000000E+00  0.93827000000E+00 0.  1.
     999902    2    1    2    0    0  0.23317859276E-01  0.68298161314E-04  0.38817420201E-02  0.10202911517E+01  0.10200172740E+01 0.  0.
     999903    2    3    3    0    0 -0.45336296531E-01  0.11955349666E+00 -0.53029844884E-02  0.12951931509E+00  0.19967798839E-01 0.  0.
         14    1    1    2    0    0 -0.23317859276E-01 -0.68298161314E-04 -0.38817420201E-02  0.23638848258E-01  0.00000000000E+00 0.  1.
     999901    1    3    3    0    0  0.68654155807E-01 -0.11948519850E+00  0.91847265085E-02  0.89077183665E+00  0.88000000000E+00 0.  1.
        -11    1    4    4    0    0 -0.29572618361E-01  0.85927273751E-01  0.48839354983E-02  0.91006318890E-01  0.51100000000E-03 0.  1.
         11    1    4    4    0    0 -0.15763678170E-01  0.33626222909E-01 -0.10186919987E-01  0.38512996201E-01  0.51100000000E-03 0. -1.
</event>
<event>
 7    1  0.1094134E+005  0.1043930E+01  0.7957747E-01            NaN
         13   -1    0    0    0    0  0.00000000000E+00  0.00000000000E+00  0.74505805969E-08  0.10566000000E+00  0.10566000000E+00 0.  1.
     999900   -1    0    0    0    0 -0.00000000000E+00 -0.00000000000E+00 -0.74505805969E-08  0.93827000000E+00  0.93827000000E+00 0.  1.
     999903    2    1    2    0    0 -0.27764844851E-01 -0.87205527841E-01  0.22671130252E-01  0.96484973454E-01  0.20486074783E-01 0.  0.
         14    1    1    2    0    0  0.39845916377E-01  0.17006514886E-01  0.44385314438E-01  0.62023985185E-01  0.00000000000E+00 0. -1.
     999901    1    1    2    0    0 -0.12081071526E-01  0.70199012955E-01 -0.67056444690E-01  0.88542104136E+00  0.88000000000E+00 0.  1.
        -11    1    3    3    0    0  0.26003695005E-02 -0.56584203860E-02 -0.94345761639E-03  0.63190882316E-02  0.51100000000E-03 0. -1.
         11    1    3    3    0    0 -0.30365214352E-01 -0.81547107455E-01  0.23614587869E-01  0.90165885223E-01  0.51100000000E-03 0.  1.
</event>
<event>
 7    1  0.1094134E+005  0.1043930E+01  0.7957747E-01            NaN
         13   -1    0    0    0    0  0.00000000000E+00  0.00000000000E+00  0.74505805969E-08  0.10566000000E+00  0.10566000000E+00 0.  1.
     999900   -1    0    0    0    0 -0.00000000000E+00 -0.00000000000E+00 -0.74505805969E-08  0.93827000000E+00  0.93827000000E+00 0. -1.
     999903    2    1    2    0    0 -0.27767991120E-01  0.61901442105E-01  0.28742012310E-01  0.76344038116E-01  0.19986470892E-01 0.  0.
         14    1    1    2    0    0  0.74476375915E-01 -0.39423399802E-01 -0.17095585413E-01  0.85983684859E-01  0.00000000000E+00 0.  1.
     999901    1    1    2    0    0 -0.46708384795E-01 -0.22478042303E-01 -0.11646426897E-01  0.88160227702E+00  0.88000000000E+00 0. -1.
        -11    1    3    3    0    0 -0.19585233689E-01  0.49083505138E-01  0.30513634986E-01  0.61025526596E-01  0.51100000000E-03 0.  1.
         11    1    3    3    0    0 -0.81827574308E-02  0.12817936967E-01 -0.17716226767E-02  0.15318511520E-01  0.51100000000E-03 0. -1.
</event>
<event>
 8    1  0.1094134E+005  0.1043930E+01  0.7957747E-01            NaN
         13   -1    0    0    0    0  0.00000000000E+00  0.00000000000E+00  0.74505805969E-08  0.10566000000E+00  0.10566000000E+00 0.  1.
     999900   -1    0    0    0    0 -0.00000000000E+00 -0.00000000000E+00 -0.74505805969E-08  0.93827000000E+00  0.93827000000E+00 0. -1.
     999902    2    1    2    0    0 -0.60253900356E-02  0.16102157903E-01  0.15996826272E-01  0.10204463192E+01  0.10201760667E+01 0.  0.
     999903    2    3    3    0    0  0.85789428587E-01  0.26572928053E-01  0.95558256180E-01  0.13203784383E+00  0.15383930432E-01 0.  0.
         14    1    1    2    0    0  0.60253900356E-02 -0.16102157903E-01 -0.15996826272E-01  0.23483680823E-01  0.00000000000E+00 0. -1.
     999901    1    3    3    0    0 -0.91814818623E-01 -0.10470770151E-01 -0.79561429907E-01  0.88840847535E+00  0.88000000000E+00 0. -1.
        -11    1    4    4    0    0  0.46147164521E-01  0.73556744495E-02  0.54775524496E-01  0.72001985700E-01  0.51100000000E-03 0. -1.
         11    1    4    4    0    0  0.39642264066E-01  0.19217253604E-01  0.40782731684E-01  0.60035858126E-01  0.51100000000E-03 0.  1.
</event>
<event>
 8    1  0.1094134E+005  0.1043930E+01  0.7957747E-01            NaN
         13   -1    0    0    0    0  0.00000000000E+00  0.00000000000E+00  0.74505805969E-08  0.10566000000E+00  0.10566000000E+00 0. -1.
     999900   -1    0    0    0    0 -0.00000000000E+00 -0.00000000000E+00 -0.74505805969E-08  0.93827000000E+00  0.93827000000E+00 0.  1.
     999902    2    1    2    0    0 -0.15488523315E-02 -0.20285807692E-01  0.11039937008E-01  0.10207827940E+01  0.10205203179E+01 0.  0.
     999903    2    3    3    0    0 -0.53005922970E-03  0.62054595410E-01 -0.11076574461E+00  0.12858460748E+00  0.20344466732E-01 0.  0.
         14    1    1    2    0    0  0.15488523315E-02  0.20285807692E-01 -0.11039937008E-01  0.23147206017E-01  0.00000000000E+00 0.  1.
     999901    1    3    3    0    0 -0.10187931018E-02 -0.82340403102E-01  0.12180568162E+00  0.89219818650E+00  0.88000000000E+00 0. -1.
        -11    1    4    4    0    0 -0.62678506807E-02  0.37125239065E-01 -0.49525000135E-01  0.62213793383E-01  0.51100000000E-03 0. -1.
         11    1    4    4    0    0  0.57377914510E-02  0.24929356345E-01 -0.61240744479E-01  0.66370814097E-01  0.51100000000E-03 0.  1.
</event>
<event>
 8    1  0.1094134E+005  0.1043930E+01  0.7957747E-01            NaN
         13   -1    0    0    0    0  0.00000000000E+00  0.00000000000E+00  0.74505805969E-08  0.10566000000E+00  0.10566000000E+00 0. -1.
     999900   -1    0    0    0    0 -0.00000000000E+00 -0.00000000000E+00 -0.74505805969E-08  0.93827000000E+00  0.93827000000E+00 0.  1.
     999902    2    1    2    0    0  0.22747560782E-02  0.21755232642E-02 -0.23013297898E-01  0.10207024453E+01  0.10204381229E+01 0.  0.
     999903    2    3    3    0    0 -0.14262088455E-01 -0.12620357101E+00 -0.26089996201E-01  0.13122837309E+00  0.20234858577E-01 0.  0.
         14    1    1    2    0    0 -0.22747560782E-02 -0.21755232642E-02  0.23013297898E-01  0.23227554689E-01  0.00000000000E+00 0. -1.
     999901    1    3    3    0    0  0.16536844533E-01  0.12837909427E+00  0.30766983036E-02  0.88947407222E+00  0.88000000000E+00 0.  1.
        -11    1    4    4    0    0  0.48323898512E-02 -0.35785517359E-01 -0.94327927181E-02  0.37325513309E-01  0.51100000000E-03 0. -1.
         11    1    4    4    0    0 -0.19094478306E-01 -0.90418053647E-01 -0.16657203483E-01  0.93902859786E-01  0.51100000000E-03 0.  1.
</event>
<event>
 8    1  0.1094134E+005  0.1043930E+01  0.7957747E-01            NaN
         13   -1    0    0    0    0  0.00000000000E+00  0.00000000000E+00  0.74505805969E-08  0.10566000000E+00  0.10566000000E+00 0. -1.
     999900   -1    0    0    0    0 -0.00000000000E+00 -0.00000000000E+00 -0.74505805969E-08  0.93827000000E+00  0.93827000000E+00 0.  1.
     999902    2    1    2    0    0  0.18673163922E-01 -0.61644783553E-02  0.12863853867E-01  0.10204317749E+01  0.10201611837E+01 0.  0.
     999903    2    3    3    0    0  0.68734105821E-01 -0.94197167110E-01  0.61516895937E-01  0.13328862376E+00  0.19597069788E-01 0.  0.
         14    1    1    2    0    0 -0.18673163922E-01  0.61644783553E-02 -0.12863853867E-01  0.23498225051E-01  0.00000000000E+00 0.  1.
     999901    1    3    3    0    0 -0.50060941899E-01  0.88032688755E-01 -0.48653042070E-01  0.88714315119E+00  0.88000000000E+00 0.  1.
        -11    1    4    4    0    0  0.26390579230E-01 -0.21248914841E-01  0.18386212139E-01  0.38552470373E-01  0.51100000000E-03 0. -1.
         11    1    4    4    0    0  0.42343526591E-01 -0.72948252269E-01  0.43130683798E-01  0.94736153390E-01  0.51100000000E-03 0.  1.
</event>
<event>
 8    1  0.1094134E+005  0.1043930E+01  0.7957747E-01            NaN
         13   -1    0    0    0    0  0.00000000000E+00  0.00000000000E+00  0.74505805969E-08  0.10566000000E+00  0.10566000000E+00 0. -1.
     999900   -1    0    0    0    0 -0.00000000000E+00 -0.00000000000E+00 -0.74505805969E-08  0.93827000000E+00  0.93827000000E+00 0. -1.
     999902    2    1    2    0    0 -0.15086724972E-01 -0.49622200284E-02  0.16899930361E-01  0.10207386106E+01  0.10204751200E+01 0.  0.
     999903    2    3    3    0    0 -0.12888314524E+00 -0.24383028663E-01  0.91539642706E-02  0.13316506822E+00  0.21065211073E-01 0.  0.
         14    1    1    2    0    0  0.15086724972E-01  0.49622200284E-02 -0.16899930361E-01  0.23191389441E-01  0.00000000000E+00 0.  1.
     999901    1    3    3    0    0  0.11379642027E+00  0.19420808635E-01  0.77459660906E-02  0.88757354234E+00  0.88000000000E+00 0.  1.
        -11    1    4    4    0    0 -0.42626126436E-02  0.26233852462E-02 -0.13782877430E-02  0.52165903426E-02  0.51100000000E-03 0. -1.
         11    1    4    4    0    0 -0.12462053260E+00 -0.27006413909E-01  0.10532252014E-01  0.12794847787E+00  0.51100000000E-03 0.  1.
</event>
<event>
 8    1  0.1094134E+005  0.1043930E+01  0.7957747E-01            NaN
         13   -1    0    0    0    0  0.00000000000E+00  0.00000000000E+00  0.74505805969E-08  0.10566000000E+00  0.10566000000E+00 0.  1.
     999900   -1    0    0    0    0 -0.00000000000E+00 -0.00000000000E+00 -0.74505805969E-08  0.93827000000E+00  0.93827000000E+00 0.  1.
     999902    2    1    2    0    0 -0.90615062203E-02  0.18485173234E-01 -0.12151913339E-01  0.10200243203E+01  0.10197441505E+01 0.  0.
     999903    2    3    3    0    0 -0.62200944040E-02 -0.12144829200E+00  0.35209537097E-01  0.12770568029E+00  0.16752673537E-01 0.  0.
         14    1    1    2    0    0  0.90615062203E-02 -0.18485173234E-01  0.12151913339E-01  0.23905679707E-01  0.00000000000E+00 0.  1.
     999901    1    3    3    0    0 -0.28414118162E-02  0.13993346524E+00 -0.47361450436E-01  0.89231864001E+00  0.88000000000E+00 0.  1.
        -11    1    4    4    0    0 -0.71096878200E-03 -0.10299033334E+00  0.25384748689E-01  0.10607620292E+00  0.51100000000E-03 0. -1.
         11    1    4    4    0    0 -0.55091256220E-02 -0.18457958657E-01  0.98247884085E-02  0.21629477367E-01  0.51100000000E-03 0.  1.
</event>
<event>
 8    1  0.1094134E+005  0.1043930E+01  0.7957747E-01            NaN
         13   -1    0    0    0    0  0.00000000000E+00  0.00000000000E+00  0.74505805969E-08  0.10566000000E+00  0.10566000000E+00 0.  1.
     999900   -1    0    0    0    0 -0.00000000000E+00 -0.00000000000E+00 -0.74505805969E-08  0.93827000000E+00  0.93827000000E+00 0. -1.
     999902    2    1    2    0    0  0.60715840252E-02  0.19998094510E-01 -0.95332485315E-02  0.10209589150E+01  0.10207004631E+01 0.  0.
     999903    2    3    3    0    0  0.70170593291E-01  0.11126074621E+00 -0.14553374099E-01  0.13390606642E+00  0.20400198931E-01 0.  0.
         14    1    1    2    0    0 -0.60715840252E-02 -0.19998094510E-01  0.95332485315E-02  0.22971084958E-01  0.00000000000E+00 0.  1.
     999901    1    3    3    0    0 -0.64099009265E-01 -0.91262651702E-01  0.50201255677E-02  0.88705284862E+00  0.88000000000E+00 0.  1.
        -11    1    4    4    0    0  0.41990362063E-01  0.68114483926E-01 -0.18791499719E-01  0.82195833285E-01  0.51100000000E-03 0. -1.
         11    1    4    4    0    0  0.28180231227E-01  0.43146262285E-01  0.42381256197E-02  0.51710233136E-01  0.51100000000E-03 0.  1.
</event>
<event>
 8    1  0.1094134E+005  0.1043930E+01  0.7957747E-01            NaN
         13   -1    0    0    0    0  0.00000000000E+00  0.00000000000E+00  0.74505805969E-08  0.10566000000E+00  0.10566000000E+00 0. -1.
     999900   -1    0    0    0    0 -0.00000000000E+00 -0.00000000000E+00 -0.74505805969E-08  0.93827000000E+00  0.93827000000E+00 0.  1.
     999902    2    1    2    0    0 -0.11727781631E-01 -0.25125141182E-01 -0.82848533041E-02  0.10149912306E+01  0.10145786050E+01 0.  0.
     999903    2    3    3    0    0  0.78622777680E-01 -0.50290230123E-02 -0.95849211068E-01  0.12581487333E+00  0.20868129930E-01 0.  0.
         14    1    1    2    0    0  0.11727781631E-01  0.25125141182E-01  0.82848533041E-02  0.28938769422E-01  0.00000000000E+00 0. -1.
     999901    1    3    3    0    0 -0.90350559312E-01 -0.20096118169E-01  0.87564357764E-01  0.88917635725E+00  0.88000000000E+00 0. -1.
        -11    1    4    4    0    0  0.22158176976E-01 -0.63076740083E-02 -0.16186358927E-01  0.28160804225E-01  0.51100000000E-03 0.  1.
         11    1    4    4    0    0  0.56464600704E-01  0.12786509960E-02 -0.79662852140E-01  0.97654069107E-01  0.51100000000E-03 0. -1.
</event>
<event>
 8    1  0.1094134E+005  0.1043930E+01  0.7957747E-01            NaN
         13   -1    0    0    0    0  0.00000000000E+00  0.00000000000E+00  0.74505805969E-08  0.10566000000E+00  0.10566000000E+00 0.  1.
     999900   -1    0    0    0    0 -0.00000000000E+00 -0.00000000000E+00 -0.74505805969E-08  0.93827000000E+00  0.93827000000E+00 0. -1.
     999902    2    1    2    0    0 -0.25169133064E-02  0.36437820355E-02 -0.23003333551E-01  0.10205042587E+01  0.10202353536E+01 0.  0.
     999903    2    3    3    0    0  0.85138529769E-01  0.83127493569E-01  0.47685925359E-01  0.12977528287E+00  0.20221946671E-01 0.  0.
         14    1    1    2    0    0  0.25169133064E-02 -0.36437820355E-02  0.23003333551E-01  0.23425741281E-01  0.00000000000E+00 0.  1.
     999901    1    3    3    0    0 -0.87655443075E-01 -0.79483711534E-01 -0.70689258909E-01  0.89072897585E+00  0.88000000000E+00 0. -1.
        -11    1    4    4    0    0  0.32008568825E-01  0.18301019242E-01  0.14107343065E-01  0.39481059166E-01  0.51100000000E-03 0. -1.
         11    1    4    4    0    0  0.53129960944E-01  0.64826474327E-01  0.33578582294E-01  0.90294223699E-01  0.51100000000E-03 0.  1.
</event>
<event>
 8    1  0.1094134E+005  0.1043930E+01  0.7957747E-01            NaN
         13   -1    0    0    0    0  0.00000000000E+00  0.00000000000E+00  0.74505805969E-08  0.10566000000E+00  0.10566000000E+00 0. -1.
     999900   -1    0    0    0    0 -0.00000000000E+00 -0.00000000000E+00 -0.74505805969E-08  0.93827000000E+00  0.93827000000E+00 0. -1.
     999902    2    1    2    0    0 -0.57707490945E-02  0.76556967401E-02  0.21608053377E-01  0.10202906428E+01  0.10200167531E+01 0.  0.
     999903    2    3    3    0    0 -0.66230240654E-01 -0.91987797659E-01  0.64062774999E-01  0.13159126761E+00  0.19079383496E-01 0.  0.
         14    1    1    2    0    0  0.57707490945E-02 -0.76556967401E-02 -0.21608053377E-01  0.23639357192E-01  0.00000000000E+00 0.  1.
     999901    1    3    3    0    0  0.60459491560E-01  0.99643494399E-01 -0.42454721622E-01  0.88869937520E+00  0.88000000000E+00 0. -1.
        -11    1    4    4    0    0 -0.22278489955E-01 -0.33431508564E-01  0.12638141737E-01  0.42118649398E-01  0.51100000000E-03 0.  1.
         11    1    4    4    0    0 -0.43951750699E-01 -0.58556289095E-01  0.51424633261E-01  0.89472618209E-01  0.51100000000E-03 0. -1.
</event>
<event>
 8    1  0.1094134E+005  0.1043930E+01  0.7957747E-01            NaN
         13   -1    0    0    0    0  0.00000000000E+00  0.00000000000E+00  0.74505805969E-08  0.10566000000E+00  0.10566000000E+00 0. -1.
     999900   -1    0    0    0    0 -0.00000000000E+00 -0.00000000000E+00 -0.74505805969E-08  0.93827000000E+00  0.93827000000E+00 0. -1.
     999902    2    1    2    0    0 -0.84901296836E-02 -0.15296080916E-01 -0.17601539865E-01  0.10191133403E+01  0.10188111374E+01 0.  0.
     999903    2    3    3    0    0 -0.38597303844E-01 -0.10709782099E+00 -0.64510408564E-01  0.13258390289E+00  0.21382314363E-01 0.  0.
         14    1    1    2    0    0  0.84901296836E-02  0.15296080916E-01  0.17601539865E-01  0.24816659707E-01  0.00000000000E+00 0. -1.
     999901    1    3    3    0    0  0.30107174160E-01  0.91801740076E-01  0.46908868699E-01  0.88652943740E+00  0.88000000000E+00 0.  1.
        -11    1    4    4    0    0 -0.33170349019E-01 -0.79281217168E-01 -0.57438546924E-01  0.10336939220E+00  0.51100000000E-03 0.  1.
         11    1    4    4    0    0 -0.54269548252E-02 -0.27816603824E-01 -0.70718616395E-02  0.29214510692E-01  0.51100000000E-03 0. -1.
</event>
<event>
 8    1  0.1094134E+005  0.1043930E+01  0.7957747E-01            NaN
         13   -1    0    0    0    0  0.00000000000E+00  0.00000000000E+00  0.74505805969E-08  0.10566000000E+00  0.10566000000E+00 0. -1.
     999900   -1    0    0    0    0 -0.00000000000E+00 -0.00000000000E+00 -0.74505805969E-08  0.93827000000E+00  0.93827000000E+00 0. -1.
     999902    2    1    2    0    0 -0.67048445452E-02  0.74590525974E-02  0.21453295840E-01  0.10202480172E+01  0.10199731273E+01 0.  0.
     999903    2    3    3    0    0 -0.10057353987E+00 -0.13701071086E-01 -0.77951329777E-01  0.12943919239E+00  0.19373653295E-01 0.  0.
         14    1    1    2    0    0  0.67048445452E-02 -0.74590525974E-02 -0.21453295840E-01  0.23681982781E-01  0.00000000000E+00 0.  1.
     999901    1    3    3    0    0  0.93868695326E-01  0.21160123683E-01  0.99404625617E-01  0.89080882483E+00  0.88000000000E+00 0.  1.
        -11    1    4    4    0    0 -0.33839052835E-01 -0.13902853372E-01 -0.28500067924E-01  0.46377643551E-01  0.51100000000E-03 0.  1.
         11    1    4    4    0    0 -0.66734487035E-01  0.20178228573E-03 -0.49451261853E-01  0.83061548841E-01  0.51100000000E-03 0. -1.
</event>
<event>
 8    1  0.1094134E+005  0.1043930E+01  0.7957747E-01            NaN
         13   -1    0    0    0    0  0.00000000000E+00  0.00000000000E+00  0.74505805969E-08  0.10566000000E+00  0.10566000000E+00 0. -1.
     999900   -1    0    0    0    0 -0.00000000000E+00 -0.00000000000E+00 -0.74505805969E-08  0.93827000000E+00  0.93827000000E+00 0.  1.
     999902    2    1    2    0    0 -0.22997547581E-01  0.19708753416E-02  0.42790093393E-02  0.10204548756E+01  0.10201848223E+01 0.  0.
     999903    2    3    3    0    0 -0.14319783456E-01 -0.84027374180E-01  0.97785541203E-01  0.13128983243E+00  0.20232454641E-01 0.  0.
         14    1    1    2    0    0  0.22997547581E-01 -0.19708753416E-02 -0.42790093393E-02  0.23475124393E-01  0.00000000000E+00 0. -1.
     999901    1    3    3    0    0 -0.86777641251E-02  0.85998249521E-01 -0.93506531864E-01  0.88916504318E+00  0.88000000000E+00 0.  1.
        -11    1    4    4    0    0 -0.15377924927E-02 -0.13566904381E-01  0.61302035401E-02  0.14975520581E-01  0.51100000000E-03 0. -1.
         11    1    4    4    0    0 -0.12781990963E-01 -0.70460469798E-01  0.91655337663E-01  0.11631431185E+00  0.51100000000E-03 0.  1.
</event>
<event>
 8    1  0.1094134E+005  0.1043930E+01  0.7957747E-01            NaN
         13   -1    0    0    0    0  0.00000000000E+00  0.00000000000E+00  0.74505805969E-08  0.10566000000E+00  0.10566000000E+00 0.  1.
     999900   -1    0    0    0    0 -0.00000000000E+00 -0.00000000000E+00 -0.74505805969E-08  0.93827000000E+00  0.93827000000E+00 0.  1.
     999902    2    1    2    0    0 -0.17953978812E-02 -0.25528731062E-01 -0.18223919848E-03  0.10183375641E+01  0.10180159241E+01 0.  0.
     999903    2    3    3    0    0  0.17550884240E-01 -0.38604615570E-01 -0.12100816581E+00  0.12977458834E+00  0.20002942416E-01 0.  0.
         14    1    1    2    0    0  0.17953978812E-02  0.25528731062E-01  0.18223919848E-03  0.25592435881E-01  0.00000000000E+00 0. -1.
     999901    1    3    3    0    0 -0.19346282121E-01  0.13075884508E-01  0.12082592661E+00  0.88856297578E+00  0.88000000000E+00 0. -1.
        -11    1    4    4    0    0  0.20971232949E-01 -0.24419968109E-01 -0.79339526411E-01  0.85622129301E-01  0.51100000000E-03 0.  1.
         11    1    4    4    0    0 -0.34203487098E-02 -0.14184647461E-01 -0.41668639397E-01  0.44152459038E-01  0.51100000000E-03 0. -1.
</event>
<event>
 8    1  0.1094134E+005  0.1043930E+01  0.7957747E-01            NaN
         13   -1    0    0    0    0  0.00000000000E+00  0.00000000000E+00  0.74505805969E-08  0.10566000000E+00  0.10566000000E+00 0. -1.
     999900   -1    0    0    0    0 -0.00000000000E+00 -0.00000000000E+00 -0.74505805969E-08  0.93827000000E+00  0.93827000000E+00 0. -1.
     999902    2    1    2    0    0  0.21979750894E-01 -0.63712481658E-02  0.13758643122E-02  0.10210041357E+01  0.10207467119E+01 0.  0.
     999903    2    3    3    0    0  0.67754874346E-01  0.47467181412E-02  0.11229550036E+00  0.13279124635E+00  0.20247996831E-01 0.  0.
         14    1    1    2    0    0 -0.21979750894E-01  0.63712481658E-02 -0.13758643122E-02  0.22925864327E-01  0.00000000000E+00 0.  1.
     999901    1    3    3    0    0 -0.45775123452E-01 -0.11117966307E-01 -0.11091963604E+00  0.88821288932E+00  0.88000000000E+00 0. -1.
        -11    1    4    4    0    0  0.17713446365E-01 -0.45418200235E-02  0.18161957597E-01  0.25778132904E-01  0.51100000000E-03 0.  1.
         11    1    4    4    0    0  0.50041427981E-01  0.92885381648E-02  0.94133542759E-01  0.10701311344E+00  0.51100000000E-03 0. -1.
</event>
<event>
 8    1  0.1094134E+005  0.1043930E+01  0.7957747E-01            NaN
         13   -1    0    0    0    0  0.00000000000E+00  0.00000000000E+00  0.74505805969E-08  0.10566000000E+00  0.10566000000E+00 0. -1.
     999900   -1    0    0    0    0 -0.00000000000E+00 -0.00000000000E+00 -0.74505805969E-08  0.93827000000E+00  0.93827000000E+00 0.  1.
     999902    2    1    2    0    0 -0.26093678824E-02 -0.20794019700E-01  0.10678420630E-01  0.10204091853E+01  0.10201380675E+01 0.  0.
     999903    2    3    3    0    0  0.11318954032E+00 -0.15158508966E-01  0.60506848243E-01  0.13140748773E+00  0.23773866217E-01 0.  0.
         14    1    1    2    0    0  0.26093678824E-02  0.20794019700E-01 -0.10678420630E-01  0.23520814680E-01  0.00000000000E+00 0.  1.
     999901    1    3    3    0    0 -0.11579890820E+00 -0.56355107343E-02 -0.49828427613E-01  0.88900169759E+00  0.88000000000E+00 0.  1.
        -11    1    4    4    0    0  0.10851619146E+00 -0.92933032743E-02  0.54522199862E-01  0.12179926393E+00  0.51100000000E-03 0. -1.
         11    1    4    4    0    0  0.46733488634E-02 -0.58652056917E-02  0.59846483814E-02  0.96082238033E-02  0.51100000000E-03 0.  1.
</event>
<event>
 8    1  0.1094134E+005  0.1043930E+01  0.7957747E-01            NaN
         13   -1    0    0    0    0  0.00000000000E+00  0.00000000000E+00  0.74505805969E-08  0.10566000000E+00  0.10566000000E+00 0.  1.
     999900   -1    0    0    0    0 -0.00000000000E+00 -0.00000000000E+00 -0.74505805969E-08  0.93827000000E+00  0.93827000000E+00 0. -1.
     999902    2    1    2    0    0 -0.21045202836E-01  0.10893655993E-01  0.89235152898E-02  0.10186080445E+01  0.10182932520E+01 0.  0.
     999903    2    3    3    0    0 -0.12430042199E+00  0.22018118013E-01  0.32917320633E-01  0.13217637958E+00  0.21252126790E-01 0.  0.
         14    1    1    2    0    0  0.21045202836E-01 -0.10893655993E-01 -0.89235152898E-02  0.25321955463E-01  0.00000000000E+00 0. -1.
     999901    1    3    3    0    0  0.10325521916E+00 -0.11124462019E-01 -0.23993805344E-01  0.88643166495E+00  0.88000000000E+00 0.  1.
        -11    1    4    4    0    0 -0.63198097954E-01  0.46754262771E-03  0.15189250168E-01  0.65001481697E-01  0.51100000000E-03 0.  1.
         11    1    4    4    0    0 -0.61102324041E-01  0.21550575385E-01  0.17728070465E-01  0.67174897886E-01  0.51100000000E-03 0. -1.
</event>
<event>
 8    1  0.1094134E+005  0.1043930E+01  0.7957747E-01            NaN
         13   -1    0    0    0    0  0.00000000000E+00  0.00000000000E+00  0.74505805969E-08  0.10566000000E+00  0.10566000000E+00 0. -1.
     999900   -1    0    0    0    0 -0.00000000000E+00 -0.00000000000E+00 -0.74505805969E-08  0.93827000000E+00  0.93827000000E+00 0.  1.
     999902    2    1    2    0    0 -0.23907399327E-01 -0.33216260297E-03 -0.81807277943E-04  0.10200201533E+01  0.10197398847E+01 0.  0.
     999903    2    3    3    0    0 -0.55868376643E-01  0.75340760910E-01 -0.90179593279E-01  0.13161399259E+00  0.19808539540E-01 0.  0.
         14    1    1    2    0    0  0.23907399327E-01  0.33216260297E-03  0.81807277943E-04  0.23909846654E-01  0.00000000000E+00 0.  1.
     999901    1    3    3    0    0  0.31960977316E-01 -0.75672923513E-01  0.90097786001E-01  0.88840616075E+00  0.88000000000E+00 0. -1.
        -11    1    4    4    0    0 -0.37133590949E-01  0.34445704525E-01 -0.52260585255E-01  0.72779392889E-01  0.51100000000E-03 0. -1.
         11    1    4    4    0    0 -0.18734785693E-01  0.40895056384E-01 -0.37919008024E-01  0.58834599703E-01  0.51100000000E-03 0.  1.
</event>
<event>
 8    1  0.1094134E+005  0.1043930E+01  0.7957747E-01            NaN
         13   -1    0    0    0    0  0.00000000000E+00  0.00000000000E+00  0.74505805969E-08  0.10566000000E+00  0.10566000000E+00 0.  1.
     999900   -1    0    0    0    0 -0.00000000000E+00 -0.00000000000E+00 -0.74505805969E-08  0.93827000000E+00  0.93827000000E+00 0. -1.
     999902    2    1    2    0    0 -0.15539749572E-01  0.14189552594E-01 -0.10725685884E-01  0.10203107799E+01  0.10200373621E+01 0.  0.
     999903    2    3    3    0    0 -0.11612010653E+00  0.61915881982E-01 -0.10662708108E-01  0.13329656657E+00  0.18352812626E-01 0.  0.
         14    1    1    2    0    0  0.15539749572E-01 -0.14189552594E-01  0.10725685884E-01  0.23619220081E-01  0.00000000000E+00 0.  1.
     999901    1    3    3    0    0  0.10058035696E+00 -0.47726329388E-01 -0.62977776258E-04  0.88701421335E+00  0.88000000000E+00 0. -1.
        -11    1    4    4    0    0 -0.64367916825E-01  0.44357553046E-01 -0.79621467737E-02  0.78577847584E-01  0.51100000000E-03 0.  1.
         11    1    4    4    0    0 -0.51752189707E-01  0.17558328937E-01 -0.27005613339E-02  0.54718718983E-01  0.51100000000E-03 0. -1.
</event>
<event>
 8    1  0.1094134E+005  0.1043930E+01  0.7957747E-01            NaN
         13   -1    0    0    0    0  0.00000000000E+00  0.00000000000E+00  0.74505805969E-08  0.10566000000E+00  0.10566000000E+00 0.  1.
     999900   -1    0    0    0    0 -0.00000000000E+00 -0.00000000000E+00 -0.74505805969E-08  0.93827000000E+00  0.93827000000E+00 0. -1.
     999902    2    1    2    0    0  0.86725641277E-02 -0.59504744169E-02  0.21607399289E-01  0.10198987450E+01  0.10196155887E+01 0.  0.
     999903    2    3    3    0    0 -0.49041686128E-01 -0.17750815233E-01  0.12006742684E+00  0.13245040295E+00  0.20167891182E-01 0.  0.
         14    1    1    2    0    0 -0.86725641277E-02  0.59504744169E-02 -0.21607399289E-01  0.24031255031E-01  0.00000000000E+00 0. -1.
     999901    1    3    3    0    0  0.57714250256E-01  0.11800340816E-01 -0.98460027549E-01  0.88744834202E+00  0.88000000000E+00 0. -1.
        -11    1    4    4    0    0 -0.60157058931E-02  0.13765797045E-02  0.31907154763E-01  0.32502481984E-01  0.51100000000E-03 0.  1.
         11    1    4    4    0    0 -0.43025980235E-01 -0.19127394937E-01  0.88160272075E-01  0.99947920967E-01  0.51100000000E-03 0. -1.
</event>
<event>
 8    1  0.1094134E+005  0.1043930E+01  0.7957747E-01            NaN
         13   -1    0    0    0    0  0.00000000000E+00  0.00000000000E+00  0.74505805969E-08  0.10566000000E+00  0.10566000000E+00 0.  1.
     999900   -1    0    0    0    0 -0.00000000000E+00 -0.00000000000E+00 -0.74505805969E-08  0.93827000000E+00  0.93827000000E+00 0.  1.
     999902    2    1    2    0    0 -0.21852301201E-01 -0.47766134004E-02 -0.87784112862E-02  0.10199008592E+01  0.10196177534E+01 0.  0.
     999903    2    3    3    0    0  0.79545867126E-01  0.43063081535E-01 -0.90056541920E-01  0.12907182987E+00  0.19167226098E-01 0.  0.
         14    1    1    2    0    0  0.21852301201E-01  0.47766134004E-02  0.87784112862E-02  0.24029140810E-01  0.00000000000E+00 0.  1.
     999901    1    3    3    0    0 -0.10139816833E+00 -0.47839694935E-01  0.81278130634E-01  0.89082902932E+00  0.88000000000E+00 0. -1.
        -11    1    4    4    0    0  0.47255385634E-01  0.29338005796E-01 -0.42659977176E-01  0.70099392502E-01  0.51100000000E-03 0.  1.
         11    1    4    4    0    0  0.32290481492E-01  0.13725075739E-01 -0.47396564744E-01  0.58972437372E-01  0.51100000000E-03 0. -1.
</event>
<event>
 8    1  0.1094134E+005  0.1043930E+01  0.7957747E-01            NaN
         13   -1    0    0    0    0  0.00000000000E+00  0.00000000000E+00  0.74505805969E-08  0.10566000000E+00  0.10566000000E+00 0. -1.
     999900   -1    0    0    0    0 -0.00000000000E+00 -0.00000000000E+00 -0.74505805969E-08  0.93827000000E+00  0.93827000000E+00 0.  1.
     999902    2    1    2    0    0  0.18331073259E-01  0.10799968448E-01 -0.11311928978E-01  0.10198337907E+01  0.10195490833E+01 0.  0.
     999903    2    3    3    0    0 -0.39198794823E-01  0.59160510986E-01  0.10594915447E+00  0.12888003798E+00  0.18663581721E-01 0.  0.
         14    1    1    2    0    0 -0.18331073259E-01 -0.10799968448E-01  0.11311928978E-01  0.24096209298E-01  0.00000000000E+00 0. -1.
     999901    1    3    3    0    0  0.57529868082E-01 -0.48360542538E-01 -0.11726108344E+00  0.89095375272E+00  0.88000000000E+00 0.  1.
        -11    1    4    4    0    0 -0.23046690967E-02  0.17457952355E-01  0.22919490910E-01  0.28907711508E-01  0.51100000000E-03 0.  1.
         11    1    4    4    0    0 -0.36894125726E-01  0.41702558631E-01  0.83029663555E-01  0.99972326474E-01  0.51100000000E-03 0. -1.
</event>
<event>
 8    1  0.1094134E+005  0.1043930E+01  0.7957747E-01            NaN
         13   -1    0    0    0    0  0.00000000000E+00  0.00000000000E+00  0.74505805969E-08  0.10566000000E+00  0.10566000000E+00 0.  1.
     999900   -1    0    0    0    0 -0.00000000000E+00 -0.00000000000E+00 -0.74505805969E-08  0.93827000000E+00  0.93827000000E+00 0.  1.
     999902    2    1    2    0    0 -0.22099580961E-01  0.19259370096E-02  0.53602300309E-02  0.10211082389E+01  0.10208531740E+01 0.  0.
     999903    2    3    3    0    0 -0.14559262810E-01 -0.90149233787E-01 -0.91678960997E-01  0.13096707144E+00  0.20211022405E-01 0.  0.
         14    1    1    2    0    0  0.22099580961E-01 -0.19259370096E-02 -0.53602300309E-02  0.22821761062E-01  0.00000000000E+00 0. -1.
     999901    1    3    3    0    0 -0.75403181510E-02  0.92075170797E-01  0.97039191028E-01  0.89014116750E+00  0.88000000000E+00 0. -1.
        -11    1    4    4    0    0 -0.10780363636E-01 -0.17433067663E-01 -0.23872992568E-01  0.31469175131E-01  0.51100000000E-03 0.  1.
         11    1    4    4    0    0 -0.37788991734E-02 -0.72716166124E-01 -0.67805968429E-01  0.99497896311E-01  0.51100000000E-03 0. -1.
</event>
<event>
 8    1  0.1094134E+005  0.1043930E+01  0.7957747E-01            NaN
         13   -1    0    0    0    0  0.00000000000E+00  0.00000000000E+00  0.74505805969E-08  0.10566000000E+00  0.10566000000E+00 0. -1.
     999900   -1    0    0    0    0 -0.00000000000E+00 -0.00000000000E+00 -0.74505805969E-08  0.93827000000E+00  0.93827000000E+00 0. -1.
     999902    2    1    2    0    0  0.17154382947E-01 -0.15695865406E-01  0.29579766820E-02  0.10204910864E+01  0.10202218752E+01 0.  0.
     999903    2    3    3    0    0  0.10303089753E+00 -0.19147428981E-01 -0.78113314187E-01  0.13259512219E+00  0.22311133825E-01 0.  0.
         14    1    1    2    0    0 -0.17154382947E-01  0.15695865406E-01 -0.29579766820E-02  0.23438913609E-01  0.00000000000E+00 0. -1.
     999901    1    3    3    0    0 -0.85876514580E-01  0.34515635752E-02  0.81071290869E-01  0.88789596420E+00  0.88000000000E+00 0. -1.
        -11    1    4    4    0    0  0.99203222578E-01 -0.22168327248E-01 -0.77114343909E-01  0.12759152503E+00  0.51100000000E-03 0.  1.
         11    1    4    4    0    0  0.38276749486E-02  0.30208982667E-02 -0.99897027788E-03  0.50035971526E-02  0.51100000000E-03 0. -1.
</event>
<event>
 8    1  0.1094134E+005  0.1043930E+01  0.7957747E-01            NaN
         13   -1    0    0    0    0  0.00000000000E+00  0.00000000000E+00  0.74505805969E-08  0.10566000000E+00  0.10566000000E+00 0.  1.
     999900   -1    0    0    0    0 -0.00000000000E+00 -0.00000000000E+00 -0.74505805969E-08  0.93827000000E+00  0.93827000000E+00 0.  1.
     999902    2    1    2    0    0 -0.13679116964E-02  0.71866570352E-02 -0.22121119895E-01  0.10206305758E+01  0.10203645962E+01 0.  0.
     999903    2    3    3    0    0 -0.12643736305E+00 -0.24504044004E-01 -0.14486461890E-01  0.13118976486E+00  0.20348019059E-01 0.  0.
         14    1    1    2    0    0  0.13679116964E-02 -0.71866570352E-02  0.22121119895E-01  0.23299424181E-01  0.00000000000E+00 0.  1.
     999901    1    3    3    0    0  0.12506945135E+00  0.31690701040E-01 -0.76346580042E-02  0.88944081096E+00  0.88000000000E+00 0.  1.
        -11    1    4    4    0    0 -0.31885010338E-01 -0.25150587079E-02 -0.11738654875E-01  0.34073986321E-01  0.51100000000E-03 0.  1.
         11    1    4    4    0    0 -0.94552352710E-01 -0.21988985296E-01 -0.27478070157E-02  0.97115778541E-01  0.51100000000E-03 0. -1.
</event>
<event>
 7    1  0.1094134E+005  0.1043930E+01  0.7957747E-01            NaN
         13   -1    0    0    0    0  0.00000000000E+00  0.00000000000E+00  0.74505805969E-08  0.10566000000E+00  0.10566000000E+00 0.  1.
     999900   -1    0    0    0    0 -0.00000000000E+00 -0.00000000000E+00 -0.74505805969E-08  0.93827000000E+00  0.93827000000E+00 0.  1.
     999902    2    1    2    0    0 -0.16350560734E-02  0.21618146189E-03  0.23063971842E-01  0.10208071338E+01  0.10205452158E+01 0.  0.
         14    1    1    2    0    0  0.16350560734E-02 -0.21618146189E-03 -0.23063971842E-01  0.23122866170E-01  0.00000000000E+00 0. -1.
     999901    1    3    3    0    0 -0.80998204239E-01 -0.98583312300E-01 -0.11808647266E-01  0.88927994619E+00  0.88000000000E+00 0.  1.
        -11    1    3    3    0    0  0.37516826032E-01  0.48356329285E-01  0.14634013869E-01  0.62930614969E-01  0.51100000000E-03 0. -1.
         11    1    3    3    0    0  0.41846322134E-01  0.50443164477E-01  0.20238605239E-01  0.68596572666E-01  0.51100000000E-03 0.  1.
</event>
<event>
 8    1  0.1094134E+005  0.1043930E+01  0.7957747E-01            NaN
         13   -1    0    0    0    0  0.00000000000E+00  0.00000000000E+00  0.74505805969E-08  0.10566000000E+00  0.10566000000E+00 0.  1.
     999900   -1    0    0    0    0 -0.00000000000E+00 -0.00000000000E+00 -0.74505805969E-08  0.93827000000E+00  0.93827000000E+00 0. -1.
     999902    2    1    2    0    0  0.22207340248E-01 -0.64963874266E-02  0.54049669928E-02  0.10201690514E+01  0.10198923035E+01 0.  0.
     999903    2    3    3    0    0  0.89988347613E-01 -0.82382229024E-01  0.49562606824E-01  0.13320635597E+00  0.20068555276E-01 0.  0.
         14    1    1    2    0    0 -0.22207340248E-01  0.64963874266E-02 -0.54049669928E-02  0.23760948606E-01  0.00000000000E+00 0. -1.
     999901    1    3    3    0    0 -0.67781007366E-01  0.75885841598E-01 -0.44157639831E-01  0.88696269542E+00  0.88000000000E+00 0.  1.
        -11    1    4    4    0    0  0.14030778186E-01 -0.18380983352E-01  0.16900779571E-01  0.28646478956E-01  0.51100000000E-03 0. -1.
         11    1    4    4    0    0  0.75957569428E-01 -0.64001245673E-01  0.32661827253E-01  0.10455987702E+00  0.51100000000E-03 0.  1.
</event>
<event>
 8    1  0.1094134E+005  0.1043930E+01  0.7957747E-01            NaN
         13   -1    0    0    0    0  0.00000000000E+00  0.00000000000E+00  0.74505805969E-08  0.10566000000E+00  0.10566000000E+00 0.  1.
     999900   -1    0    0    0    0 -0.00000000000E+00 -0.00000000000E+00 -0.74505805969E-08  0.93827000000E+00  0.93827000000E+00 0. -1.
     999902    2    1    2    0    0 -0.25087182763E-01  0.13064360932E-01  0.12550982761E-01  0.10129853489E+01  0.10125125903E+01 0.  0.
     999903    2    3    3    0    0 -0.10370507926E+00  0.32320661872E-01  0.64489324514E-01  0.12774573717E+00  0.18992939238E-01 0.  0.
         14    1    1    2    0    0  0.25087182763E-01 -0.13064360932E-01 -0.12550982761E-01  0.30944651134E-01  0.00000000000E+00 0. -1.
     999901    1    3    3    0    0  0.78617896493E-01 -0.19256300940E-01 -0.51938341754E-01  0.88523961170E+00  0.88000000000E+00 0.  1.
        -11    1    4    4    0    0 -0.58417985049E-01  0.13644903790E-01  0.45120289000E-01  0.75066277229E-01  0.51100000000E-03 0.  1.
         11    1    4    4    0    0 -0.45287094207E-01  0.18675758082E-01  0.19369035514E-01  0.52679459939E-01  0.51100000000E-03 0. -1.
</event>
<event>
 8    1  0.1094134E+005  0.1043930E+01  0.7957747E-01            NaN
         13   -1    0    0    0    0  0.00000000000E+00  0.00000000000E+00  0.74505805969E-08  0.10566000000E+00  0.10566000000E+00 0.  1.
     999900   -1    0    0    0    0 -0.00000000000E+00 -0.00000000000E+00 -0.74505805969E-08  0.93827000000E+00  0.93827000000E+00 0.  1.
     999902    2    1    2    0    0 -0.16889724521E-01 -0.73465101288E-02 -0.16941343906E-01  0.10189051496E+01  0.10185977914E+01 0.  0.
     999903    2    3    3    0    0  0.43745106951E-01 -0.92886657258E-01  0.74003064213E-01  0.12802660290E+00  0.19307823754E-01 0.  0.
         14    1    1    2    0    0  0.16889724521E-01  0.73465101288E-02  0.16941343906E-01  0.25024850426E-01  0.00000000000E+00 0.  1.
     999901    1    3    3    0    0 -0.60634831472E-01  0.85540147130E-01 -0.90944408119E-01  0.89087854668E+00  0.88000000000E+00 0.  1.
        -11    1    4    4    0    0  0.10062429530E-01 -0.43058244088E-01  0.28550795580E-01  0.52637191426E-01  0.51100000000E-03 0.  1.
         11    1    4    4    0    0  0.33682677421E-01 -0.49828413170E-01  0.45452268632E-01  0.75389411472E-01  0.51100000000E-03 0. -1.
</event>
<event>
 8    1  0.1094134E+005  0.1043930E+01  0.7957747E-01            NaN
         13   -1    0    0    0    0  0.00000000000E+00  0.00000000000E+00  0.74505805969E-08  0.10566000000E+00  0.10566000000E+00 0.  1.
     999900   -1    0    0    0    0 -0.00000000000E+00 -0.00000000000E+00 -0.74505805969E-08  0.93827000000E+00  0.93827000000E+00 0. -1.
     999902    2    1    2    0    0  0.93323911184E-02  0.11224008169E-01 -0.18913399002E-01  0.10200388187E+01  0.10197589926E+01 0.  0.
     999903    2    3    3    0    0 -0.41896652858E-01  0.48246161707E-01 -0.11355110688E+00  0.13271060964E+00  0.25203777430E-01 0.  0.
         14    1    1    2    0    0 -0.93323911184E-02 -0.11224008169E-01  0.18913399002E-01  0.23891181326E-01  0.00000000000E+00 0.  1.
     999901    1    3    3    0    0  0.51229043977E-01 -0.37022153538E-01  0.94637707877E-01  0.88732820904E+00  0.88000000000E+00 0.  1.
        -11    1    4    4    0    0 -0.17583244900E-01  0.10916155232E-01 -0.57478149895E-01  0.61092812856E-01  0.51100000000E-03 0.  1.
         11    1    4    4    0    0 -0.24313407958E-01  0.37330006475E-01 -0.56072956984E-01  0.71617796782E-01  0.51100000000E-03 0. -1.
</event>
<event>
 8    1  0.1094134E+005  0.1043930E+01  0.7957747E-01            NaN
         13   -1    0    0    0    0  0.00000000000E+00  0.00000000000E+00  0.74505805969E-08  0.10566000000E+00  0.10566000000E+00 0. -1.
     999900   -1    0    0    0    0 -0.00000000000E+00 -0.00000000000E+00 -0.74505805969E-08  0.93827000000E+00  0.93827000000E+00 0.  1.
     999902    2    1    2    0    0 -0.13064167897E-02  0.19734376377E-02 -0.23299014588E-01  0.10205110918E+01  0.10202423453E+01 0.  0.
     999903    2    3    3    0    0 -0.28809860064E-01  0.38838963302E-01  0.11739237479E+00  0.12814929665E+00  0.17401134078E-01 0.  0.
         14    1    1    2    0    0  0.13064167897E-02 -0.19734376377E-02  0.23299014588E-01  0.23418908209E-01  0.00000000000E+00 0.  1.
     999901    1    3    3    0    0  0.27503443274E-01 -0.36865525665E-01 -0.14069138938E+00  0.89236179514E+00  0.88000000000E+00 0.  1.
        -11    1    4    4    0    0 -0.12033932094E-01  0.40133802337E-02  0.26924732530E-01  0.29767853220E-01  0.51100000000E-03 0. -1.
         11    1    4    4    0    0 -0.16775927970E-01  0.34825583069E-01  0.90467642259E-01  0.98381443434E-01  0.51100000000E-03 0.  1.
</event>
<event>
 7    1  0.1094134E+005  0.1043930E+01  0.7957747E-01            NaN
         13   -1    0    0    0    0  0.00000000000E+00  0.00000000000E+00  0.74505805969E-08  0.10566000000E+00  0.10566000000E+00 0. -1.
     999900   -1    0    0    0    0 -0.00000000000E+00 -0.00000000000E+00 -0.74505805969E-08  0.93827000000E+00  0.93827000000E+00 0. -1.
     999902    2    1    2    0    0  0.57259886762E-03 -0.19852824594E-01  0.12866499916E-01  0.10202654837E+01  0.10199910038E+01 0.  0.
         14    1    1    2    0    0 -0.57259886762E-03  0.19852824594E-01 -0.12866499916E-01  0.23664516346E-01  0.00000000000E+00 0.  1.
     999901    1    3    3    0    0 -0.15462605677E-01  0.10228959439E+00 -0.31427865008E-02  0.88606553392E+00  0.88000000000E+00 0.  1.
        -11    1    3    3    0    0 -0.29693683356E-02 -0.10292901125E+00  0.37330726424E-03  0.10297377814E+00  0.51100000000E-03 0. -1.
         11    1    3    3    0    0  0.19004572880E-01 -0.19213407732E-01  0.15635979152E-01  0.31226171589E-01  0.51100000000E-03 0.  1.
</event>
<event>
 8    1  0.1094134E+005  0.1043930E+01  0.7957747E-01            NaN
         13   -1    0    0    0    0  0.00000000000E+00  0.00000000000E+00  0.74505805969E-08  0.10566000000E+00  0.10566000000E+00 0.  1.
     999900   -1    0    0    0    0 -0.00000000000E+00 -0.00000000000E+00 -0.74505805969E-08  0.93827000000E+00  0.93827000000E+00 0.  1.
     999902    2    1    2    0    0 -0.19821356939E-01 -0.28309541083E-02  0.74946803261E-02  0.10225507875E+01  0.10223272677E+01 0.  0.
     999903    2    3    3    0    0 -0.10995814580E+00  0.38099843328E-01  0.65734961604E-01  0.13508704110E+00  0.19622222275E-01 0.  0.
         14    1    1    2    0    0  0.19821356939E-01  0.28309541083E-02 -0.74946803261E-02  0.21379212456E-01  0.00000000000E+00 0. -1.
     999901    1    3    3    0    0  0.90136788862E-01 -0.40930797436E-01 -0.58240281278E-01  0.88746374644E+00  0.88000000000E+00 0.  1.
        -11    1    4    4    0    0 -0.40083626960E-01  0.21842819395E-01  0.32384312943E-01  0.55971517357E-01  0.51100000000E-03 0. -1.
         11    1    4    4    0    0 -0.69874518841E-01  0.16257023933E-01  0.33350648660E-01  0.79115523745E-01  0.51100000000E-03 0.  1.
</event>
<event>
 8    1  0.1094134E+005  0.1043930E+01  0.7957747E-01            NaN
         13   -1    0    0    0    0  0.00000000000E+00  0.00000000000E+00  0.74505805969E-08  0.10566000000E+00  0.10566000000E+00 0.  1.
     999900   -1    0    0    0    0 -0.00000000000E+00 -0.00000000000E+00 -0.74505805969E-08  0.93827000000E+00  0.93827000000E+00 0.  1.
     999902    2    1    2    0    0  0.11767189759E-01 -0.16676284831E-01  0.11207704989E-01  0.10206452865E+01  0.10203796465E+01 0.  0.
     999903    2    3    3    0    0  0.12627514873E+00 -0.36754235133E-01 -0.26306155639E-02  0.13289155047E+00  0.18893307312E-01 0.  0.
         14    1    1    2    0    0 -0.11767189759E-01  0.16676284831E-01 -0.11207704989E-01  0.23284713477E-01  0.00000000000E+00 0. -1.
     999901    1    3    3    0    0 -0.11450795897E+00  0.20077950302E-01  0.13838320552E-01  0.88775373605E+00  0.88000000000E+00 0.  1.
        -11    1    4    4    0    0  0.93071384451E-01 -0.34417398498E-01  0.21766188055E-02  0.99256429079E-01  0.51100000000E-03 0.  1.
         11    1    4    4    0    0  0.33203764281E-01 -0.23368366347E-02 -0.48072343693E-02  0.33635121393E-01  0.51100000000E-03 0. -1.
</event>
<event>
 8    1  0.1094134E+005  0.1043930E+01  0.7957747E-01            NaN
         13   -1    0    0    0    0  0.00000000000E+00  0.00000000000E+00  0.74505805969E-08  0.10566000000E+00  0.10566000000E+00 0. -1.
     999900   -1    0    0    0    0 -0.00000000000E+00 -0.00000000000E+00 -0.74505805969E-08  0.93827000000E+00  0.93827000000E+00 0. -1.
     999902    2    1    2    0    0 -0.20692713622E-01 -0.98846940858E-02 -0.78423345570E-02  0.10196937093E+01  0.10194056421E+01 0.  0.
     999903    2    3    3    0    0  0.87949822622E-01  0.63414817050E-01  0.63308664053E-01  0.12714764126E+00  0.20048077562E-01 0.  0.
         14    1    1    2    0    0  0.20692713622E-01  0.98846940858E-02  0.78423345570E-02  0.24236290672E-01  0.00000000000E+00 0. -1.
     999901    1    3    3    0    0 -0.10864253624E+00 -0.73299511136E-01 -0.71150998610E-01  0.89254606806E+00  0.88000000000E+00 0. -1.
        -11    1    4    4    0    0  0.21789502053E-01  0.23139663158E-01  0.26521397297E-01  0.41398937745E-01  0.51100000000E-03 0.  1.
         11    1    4    4    0    0  0.66160320569E-01  0.40275153892E-01  0.36787266756E-01  0.85748703519E-01  0.51100000000E-03 0. -1.
</event>
<event>
 8    1  0.1094134E+005  0.1043930E+01  0.7957747E-01            NaN
         13   -1    0    0    0    0  0.00000000000E+00  0.00000000000E+00  0.74505805969E-08  0.10566000000E+00  0.10566000000E+00 0.  1.
     999900   -1    0    0    0    0 -0.00000000000E+00 -0.00000000000E+00 -0.74505805969E-08  0.93827000000E+00  0.93827000000E+00 0. -1.
     999902    2    1    2    0    0  0.22378763085E-02  0.19980410132E-01 -0.11727662458E-01  0.10206541983E+01  0.10203887639E+01 0.  0.
     999903    2    3    3    0    0 -0.28026947818E-01 -0.12195104346E+00 -0.23002391650E-01  0.12869701510E+00  0.19397032452E-01 0.  0.
         14    1    1    2    0    0 -0.22378763085E-02 -0.19980410132E-01  0.11727662458E-01  0.23275801729E-01  0.00000000000E+00 0. -1.
     999901    1    3    3    0    0  0.30264824126E-01  0.14193145359E+00  0.11274729192E-01  0.89195718317E+00  0.88000000000E+00 0. -1.
        -11    1    4    4    0    0 -0.20443293385E-01 -0.51945584421E-01 -0.52193307600E-02  0.56069372387E-01  0.51100000000E-03 0.  1.
         11    1    4    4    0    0 -0.75836544324E-02 -0.70005459039E-01 -0.17783060890E-01  0.72627642709E-01  0.51100000000E-03 0. -1.
</event>
<event>
 8    1  0.1094134E+005  0.1043930E+01  0.7957747E-01            NaN
         13   -1    0    0    0    0  0.00000000000E+00  0.00000000000E+00  0.74505805969E-08  0.10566000000E+00  0.10566000000E+00 0.  1.
     999900   -1    0    0    0    0 -0.00000000000E+00 -0.00000000000E+00 -0.74505805969E-08  0.93827000000E+00  0.93827000000E+00 0. -1.
     999902    2    1    2    0    0 -0.15063229551E-02 -0.22802787981E-01 -0.44019325900E-02  0.10206574161E+01  0.10203920560E+01 0.  0.
     999903    2    3    3    0    0 -0.11930591406E+00 -0.35951211660E-01 -0.36879357015E-01  0.13211681055E+00  0.23840593633E-01 0.  0.
         14    1    1    2    0    0  0.15063229551E-02  0.22802787981E-01  0.44019325900E-02  0.23272583850E-01  0.00000000000E+00 0.  1.
     999901    1    3    3    0    0  0.11779959111E+00  0.13148423679E-01  0.32477424425E-01  0.88854060560E+00  0.88000000000E+00 0.  1.
        -11    1    4    4    0    0 -0.26090238179E-01 -0.13478152428E-02 -0.18826329347E-03  0.26130704128E-01  0.51100000000E-03 0. -1.
         11    1    4    4    0    0 -0.93215675884E-01 -0.34603396417E-01 -0.36691093722E-01  0.10598610642E+00  0.51100000000E-03 0.  1.
</event>
<event>
 8    1  0.1094134E+005  0.1043930E+01  0.7957747E-01            NaN
         13   -1    0    0    0    0  0.00000000000E+00  0.00000000000E+00  0.74505805969E-08  0.10566000000E+00  0.10566000000E+00 0.  1.
     999900   -1    0    0    0    0 -0.00000000000E+00 -0.00000000000E+00 -0.74505805969E-08  0.93827000000E+00  0.93827000000E+00 0.  1.
     999902    2    1    2    0    0 -0.14781164832E-01  0.43391538215E-02 -0.18019295698E-01  0.10202233320E+01  0.10199478619E+01 0.  0.
     999903    2    3    3    0    0  0.11360655728E+00 -0.45293525929E-01  0.32754620832E-01  0.12807715526E+00  0.19311632924E-01 0.  0.
         14    1    1    2    0    0  0.14781164832E-01 -0.43391538215E-02  0.18019295698E-01  0.23706667989E-01  0.00000000000E+00 0.  1.
     999901    1    3    3    0    0 -0.12838772211E+00  0.49632679751E-01 -0.50773916530E-01  0.89214617675E+00  0.88000000000E+00 0. -1.
        -11    1    4    4    0    0  0.74364069261E-01 -0.25716778726E-01  0.29728073260E-01  0.84115319449E-01  0.51100000000E-03 0. -1.
         11    1    4    4    0    0  0.39242488018E-01 -0.19576747203E-01  0.30265475719E-02  0.43961835813E-01  0.51100000000E-03 0.  1.
</event>
<event>
 8    1  0.1094134E+005  0.1043930E+01  0.7957747E-01            NaN
         13   -1    0    0    0    0  0.00000000000E+00  0.00000000000E+00  0.74505805969E-08  0.10566000000E+00  0.10566000000E+00 0.  1.
     999900   -1    0    0    0    0 -0.00000000000E+00 -0.00000000000E+00 -0.74505805969E-08  0.93827000000E+00  0.93827000000E+00 0.  1.
     999902    2    1    2    0    0 -0.12930408394E-02  0.20295941538E-01  0.11385617571E-01  0.10206227161E+01  0.10203565549E+01 0.  0.
     999903    2    3    3    0    0  0.42968126624E-01  0.70173559104E-01 -0.99991256224E-01  0.13109945290E+00  0.20450597198E-01 0.  0.
         14    1    1    2    0    0  0.12930408394E-02 -0.20295941538E-01 -0.11385617571E-01  0.23307283947E-01  0.00000000000E+00 0. -1.
     999901    1    3    3    0    0 -0.44261167463E-01 -0.49877617566E-01  0.11137687379E+00  0.88952326316E+00  0.88000000000E+00 0. -1.
        -11    1    4    4    0    0  0.32958299382E-01  0.34812706549E-01 -0.53576076169E-01  0.71894583204E-01  0.51100000000E-03 0. -1.
         11    1    4    4    0    0  0.10009827242E-01  0.35360852555E-01 -0.46415180055E-01  0.59204869693E-01  0.51100000000E-03 0.  1.
</event>
<event>
 8    1  0.1094134E+005  0.1043930E+01  0.7957747E-01            NaN
         13   -1    0    0    0    0  0.00000000000E+00  0.00000000000E+00  0.74505805969E-08  0.10566000000E+00  0.10566000000E+00 0. -1.
     999900   -1    0    0    0    0 -0.00000000000E+00 -0.00000000000E+00 -0.74505805969E-08  0.93827000000E+00  0.93827000000E+00 0.  1.
     999902    2    1    2    0    0 -0.22629527745E-01  0.36430162980E-02  0.43833858273E-02  0.10205937371E+01  0.10203269060E+01 0.  0.
     999903    2    3    3    0    0  0.31597493963E-01  0.86412648408E-01 -0.89770218686E-01  0.13005666146E+00  0.19760961477E-01 0.  0.
         14    1    1    2    0    0  0.22629527745E-01 -0.36430162980E-02 -0.43833858273E-02  0.23336262876E-01  0.00000000000E+00 0.  1.
     999901    1    3    3    0    0 -0.54227021708E-01 -0.82769632110E-01  0.94153604514E-01  0.89053707566E+00  0.88000000000E+00 0. -1.
        -11    1    4    4    0    0  0.60734299126E-02  0.43342987564E-01 -0.36980060992E-01  0.57299975165E-01  0.51100000000E-03 0.  1.
         11    1    4    4    0    0  0.25524064051E-01  0.43069660844E-01 -0.52790157694E-01  0.72756686299E-01  0.51100000000E-03 0. -1.
</event>
<event>
 8    1  0.1094134E+005  0.1043930E+01  0.7957747E-01            NaN
         13   -1    0    0    0    0  0.00000000000E+00  0.00000000000E+00  0.74505805969E-08  0.10566000000E+00  0.10566000000E+00 0.  1.
     999900   -1    0    0    0    0 -0.00000000000E+00 -0.00000000000E+00 -0.74505805969E-08  0.93827000000E+00  0.93827000000E+00 0. -1.
     999902    2    1    2    0    0  0.16736460562E-01  0.17034288312E-01  0.71399029773E-02  0.10190050265E+01  0.10187001471E+01 0.  0.
     999903    2    3    3    0    0  0.22850055731E-01 -0.69525624138E-01 -0.10301238601E+00  0.12790260742E+00  0.19788578851E-01 0.  0.
         14    1    1    2    0    0 -0.16736460562E-01 -0.17034288312E-01 -0.71399029773E-02  0.24924973520E-01  0.00000000000E+00 0. -1.
     999901    1    3    3    0    0 -0.61135951688E-02  0.86559912450E-01  0.11015228899E+00  0.89110241906E+00  0.88000000000E+00 0.  1.
        -11    1    4    4    0    0  0.20434933570E-01 -0.43344170330E-01 -0.78386068059E-01  0.91874590602E-01  0.51100000000E-03 0. -1.
         11    1    4    4    0    0  0.24151221616E-02 -0.26181453808E-01 -0.24626317956E-01  0.36028016815E-01  0.51100000000E-03 0.  1.
</event>
<event>
 8    1  0.1094134E+005  0.1043930E+01  0.7957747E-01            NaN
         13   -1    0    0    0    0  0.00000000000E+00  0.00000000000E+00  0.74505805969E-08  0.10566000000E+00  0.10566000000E+00 0. -1.
     999900   -1    0    0    0    0 -0.00000000000E+00 -0.00000000000E+00 -0.74505805969E-08  0.93827000000E+00  0.93827000000E+00 0. -1.
     999902    2    1    2    0    0 -0.11368345310E-01 -0.32011582132E-01 -0.54155890457E-02  0.10095307374E+01  0.10089444982E+01 0.  0.
     999903    2    3    3    0    0 -0.22313142466E-01 -0.59751856851E-01  0.10260581138E+00  0.12242424185E+00  0.19788424382E-01 0.  0.
         14    1    1    2    0    0  0.11368345310E-01  0.32011582132E-01  0.54155890457E-02  0.34399262644E-01  0.00000000000E+00 0. -1.
     999901    1    3    3    0    0  0.10944797156E-01  0.27740274719E-01 -0.10802140042E+00  0.88710649551E+00  0.88000000000E+00 0. -1.
        -11    1    4    4    0    0 -0.86598489647E-02 -0.14999580006E-01  0.14214427211E-01  0.22411859503E-01  0.51100000000E-03 0. -1.
         11    1    4    4    0    0 -0.13653293502E-01 -0.44752276845E-01  0.88391384166E-01  0.10001238234E+00  0.51100000000E-03 0.  1.
</event>
<event>
 8    1  0.1094134E+005  0.1043930E+01  0.7957747E-01            NaN
         13   -1    0    0    0    0  0.00000000000E+00  0.00000000000E+00  0.74505805969E-08  0.10566000000E+00  0.10566000000E+00 0. -1.
     999900   -1    0    0    0    0 -0.00000000000E+00 -0.00000000000E+00 -0.74505805969E-08  0.93827000000E+00  0.93827000000E+00 0. -1.
     999902    2    1    2    0    0 -0.21187936878E-01  0.84312812613E-02  0.65241969074E-02  0.10202112244E+01  0.10199354695E+01 0.  0.
     999903    2    3    3    0    0 -0.10298794182E+00 -0.18943706725E-01 -0.77694143006E-01  0.13199201743E+00  0.20497136920E-01 0.  0.
         14    1    1    2    0    0  0.21187936878E-01 -0.84312812613E-02 -0.65241969074E-02  0.23718775646E-01  0.00000000000E+00 0.  1.
     999901    1    3    3    0    0  0.81800004944E-01  0.27374987987E-01  0.84218339914E-01  0.88821920693E+00  0.88000000000E+00 0.  1.
        -11    1    4    4    0    0 -0.11148079275E-01  0.35453115751E-02 -0.50413207267E-02  0.12748527027E-01  0.51100000000E-03 0.  1.
         11    1    4    4    0    0 -0.91839862547E-01 -0.22489018300E-01 -0.72652822279E-01  0.11924349040E+00  0.51100000000E-03 0. -1.
</event>
<event>
 8    1  0.1094134E+005  0.1043930E+01  0.7957747E-01            NaN
         13   -1    0    0    0    0  0.00000000000E+00  0.00000000000E+00  0.74505805969E-08  0.10566000000E+00  0.10566000000E+00 0.  1.
     999900   -1    0    0    0    0 -0.00000000000E+00 -0.00000000000E+00 -0.74505805969E-08  0.93827000000E+00  0.93827000000E+00 0. -1.
     999902    2    1    2    0    0 -0.89959428111E-02  0.21507317133E-01  0.54056233941E-02  0.10199985888E+01  0.10197178084E+01 0.  0.
     999903    2    3    3    0    0 -0.38257450323E-01 -0.11437410830E+00 -0.37908841186E-01  0.12803662749E+00  0.20278771761E-01 0.  0.
         14    1    1    2    0    0  0.89959428111E-02 -0.21507317133E-01 -0.54056233941E-02  0.23931411191E-01  0.00000000000E+00 0. -1.
     999901    1    3    3    0    0  0.29261507512E-01  0.13588142543E+00  0.43314464581E-01  0.89196196132E+00  0.88000000000E+00 0.  1.
        -11    1    4    4    0    0 -0.13928312662E-01 -0.19663294472E-01 -0.11736776093E-01  0.26807761510E-01  0.51100000000E-03 0. -1.
         11    1    4    4    0    0 -0.24329137661E-01 -0.94710813828E-01 -0.26172065093E-01  0.10122886598E+00  0.51100000000E-03 0.  1.
</event>
<event>
 8    1  0.1094134E+005  0.1043930E+01  0.7957747E-01            NaN
         13   -1    0    0    0    0  0.00000000000E+00  0.00000000000E+00  0.74505805969E-08  0.10566000000E+00  0.10566000000E+00 0. -1.
     999900   -1    0    0    0    0 -0.00000000000E+00 -0.00000000000E+00 -0.74505805969E-08  0.93827000000E+00  0.93827000000E+00 0.  1.
     999902    2    1    2    0    0  0.45311927966E-02 -0.21178397991E-01  0.98264339475E-02  0.10201473371E+01  0.10198700772E+01 0.  0.
     999903    2    3    3    0    0 -0.65515884549E-01  0.10581086867E+00 -0.22181532098E-01  0.12770273000E+00  0.18102370718E-01 0.  0.
         14    1    1    2    0    0 -0.45311927966E-02  0.21178397991E-01 -0.98264339475E-02  0.23782662882E-01  0.00000000000E+00 0. -1.
     999901    1    3    3    0    0  0.70047077345E-01 -0.12698926666E+00  0.32007966045E-01  0.89244460712E+00  0.88000000000E+00 0. -1.
        -11    1    4    4    0    0 -0.62335784692E-01  0.91419102262E-01 -0.16385241201E-01  0.11185678147E+00  0.51100000000E-03 0.  1.
         11    1    4    4    0    0 -0.31800998571E-02  0.14391766406E-01 -0.57962908964E-02  0.15845948521E-01  0.51100000000E-03 0. -1.
</event>
<event>
 8    1  0.1094134E+005  0.1043930E+01  0.7957747E-01            NaN
         13   -1    0    0    0    0  0.00000000000E+00  0.00000000000E+00  0.74505805969E-08  0.10566000000E+00  0.10566000000E+00 0.  1.
     999900   -1    0    0    0    0 -0.00000000000E+00 -0.00000000000E+00 -0.74505805969E-08  0.93827000000E+00  0.93827000000E+00 0. -1.
     999902    2    1    2    0    0 -0.21678221709E-01 -0.10957667660E-01  0.27925307486E-02  0.10194797647E+01  0.10191865269E+01 0.  0.
     999903    2    3    3    0    0  0.20923662335E-01 -0.12035489364E+00 -0.41490291483E-01  0.13057952177E+00  0.20161030503E-01 0.  0.
         14    1    1    2    0    0  0.21678221709E-01  0.10957667660E-01 -0.27925307486E-02  0.24450235275E-01  0.00000000000E+00 0. -1.
     999901    1    3    3    0    0 -0.42601884044E-01  0.10939722598E+00  0.44282822231E-01  0.88890024295E+00  0.88000000000E+00 0.  1.
        -11    1    4    4    0    0  0.10583941645E-01 -0.99817357659E-01 -0.37934604631E-01  0.10730712959E+00  0.51100000000E-03 0. -1.
         11    1    4    4    0    0  0.10339720690E-01 -0.20537535980E-01 -0.35556868520E-02  0.23272392186E-01  0.51100000000E-03 0.  1.
</event>
<event>
 8    1  0.1094134E+005  0.1043930E+01  0.7957747E-01            NaN
         13   -1    0    0    0    0  0.00000000000E+00  0.00000000000E+00  0.74505805969E-08  0.10566000000E+00  0.10566000000E+00 0. -1.
     999900   -1    0    0    0    0 -0.00000000000E+00 -0.00000000000E+00 -0.74505805969E-08  0.93827000000E+00  0.93827000000E+00 0. -1.
     999902    2    1    2    0    0 -0.93798797081E-02  0.14198941754E-01 -0.17778328089E-01  0.10193198184E+01  0.10190226843E+01 0.  0.
     999903    2    3    3    0    0  0.93937382714E-01 -0.47122394008E-01 -0.74633624029E-01  0.12933819631E+00  0.10650788681E-01 0.  0.
         14    1    1    2    0    0  0.93798797081E-02 -0.14198941754E-01  0.17778328089E-01  0.24610181631E-01  0.00000000000E+00 0. -1.
     999901    1    3    3    0    0 -0.10331726242E+00  0.61321335763E-01  0.56855295940E-01  0.88998162206E+00  0.88000000000E+00 0. -1.
        -11    1    4    4    0    0  0.34507466858E-01 -0.20647412319E-01 -0.23428268593E-01  0.46542730847E-01  0.51100000000E-03 0. -1.
         11    1    4    4    0    0  0.59429915857E-01 -0.26474981689E-01 -0.51205355436E-01  0.82795465459E-01  0.51100000000E-03 0.  1.
</event>
<event>
 8    1  0.1094134E+005  0.1043930E+01  0.7957747E-01            NaN
         13   -1    0    0    0    0  0.00000000000E+00  0.00000000000E+00  0.74505805969E-08  0.10566000000E+00  0.10566000000E+00 0.  1.
     999900   -1    0    0    0    0 -0.00000000000E+00 -0.00000000000E+00 -0.74505805969E-08  0.93827000000E+00  0.93827000000E+00 0.  1.
     999902    2    1    2    0    0  0.13855108006E-01 -0.14620932709E-01  0.91840246229E-02  0.10217922043E+01  0.10215523612E+01 0.  0.
     999903    2    3    3    0    0 -0.82477891404E-01  0.23506865577E-01  0.97425677831E-01  0.13133144426E+00  0.20025240326E-01 0.  0.
         14    1    1    2    0    0 -0.13855108006E-01  0.14620932709E-01 -0.91840246229E-02  0.22137795721E-01  0.00000000000E+00 0. -1.
     999901    1    3    3    0    0  0.96332999410E-01 -0.38127798285E-01 -0.88241653208E-01  0.89046076002E+00  0.88000000000E+00 0. -1.
        -11    1    4    4    0    0 -0.20331357697E-01  0.10345445412E-01  0.38103134856E-01  0.44412862477E-01  0.51100000000E-03 0. -1.
         11    1    4    4    0    0 -0.62146533707E-01  0.13161420165E-01  0.59322542975E-01  0.86918581780E-01  0.51100000000E-03 0.  1.
</event>
<event>
 8    1  0.1094134E+005  0.1043930E+01  0.7957747E-01            NaN
         13   -1    0    0    0    0  0.00000000000E+00  0.00000000000E+00  0.74505805969E-08  0.10566000000E+00  0.10566000000E+00 0. -1.
     999900   -1    0    0    0    0 -0.00000000000E+00 -0.00000000000E+00 -0.74505805969E-08  0.93827000000E+00  0.93827000000E+00 0. -1.
     999902    2    1    2    0    0  0.23554124304E-01 -0.55346056214E-02 -0.33210734675E-02  0.10195075071E+01  0.10192149424E+01 0.  0.
     999903    2    3    3    0    0 -0.97665613922E-01  0.54310250547E-01 -0.58754362138E-01  0.12746015339E+00  0.17488286783E-01 0.  0.
         14    1    1    2    0    0 -0.23554124304E-01  0.55346056214E-02  0.33210734675E-02  0.24422492913E-01  0.00000000000E+00 0. -1.
     999901    1    3    3    0    0  0.12121973823E+00 -0.59844856169E-01  0.55433288671E-01  0.89204735370E+00  0.88000000000E+00 0. -1.
        -11    1    4    4    0    0 -0.32613182655E-01  0.18440818453E-01 -0.10634949543E-01  0.38949284215E-01  0.51100000000E-03 0.  1.
         11    1    4    4    0    0 -0.65052431268E-01  0.35869432095E-01 -0.48119412595E-01  0.88510869175E-01  0.51100000000E-03 0. -1.
</event>
<event>
 8    1  0.1094134E+005  0.1043930E+01  0.7957747E-01            NaN
         13   -1    0    0    0    0  0.00000000000E+00  0.00000000000E+00  0.74505805969E-08  0.10566000000E+00  0.10566000000E+00 0. -1.
     999900   -1    0    0    0    0 -0.00000000000E+00 -0.00000000000E+00 -0.74505805969E-08  0.93827000000E+00  0.93827000000E+00 0. -1.
     999902    2    1    2    0    0 -0.72910218860E-02  0.54693537410E-02 -0.21882332484E-01  0.10202253738E+01  0.10199499517E+01 0.  0.
     999903    2    3    3    0    0 -0.48546434966E-01 -0.17241428868E-01 -0.12139122692E+00  0.13336585341E+00  0.19914759978E-01 0.  0.
         14    1    1    2    0    0  0.72910218860E-02 -0.54693537410E-02  0.21882332484E-01  0.23704626245E-01  0.00000000000E+00 0. -1.
     999901    1    3    3    0    0  0.41255413080E-01  0.22710782609E-01  0.99508894438E-01  0.88685952035E+00  0.88000000000E+00 0.  1.
        -11    1    4    4    0    0 -0.23484650956E-01  0.75372909124E-03 -0.41038667433E-01  0.47291968491E-01  0.51100000000E-03 0. -1.
         11    1    4    4    0    0 -0.25061784009E-01 -0.17995157959E-01 -0.80352559488E-01  0.86073884919E-01  0.51100000000E-03 0.  1.
</event>
<event>
 8    1  0.1094134E+005  0.1043930E+01  0.7957747E-01            NaN
         13   -1    0    0    0    0  0.00000000000E+00  0.00000000000E+00  0.74505805969E-08  0.10566000000E+00  0.10566000000E+00 0. -1.
     999900   -1    0    0    0    0 -0.00000000000E+00 -0.00000000000E+00 -0.74505805969E-08  0.93827000000E+00  0.93827000000E+00 0. -1.
     999902    2    1    2    0    0  0.12615334117E-01 -0.19544198450E-01  0.69590385338E-02  0.10196493376E+01  0.10193602019E+01 0.  0.
     999903    2    3    3    0    0  0.11865372806E+00  0.40622474443E-01  0.31483453040E-01  0.13090549578E+00  0.20399715633E-01 0.  0.
         14    1    1    2    0    0 -0.12615334117E-01  0.19544198450E-01 -0.69590385338E-02  0.24280662373E-01  0.00000000000E+00 0. -1.
     999901    1    3    3    0    0 -0.10603839394E+00 -0.60166672893E-01 -0.24524414506E-01  0.88874384185E+00  0.88000000000E+00 0. -1.
        -11    1    4    4    0    0  0.62137511176E-01  0.10629653964E-01  0.14040878179E-01  0.64586896655E-01  0.51100000000E-03 0. -1.
         11    1    4    4    0    0  0.56516216882E-01  0.29992820479E-01  0.17442574861E-01  0.66318599124E-01  0.51100000000E-03 0.  1.
</event>
<event>
 8    1  0.1094134E+005  0.1043930E+01  0.7957747E-01            NaN
         13   -1    0    0    0    0  0.00000000000E+00  0.00000000000E+00  0.74505805969E-08  0.10566000000E+00  0.10566000000E+00 0. -1.
     999900   -1    0    0    0    0 -0.00000000000E+00 -0.00000000000E+00 -0.74505805969E-08  0.93827000000E+00  0.93827000000E+00 0.  1.
     999902    2    1    2    0    0  0.11395283933E-01  0.18645663954E-01 -0.70962676523E-02  0.10209545719E+01  0.10206960212E+01 0.  0.
     999903    2    3    3    0    0  0.98905301781E-01  0.62967635335E-01  0.59134232504E-01  0.13303063402E+00  0.21286387998E-01 0.  0.
         14    1    1    2    0    0 -0.11395283933E-01 -0.18645663954E-01  0.70962676523E-02  0.22975428065E-01  0.00000000000E+00 0. -1.
     999901    1    3    3    0    0 -0.87510017848E-01 -0.44321971381E-01 -0.66230500156E-01  0.88792393791E+00  0.88000000000E+00 0. -1.
        -11    1    4    4    0    0  0.62506344182E-01  0.43301944515E-01  0.48903149376E-01  0.90409516101E-01  0.51100000000E-03 0. -1.
         11    1    4    4    0    0  0.36398957598E-01  0.19665690820E-01  0.10231083128E-01  0.42621117919E-01  0.51100000000E-03 0.  1.
</event>
<event>
 8    1  0.1094134E+005  0.1043930E+01  0.7957747E-01            NaN
         13   -1    0    0    0    0  0.00000000000E+00  0.00000000000E+00  0.74505805969E-08  0.10566000000E+00  0.10566000000E+00 0. -1.
     999900   -1    0    0    0    0 -0.00000000000E+00 -0.00000000000E+00 -0.74505805969E-08  0.93827000000E+00  0.93827000000E+00 0.  1.
     999902    2    1    2    0    0 -0.74870111833E-02  0.65178691675E-02  0.21783949317E-01  0.10199909440E+01  0.10197099820E+01 0.  0.
     999903    2    3    3    0    0  0.82791516067E-01 -0.21559388147E-01 -0.91498223711E-01  0.12770657475E+00  0.24855621933E-01 0.  0.
         14    1    1    2    0    0  0.74870111833E-02 -0.65178691675E-02 -0.21783949317E-01  0.23939056013E-01  0.00000000000E+00 0.  1.
     999901    1    3    3    0    0 -0.90278527250E-01  0.28077257315E-01  0.11328217303E+00  0.89228436924E+00  0.88000000000E+00 0. -1.
        -11    1    4    4    0    0  0.31684275308E-01 -0.22193394217E-02 -0.49368321238E-01  0.58705289643E-01  0.51100000000E-03 0. -1.
         11    1    4    4    0    0  0.51107240759E-01 -0.19340048726E-01 -0.42129902473E-01  0.69001285105E-01  0.51100000000E-03 0.  1.
</event>
<event>
 8    1  0.1094134E+005  0.1043930E+01  0.7957747E-01            NaN
         13   -1    0    0    0    0  0.00000000000E+00  0.00000000000E+00  0.74505805969E-08  0.10566000000E+00  0.10566000000E+00 0.  1.
     999900   -1    0    0    0    0 -0.00000000000E+00 -0.00000000000E+00 -0.74505805969E-08  0.93827000000E+00  0.93827000000E+00 0. -1.
     999902    2    1    2    0    0  0.25222174094E-01  0.60077135788E-02 -0.15640054069E-02  0.10179550736E+01  0.10176236215E+01 0.  0.
     999903    2    3    3    0    0  0.36241852850E-01 -0.93631896325E-01  0.77718447984E-01  0.12872214990E+00  0.21185627442E-01 0.  0.
         14    1    1    2    0    0 -0.25222174094E-01 -0.60077135788E-02  0.15640054069E-02  0.25974926398E-01  0.00000000000E+00 0. -1.
     999901    1    3    3    0    0 -0.11019678756E-01  0.99639609904E-01 -0.79282453391E-01  0.88923292370E+00  0.88000000000E+00 0. -1.
        -11    1    4    4    0    0  0.26312906745E-01 -0.75308716049E-01  0.50414725678E-01  0.94369897004E-01  0.51100000000E-03 0.  1.
         11    1    4    4    0    0  0.99289461049E-02 -0.18323180276E-01  0.27303722307E-01  0.34352252895E-01  0.51100000000E-03 0. -1.
</event>
<event>
 8    1  0.1094134E+005  0.1043930E+01  0.7957747E-01            NaN
         13   -1    0    0    0    0  0.00000000000E+00  0.00000000000E+00  0.74505805969E-08  0.10566000000E+00  0.10566000000E+00 0.  1.
     999900   -1    0    0    0    0 -0.00000000000E+00 -0.00000000000E+00 -0.74505805969E-08  0.93827000000E+00  0.93827000000E+00 0. -1.
     999902    2    1    2    0    0  0.22971809930E-02  0.16289513371E-01 -0.18072532081E-01  0.10194914709E+01  0.10191985173E+01 0.  0.
     999903    2    3    3    0    0 -0.79232330242E-01 -0.21503396829E-01  0.95645391866E-01  0.12763546716E+00  0.20065225183E-01 0.  0.
         14    1    1    2    0    0 -0.22971809930E-02 -0.16289513371E-01  0.18072532081E-01  0.24438529052E-01  0.00000000000E+00 0.  1.
     999901    1    3    3    0    0  0.81529511235E-01  0.37792910200E-01 -0.11371792395E+00  0.89185600379E+00  0.88000000000E+00 0. -1.
        -11    1    4    4    0    0 -0.30054786768E-01 -0.16434885806E-01  0.48015347340E-01  0.58984153637E-01  0.51100000000E-03 0.  1.
         11    1    4    4    0    0 -0.49177543473E-01 -0.50685110235E-02  0.47630044526E-01  0.68651313524E-01  0.51100000000E-03 0. -1.
</event>
<event>
 8    1  0.1094134E+005  0.1043930E+01  0.7957747E-01            NaN
         13   -1    0    0    0    0  0.00000000000E+00  0.00000000000E+00  0.74505805969E-08  0.10566000000E+00  0.10566000000E+00 0. -1.
     999900   -1    0    0    0    0 -0.00000000000E+00 -0.00000000000E+00 -0.74505805969E-08  0.93827000000E+00  0.93827000000E+00 0.  1.
     999902    2    1    2    0    0  0.13334557388E-01 -0.15881593959E-01  0.11083185248E-01  0.10204167603E+01  0.10201458191E+01 0.  0.
     999903    2    3    3    0    0  0.65207406179E-01 -0.89404153094E-01  0.72021603695E-01  0.13373200795E+00  0.21261000490E-01 0.  0.
         14    1    1    2    0    0 -0.13334557388E-01  0.15881593959E-01 -0.11083185248E-01  0.23513239731E-01  0.00000000000E+00 0. -1.
     999901    1    3    3    0    0 -0.51872848791E-01  0.73522559135E-01 -0.60938418447E-01  0.88668475231E+00  0.88000000000E+00 0.  1.
        -11    1    4    4    0    0  0.39702643719E-01 -0.41593457736E-01  0.45892283405E-01  0.73570907578E-01  0.51100000000E-03 0.  1.
         11    1    4    4    0    0  0.25504762460E-01 -0.47810695358E-01  0.26129320289E-01  0.60161100377E-01  0.51100000000E-03 0. -1.
</event>
<event>
 8    1  0.1094134E+005  0.1043930E+01  0.7957747E-01            NaN
         13   -1    0    0    0    0  0.00000000000E+00  0.00000000000E+00  0.74505805969E-08  0.10566000000E+00  0.10566000000E+00 0.  1.
     999900   -1    0    0    0    0 -0.00000000000E+00 -0.00000000000E+00 -0.74505805969E-08  0.93827000000E+00  0.93827000000E+00 0.  1.
     999902    2    1    2    0    0  0.20916486070E-02  0.10729416574E-01  0.20422643904E-01  0.10207658087E+01  0.10205029429E+01 0.  0.
     999903    2    3    3    0    0  0.22355652362E-01  0.73463362531E-01 -0.10271594866E+00  0.12974993298E+00  0.19693607427E-01 0.  0.
         14    1    1    2    0    0 -0.20916486070E-02 -0.10729416574E-01 -0.20422643904E-01  0.23164191286E-01  0.00000000000E+00 0. -1.
     999901    1    3    3    0    0 -0.20264003755E-01 -0.62733945957E-01  0.12313859256E+00  0.89101587573E+00  0.88000000000E+00 0. -1.
        -11    1    4    4    0    0  0.19437637920E-01  0.35880767108E-01 -0.62337439581E-01  0.74508178818E-01  0.51100000000E-03 0. -1.
         11    1    4    4    0    0  0.29180144420E-02  0.37582595423E-01 -0.40378509078E-01  0.55241754167E-01  0.51100000000E-03 0.  1.
</event>
<event>
 8    1  0.1094134E+005  0.1043930E+01  0.7957747E-01            NaN
         13   -1    0    0    0    0  0.00000000000E+00  0.00000000000E+00  0.74505805969E-08  0.10566000000E+00  0.10566000000E+00 0.  1.
     999900   -1    0    0    0    0 -0.00000000000E+00 -0.00000000000E+00 -0.74505805969E-08  0.93827000000E+00  0.93827000000E+00 0. -1.
     999902    2    1    2    0    0  0.12416830124E-02 -0.19785026662E-01 -0.11920320798E-01  0.10207981366E+01  0.10205360124E+01 0.  0.
     999903    2    3    3    0    0 -0.37679903793E-01 -0.36310399291E-01  0.11781938666E+00  0.13028122516E+00  0.18803444085E-01 0.  0.
         14    1    1    2    0    0 -0.12416830124E-02  0.19785026662E-01  0.11920320798E-01  0.23131863406E-01  0.00000000000E+00 0.  1.
     999901    1    3    3    0    0  0.38921586805E-01  0.16525372630E-01 -0.12973970746E+00  0.89051691143E+00  0.88000000000E+00 0. -1.
        -11    1    4    4    0    0 -0.25538551384E-01 -0.35073078978E-01  0.91942669270E-01  0.10166638594E+00  0.51100000000E-03 0. -1.
         11    1    4    4    0    0 -0.12141352409E-01 -0.12373203135E-02  0.25876717391E-01  0.28614839224E-01  0.51100000000E-03 0.  1.
</event>
<event>
 8    1  0.1094134E+005  0.1043930E+01  0.7957747E-01            NaN
         13   -1    0    0    0    0  0.00000000000E+00  0.00000000000E+00  0.74505805969E-08  0.10566000000E+00  0.10566000000E+00 0. -1.
     999900   -1    0    0    0    0 -0.00000000000E+00 -0.00000000000E+00 -0.74505805969E-08  0.93827000000E+00  0.93827000000E+00 0.  1.
     999902    2    1    2    0    0 -0.72994789521E-02 -0.17746597665E-01  0.16149088152E-01  0.10188497853E+01  0.10185410487E+01 0.  0.
     999903    2    3    3    0    0  0.11924278535E+00 -0.34920245131E-01 -0.26636572336E-01  0.12860347580E+00  0.19775783804E-01 0.  0.
         14    1    1    2    0    0  0.72994789521E-02  0.17746597665E-01 -0.16149088152E-01  0.25080214708E-01  0.00000000000E+00 0. -1.
     999901    1    3    3    0    0 -0.12654226430E+00  0.17173647466E-01  0.42785660488E-01  0.89024630949E+00  0.88000000000E+00 0. -1.
        -11    1    4    4    0    0  0.71706335552E-01 -0.29902803983E-01 -0.20914260815E-01  0.80458956435E-01  0.51100000000E-03 0. -1.
         11    1    4    4    0    0  0.47536449794E-01 -0.50174411483E-02 -0.57223115213E-02  0.48144519364E-01  0.51100000000E-03 0.  1.
</event>
<event>
 8    1  0.1094134E+005  0.1043930E+01  0.7957747E-01            NaN
         13   -1    0    0    0    0  0.00000000000E+00  0.00000000000E+00  0.74505805969E-08  0.10566000000E+00  0.10566000000E+00 0. -1.
     999900   -1    0    0    0    0 -0.00000000000E+00 -0.00000000000E+00 -0.74505805969E-08  0.93827000000E+00  0.93827000000E+00 0.  1.
     999902    2    1    2    0    0  0.22231393168E-01 -0.85957210489E-02 -0.47013477226E-03  0.10200900694E+01  0.10198114568E+01 0.  0.
     999903    2    3    3    0    0  0.19655938570E-01  0.81887432757E-01  0.97090750145E-01  0.13008335016E+00  0.20078761439E-01 0.  0.
         14    1    1    2    0    0 -0.22231393168E-01  0.85957210489E-02  0.47013477226E-03  0.23839930563E-01  0.00000000000E+00 0. -1.
     999901    1    3    3    0    0  0.25754545982E-02 -0.90483153806E-01 -0.97560884918E-01  0.89000671928E+00  0.88000000000E+00 0.  1.
        -11    1    4    4    0    0  0.19635173903E-01  0.40915284992E-01  0.46458578044E-01  0.64948142353E-01  0.51100000000E-03 0.  1.
         11    1    4    4    0    0  0.20764666851E-04  0.40972147765E-01  0.50632172101E-01  0.65135207809E-01  0.51100000000E-03 0. -1.
</event>
<event>
 8    1  0.1094134E+005  0.1043930E+01  0.7957747E-01            NaN
         13   -1    0    0    0    0  0.00000000000E+00  0.00000000000E+00  0.74505805969E-08  0.10566000000E+00  0.10566000000E+00 0. -1.
     999900   -1    0    0    0    0 -0.00000000000E+00 -0.00000000000E+00 -0.74505805969E-08  0.93827000000E+00  0.93827000000E+00 0.  1.
     999902    2    1    2    0    0  0.10008573139E-01  0.10334857995E-01 -0.20120359280E-01  0.10191952131E+01  0.10188950254E+01 0.  0.
     999903    2    3    3    0    0  0.99596510138E-01 -0.30710745786E-01 -0.78232920317E-01  0.13179011405E+00  0.19637454058E-01 0.  0.
         14    1    1    2    0    0 -0.10008573139E-01 -0.10334857995E-01  0.20120359280E-01  0.24734786913E-01  0.00000000000E+00 0. -1.
     999901    1    3    3    0    0 -0.89587936999E-01  0.41045603781E-01  0.58112561037E-01  0.88740509904E+00  0.88000000000E+00 0. -1.
        -11    1    4    4    0    0  0.57385096006E-01 -0.85823103538E-02 -0.48394496240E-01  0.75557882990E-01  0.51100000000E-03 0. -1.
         11    1    4    4    0    0  0.42211414132E-01 -0.22128435432E-01 -0.29838424076E-01  0.56232231061E-01  0.51100000000E-03 0.  1.
</event>
<event>
 8    1  0.1094134E+005  0.1043930E+01  0.7957747E-01            NaN
         13   -1    0    0    0    0  0.00000000000E+00  0.00000000000E+00  0.74505805969E-08  0.10566000000E+00  0.10566000000E+00 0. -1.
     999900   -1    0    0    0    0 -0.00000000000E+00 -0.00000000000E+00 -0.74505805969E-08  0.93827000000E+00  0.93827000000E+00 0. -1.
     999902    2    1    2    0    0  0.14700653041E-01 -0.12517846922E-01 -0.13370501094E-01  0.10204443450E+01  0.10201740465E+01 0.  0.
     999903    2    3    3    0    0  0.10758773967E+00 -0.13147721617E-02  0.72988049463E-01  0.13128107596E+00  0.18182826732E-01 0.  0.
         14    1    1    2    0    0 -0.14700653041E-01  0.12517846922E-01  0.13370501094E-01  0.23485655002E-01  0.00000000000E+00 0. -1.
     999901    1    3    3    0    0 -0.92887086631E-01 -0.11203074760E-01 -0.86358550558E-01  0.88916326904E+00  0.88000000000E+00 0.  1.
        -11    1    4    4    0    0  0.63023231096E-01  0.47934178665E-02  0.34105357707E-01  0.71821591865E-01  0.51100000000E-03 0. -1.
         11    1    4    4    0    0  0.44564508575E-01 -0.61081900283E-02  0.38882691756E-01  0.59459484098E-01  0.51100000000E-03 0.  1.
</event>
<event>
 8    1  0.1094134E+005  0.1043930E+01  0.7957747E-01            NaN
         13   -1    0    0    0    0  0.00000000000E+00  0.00000000000E+00  0.74505805969E-08  0.10566000000E+00  0.10566000000E+00 0. -1.
     999900   -1    0    0    0    0 -0.00000000000E+00 -0.00000000000E+00 -0.74505805969E-08  0.93827000000E+00  0.93827000000E+00 0.  1.
     999902    2    1    2    0    0  0.24964688068E-01  0.23046496215E-02 -0.73555988486E-03  0.10188483711E+01  0.10185395992E+01 0.  0.
     999903    2    3    3    0    0  0.25257249782E-01 -0.67857921962E-01  0.10563815114E+00  0.12966996468E+00  0.20304051919E-01 0.  0.
         14    1    1    2    0    0 -0.24964688068E-01 -0.23046496215E-02  0.73555988486E-03  0.25081628906E-01  0.00000000000E+00 0. -1.
     999901    1    3    3    0    0 -0.29256171425E-03  0.70162571583E-01 -0.10637371102E+00  0.88917840642E+00  0.88000000000E+00 0. -1.
        -11    1    4    4    0    0  0.93790734450E-03  0.76635026269E-03  0.67109032765E-02  0.68384432950E-02  0.51100000000E-03 0. -1.
         11    1    4    4    0    0  0.24319342438E-01 -0.68624272225E-01  0.98927247859E-01  0.12283152138E+00  0.51100000000E-03 0.  1.
</event>
<event>
 8    1  0.1094134E+005  0.1043930E+01  0.7957747E-01            NaN
         13   -1    0    0    0    0  0.00000000000E+00  0.00000000000E+00  0.74505805969E-08  0.10566000000E+00  0.10566000000E+00 0. -1.
     999900   -1    0    0    0    0 -0.00000000000E+00 -0.00000000000E+00 -0.74505805969E-08  0.93827000000E+00  0.93827000000E+00 0.  1.
     999902    2    1    2    0    0 -0.10212237006E-01 -0.84088399875E-02  0.18041798039E-01  0.10215580343E+01  0.10213130336E+01 0.  0.
     999903    2    3    3    0    0 -0.92217592202E-01 -0.93894514015E-01 -0.59770548919E-02  0.13329591977E+00  0.20293175408E-01 0.  0.
         14    1    1    2    0    0  0.10212237006E-01  0.84088399875E-02 -0.18041798039E-01  0.22371965740E-01  0.00000000000E+00 0.  1.
     999901    1    3    3    0    0  0.82005355196E-01  0.85485674027E-01  0.24018852931E-01  0.88826211449E+00  0.88000000000E+00 0.  1.
        -11    1    4    4    0    0 -0.51190491388E-01 -0.48475873289E-01  0.65958078508E-02  0.70810610094E-01  0.51100000000E-03 0.  1.
         11    1    4    4    0    0 -0.41027100814E-01 -0.45418640726E-01 -0.12572862743E-01  0.62485309675E-01  0.51100000000E-03 0. -1.
</event>
<event>
 8    1  0.1094134E+005  0.1043930E+01  0.7957747E-01            NaN
         13   -1    0    0    0    0  0.00000000000E+00  0.00000000000E+00  0.74505805969E-08  0.10566000000E+00  0.10566000000E+00 0.  1.
     999900   -1    0    0    0    0 -0.00000000000E+00 -0.00000000000E+00 -0.74505805969E-08  0.93827000000E+00  0.93827000000E+00 0. -1.
     999902    2    1    2    0    0 -0.34441975224E-02  0.21909604891E-01 -0.41515720488E-02  0.10213661166E+01  0.10211168471E+01 0.  0.
     999903    2    3    3    0    0  0.11311867845E-01  0.13614671599E-01 -0.12973656030E+00  0.13228899023E+00  0.18854289196E-01 0.  0.
         14    1    1    2    0    0  0.34441975224E-02 -0.21909604891E-01  0.41515720488E-02  0.22563883388E-01  0.00000000000E+00 0.  1.
     999901    1    3    3    0    0 -0.14756065368E-01  0.82949332921E-02  0.12558498825E+00  0.88907712638E+00  0.88000000000E+00 0.  1.
        -11    1    4    4    0    0  0.70147545203E-03  0.32704268921E-02 -0.86771803011E-01  0.86837749157E-01  0.51100000000E-03 0. -1.
         11    1    4    4    0    0  0.10610392393E-01  0.10344244707E-01 -0.42964757287E-01  0.45451241072E-01  0.51100000000E-03 0.  1.
</event>
<event>
 8    1  0.1094134E+005  0.1043930E+01  0.7957747E-01            NaN
         13   -1    0    0    0    0  0.00000000000E+00  0.00000000000E+00  0.74505805969E-08  0.10566000000E+00  0.10566000000E+00 0. -1.
     999900   -1    0    0    0    0 -0.00000000000E+00 -0.00000000000E+00 -0.74505805969E-08  0.93827000000E+00  0.93827000000E+00 0. -1.
     999902    2    1    2    0    0  0.18029876798E-01 -0.11964361031E-01  0.10575002490E-01  0.10198457091E+01  0.10195612866E+01 0.  0.
     999903    2    3    3    0    0 -0.94410010153E-01  0.80608818074E-01  0.23270195880E-01  0.12778422598E+00  0.19397804636E-01 0.  0.
         14    1    1    2    0    0 -0.18029876798E-01  0.11964361031E-01 -0.10575002490E-01  0.24084290936E-01  0.00000000000E+00 0.  1.
     999901    1    3    3    0    0  0.11243988695E+00 -0.92573179105E-01 -0.12695193390E-01  0.89206148308E+00  0.88000000000E+00 0.  1.
        -11    1    4    4    0    0 -0.72241280846E-01  0.62304556175E-01  0.26064616744E-01  0.98895327218E-01  0.51100000000E-03 0.  1.
         11    1    4    4    0    0 -0.22168729307E-01  0.18304261899E-01 -0.27944208644E-02  0.28888898762E-01  0.51100000000E-03 0. -1.
</event>
<event>
 8    1  0.1094134E+005  0.1043930E+01  0.7957747E-01            NaN
         13   -1    0    0    0    0  0.00000000000E+00  0.00000000000E+00  0.74505805969E-08  0.10566000000E+00  0.10566000000E+00 0. -1.
     999900   -1    0    0    0    0 -0.00000000000E+00 -0.00000000000E+00 -0.74505805969E-08  0.93827000000E+00  0.93827000000E+00 0.  1.
     999902    2    1    2    0    0 -0.12241347960E-01  0.12476936553E-01  0.15417522614E-01  0.10206228219E+01  0.10203566632E+01 0.  0.
     999903    2    3    3    0    0 -0.94060795454E-01  0.34973154971E-01 -0.82057626203E-01  0.13118372539E+00  0.20128610963E-01 0.  0.
         14    1    1    2    0    0  0.12241347960E-01 -0.12476936553E-01 -0.15417522614E-01  0.23307178061E-01  0.00000000000E+00 0.  1.
     999901    1    3    3    0    0  0.81819447494E-01 -0.22496218418E-01  0.97475148816E-01  0.88943909655E+00  0.88000000000E+00 0. -1.
        -11    1    4    4    0    0 -0.55786514802E-01  0.30906627500E-01 -0.53668913556E-01  0.83354473548E-01  0.51100000000E-03 0.  1.
         11    1    4    4    0    0 -0.38274280653E-01  0.40665274712E-02 -0.28388712646E-01  0.47829251843E-01  0.51100000000E-03 0. -1.
</event>
<event>
 8    1  0.1094134E+005  0.1043930E+01  0.7957747E-01            NaN
         13   -1    0    0    0    0  0.00000000000E+00  0.00000000000E+00  0.74505805969E-08  0.10566000000E+00  0.10566000000E+00 0.  1.
     999900   -1    0    0    0    0 -0.00000000000E+00 -0.00000000000E+00 -0.74505805969E-08  0.93827000000E+00  0.93827000000E+00 0.  1.
     999902    2    1    2    0    0  0.17128686179E-01 -0.85092944079E-02 -0.11585835281E-02  0.10247690424E+01  0.10245898925E+01 0.  0.
     999903    2    3    3    0    0  0.47482004158E-01  0.12376999680E+00  0.46480043549E-02  0.13434619267E+00  0.21301237375E-01 0.  0.
         14    1    1    2    0    0 -0.17128686179E-01  0.85092944079E-02  0.11585835281E-02  0.19160957631E-01  0.00000000000E+00 0.  1.
     999901    1    3    3    0    0 -0.30353317979E-01 -0.13227929121E+00 -0.58065878830E-02  0.89042284969E+00  0.88000000000E+00 0.  1.
        -11    1    4    4    0    0  0.39733597642E-01  0.10404721666E+00 -0.40112883785E-02  0.11144924240E+00  0.51100000000E-03 0.  1.
         11    1    4    4    0    0  0.77484065162E-02  0.19722780141E-01  0.86592927334E-02  0.22896950270E-01  0.51100000000E-03 0. -1.
</event>
<event>
 8    1  0.1094134E+005  0.1043930E+01  0.7957747E-01            NaN
         13   -1    0    0    0    0  0.00000000000E+00  0.00000000000E+00  0.74505805969E-08  0.10566000000E+00  0.10566000000E+00 0. -1.
     999900   -1    0    0    0    0 -0.00000000000E+00 -0.00000000000E+00 -0.74505805969E-08  0.93827000000E+00  0.93827000000E+00 0. -1.
     999902    2    1    2    0    0  0.12690186847E-01  0.16192776345E-01 -0.60361608315E-02  0.10224898021E+01  0.10222649917E+01 0.  0.
     999903    2    3    3    0    0 -0.10168945986E+00 -0.44864444839E-01 -0.66325742459E-01  0.13094870856E+00  0.19871977848E-01 0.  0.
         14    1    1    2    0    0 -0.12690186847E-01 -0.16192776345E-01  0.60361608315E-02  0.21440197889E-01  0.00000000000E+00 0. -1.
     999901    1    3    3    0    0  0.11437964670E+00  0.61057221184E-01  0.60289581628E-01  0.89154109355E+00  0.88000000000E+00 0.  1.
        -11    1    4    4    0    0 -0.46154613014E-01 -0.30562384402E-01 -0.36487021905E-01  0.66301369000E-01  0.51100000000E-03 0.  1.
         11    1    4    4    0    0 -0.55534846844E-01 -0.14302060437E-01 -0.29838720554E-01  0.64647339559E-01  0.51100000000E-03 0. -1.
</event>
<event>
 8    1  0.1094134E+005  0.1043930E+01  0.7957747E-01            NaN
         13   -1    0    0    0    0  0.00000000000E+00  0.00000000000E+00  0.74505805969E-08  0.10566000000E+00  0.10566000000E+00 0.  1.
     999900   -1    0    0    0    0 -0.00000000000E+00 -0.00000000000E+00 -0.74505805969E-08  0.93827000000E+00  0.93827000000E+00 0.  1.
     999902    2    1    2    0    0  0.43661395688E-02  0.21562956404E-01  0.54696012379E-02  0.10212597375E+01  0.10210080855E+01 0.  0.
     999903    2    3    3    0    0 -0.18548941821E-01 -0.84141130731E-01 -0.93970824528E-01  0.12907878430E+00  0.20174825179E-01 0.  0.
         14    1    1    2    0    0 -0.43661395688E-02 -0.21562956404E-01 -0.54696012379E-02  0.22670262489E-01  0.00000000000E+00 0. -1.
     999901    1    3    3    0    0  0.22915081389E-01  0.10570408714E+00  0.99440425766E-01  0.89218095321E+00  0.88000000000E+00 0. -1.
        -11    1    4    4    0    0 -0.17615735885E-01 -0.44225907985E-01 -0.41599503270E-01  0.63222028449E-01  0.51100000000E-03 0.  1.
         11    1    4    4    0    0 -0.93320593554E-03 -0.39915222746E-01 -0.52371321258E-01  0.65856755853E-01  0.51100000000E-03 0. -1.
</event>
<event>
 8    1  0.1094134E+005  0.1043930E+01  0.7957747E-01            NaN
         13   -1    0    0    0    0  0.00000000000E+00  0.00000000000E+00  0.74505805969E-08  0.10566000000E+00  0.10566000000E+00 0.  1.
     999900   -1    0    0    0    0 -0.00000000000E+00 -0.00000000000E+00 -0.74505805969E-08  0.93827000000E+00  0.93827000000E+00 0.  1.
     999902    2    1    2    0    0  0.76469760889E-02  0.21181445603E-01 -0.10243264468E-01  0.10191902678E+01  0.10188899586E+01 0.  0.
     999903    2    3    3    0    0  0.77083154615E-01  0.61619177836E-01  0.83033621296E-01  0.13061997207E+00  0.20694420403E-01 0.  0.
         14    1    1    2    0    0 -0.76469760889E-02 -0.21181445603E-01  0.10243264468E-01  0.24739732175E-01  0.00000000000E+00 0. -1.
     999901    1    3    3    0    0 -0.69436178526E-01 -0.40437732233E-01 -0.93276885765E-01  0.88857029575E+00  0.88000000000E+00 0.  1.
        -11    1    4    4    0    0  0.41397724178E-01  0.21235853927E-01  0.44353328641E-01  0.64282283265E-01  0.51100000000E-03 0. -1.
         11    1    4    4    0    0  0.35685430437E-01  0.40383323909E-01  0.38680292655E-01  0.66337688807E-01  0.51100000000E-03 0.  1.
</event>
<event>
 8    1  0.1094134E+005  0.1043930E+01  0.7957747E-01            NaN
         13   -1    0    0    0    0  0.00000000000E+00  0.00000000000E+00  0.74505805969E-08  0.10566000000E+00  0.10566000000E+00 0. -1.
     999900   -1    0    0    0    0 -0.00000000000E+00 -0.00000000000E+00 -0.74505805969E-08  0.93827000000E+00  0.93827000000E+00 0. -1.
     999902    2    1    2    0    0 -0.10647171862E-01  0.10018807594E-01 -0.17676365305E-01  0.10209911102E+01  0.10207333905E+01 0.  0.
     999903    2    3    3    0    0  0.51097891272E-02  0.88027978316E-01 -0.98434230295E-01  0.13371688806E+00  0.20392977906E-01 0.  0.
         14    1    1    2    0    0  0.10647171862E-01 -0.10018807594E-01  0.17676365305E-01  0.22938889787E-01  0.00000000000E+00 0.  1.
     999901    1    3    3    0    0 -0.15756960989E-01 -0.78009170722E-01  0.80757864990E-01  0.88727422215E+00  0.88000000000E+00 0.  1.
        -11    1    4    4    0    0  0.54706678244E-02  0.43739940881E-01 -0.63517571470E-01  0.77316580635E-01  0.51100000000E-03 0. -1.
         11    1    4    4    0    0 -0.36087869717E-03  0.44288037436E-01 -0.34916658825E-01  0.56400307427E-01  0.51100000000E-03 0.  1.
</event>
<event>
 8    1  0.1094134E+005  0.1043930E+01  0.7957747E-01            NaN
         13   -1    0    0    0    0  0.00000000000E+00  0.00000000000E+00  0.74505805969E-08  0.10566000000E+00  0.10566000000E+00 0.  1.
     999900   -1    0    0    0    0 -0.00000000000E+00 -0.00000000000E+00 -0.74505805969E-08  0.93827000000E+00  0.93827000000E+00 0.  1.
     999902    2    1    2    0    0  0.23603056417E-02  0.18123180183E-01 -0.19199283463E-01  0.10174227710E+01  0.10170774119E+01 0.  0.
     999903    2    3    3    0    0 -0.32215374845E-01  0.10271605510E+00  0.67238105575E-01  0.12847797274E+00  0.19930084936E-01 0.  0.
         14    1    1    2    0    0 -0.23603056417E-02 -0.18123180183E-01  0.19199283463E-01  0.26507228980E-01  0.00000000000E+00 0.  1.
     999901    1    3    3    0    0  0.34575680487E-01 -0.84592874919E-01 -0.86437389038E-01  0.88894479828E+00  0.88000000000E+00 0.  1.
        -11    1    4    4    0    0 -0.30858787590E-01  0.72700776159E-01  0.43389400658E-01  0.90114198860E-01  0.51100000000E-03 0. -1.
         11    1    4    4    0    0 -0.13565872548E-02  0.30015278943E-01  0.23848704917E-01  0.38363773879E-01  0.51100000000E-03 0.  1.
</event>
<event>
 8    1  0.1094134E+005  0.1043930E+01  0.7957747E-01            NaN
         13   -1    0    0    0    0  0.00000000000E+00  0.00000000000E+00  0.74505805969E-08  0.10566000000E+00  0.10566000000E+00 0.  1.
     999900   -1    0    0    0    0 -0.00000000000E+00 -0.00000000000E+00 -0.74505805969E-08  0.93827000000E+00  0.93827000000E+00 0.  1.
     999902    2    1    2    0    0 -0.17037660073E-01 -0.90825664196E-02  0.11807624851E-01  0.10212982772E+01  0.10210474896E+01 0.  0.
     999903    2    3    3    0    0 -0.31831459018E-01 -0.19318027582E-01  0.12675367898E+00  0.13364056357E+00  0.20171195401E-01 0.  0.
         14    1    1    2    0    0  0.17037660073E-01  0.90825664196E-02 -0.11807624851E-01  0.22631722828E-01  0.00000000000E+00 0. -1.
     999901    1    3    3    0    0  0.14793798944E-01  0.10235461163E-01 -0.11494605413E+00  0.88765771360E+00  0.88000000000E+00 0.  1.
        -11    1    4    4    0    0 -0.27270018449E-01 -0.67704397828E-02  0.97711809170E-01  0.10167276692E+00  0.51100000000E-03 0.  1.
         11    1    4    4    0    0 -0.45614405687E-02 -0.12547587799E-01  0.29041869811E-01  0.31967796652E-01  0.51100000000E-03 0. -1.
</event>
<event>
 8    1  0.1094134E+005  0.1043930E+01  0.7957747E-01            NaN
         13   -1    0    0    0    0  0.00000000000E+00  0.00000000000E+00  0.74505805969E-08  0.10566000000E+00  0.10566000000E+00 0.  1.
     999900   -1    0    0    0    0 -0.00000000000E+00 -0.00000000000E+00 -0.74505805969E-08  0.93827000000E+00  0.93827000000E+00 0. -1.
     999902    2    1    2    0    0 -0.80873203347E-02 -0.12702961509E-01 -0.17370538136E-01  0.10209407509E+01  0.10206818854E+01 0.  0.
     999903    2    3    3    0    0 -0.12098473933E+00 -0.35118827305E-01 -0.38315728232E-01  0.13319810839E+00  0.20074906370E-01 0.  0.
         14    1    1    2    0    0  0.80873203347E-02  0.12702961509E-01  0.17370538136E-01  0.22989249149E-01  0.00000000000E+00 0.  1.
     999901    1    3    3    0    0  0.11289741900E+00  0.22415865796E-01  0.20945190096E-01  0.88774264246E+00  0.88000000000E+00 0.  1.
        -11    1    4    4    0    0 -0.63166861124E-01 -0.28517259309E-01 -0.18711811155E-01  0.71789131632E-01  0.51100000000E-03 0. -1.
         11    1    4    4    0    0 -0.57817878209E-01 -0.66015679951E-02 -0.19603917077E-01  0.61408976757E-01  0.51100000000E-03 0.  1.
</event>
<event>
 8    1  0.1094134E+005  0.1043930E+01  0.7957747E-01            NaN
         13   -1    0    0    0    0  0.00000000000E+00  0.00000000000E+00  0.74505805969E-08  0.10566000000E+00  0.10566000000E+00 0.  1.
     999900   -1    0    0    0    0 -0.00000000000E+00 -0.00000000000E+00 -0.74505805969E-08  0.93827000000E+00  0.93827000000E+00 0. -1.
     999902    2    1    2    0    0  0.11561714375E-02  0.10117350757E-01 -0.21082777982E-01  0.10205167335E+01  0.10202481181E+01 0.  0.
     999903    2    3    3    0    0 -0.11518916884E+00  0.59449891758E-01 -0.72127330416E-02  0.13138102065E+00  0.20152290690E-01 0.  0.
         14    1    1    2    0    0 -0.11561714375E-02 -0.10117350757E-01  0.21082777982E-01  0.23413266456E-01  0.00000000000E+00 0.  1.
     999901    1    3    3    0    0  0.11634534028E+00 -0.49332541001E-01 -0.13870044940E-01  0.88913571290E+00  0.88000000000E+00 0.  1.
        -11    1    4    4    0    0 -0.29440262602E-01  0.16441298017E-01 -0.10715646665E-01  0.35385470846E-01  0.51100000000E-03 0. -1.
         11    1    4    4    0    0 -0.85748906236E-01  0.43008593741E-01  0.35029136233E-02  0.95995549799E-01  0.51100000000E-03 0.  1.
</event>
<event>
 8    1  0.1094134E+005  0.1043930E+01  0.7957747E-01            NaN
         13   -1    0    0    0    0  0.00000000000E+00  0.00000000000E+00  0.74505805969E-08  0.10566000000E+00  0.10566000000E+00 0.  1.
     999900   -1    0    0    0    0 -0.00000000000E+00 -0.00000000000E+00 -0.74505805969E-08  0.93827000000E+00  0.93827000000E+00 0. -1.
     999902    2    1    2    0    0  0.97176045438E-02 -0.21335662489E-01 -0.10813704698E-02  0.10204606222E+01  0.10201907027E+01 0.  0.
     999903    2    3    3    0    0  0.84714472837E-01 -0.89085478849E-01 -0.48231437435E-01  0.13342189888E+00  0.19035942143E-01 0.  0.
         14    1    1    2    0    0 -0.97176045438E-02  0.21335662489E-01  0.10813704698E-02  0.23469377793E-01  0.00000000000E+00 0. -1.
     999901    1    3    3    0    0 -0.74996868293E-01  0.67749816360E-01  0.47150066965E-01  0.88703872333E+00  0.88000000000E+00 0.  1.
        -11    1    4    4    0    0  0.23835971649E-01 -0.29116844043E-01 -0.60259229691E-02  0.38111901293E-01  0.51100000000E-03 0. -1.
         11    1    4    4    0    0  0.60878501187E-01 -0.59968634806E-01 -0.42205514466E-01  0.95309997585E-01  0.51100000000E-03 0.  1.
</event>
<event>
 8    1  0.1094134E+005  0.1043930E+01  0.7957747E-01            NaN
         13   -1    0    0    0    0  0.00000000000E+00  0.00000000000E+00  0.74505805969E-08  0.10566000000E+00  0.10566000000E+00 0. -1.
     999900   -1    0    0    0    0 -0.00000000000E+00 -0.00000000000E+00 -0.74505805969E-08  0.93827000000E+00  0.93827000000E+00 0.  1.
     999902    2    1    2    0    0 -0.44910588637E-02  0.15558807691E-01 -0.16771091499E-01  0.10206165786E+01  0.10203502756E+01 0.  0.
     999903    2    3    3    0    0 -0.21400628750E-01  0.10586381980E+00 -0.76248077759E-01  0.13383676341E+00  0.20817651750E-01 0.  0.
         14    1    1    2    0    0  0.44910588637E-02 -0.15558807691E-01  0.16771091499E-01  0.23313421382E-01  0.00000000000E+00 0. -1.
     999901    1    3    3    0    0  0.16909569886E-01 -0.90305012110E-01  0.59476986260E-01  0.88677981521E+00  0.88000000000E+00 0. -1.
        -11    1    4    4    0    0 -0.23450860378E-01  0.81846146471E-01 -0.52680212175E-01  0.10012092898E+00  0.51100000000E-03 0.  1.
         11    1    4    4    0    0  0.20502316285E-02  0.24017673329E-01 -0.23567865583E-01  0.33715834426E-01  0.51100000000E-03 0. -1.
</event>
<event>
 8    1  0.1094134E+005  0.1043930E+01  0.7957747E-01            NaN
         13   -1    0    0    0    0  0.00000000000E+00  0.00000000000E+00  0.74505805969E-08  0.10566000000E+00  0.10566000000E+00 0.  1.
     999900   -1    0    0    0    0 -0.00000000000E+00 -0.00000000000E+00 -0.74505805969E-08  0.93827000000E+00  0.93827000000E+00 0.  1.
     999902    2    1    2    0    0 -0.25820812224E-01 -0.19365486508E-02 -0.11841511999E-01  0.10154574523E+01  0.10150582010E+01 0.  0.
     999903    2    3    3    0    0 -0.46230021708E-01  0.11532264634E+00 -0.19635207294E-01  0.12741072139E+00  0.20283562177E-01 0.  0.
         14    1    1    2    0    0  0.25820812224E-01  0.19365486508E-02  0.11841511999E-01  0.28472547673E-01  0.00000000000E+00 0.  1.
     999901    1    3    3    0    0  0.20409209484E-01 -0.11725919499E+00  0.77936952947E-02  0.88804673094E+00  0.88000000000E+00 0.  1.
        -11    1    4    4    0    0 -0.31174005483E-01  0.70612738537E-01 -0.21712877232E-01  0.80185332949E-01  0.51100000000E-03 0. -1.
         11    1    4    4    0    0 -0.15056016225E-01  0.44709907800E-01  0.20776699382E-02  0.47225388441E-01  0.51100000000E-03 0.  1.
</event>
<event>
 8    1  0.1094134E+005  0.1043930E+01  0.7957747E-01            NaN
         13   -1    0    0    0    0  0.00000000000E+00  0.00000000000E+00  0.74505805969E-08  0.10566000000E+00  0.10566000000E+00 0.  1.
     999900   -1    0    0    0    0 -0.00000000000E+00 -0.00000000000E+00 -0.74505805969E-08  0.93827000000E+00  0.93827000000E+00 0. -1.
     999902    2    1    2    0    0  0.50344314751E-02 -0.15144345841E-01  0.15455625067E-01  0.10217134958E+01  0.10214719255E+01 0.  0.
     999903    2    3    3    0    0 -0.12775894012E+00 -0.53978954181E-02 -0.24672483548E-01  0.13079299549E+00  0.12107525220E-01 0.  0.
         14    1    1    2    0    0 -0.50344314751E-02  0.15144345841E-01 -0.15455625067E-01  0.22216504168E-01  0.00000000000E+00 0. -1.
     999901    1    3    3    0    0  0.13279337160E+00 -0.97464504231E-02  0.40128108616E-01  0.89092050035E+00  0.88000000000E+00 0.  1.
        -11    1    4    4    0    0 -0.40905768259E-01 -0.28104486165E-03 -0.13464890408E-01  0.43068843237E-01  0.51100000000E-03 0.  1.
         11    1    4    4    0    0 -0.86853171865E-01 -0.51168505565E-02 -0.11207593140E-01  0.87724152248E-01  0.51100000000E-03 0. -1.
</event>
<event>
 8    1  0.1094134E+005  0.1043930E+01  0.7957747E-01            NaN
         13   -1    0    0    0    0  0.00000000000E+00  0.00000000000E+00  0.74505805969E-08  0.10566000000E+00  0.10566000000E+00 0. -1.
     999900   -1    0    0    0    0 -0.00000000000E+00 -0.00000000000E+00 -0.74505805969E-08  0.93827000000E+00  0.93827000000E+00 0. -1.
     999902    2    1    2    0    0 -0.89334908165E-02 -0.21179404900E-01  0.44011428984E-02  0.10205260578E+01  0.10202576587E+01 0.  0.
     999903    2    3    3    0    0 -0.40430262307E-01 -0.74048312387E-01  0.10113781487E+00  0.13308865063E+00  0.19130411729E-01 0.  0.
         14    1    1    2    0    0  0.89334908165E-02  0.21179404900E-01 -0.44011428984E-02  0.23403942165E-01  0.00000000000E+00 0.  1.
     999901    1    3    3    0    0  0.31496771490E-01  0.52868907487E-01 -0.96736671975E-01  0.88743740720E+00  0.88000000000E+00 0.  1.
        -11    1    4    4    0    0 -0.13358068841E-01 -0.42298029000E-01  0.45552230821E-01  0.63583237683E-01  0.51100000000E-03 0.  1.
         11    1    4    4    0    0 -0.27072193466E-01 -0.31750283386E-01  0.55585584053E-01  0.69505412952E-01  0.51100000000E-03 0. -1.
</event>
<event>
 8    1  0.1094134E+005  0.1043930E+01  0.7957747E-01            NaN
         13   -1    0    0    0    0  0.00000000000E+00  0.00000000000E+00  0.74505805969E-08  0.10566000000E+00  0.10566000000E+00 0. -1.
     999900   -1    0    0    0    0 -0.00000000000E+00 -0.00000000000E+00 -0.74505805969E-08  0.93827000000E+00  0.93827000000E+00 0.  1.
     999902    2    1    2    0    0 -0.11858934770E-01 -0.52844605621E-02  0.20297091207E-01  0.10198357731E+01  0.10195511132E+01 0.  0.
     999903    2    3    3    0    0 -0.24465722978E-01  0.12403139452E+00  0.27343498193E-01  0.13026780308E+00  0.15481446911E-01 0.  0.
         14    1    1    2    0    0  0.11858934770E-01  0.52844605621E-02 -0.20297091207E-01  0.24094226877E-01  0.00000000000E+00 0.  1.
     999901    1    3    3    0    0  0.12606788209E-01 -0.12931585508E+00 -0.70464069855E-02  0.88956797005E+00  0.88000000000E+00 0. -1.
        -11    1    4    4    0    0 -0.10507525227E-01  0.87178348958E-01  0.15999044633E-01  0.89256390043E-01  0.51100000000E-03 0. -1.
         11    1    4    4    0    0 -0.13958197751E-01  0.36853045558E-01  0.11344453560E-01  0.41011413033E-01  0.51100000000E-03 0.  1.
</event>
<event>
 8    1  0.1094134E+005  0.1043930E+01  0.7957747E-01            NaN
         13   -1    0    0    0    0  0.00000000000E+00  0.00000000000E+00  0.74505805969E-08  0.10566000000E+00  0.10566000000E+00 0. -1.
     999900   -1    0    0    0    0 -0.00000000000E+00 -0.00000000000E+00 -0.74505805969E-08  0.93827000000E+00  0.93827000000E+00 0. -1.
     999902    2    1    2    0    0  0.19664761029E-01 -0.73499701192E-02  0.11081781552E-01  0.10201911970E+01  0.10199149708E+01 0.  0.
     999903    2    3    3    0    0 -0.65170520579E-01 -0.39062562967E-01 -0.10153171681E+00  0.12840393895E+00  0.20144513913E-01 0.  0.
         14    1    1    2    0    0 -0.19664761029E-01  0.73499701192E-02 -0.11081781552E-01  0.23738803033E-01  0.00000000000E+00 0.  1.
     999901    1    3    3    0    0  0.84835281608E-01  0.31712592848E-01  0.11261349836E+00  0.89178725802E+00  0.88000000000E+00 0. -1.
        -11    1    4    4    0    0 -0.25298009134E-01 -0.26496285012E-01 -0.51510948706E-01  0.63211402002E-01  0.51100000000E-03 0.  1.
         11    1    4    4    0    0 -0.39872511445E-01 -0.12566277955E-01 -0.50020768105E-01  0.65192536946E-01  0.51100000000E-03 0. -1.
</event>
<event>
 8    1  0.1094134E+005  0.1043930E+01  0.7957747E-01            NaN
         13   -1    0    0    0    0  0.00000000000E+00  0.00000000000E+00  0.74505805969E-08  0.10566000000E+00  0.10566000000E+00 0. -1.
     999900   -1    0    0    0    0 -0.00000000000E+00 -0.00000000000E+00 -0.74505805969E-08  0.93827000000E+00  0.93827000000E+00 0. -1.
     999902    2    1    2    0    0 -0.21950284419E-01  0.45940621891E-02  0.10357363417E-01  0.10192278671E+01  0.10189284811E+01 0.  0.
     999903    2    3    3    0    0 -0.11454731305E+00  0.16884524338E-01  0.62057299844E-01  0.13277530288E+00  0.19287262680E-01 0.  0.
         14    1    1    2    0    0  0.21950284419E-01 -0.45940621891E-02 -0.10357363417E-01  0.24702132912E-01  0.00000000000E+00 0.  1.
     999901    1    3    3    0    0  0.92597028628E-01 -0.12290462149E-01 -0.51699936427E-01  0.88645256421E+00  0.88000000000E+00 0.  1.
        -11    1    4    4    0    0 -0.74154903521E-01  0.18436786453E-01  0.34439202465E-01  0.83816374286E-01  0.51100000000E-03 0. -1.
         11    1    4    4    0    0 -0.40392409526E-01 -0.15522621150E-02  0.27618097378E-01  0.48958928591E-01  0.51100000000E-03 0.  1.
</event>
<event>
 8    1  0.1094134E+005  0.1043930E+01  0.7957747E-01            NaN
         13   -1    0    0    0    0  0.00000000000E+00  0.00000000000E+00  0.74505805969E-08  0.10566000000E+00  0.10566000000E+00 0.  1.
     999900   -1    0    0    0    0 -0.00000000000E+00 -0.00000000000E+00 -0.74505805969E-08  0.93827000000E+00  0.93827000000E+00 0. -1.
     999902    2    1    2    0    0 -0.16554738194E-01 -0.30036064796E-03  0.17124827292E-01  0.10201096456E+01  0.10198314958E+01 0.  0.
     999903    2    3    3    0    0 -0.10425171131E+00  0.71045663661E-01  0.36632087754E-01  0.13266300075E+00  0.18483946464E-01 0.  0.
         14    1    1    2    0    0  0.16554738194E-01  0.30036064796E-03 -0.17124827292E-01  0.23820354383E-01  0.00000000000E+00 0.  1.
     999901    1    3    3    0    0  0.87696973121E-01 -0.71346024309E-01 -0.19507260462E-01  0.88744664487E+00  0.88000000000E+00 0.  1.
        -11    1    4    4    0    0 -0.21882149831E-01  0.74366853599E-02  0.31123354281E-02  0.23325533717E-01  0.51100000000E-03 0.  1.
         11    1    4    4    0    0 -0.82369561484E-01  0.63608978301E-01  0.33519752326E-01  0.10933746703E+00  0.51100000000E-03 0. -1.
</event>
<event>
 8    1  0.1094134E+005  0.1043930E+01  0.7957747E-01            NaN
         13   -1    0    0    0    0  0.00000000000E+00  0.00000000000E+00  0.74505805969E-08  0.10566000000E+00  0.10566000000E+00 0. -1.
     999900   -1    0    0    0    0 -0.00000000000E+00 -0.00000000000E+00 -0.74505805969E-08  0.93827000000E+00  0.93827000000E+00 0. -1.
     999902    2    1    2    0    0 -0.21062410295E-01  0.96169025579E-02  0.21017039237E-02  0.10206807613E+01  0.10204159394E+01 0.  0.
     999903    2    3    3    0    0 -0.16467998673E-01  0.12619883439E+00 -0.34125857518E-01  0.13224117882E+00  0.11216703764E-01 0.  0.
         14    1    1    2    0    0  0.21062410295E-01 -0.96169025579E-02 -0.21017039237E-02  0.23249238732E-01  0.00000000000E+00 0.  1.
     999901    1    3    3    0    0 -0.45944116222E-02 -0.11658193183E+00  0.36227561442E-01  0.88843958245E+00  0.88000000000E+00 0. -1.
        -11    1    4    4    0    0 -0.93090740436E-02  0.96252743112E-01 -0.22202393430E-01  0.99219236095E-01  0.51100000000E-03 0.  1.
         11    1    4    4    0    0 -0.71589246295E-02  0.29946091278E-01 -0.11923464088E-01  0.33021942728E-01  0.51100000000E-03 0. -1.
</event>
<event>
 8    1  0.1094134E+005  0.1043930E+01  0.7957747E-01            NaN
         13   -1    0    0    0    0  0.00000000000E+00  0.00000000000E+00  0.74505805969E-08  0.10566000000E+00  0.10566000000E+00 0. -1.
     999900   -1    0    0    0    0 -0.00000000000E+00 -0.00000000000E+00 -0.74505805969E-08  0.93827000000E+00  0.93827000000E+00 0.  1.
     999902    2    1    2    0    0 -0.64424859264E-02  0.22072850183E-01  0.42183006442E-02  0.10205524381E+01  0.10202846507E+01 0.  0.
     999903    2    3    3    0    0 -0.10609088407E+00  0.56777968340E-02  0.75571604955E-01  0.13190746115E+00  0.20024928759E-01 0.  0.
         14    1    1    2    0    0  0.64424859264E-02 -0.22072850183E-01 -0.42183006442E-02  0.23377561901E-01  0.00000000000E+00 0.  1.
     999901    1    3    3    0    0  0.99648398140E-01  0.16395053349E-01 -0.71353304311E-01  0.88864497695E+00  0.88000000000E+00 0.  1.
        -11    1    4    4    0    0 -0.38606852021E-01  0.17886453987E-02  0.16094830178E-01  0.41868758697E-01  0.51100000000E-03 0.  1.
         11    1    4    4    0    0 -0.67484032045E-01  0.38891514354E-02  0.59476774777E-01  0.90038702450E-01  0.51100000000E-03 0. -1.
</event>
<event>
 8    1  0.1094134E+005  0.1043930E+01  0.7957747E-01            NaN
         13   -1    0    0    0    0  0.00000000000E+00  0.00000000000E+00  0.74505805969E-08  0.10566000000E+00  0.10566000000E+00 0. -1.
     999900   -1    0    0    0    0 -0.00000000000E+00 -0.00000000000E+00 -0.74505805969E-08  0.93827000000E+00  0.93827000000E+00 0.  1.
     999902    2    1    2    0    0 -0.81159014665E-02 -0.15070159527E-01 -0.16436297853E-01  0.10201996512E+01  0.10199236241E+01 0.  0.
     999903    2    3    3    0    0  0.47678875863E-01 -0.12910842747E-01 -0.12086164704E+00  0.13226813735E+00  0.21150824294E-01 0.  0.
         14    1    1    2    0    0  0.81159014665E-02  0.15070159527E-01  0.16436297853E-01  0.23730348753E-01  0.00000000000E+00 0. -1.
     999901    1    3    3    0    0 -0.55794777330E-01 -0.21593167804E-02  0.10442534918E+00  0.88793151390E+00  0.88000000000E+00 0. -1.
        -11    1    4    4    0    0  0.37642061431E-01 -0.55103710022E-02 -0.67674118972E-01  0.77635922594E-01  0.51100000000E-03 0.  1.
         11    1    4    4    0    0  0.10036814432E-01 -0.74004717449E-02 -0.53187528066E-01  0.54632214753E-01  0.51100000000E-03 0. -1.
</event>
<event>
 8    1  0.1094134E+005  0.1043930E+01  0.7957747E-01            NaN
         13   -1    0    0    0    0  0.00000000000E+00  0.00000000000E+00  0.74505805969E-08  0.10566000000E+00  0.10566000000E+00 0.  1.
     999900   -1    0    0    0    0 -0.00000000000E+00 -0.00000000000E+00 -0.74505805969E-08  0.93827000000E+00  0.93827000000E+00 0. -1.
     999902    2    1    2    0    0  0.15509976529E-01 -0.11210900375E-01  0.13713946680E-01  0.10203860837E+01  0.10201144269E+01 0.  0.
     999903    2    3    3    0    0  0.83906698130E-02  0.92329308563E-01 -0.86717836495E-01  0.12861380201E+00  0.20649996171E-01 0.  0.
         14    1    1    2    0    0 -0.15509976529E-01  0.11210900375E-01 -0.13713946680E-01  0.23543916256E-01  0.00000000000E+00 0. -1.
     999901    1    3    3    0    0  0.71193067157E-02 -0.10354020894E+00  0.10043178317E+00  0.89177228173E+00  0.88000000000E+00 0. -1.
        -11    1    4    4    0    0  0.15313549600E-01  0.65613413481E-01 -0.61471552000E-01  0.91206565862E-01  0.51100000000E-03 0.  1.
         11    1    4    4    0    0 -0.69228797870E-02  0.26715895082E-01 -0.25246284494E-01  0.37407236150E-01  0.51100000000E-03 0. -1.
</event>
<event>
 8    1  0.1094134E+005  0.1043930E+01  0.7957747E-01            NaN
         13   -1    0    0    0    0  0.00000000000E+00  0.00000000000E+00  0.74505805969E-08  0.10566000000E+00  0.10566000000E+00 0.  1.
     999900   -1    0    0    0    0 -0.00000000000E+00 -0.00000000000E+00 -0.74505805969E-08  0.93827000000E+00  0.93827000000E+00 0.  1.
     999902    2    1    2    0    0  0.21010072968E-01 -0.49007456648E-02  0.10146526852E-01  0.10200890168E+01  0.10198103793E+01 0.  0.
     999903    2    3    3    0    0 -0.10517242186E+00 -0.96870487927E-02  0.71248185388E-01  0.12897828102E+00  0.20100144777E-01 0.  0.
         14    1    1    2    0    0 -0.21010072968E-01  0.49007456648E-02 -0.10146526852E-01  0.23840983229E-01  0.00000000000E+00 0. -1.
     999901    1    3    3    0    0  0.12618249482E+00  0.47863031278E-02 -0.61101658536E-01  0.89111073575E+00  0.88000000000E+00 0. -1.
        -11    1    4    4    0    0 -0.57173362074E-01 -0.51361293081E-02  0.50611047082E-01  0.76530466893E-01  0.51100000000E-03 0.  1.
         11    1    4    4    0    0 -0.47999059782E-01 -0.45509194846E-02  0.20637138306E-01  0.52447814125E-01  0.51100000000E-03 0. -1.
</event>
<event>
 8    1  0.1094134E+005  0.1043930E+01  0.7957747E-01            NaN
         13   -1    0    0    0    0  0.00000000000E+00  0.00000000000E+00  0.74505805969E-08  0.10566000000E+00  0.10566000000E+00 0.  1.
     999900   -1    0    0    0    0 -0.00000000000E+00 -0.00000000000E+00 -0.74505805969E-08  0.93827000000E+00  0.93827000000E+00 0.  1.
     999902    2    1    2    0    0 -0.12004611498E-01  0.20047795717E-01  0.44871768580E-02  0.10201358922E+01  0.10198583622E+01 0.  0.
     999903    2    3    3    0    0  0.15685511325E-01  0.84745791884E-01  0.98491622128E-01  0.13233557154E+00  0.19601514192E-01 0.  0.
         14    1    1    2    0    0  0.12004611498E-01 -0.20047795717E-01 -0.44871768580E-02  0.23794107810E-01  0.00000000000E+00 0. -1.
     999901    1    3    3    0    0 -0.27690122823E-01 -0.64697996168E-01 -0.94004445270E-01  0.88780032065E+00  0.88000000000E+00 0.  1.
        -11    1    4    4    0    0  0.12106249880E-01  0.37202156034E-01  0.32169763819E-01  0.50652902433E-01  0.51100000000E-03 0. -1.
         11    1    4    4    0    0  0.35792614447E-02  0.47543635851E-01  0.66321858309E-01  0.81682669111E-01  0.51100000000E-03 0.  1.
</event>
<event>
 8    1  0.1094134E+005  0.1043930E+01  0.7957747E-01            NaN
         13   -1    0    0    0    0  0.00000000000E+00  0.00000000000E+00  0.74505805969E-08  0.10566000000E+00  0.10566000000E+00 0. -1.
     999900   -1    0    0    0    0 -0.00000000000E+00 -0.00000000000E+00 -0.74505805969E-08  0.93827000000E+00  0.93827000000E+00 0. -1.
     999902    2    1    2    0    0  0.57705058985E-02  0.13834049429E-01  0.16799366058E-01  0.10214155966E+01  0.10211674312E+01 0.  0.
     999903    2    3    3    0    0 -0.19102287964E-01  0.12090488464E+00  0.49862522543E-01  0.13396081353E+00  0.21825211843E-01 0.  0.
         14    1    1    2    0    0 -0.57705058985E-02 -0.13834049429E-01 -0.16799366058E-01  0.22514403432E-01  0.00000000000E+00 0.  1.
     999901    1    3    3    0    0  0.24872793863E-01 -0.10707083521E+00 -0.33063156485E-01  0.88745478304E+00  0.88000000000E+00 0. -1.
        -11    1    4    4    0    0 -0.21313413779E-01  0.95919422996E-01  0.46295728552E-01  0.10862022334E+00  0.51100000000E-03 0. -1.
         11    1    4    4    0    0  0.22111258153E-02  0.24985461640E-01  0.35667939916E-02  0.25340590189E-01  0.51100000000E-03 0.  1.
</event>
<event>
 8    1  0.1094134E+005  0.1043930E+01  0.7957747E-01            NaN
         13   -1    0    0    0    0  0.00000000000E+00  0.00000000000E+00  0.74505805969E-08  0.10566000000E+00  0.10566000000E+00 0. -1.
     999900   -1    0    0    0    0 -0.00000000000E+00 -0.00000000000E+00 -0.74505805969E-08  0.93827000000E+00  0.93827000000E+00 0.  1.
     999902    2    1    2    0    0  0.93423668690E-02 -0.16768897737E-01  0.13647688365E-01  0.10203771839E+01  0.10201053192E+01 0.  0.
     999903    2    3    3    0    0  0.66321254551E-01 -0.47786821369E-01  0.10145499143E+00  0.13363098134E+00  0.29699070457E-01 0.  0.
         14    1    1    2    0    0 -0.93423668690E-02  0.16768897737E-01 -0.13647688365E-01  0.23552816132E-01  0.00000000000E+00 0. -1.
     999901    1    3    3    0    0 -0.56978887682E-01  0.31017923632E-01 -0.87807303064E-01  0.88674620253E+00  0.88000000000E+00 0.  1.
        -11    1    4    4    0    0  0.42750096286E-01 -0.39429364837E-01  0.51158869556E-01  0.77457966661E-01  0.51100000000E-03 0.  1.
         11    1    4    4    0    0  0.23571158265E-01 -0.83574565323E-02  0.50296121873E-01  0.56173014679E-01  0.51100000000E-03 0. -1.
</event>
<event>
 8    1  0.1094134E+005  0.1043930E+01  0.7957747E-01            NaN
         13   -1    0    0    0    0  0.00000000000E+00  0.00000000000E+00  0.74505805969E-08  0.10566000000E+00  0.10566000000E+00 0.  1.
     999900   -1    0    0    0    0 -0.00000000000E+00 -0.00000000000E+00 -0.74505805969E-08  0.93827000000E+00  0.93827000000E+00 0.  1.
     999902    2    1    2    0    0 -0.12122347800E-01 -0.13039533681E-01  0.14798359062E-01  0.10207789269E+01  0.10205163621E+01 0.  0.
     999903    2    3    3    0    0  0.10732876477E+00  0.67955593851E-01 -0.48410823195E-02  0.12880668146E+00  0.20743640674E-01 0.  0.
         14    1    1    2    0    0  0.12122347800E-01  0.13039533681E-01 -0.14798359062E-01  0.23151073101E-01  0.00000000000E+00 0. -1.
     999901    1    3    3    0    0 -0.11945111257E+00 -0.80995127531E-01  0.19639441381E-01  0.89197224544E+00  0.88000000000E+00 0. -1.
        -11    1    4    4    0    0  0.77460262011E-01  0.57684943578E-01 -0.87497880353E-02  0.96976619956E-01  0.51100000000E-03 0. -1.
         11    1    4    4    0    0  0.29868502756E-01  0.10270650273E-01  0.39087057158E-02  0.31830061503E-01  0.51100000000E-03 0.  1.
</event>
<event>
 8    1  0.1094134E+005  0.1043930E+01  0.7957747E-01            NaN
         13   -1    0    0    0    0  0.00000000000E+00  0.00000000000E+00  0.74505805969E-08  0.10566000000E+00  0.10566000000E+00 0.  1.
     999900   -1    0    0    0    0 -0.00000000000E+00 -0.00000000000E+00 -0.74505805969E-08  0.93827000000E+00  0.93827000000E+00 0. -1.
     999902    2    1    2    0    0  0.14633565761E-01 -0.16310643367E-01  0.26079273258E-02  0.10218623853E+01  0.10216240771E+01 0.  0.
     999903    2    3    3    0    0 -0.43704838720E-01  0.10538693082E+00 -0.58151941230E-01  0.12950291141E+00  0.19309005166E-01 0.  0.
         14    1    1    2    0    0 -0.14633565761E-01  0.16310643367E-01 -0.26079273258E-02  0.22067614707E-01  0.00000000000E+00 0. -1.
     999901    1    3    3    0    0  0.58338404481E-01 -0.12169757418E+00  0.60759868556E-01  0.89235947388E+00  0.88000000000E+00 0. -1.
        -11    1    4    4    0    0 -0.16374090519E-01  0.62620319382E-01 -0.28544356715E-01  0.70742184453E-01  0.51100000000E-03 0. -1.
         11    1    4    4    0    0 -0.27330748201E-01  0.42766611435E-01 -0.29607584515E-01  0.58760726958E-01  0.51100000000E-03 0.  1.
</event>
<event>
 8    1  0.1094134E+005  0.1043930E+01  0.7957747E-01            NaN
         13   -1    0    0    0    0  0.00000000000E+00  0.00000000000E+00  0.74505805969E-08  0.10566000000E+00  0.10566000000E+00 0.  1.
     999900   -1    0    0    0    0 -0.00000000000E+00 -0.00000000000E+00 -0.74505805969E-08  0.93827000000E+00  0.93827000000E+00 0. -1.
     999902    2    1    2    0    0 -0.27162366302E-01  0.23339618605E-02 -0.34099092955E-02  0.10164551205E+01  0.10160837284E+01 0.  0.
     999903    2    3    3    0    0 -0.50960770097E-01 -0.57737580842E-01  0.10039281622E+00  0.12800143006E+00  0.19365438770E-01 0.  0.
         14    1    1    2    0    0  0.27162366302E-01 -0.23339618605E-02  0.34099092955E-02  0.27474879481E-01  0.00000000000E+00 0. -1.
     999901    1    3    3    0    0  0.23798403794E-01  0.60071542703E-01 -0.10380272551E+00  0.88845369046E+00  0.88000000000E+00 0. -1.
        -11    1    4    4    0    0 -0.83943759721E-02 -0.22875755443E-01  0.29769873691E-01  0.38474306175E-01  0.51100000000E-03 0. -1.
         11    1    4    4    0    0 -0.42566394125E-01 -0.34861825400E-01  0.70622942527E-01  0.89527123885E-01  0.51100000000E-03 0.  1.
</event>
<event>
 8    1  0.1094134E+005  0.1043930E+01  0.7957747E-01            NaN
         13   -1    0    0    0    0  0.00000000000E+00  0.00000000000E+00  0.74505805969E-08  0.10566000000E+00  0.10566000000E+00 0. -1.
     999900   -1    0    0    0    0 -0.00000000000E+00 -0.00000000000E+00 -0.74505805969E-08  0.93827000000E+00  0.93827000000E+00 0. -1.
     999902    2    1    2    0    0 -0.86770728547E-03 -0.85421273720E-03 -0.24016787499E-01  0.10198823665E+01  0.10195988195E+01 0.  0.
     999903    2    3    3    0    0 -0.96642218976E-01 -0.15989036168E-01  0.80683623865E-01  0.12838699572E+00  0.19442369841E-01 0.  0.
         14    1    1    2    0    0  0.86770728547E-03  0.85421273720E-03  0.24016787499E-01  0.24047633503E-01  0.00000000000E+00 0. -1.
     999901    1    3    3    0    0  0.95774511690E-01  0.15134823431E-01 -0.10470041136E+00  0.89149537077E+00  0.88000000000E+00 0. -1.
        -11    1    4    4    0    0 -0.83406384126E-02 -0.65006051575E-02  0.12751209206E-01  0.16573429752E-01  0.51100000000E-03 0.  1.
         11    1    4    4    0    0 -0.88301580563E-01 -0.94884310104E-02  0.67932414659E-01  0.11181356597E+00  0.51100000000E-03 0. -1.
</event>
<event>
 8    1  0.1094134E+005  0.1043930E+01  0.7957747E-01            NaN
         13   -1    0    0    0    0  0.00000000000E+00  0.00000000000E+00  0.74505805969E-08  0.10566000000E+00  0.10566000000E+00 0.  1.
     999900   -1    0    0    0    0 -0.00000000000E+00 -0.00000000000E+00 -0.74505805969E-08  0.93827000000E+00  0.93827000000E+00 0.  1.
     999902    2    1    2    0    0 -0.12740549485E-01 -0.15621105429E-01  0.11385149168E-02  0.10237399838E+01  0.10235408725E+01 0.  0.
     999903    2    3    3    0    0 -0.12047535205E-01 -0.12680094707E+00  0.42672100976E-01  0.13577237395E+00  0.19738440799E-01 0.  0.
         14    1    1    2    0    0  0.12740549485E-01  0.15621105429E-01 -0.11385149168E-02  0.20190016152E-01  0.00000000000E+00 0. -1.
     999901    1    3    3    0    0 -0.69301428019E-03  0.11117984164E+00 -0.41533586060E-01  0.88796760990E+00  0.88000000000E+00 0. -1.
        -11    1    4    4    0    0 -0.16338629051E-01 -0.89479811133E-01  0.34771223781E-01  0.97380113595E-01  0.51100000000E-03 0.  1.
         11    1    4    4    0    0  0.42910938462E-02 -0.37321135934E-01  0.79008771954E-02  0.38392260356E-01  0.51100000000E-03 0. -1.
</event>
<event>
 8    1  0.1094134E+005  0.1043930E+01  0.7957747E-01            NaN
         13   -1    0    0    0    0  0.00000000000E+00  0.00000000000E+00  0.74505805969E-08  0.10566000000E+00  0.10566000000E+00 0.  1.
     999900   -1    0    0    0    0 -0.00000000000E+00 -0.00000000000E+00 -0.74505805969E-08  0.93827000000E+00  0.93827000000E+00 0.  1.
     999902    2    1    2    0    0  0.51442342284E-02  0.24493693785E-02  0.22830064104E-01  0.10203997135E+01  0.10201283747E+01 0.  0.
     999903    2    3    3    0    0 -0.63595369269E-01  0.11165374779E+00 -0.11524528825E-01  0.13032613934E+00  0.18470447792E-01 0.  0.
         14    1    1    2    0    0 -0.51442342284E-02 -0.24493693785E-02 -0.22830064104E-01  0.23530286508E-01  0.00000000000E+00 0. -1.
     999901    1    3    3    0    0  0.68739603497E-01 -0.10920437841E+00  0.34354592929E-01  0.89007357415E+00  0.88000000000E+00 0. -1.
        -11    1    4    4    0    0 -0.47631785783E-01  0.65653960913E-01 -0.78938482548E-02  0.81497261068E-01  0.51100000000E-03 0.  1.
         11    1    4    4    0    0 -0.15963583486E-01  0.45999786878E-01 -0.36306805702E-02  0.48828878269E-01  0.51100000000E-03 0. -1.
</event>
<event>
 8    1  0.1094134E+005  0.1043930E+01  0.7957747E-01            NaN
         13   -1    0    0    0    0  0.00000000000E+00  0.00000000000E+00  0.74505805969E-08  0.10566000000E+00  0.10566000000E+00 0. -1.
     999900   -1    0    0    0    0 -0.00000000000E+00 -0.00000000000E+00 -0.74505805969E-08  0.93827000000E+00  0.93827000000E+00 0.  1.
     999902    2    1    2    0    0 -0.18782790798E-01  0.11902409578E-01 -0.84272107885E-02  0.10201502089E+01  0.10198730167E+01 0.  0.
     999903    2    3    3    0    0 -0.12543338754E+00  0.41941730530E-02  0.37910440312E-01  0.13246730119E+00  0.18954118358E-01 0.  0.
         14    1    1    2    0    0  0.18782790798E-01 -0.11902409578E-01  0.84272107885E-02  0.23779791118E-01  0.00000000000E+00 0. -1.
     999901    1    3    3    0    0  0.10665059674E+00  0.77082365248E-02 -0.46337651100E-01  0.88768290769E+00  0.88000000000E+00 0.  1.
        -11    1    4    4    0    0 -0.47760443139E-01  0.10318465836E-03  0.50531737170E-02  0.48029847611E-01  0.51100000000E-03 0. -1.
         11    1    4    4    0    0 -0.77672944403E-01  0.40909883946E-02  0.32857266595E-01  0.84437453581E-01  0.51100000000E-03 0.  1.
</event>
<event>
 8    1  0.1094134E+005  0.1043930E+01  0.7957747E-01            NaN
         13   -1    0    0    0    0  0.00000000000E+00  0.00000000000E+00  0.74505805969E-08  0.10566000000E+00  0.10566000000E+00 0. -1.
     999900   -1    0    0    0    0 -0.00000000000E+00 -0.00000000000E+00 -0.74505805969E-08  0.93827000000E+00  0.93827000000E+00 0. -1.
     999902    2    1    2    0    0  0.12291415475E-01  0.15171164423E-01  0.89053955606E-02  0.10224695901E+01  0.10222443511E+01 0.  0.
     999903    2    3    3    0    0 -0.36341284307E-01 -0.12146938117E+00 -0.21084994612E-01  0.13009343525E+00  0.20105357219E-01 0.  0.
         14    1    1    2    0    0 -0.12291415475E-01 -0.15171164423E-01 -0.89053955606E-02  0.21460409932E-01  0.00000000000E+00 0.  1.
     999901    1    3    3    0    0  0.48632699783E-01  0.13664054560E+00  0.29990390173E-01  0.89237615482E+00  0.88000000000E+00 0.  1.
        -11    1    4    4    0    0 -0.16618584475E-01 -0.86570537254E-01 -0.17210802091E-01  0.89817081338E-01  0.51100000000E-03 0.  1.
         11    1    4    4    0    0 -0.19722699832E-01 -0.34898843920E-01 -0.38741925215E-02  0.40276353910E-01  0.51100000000E-03 0. -1.
</event>
<event>
 8    1  0.1094134E+005  0.1043930E+01  0.7957747E-01            NaN
         13   -1    0    0    0    0  0.00000000000E+00  0.00000000000E+00  0.74505805969E-08  0.10566000000E+00  0.10566000000E+00 0.  1.
     999900   -1    0    0    0    0 -0.00000000000E+00 -0.00000000000E+00 -0.74505805969E-08  0.93827000000E+00  0.93827000000E+00 0. -1.
     999902    2    1    2    0    0  0.13334474601E-01  0.44489053839E-02 -0.19966922281E-01  0.10195111762E+01  0.10192187005E+01 0.  0.
     999903    2    3    3    0    0 -0.11552047222E-01 -0.65219258486E-01 -0.11189111784E+00  0.13163559380E+00  0.20525735833E-01 0.  0.
         14    1    1    2    0    0 -0.13334474601E-01 -0.44489053839E-02  0.19966922281E-01  0.24418823833E-01  0.00000000000E+00 0.  1.
     999901    1    3    3    0    0  0.24886521823E-01  0.69668163869E-01  0.91924195562E-01  0.88787558236E+00  0.88000000000E+00 0.  1.
        -11    1    4    4    0    0  0.86663257985E-03 -0.14895105144E-01 -0.42323064168E-01  0.44878927025E-01  0.51100000000E-03 0. -1.
         11    1    4    4    0    0 -0.12418679802E-01 -0.50324153341E-01 -0.69568053676E-01  0.86756666780E-01  0.51100000000E-03 0.  1.
</event>
<event>
 8    1  0.1094134E+005  0.1043930E+01  0.7957747E-01            NaN
         13   -1    0    0    0    0  0.00000000000E+00  0.00000000000E+00  0.74505805969E-08  0.10566000000E+00  0.10566000000E+00 0. -1.
     999900   -1    0    0    0    0 -0.00000000000E+00 -0.00000000000E+00 -0.74505805969E-08  0.93827000000E+00  0.93827000000E+00 0.  1.
     999902    2    1    2    0    0  0.17457039894E-01  0.15277987909E-01  0.45455918263E-02  0.10202904661E+01  0.10200165723E+01 0.  0.
     999903    2    3    3    0    0 -0.12202997203E+00  0.28243853863E-01 -0.22300427550E-01  0.12880549771E+00  0.20112628265E-01 0.  0.
         14    1    1    2    0    0 -0.17457039894E-01 -0.15277987909E-01 -0.45455918263E-02  0.23639533867E-01  0.00000000000E+00 0.  1.
     999901    1    3    3    0    0  0.13948701192E+00 -0.12965865954E-01  0.26846019377E-01  0.89148496843E+00  0.88000000000E+00 0. -1.
        -11    1    4    4    0    0 -0.36536795781E-01  0.13819658862E-01 -0.14810744321E-01  0.41779656357E-01  0.51100000000E-03 0. -1.
         11    1    4    4    0    0 -0.85493176249E-01  0.14424195001E-01 -0.74896832295E-02  0.87025841348E-01  0.51100000000E-03 0.  1.
</event>
<event>
 8    1  0.1094134E+005  0.1043930E+01  0.7957747E-01            NaN
         13   -1    0    0    0    0  0.00000000000E+00  0.00000000000E+00  0.74505805969E-08  0.10566000000E+00  0.10566000000E+00 0.  1.
     999900   -1    0    0    0    0 -0.00000000000E+00 -0.00000000000E+00 -0.74505805969E-08  0.93827000000E+00  0.93827000000E+00 0. -1.
     999902    2    1    2    0    0  0.17956458435E-02 -0.22040968448E-01 -0.94621634345E-02  0.10198767015E+01  0.10195930193E+01 0.  0.
     999903    2    3    3    0    0 -0.90691595579E-01 -0.18791030504E-01 -0.90899516350E-01  0.13128427836E+00  0.19868853430E-01 0.  0.
         14    1    1    2    0    0 -0.17956458435E-02  0.22040968448E-01  0.94621634345E-02  0.24053298546E-01  0.00000000000E+00 0.  1.
     999901    1    3    3    0    0  0.92487241423E-01 -0.32499379432E-02  0.81437352916E-01  0.88859242309E+00  0.88000000000E+00 0.  1.
        -11    1    4    4    0    0 -0.19488372127E-01  0.25451143215E-02 -0.26069527245E-01  0.32652038632E-01  0.51100000000E-03 0. -1.
         11    1    4    4    0    0 -0.71203223452E-01 -0.21336144826E-01 -0.64829989105E-01  0.98632239731E-01  0.51100000000E-03 0.  1.
</event>
<event>
 8    1  0.1094134E+005  0.1043930E+01  0.7957747E-01            NaN
         13   -1    0    0    0    0  0.00000000000E+00  0.00000000000E+00  0.74505805969E-08  0.10566000000E+00  0.10566000000E+00 0.  1.
     999900   -1    0    0    0    0 -0.00000000000E+00 -0.00000000000E+00 -0.74505805969E-08  0.93827000000E+00  0.93827000000E+00 0. -1.
     999902    2    1    2    0    0 -0.10386400697E-01 -0.20676516698E-01 -0.52504712471E-02  0.10202031563E+01  0.10199272117E+01 0.  0.
     999903    2    3    3    0    0  0.87314603724E-01 -0.95403983248E-01 -0.14670491027E-01  0.13159839757E+00  0.19420476114E-01 0.  0.
         14    1    1    2    0    0  0.10386400697E-01  0.20676516698E-01  0.52504712471E-02  0.23726843670E-01  0.00000000000E+00 0. -1.
     999901    1    3    3    0    0 -0.97701004421E-01  0.74727466550E-01  0.94200197801E-02  0.88860475876E+00  0.88000000000E+00 0. -1.
        -11    1    4    4    0    0  0.20076021420E-01 -0.14421121417E-01 -0.85526225256E-02  0.26161495600E-01  0.51100000000E-03 0. -1.
         11    1    4    4    0    0  0.67238582304E-01 -0.80982861831E-01 -0.61178685017E-02  0.10543690197E+00  0.51100000000E-03 0.  1.
</event>
<event>
 8    1  0.1094134E+005  0.1043930E+01  0.7957747E-01            NaN
         13   -1    0    0    0    0  0.00000000000E+00  0.00000000000E+00  0.74505805969E-08  0.10566000000E+00  0.10566000000E+00 0.  1.
     999900   -1    0    0    0    0 -0.00000000000E+00 -0.00000000000E+00 -0.74505805969E-08  0.93827000000E+00  0.93827000000E+00 0. -1.
     999902    2    1    2    0    0  0.73076703790E-02 -0.11405683979E-01  0.18607967143E-01  0.10209137424E+01  0.10206542614E+01 0.  0.
     999903    2    3    3    0    0  0.36725145917E-01 -0.58787184523E-01 -0.10828539163E+00  0.13006453014E+00  0.19656717776E-01 0.  0.
         14    1    1    2    0    0 -0.73076703790E-02  0.11405683979E-01 -0.18607967143E-01  0.23016257615E-01  0.00000000000E+00 0. -1.
     999901    1    3    3    0    0 -0.29417475538E-01  0.47381500543E-01  0.12689335877E+00  0.89084921225E+00  0.88000000000E+00 0.  1.
        -11    1    4    4    0    0  0.34703289845E-01 -0.48077667562E-01 -0.78747124982E-01  0.98575611884E-01  0.51100000000E-03 0.  1.
         11    1    4    4    0    0  0.20218560716E-02 -0.10709516960E-01 -0.29538266644E-01  0.31488918255E-01  0.51100000000E-03 0. -1.
</event>
<event>
 8    1  0.1094134E+005  0.1043930E+01  0.7957747E-01            NaN
         13   -1    0    0    0    0  0.00000000000E+00  0.00000000000E+00  0.74505805969E-08  0.10566000000E+00  0.10566000000E+00 0. -1.
     999900   -1    0    0    0    0 -0.00000000000E+00 -0.00000000000E+00 -0.74505805969E-08  0.93827000000E+00  0.93827000000E+00 0. -1.
     999902    2    1    2    0    0  0.13463089566E-01  0.14050691438E-01 -0.11703337016E-01  0.10212221862E+01  0.10209696904E+01 0.  0.
     999903    2    3    3    0    0 -0.43067182644E-03  0.12652633047E+00  0.34676732824E-01  0.13274319553E+00  0.20228256915E-01 0.  0.
         14    1    1    2    0    0 -0.13463089566E-01 -0.14050691438E-01  0.11703337016E-01  0.22707813806E-01  0.00000000000E+00 0. -1.
     999901    1    3    3    0    0  0.13893761392E-01 -0.11247563903E+00 -0.46380069840E-01  0.88847899067E+00  0.88000000000E+00 0. -1.
        -11    1    4    4    0    0 -0.26197770354E-02  0.29427739657E-01 -0.19185966539E-03  0.29549162833E-01  0.51100000000E-03 0. -1.
         11    1    4    4    0    0  0.21891052090E-02  0.97098590816E-01  0.34868592489E-01  0.10319403269E+00  0.51100000000E-03 0.  1.
</event>
<event>
 8    1  0.1094134E+005  0.1043930E+01  0.7957747E-01            NaN
         13   -1    0    0    0    0  0.00000000000E+00  0.00000000000E+00  0.74505805969E-08  0.10566000000E+00  0.10566000000E+00 0.  1.
     999900   -1    0    0    0    0 -0.00000000000E+00 -0.00000000000E+00 -0.74505805969E-08  0.93827000000E+00  0.93827000000E+00 0.  1.
     999902    2    1    2    0    0  0.11787489998E-01  0.20231811100E-01  0.10370281244E-01  0.10183211376E+01  0.10179990793E+01 0.  0.
     999903    2    3    3    0    0 -0.12051501520E+00  0.28546725977E-01  0.23310832698E-01  0.12829835779E+00  0.24047645150E-01 0.  0.
         14    1    1    2    0    0 -0.11787489998E-01 -0.20231811100E-01 -0.10370281244E-01  0.25608862410E-01  0.00000000000E+00 0. -1.
     999901    1    3    3    0    0  0.13230250520E+00 -0.83149148763E-02 -0.12940551454E-01  0.89002277980E+00  0.88000000000E+00 0.  1.
        -11    1    4    4    0    0 -0.66162093912E-01  0.64724780369E-02  0.20482014018E-01  0.69563565622E-01  0.51100000000E-03 0. -1.
         11    1    4    4    0    0 -0.54352921290E-01  0.22074247940E-01  0.28288186800E-02  0.58734792168E-01  0.51100000000E-03 0.  1.
</event>
<event>
 8    1  0.1094134E+005  0.1043930E+01  0.7957747E-01            NaN
         13   -1    0    0    0    0  0.00000000000E+00  0.00000000000E+00  0.74505805969E-08  0.10566000000E+00  0.10566000000E+00 0. -1.
     999900   -1    0    0    0    0 -0.00000000000E+00 -0.00000000000E+00 -0.74505805969E-08  0.93827000000E+00  0.93827000000E+00 0.  1.
     999902    2    1    2    0    0 -0.16361706513E-01 -0.18404444483E-02  0.17223143958E-01  0.10201029279E+01  0.10198246193E+01 0.  0.
     999903    2    3    3    0    0  0.88991268068E-01 -0.84531171328E-01  0.37032457243E-01  0.12974939452E+00  0.19963410758E-01 0.  0.
         14    1    1    2    0    0  0.16361706513E-01  0.18404444483E-02 -0.17223143958E-01  0.23827072074E-01  0.00000000000E+00 0.  1.
     999901    1    3    3    0    0 -0.10535297458E+00  0.82690726880E-01 -0.19809313284E-01  0.89035353341E+00  0.88000000000E+00 0. -1.
        -11    1    4    4    0    0  0.25581697661E-01 -0.34535296076E-01  0.19089438008E-01  0.47029540660E-01  0.51100000000E-03 0.  1.
         11    1    4    4    0    0  0.63409570407E-01 -0.49995875252E-01  0.17943019234E-01  0.82719853855E-01  0.51100000000E-03 0. -1.
</event>
<event>
 8    1  0.1094134E+005  0.1043930E+01  0.7957747E-01            NaN
         13   -1    0    0    0    0  0.00000000000E+00  0.00000000000E+00  0.74505805969E-08  0.10566000000E+00  0.10566000000E+00 0. -1.
     999900   -1    0    0    0    0 -0.00000000000E+00 -0.00000000000E+00 -0.74505805969E-08  0.93827000000E+00  0.93827000000E+00 0.  1.
     999902    2    1    2    0    0 -0.23493690230E-02 -0.22620830335E-01  0.63733001148E-02  0.10203113537E+01  0.10200379493E+01 0.  0.
     999903    2    3    3    0    0  0.12318676543E+00  0.14733538486E-01  0.33886809456E-01  0.13019244975E+00  0.20241091462E-01 0.  0.
         14    1    1    2    0    0  0.23493690230E-02  0.22620830335E-01 -0.63733001148E-02  0.23618646325E-01  0.00000000000E+00 0.  1.
     999901    1    3    3    0    0 -0.12553613446E+00 -0.37354368821E-01 -0.27513509341E-01  0.89011890392E+00  0.88000000000E+00 0.  1.
        -11    1    4    4    0    0  0.77104335275E-01  0.32249746377E-02  0.12824734574E-01  0.78231796078E-01  0.51100000000E-03 0. -1.
         11    1    4    4    0    0  0.46082430157E-01  0.11508563848E-01  0.21062074882E-01  0.51960653675E-01  0.51100000000E-03 0.  1.
</event>
<event>
 8    1  0.1094134E+005  0.1043930E+01  0.7957747E-01            NaN
         13   -1    0    0    0    0  0.00000000000E+00  0.00000000000E+00  0.74505805969E-08  0.10566000000E+00  0.10566000000E+00 0.  1.
     999900   -1    0    0    0    0 -0.00000000000E+00 -0.00000000000E+00 -0.74505805969E-08  0.93827000000E+00  0.93827000000E+00 0. -1.
     999902    2    1    2    0    0  0.77910109773E-03 -0.14256854463E-01 -0.18835836016E-01  0.10202941455E+01  0.10200203379E+01 0.  0.
     999903    2    3    3    0    0 -0.63803208889E-01  0.34037795551E-01  0.10393382092E+00  0.12811947842E+00  0.19568868857E-01 0.  0.
         14    1    1    2    0    0 -0.77910109773E-03  0.14256854463E-01  0.18835836016E-01  0.23635854461E-01  0.00000000000E+00 0.  1.
     999901    1    3    3    0    0  0.64582309986E-01 -0.48294650014E-01 -0.12276965694E+00  0.89217466712E+00  0.88000000000E+00 0. -1.
        -11    1    4    4    0    0 -0.15391819673E-01  0.17490418145E-01  0.39248191341E-01  0.45645421285E-01  0.51100000000E-03 0. -1.
         11    1    4    4    0    0 -0.48411389216E-01  0.16547377406E-01  0.64685629582E-01  0.82474057135E-01  0.51100000000E-03 0.  1.
</event>
<event>
 8    1  0.1094134E+005  0.1043930E+01  0.7957747E-01            NaN
         13   -1    0    0    0    0  0.00000000000E+00  0.00000000000E+00  0.74505805969E-08  0.10566000000E+00  0.10566000000E+00 0.  1.
     999900   -1    0    0    0    0 -0.00000000000E+00 -0.00000000000E+00 -0.74505805969E-08  0.93827000000E+00  0.93827000000E+00 0.  1.
     999902    2    1    2    0    0 -0.21182402970E-01 -0.91608935653E-02  0.59591751265E-02  0.10200945656E+01  0.10198160593E+01 0.  0.
     999903    2    3    3    0    0 -0.72270451443E-01 -0.30389811509E-01 -0.10385778030E+00  0.13154494998E+00  0.19263347076E-01 0.  0.
         14    1    1    2    0    0  0.21182402970E-01  0.91608935653E-02 -0.59591751265E-02  0.23835434435E-01  0.00000000000E+00 0.  1.
     999901    1    3    3    0    0  0.51088048472E-01  0.21228917944E-01  0.10981695543E+00  0.88854961558E+00  0.88000000000E+00 0. -1.
        -11    1    4    4    0    0 -0.52548124211E-01 -0.27391185460E-01 -0.65656874922E-01  0.88445852048E-01  0.51100000000E-03 0. -1.
         11    1    4    4    0    0 -0.19722327232E-01 -0.29986260488E-02 -0.38200905383E-01  0.43099097933E-01  0.51100000000E-03 0.  1.
</event>
<event>
 8    1  0.1094134E+005  0.1043930E+01  0.7957747E-01            NaN
         13   -1    0    0    0    0  0.00000000000E+00  0.00000000000E+00  0.74505805969E-08  0.10566000000E+00  0.10566000000E+00 0.  1.
     999900   -1    0    0    0    0 -0.00000000000E+00 -0.00000000000E+00 -0.74505805969E-08  0.93827000000E+00  0.93827000000E+00 0. -1.
     999902    2    1    2    0    0 -0.12644769213E-01 -0.75096806149E-02  0.26043324435E-01  0.10140211344E+01  0.10135799529E+01 0.  0.
     999903    2    3    3    0    0 -0.11513336987E+00 -0.23433422368E-01  0.46359242997E-01  0.12769714438E+00  0.18776664462E-01 0.  0.
         14    1    1    2    0    0  0.12644769213E-01  0.75096806149E-02 -0.26043324435E-01  0.29908865559E-01  0.00000000000E+00 0. -1.
     999901    1    3    3    0    0  0.10248860066E+00  0.15923741753E-01 -0.20315918562E-01  0.88632399006E+00  0.88000000000E+00 0.  1.
        -11    1    4    4    0    0 -0.98867511241E-01 -0.20961691419E-01  0.46465808547E-01  0.11123627902E+00  0.51100000000E-03 0. -1.
         11    1    4    4    0    0 -0.16265858632E-01 -0.24717309488E-02 -0.10656555002E-03  0.16460865352E-01  0.51100000000E-03 0.  1.
</event>
<event>
 8    1  0.1094134E+005  0.1043930E+01  0.7957747E-01            NaN
         13   -1    0    0    0    0  0.00000000000E+00  0.00000000000E+00  0.74505805969E-08  0.10566000000E+00  0.10566000000E+00 0.  1.
     999900   -1    0    0    0    0 -0.00000000000E+00 -0.00000000000E+00 -0.74505805969E-08  0.93827000000E+00  0.93827000000E+00 0.  1.
     999902    2    1    2    0    0 -0.15488734903E-02 -0.43198512582E-02  0.23847994512E-01  0.10196444700E+01  0.10193552169E+01 0.  0.
     999903    2    3    3    0    0 -0.47112767689E-01 -0.10296438999E+00  0.64655068286E-01  0.13202291173E+00  0.20700069619E-01 0.  0.
         14    1    1    2    0    0  0.15488734903E-02  0.43198512582E-02 -0.23847994512E-01  0.24285529976E-01  0.00000000000E+00 0. -1.
     999901    1    3    3    0    0  0.45563894199E-01  0.98644538729E-01 -0.40807073773E-01  0.88762155829E+00  0.88000000000E+00 0. -1.
        -11    1    4    4    0    0 -0.16132498571E-01 -0.59372977875E-01  0.37309857365E-01  0.71956199104E-01  0.51100000000E-03 0.  1.
         11    1    4    4    0    0 -0.30980269118E-01 -0.43591412112E-01  0.27345210920E-01  0.60066712627E-01  0.51100000000E-03 0. -1.
</event>
<event>
 8    1  0.1094134E+005  0.1043930E+01  0.7957747E-01            NaN
         13   -1    0    0    0    0  0.00000000000E+00  0.00000000000E+00  0.74505805969E-08  0.10566000000E+00  0.10566000000E+00 0.  1.
     999900   -1    0    0    0    0 -0.00000000000E+00 -0.00000000000E+00 -0.74505805969E-08  0.93827000000E+00  0.93827000000E+00 0.  1.
     999902    2    1    2    0    0  0.16606122663E-01 -0.18211217309E-01 -0.33063258579E-03  0.10192820576E+01  0.10189839998E+01 0.  0.
     999903    2    3    3    0    0  0.12543471216E+00  0.29014416695E-01  0.14704157014E-01  0.13119424254E+00  0.20494234543E-01 0.  0.
         14    1    1    2    0    0 -0.16606122663E-01  0.18211217309E-01  0.33063258579E-03  0.24647942382E-01  0.00000000000E+00 0.  1.
     999901    1    3    3    0    0 -0.10882858950E+00 -0.47225634003E-01 -0.15034789600E-01  0.88808781508E+00  0.88000000000E+00 0.  1.
        -11    1    4    4    0    0  0.16762962053E-01 -0.30367994224E-02  0.10890024106E-02  0.17078234533E-01  0.51100000000E-03 0.  1.
         11    1    4    4    0    0  0.10867175011E+00  0.32051216117E-01  0.13615154604E-01  0.11411600800E+00  0.51100000000E-03 0. -1.
</event>
<event>
 7    1  0.1094134E+005  0.1043930E+01  0.7957747E-01            NaN
         13   -1    0    0    0    0  0.00000000000E+00  0.00000000000E+00  0.74505805969E-08  0.10566000000E+00  0.10566000000E+00 0.  1.
     999900   -1    0    0    0    0 -0.00000000000E+00 -0.00000000000E+00 -0.74505805969E-08  0.93827000000E+00  0.93827000000E+00 0.  1.
     999903    2    1    2    0    0 -0.78374763099E-01  0.56127086465E-01 -0.16071177008E-01  0.99928673308E-01  0.20847150715E-01 0.  0.
         14    1    1    2    0    0 -0.10745669378E-01 -0.50829710038E-01  0.28781722180E-01  0.59392898267E-01  0.00000000000E+00 0.  1.
     999901    1    1    2    0    0  0.89120432477E-01 -0.52973764271E-02 -0.12710545171E-01  0.88460842842E+00  0.88000000000E+00 0.  1.
        -11    1    3    3    0    0 -0.35331908172E-02  0.57609159340E-02 -0.61865314174E-02  0.91763762852E-02  0.51100000000E-03 0. -1.
         11    1    3    3    0    0 -0.74841572282E-01  0.50366170531E-01 -0.98846455910E-02  0.90752297023E-01  0.51100000000E-03 0.  1.
</event>
<event>
 8    1  0.1094134E+005  0.1043930E+01  0.7957747E-01            NaN
         13   -1    0    0    0    0  0.00000000000E+00  0.00000000000E+00  0.74505805969E-08  0.10566000000E+00  0.10566000000E+00 0. -1.
     999900   -1    0    0    0    0 -0.00000000000E+00 -0.00000000000E+00 -0.74505805969E-08  0.93827000000E+00  0.93827000000E+00 0.  1.
     999902    2    1    2    0    0  0.39531063634E-02 -0.14052105217E-01 -0.17691052824E-01  0.10209939572E+01  0.10207363021E+01 0.  0.
     999903    2    3    3    0    0  0.12653797133E+00 -0.24492448055E-01  0.15448987077E-01  0.13181775858E+00  0.22924050189E-01 0.  0.
         14    1    1    2    0    0 -0.39531063634E-02  0.14052105217E-01  0.17691052824E-01  0.22936042836E-01  0.00000000000E+00 0. -1.
     999901    1    3    3    0    0 -0.12258486496E+00  0.10440342838E-01 -0.33140039901E-01  0.88917619858E+00  0.88000000000E+00 0.  1.
        -11    1    4    4    0    0  0.88087169440E-01 -0.75046535461E-02  0.52761687235E-02  0.88565051358E-01  0.51100000000E-03 0. -1.
         11    1    4    4    0    0  0.38450801887E-01 -0.16987794509E-01  0.10172818354E-01  0.43252707225E-01  0.51100000000E-03 0.  1.
</event>
<event>
 8    1  0.1094134E+005  0.1043930E+01  0.7957747E-01            NaN
         13   -1    0    0    0    0  0.00000000000E+00  0.00000000000E+00  0.74505805969E-08  0.10566000000E+00  0.10566000000E+00 0.  1.
     999900   -1    0    0    0    0 -0.00000000000E+00 -0.00000000000E+00 -0.74505805969E-08  0.93827000000E+00  0.93827000000E+00 0. -1.
     999902    2    1    2    0    0  0.20468197927E-01 -0.10205283597E-01 -0.24497661241E-02  0.10209279068E+01  0.10206687487E+01 0.  0.
     999903    2    3    3    0    0 -0.14586862334E-02 -0.12606446465E+00 -0.35464156357E-01  0.13244938251E+00  0.19767537245E-01 0.  0.
         14    1    1    2    0    0 -0.20468197927E-01  0.10205283597E-01  0.24497661241E-02  0.23002093247E-01  0.00000000000E+00 0. -1.
     999901    1    3    3    0    0  0.21926884160E-01  0.11585918105E+00  0.33014390233E-01  0.88847852425E+00  0.88000000000E+00 0.  1.
        -11    1    4    4    0    0 -0.70713403999E-03 -0.53593865073E-01 -0.25272103701E-01  0.59259959150E-01  0.51100000000E-03 0. -1.
         11    1    4    4    0    0 -0.75155219341E-03 -0.72470599573E-01 -0.10192052657E-01  0.73189423358E-01  0.51100000000E-03 0.  1.
</event>
<event>
 8    1  0.1094134E+005  0.1043930E+01  0.7957747E-01            NaN
         13   -1    0    0    0    0  0.00000000000E+00  0.00000000000E+00  0.74505805969E-08  0.10566000000E+00  0.10566000000E+00 0. -1.
     999900   -1    0    0    0    0 -0.00000000000E+00 -0.00000000000E+00 -0.74505805969E-08  0.93827000000E+00  0.93827000000E+00 0. -1.
     999902    2    1    2    0    0  0.30141413009E-02 -0.23545214703E-01  0.35031009680E-02  0.10199355444E+01  0.10196532650E+01 0.  0.
     999903    2    3    3    0    0 -0.11642734958E-01 -0.12884931411E+00  0.24623161994E-01  0.13328463544E+00  0.20513286331E-01 0.  0.
         14    1    1    2    0    0 -0.30141413009E-02  0.23545214703E-01 -0.35031009680E-02  0.23994455600E-01  0.00000000000E+00 0. -1.
     999901    1    3    3    0    0  0.14656876259E-01  0.10530409940E+00 -0.21120061026E-01  0.88665090895E+00  0.88000000000E+00 0.  1.
        -11    1    4    4    0    0  0.46044106476E-03 -0.90610459515E-01  0.13135108384E-01  0.91560141834E-01  0.51100000000E-03 0. -1.
         11    1    4    4    0    0 -0.12103176023E-01 -0.38238854591E-01  0.11488053610E-01  0.41724493610E-01  0.51100000000E-03 0.  1.
</event>
<event>
 8    1  0.1094134E+005  0.1043930E+01  0.7957747E-01            NaN
         13   -1    0    0    0    0  0.00000000000E+00  0.00000000000E+00  0.74505805969E-08  0.10566000000E+00  0.10566000000E+00 0. -1.
     999900   -1    0    0    0    0 -0.00000000000E+00 -0.00000000000E+00 -0.74505805969E-08  0.93827000000E+00  0.93827000000E+00 0.  1.
     999902    2    1    2    0    0 -0.12075847192E-01  0.13019316300E-01  0.13854004757E-01  0.10214075195E+01  0.10211591740E+01 0.  0.
     999903    2    3    3    0    0 -0.12101300515E+00  0.44845090351E-01  0.29338586174E-01  0.13398430782E+00  0.20876124150E-01 0.  0.
         14    1    1    2    0    0  0.12075847192E-01 -0.13019316300E-01 -0.13854004757E-01  0.22522480550E-01  0.00000000000E+00 0.  1.
     999901    1    3    3    0    0  0.10893715796E+00 -0.31825774052E-01 -0.15484581416E-01  0.88742321163E+00  0.88000000000E+00 0.  1.
        -11    1    4    4    0    0 -0.40104896184E-01  0.11210302273E-01  0.18930205917E-01  0.45745900276E-01  0.51100000000E-03 0. -1.
         11    1    4    4    0    0 -0.80908108965E-01  0.33634788078E-01  0.10408380256E-01  0.88238407544E-01  0.51100000000E-03 0.  1.
</event>
<event>
 8    1  0.1094134E+005  0.1043930E+01  0.7957747E-01            NaN
         13   -1    0    0    0    0  0.00000000000E+00  0.00000000000E+00  0.74505805969E-08  0.10566000000E+00  0.10566000000E+00 0. -1.
     999900   -1    0    0    0    0 -0.00000000000E+00 -0.00000000000E+00 -0.74505805969E-08  0.93827000000E+00  0.93827000000E+00 0.  1.
     999902    2    1    2    0    0 -0.21938979011E-01  0.30012084931E-02 -0.93624835112E-02  0.10198887407E+01  0.10196053458E+01 0.  0.
     999903    2    3    3    0    0 -0.53729279282E-01  0.86991763775E-01 -0.81859890074E-01  0.13235231296E+00  0.19018168288E-01 0.  0.
         14    1    1    2    0    0  0.21938979011E-01 -0.30012084931E-02  0.93624835112E-02  0.24041259326E-01  0.00000000000E+00 0.  1.
     999901    1    3    3    0    0  0.31790300271E-01 -0.83990555282E-01  0.72497406563E-01  0.88753642772E+00  0.88000000000E+00 0. -1.
        -11    1    4    4    0    0 -0.46553265960E-01  0.65714959485E-01 -0.71178474257E-01  0.10748162071E+00  0.51100000000E-03 0. -1.
         11    1    4    4    0    0 -0.71760133221E-02  0.21276804290E-01 -0.10681415817E-01  0.24870692248E-01  0.51100000000E-03 0.  1.
</event>
<event>
 8    1  0.1094134E+005  0.1043930E+01  0.7957747E-01            NaN
         13   -1    0    0    0    0  0.00000000000E+00  0.00000000000E+00  0.74505805969E-08  0.10566000000E+00  0.10566000000E+00 0. -1.
     999900   -1    0    0    0    0 -0.00000000000E+00 -0.00000000000E+00 -0.74505805969E-08  0.93827000000E+00  0.93827000000E+00 0. -1.
     999902    2    1    2    0    0  0.19176315801E-01 -0.14591614682E-01 -0.53653516961E-03  0.10198274239E+01  0.10195425642E+01 0.  0.
     999903    2    3    3    0    0  0.12687589075E+00 -0.29658693681E-02 -0.32923625474E-01  0.13259392583E+00  0.19771090468E-01 0.  0.
         14    1    1    2    0    0 -0.19176315801E-01  0.14591614682E-01  0.53653516961E-03  0.24102576143E-01  0.00000000000E+00 0. -1.
     999901    1    3    3    0    0 -0.10769957495E+00 -0.11625745314E-01  0.32387090305E-01  0.88723349802E+00  0.88000000000E+00 0.  1.
        -11    1    4    4    0    0  0.78869671828E-01 -0.60069249410E-02 -0.11490262107E-01  0.79929941360E-01  0.51100000000E-03 0. -1.
         11    1    4    4    0    0  0.48006218923E-01  0.30410555729E-02 -0.21433363367E-01  0.52663984472E-01  0.51100000000E-03 0.  1.
</event>
<event>
 8    1  0.1094134E+005  0.1043930E+01  0.7957747E-01            NaN
         13   -1    0    0    0    0  0.00000000000E+00  0.00000000000E+00  0.74505805969E-08  0.10566000000E+00  0.10566000000E+00 0.  1.
     999900   -1    0    0    0    0 -0.00000000000E+00 -0.00000000000E+00 -0.74505805969E-08  0.93827000000E+00  0.93827000000E+00 0.  1.
     999902    2    1    2    0    0 -0.21484969536E-01 -0.40283554421E-03  0.10636309894E-01  0.10199529843E+01  0.10196711200E+01 0.  0.
     999903    2    3    3    0    0  0.24800945555E-01 -0.35562076876E-01  0.12204917477E+00  0.13102588684E+00  0.19799842146E-01 0.  0.
         14    1    1    2    0    0  0.21484969536E-01  0.40283554421E-03 -0.10636309894E-01  0.23977015673E-01  0.00000000000E+00 0. -1.
     999901    1    3    3    0    0 -0.46285915090E-01  0.35159241332E-01 -0.11141286487E+00  0.88892709749E+00  0.88000000000E+00 0.  1.
        -11    1    4    4    0    0  0.30515052328E-02 -0.21362162322E-01  0.59603832360E-01  0.63391889199E-01  0.51100000000E-03 0.  1.
         11    1    4    4    0    0  0.21749440322E-01 -0.14199914554E-01  0.62445342407E-01  0.67633997641E-01  0.51100000000E-03 0. -1.
</event>
<event>
 8    1  0.1094134E+005  0.1043930E+01  0.7957747E-01            NaN
         13   -1    0    0    0    0  0.00000000000E+00  0.00000000000E+00  0.74505805969E-08  0.10566000000E+00  0.10566000000E+00 0.  1.
     999900   -1    0    0    0    0 -0.00000000000E+00 -0.00000000000E+00 -0.74505805969E-08  0.93827000000E+00  0.93827000000E+00 0. -1.
     999902    2    1    2    0    0 -0.92244886310E-02 -0.39804795177E-02 -0.21429276165E-01  0.10202625269E+01  0.10199879776E+01 0.  0.
     999903    2    3    3    0    0 -0.67967500584E-01  0.61977533427E-01  0.88286872524E-01  0.12906174466E+00  0.20039118944E-01 0.  0.
         14    1    1    2    0    0  0.92244886310E-02  0.39804795177E-02  0.21429276165E-01  0.23667473137E-01  0.00000000000E+00 0.  1.
     999901    1    3    3    0    0  0.58743011953E-01 -0.65958012945E-01 -0.10971614869E+00  0.89120078221E+00  0.88000000000E+00 0. -1.
        -11    1    4    4    0    0 -0.12828319407E-01  0.15560850896E-01  0.95610793698E-02  0.22324453389E-01  0.51100000000E-03 0.  1.
         11    1    4    4    0    0 -0.55139181177E-01  0.46416682532E-01  0.78725793154E-01  0.10673729127E+00  0.51100000000E-03 0. -1.
</event>
<event>
 8    1  0.1094134E+005  0.1043930E+01  0.7957747E-01            NaN
         13   -1    0    0    0    0  0.00000000000E+00  0.00000000000E+00  0.74505805969E-08  0.10566000000E+00  0.10566000000E+00 0. -1.
     999900   -1    0    0    0    0 -0.00000000000E+00 -0.00000000000E+00 -0.74505805969E-08  0.93827000000E+00  0.93827000000E+00 0.  1.
     999902    2    1    2    0    0  0.38662490778E-02  0.12799546325E-01 -0.19266373120E-01  0.10204785736E+01  0.10202090716E+01 0.  0.
     999903    2    3    3    0    0  0.12968310739E+00 -0.64699700798E-03 -0.58763294622E-03  0.13123193361E+00  0.20083529015E-01 0.  0.
         14    1    1    2    0    0 -0.38662490778E-02 -0.12799546325E-01  0.19266373120E-01  0.23451426423E-01  0.00000000000E+00 0. -1.
     999901    1    3    3    0    0 -0.12581685831E+00  0.13446543333E-01 -0.18678740174E-01  0.88924663997E+00  0.88000000000E+00 0.  1.
        -11    1    4    4    0    0  0.55184024141E-01 -0.57958074679E-02 -0.84931771640E-02  0.56136112120E-01  0.51100000000E-03 0.  1.
         11    1    4    4    0    0  0.74499083251E-01  0.51488104599E-02  0.79055442178E-02  0.75095821487E-01  0.51100000000E-03 0. -1.
</event>
<event>
 8    1  0.1094134E+005  0.1043930E+01  0.7957747E-01            NaN
         13   -1    0    0    0    0  0.00000000000E+00  0.00000000000E+00  0.74505805969E-08  0.10566000000E+00  0.10566000000E+00 0. -1.
     999900   -1    0    0    0    0 -0.00000000000E+00 -0.00000000000E+00 -0.74505805969E-08  0.93827000000E+00  0.93827000000E+00 0. -1.
     999902    2    1    2    0    0  0.36360457037E-02 -0.23238765051E-02  0.22739871681E-01  0.10207843094E+01  0.10205218681E+01 0.  0.
     999903    2    3    3    0    0  0.18182378380E-02  0.12376004330E+00  0.39533601739E-01  0.13163725257E+00  0.21109388716E-01 0.  0.
         14    1    1    2    0    0 -0.36360457037E-02  0.23238765051E-02 -0.22739871681E-01  0.23145690624E-01  0.00000000000E+00 0.  1.
     999901    1    3    3    0    0  0.18178078657E-02 -0.12608391980E+00 -0.16793730057E-01  0.88914705681E+00  0.88000000000E+00 0. -1.
        -11    1    4    4    0    0  0.68008745212E-02  0.77307129083E-01  0.15669795436E-01  0.79173529108E-01  0.51100000000E-03 0.  1.
         11    1    4    4    0    0 -0.49826366832E-02  0.46452914214E-01  0.23863806302E-01  0.52463723462E-01  0.51100000000E-03 0. -1.
</event>
<event>
 8    1  0.1094134E+005  0.1043930E+01  0.7957747E-01            NaN
         13   -1    0    0    0    0  0.00000000000E+00  0.00000000000E+00  0.74505805969E-08  0.10566000000E+00  0.10566000000E+00 0.  1.
     999900   -1    0    0    0    0 -0.00000000000E+00 -0.00000000000E+00 -0.74505805969E-08  0.93827000000E+00  0.93827000000E+00 0.  1.
     999902    2    1    2    0    0 -0.12570417977E-01 -0.11564161028E-01  0.17134036509E-01  0.10197366035E+01  0.10194495672E+01 0.  0.
     999903    2    3    3    0    0  0.12401062829E+00 -0.26828044103E-01 -0.10029785362E-01  0.12865566352E+00  0.18796363520E-01 0.  0.
         14    1    1    2    0    0  0.12570417977E-01  0.11564161028E-01 -0.17134036509E-01  0.24193396526E-01  0.00000000000E+00 0.  1.
     999901    1    3    3    0    0 -0.13658104627E+00  0.15263883075E-01  0.27163821871E-01  0.89108093995E+00  0.88000000000E+00 0.  1.
        -11    1    4    4    0    0  0.35229635862E-01 -0.18340891645E-02 -0.90232909853E-02  0.36416644920E-01  0.51100000000E-03 0.  1.
         11    1    4    4    0    0  0.88780992432E-01 -0.24993954938E-01 -0.10064943771E-02  0.92239018601E-01  0.51100000000E-03 0. -1.
</event>
<event>
 8    1  0.1094134E+005  0.1043930E+01  0.7957747E-01            NaN
         13   -1    0    0    0    0  0.00000000000E+00  0.00000000000E+00  0.74505805969E-08  0.10566000000E+00  0.10566000000E+00 0.  1.
     999900   -1    0    0    0    0 -0.00000000000E+00 -0.00000000000E+00 -0.74505805969E-08  0.93827000000E+00  0.93827000000E+00 0.  1.
     999902    2    1    2    0    0  0.20007725974E-01  0.11217755620E-01  0.58544735747E-02  0.10202567662E+01  0.10199820816E+01 0.  0.
     999903    2    3    3    0    0  0.82538495254E-01  0.95850072646E-01  0.37335866052E-01  0.13342882103E+00  0.20234716736E-01 0.  0.
         14    1    1    2    0    0 -0.20007725974E-01 -0.11217755620E-01 -0.58544735747E-02  0.23673233844E-01  0.00000000000E+00 0. -1.
     999901    1    3    3    0    0 -0.62530769280E-01 -0.84632317027E-01 -0.31481392477E-01  0.88682794513E+00  0.88000000000E+00 0.  1.
        -11    1    4    4    0    0  0.50255464535E-01  0.72530422713E-01  0.27046783643E-01  0.92293355996E-01  0.51100000000E-03 0.  1.
         11    1    4    4    0    0  0.32283030719E-01  0.23319649934E-01  0.10289082409E-01  0.41135465030E-01  0.51100000000E-03 0. -1.
</event>
<event>
 8    1  0.1094134E+005  0.1043930E+01  0.7957747E-01            NaN
         13   -1    0    0    0    0  0.00000000000E+00  0.00000000000E+00  0.74505805969E-08  0.10566000000E+00  0.10566000000E+00 0.  1.
     999900   -1    0    0    0    0 -0.00000000000E+00 -0.00000000000E+00 -0.74505805969E-08  0.93827000000E+00  0.93827000000E+00 0.  1.
     999902    2    1    2    0    0 -0.26787290929E-01  0.15338525513E-03  0.30681695489E-02  0.10169671339E+01  0.10166096376E+01 0.  0.
     999903    2    3    3    0    0  0.10675615458E+00 -0.19514951479E-01  0.58549698933E-01  0.12494757394E+00  0.20152397238E-01 0.  0.
         14    1    1    2    0    0  0.26787290929E-01 -0.15338525513E-03 -0.30681695489E-02  0.26962866070E-01  0.00000000000E+00 0.  1.
     999901    1    3    3    0    0 -0.13354344551E+00  0.19668336735E-01 -0.55481529384E-01  0.89201955999E+00  0.88000000000E+00 0. -1.
        -11    1    4    4    0    0  0.79315575247E-01 -0.73087681650E-02  0.48581225589E-01  0.93299384615E-01  0.51100000000E-03 0.  1.
         11    1    4    4    0    0  0.27440579337E-01 -0.12206183314E-01  0.99684733445E-02  0.31648189321E-01  0.51100000000E-03 0. -1.
</event>
<event>
 8    1  0.1094134E+005  0.1043930E+01  0.7957747E-01            NaN
         13   -1    0    0    0    0  0.00000000000E+00  0.00000000000E+00  0.74505805969E-08  0.10566000000E+00  0.10566000000E+00 0.  1.
     999900   -1    0    0    0    0 -0.00000000000E+00 -0.00000000000E+00 -0.74505805969E-08  0.93827000000E+00  0.93827000000E+00 0. -1.
     999902    2    1    2    0    0  0.14322644162E-01  0.55443632942E-02 -0.18583386227E-01  0.10198214881E+01  0.10195364865E+01 0.  0.
     999903    2    3    3    0    0  0.23016721142E-01 -0.31462529529E-01 -0.12512130738E+00  0.13258114544E+00  0.20068840208E-01 0.  0.
         14    1    1    2    0    0 -0.14322644162E-01 -0.55443632942E-02  0.18583386227E-01  0.24108511853E-01  0.00000000000E+00 0.  1.
     999901    1    3    3    0    0 -0.86940769801E-02  0.37006892823E-01  0.10653792116E+00  0.88724034271E+00  0.88000000000E+00 0.  1.
        -11    1    4    4    0    0  0.11257537778E-01 -0.40571957063E-02 -0.56542943829E-01  0.57797565794E-01  0.51100000000E-03 0. -1.
         11    1    4    4    0    0  0.11759183364E-01 -0.27405333823E-01 -0.68578363553E-01  0.74783579641E-01  0.51100000000E-03 0.  1.
</event>
<event>
 8    1  0.1094134E+005  0.1043930E+01  0.7957747E-01            NaN
         13   -1    0    0    0    0  0.00000000000E+00  0.00000000000E+00  0.74505805969E-08  0.10566000000E+00  0.10566000000E+00 0.  1.
     999900   -1    0    0    0    0 -0.00000000000E+00 -0.00000000000E+00 -0.74505805969E-08  0.93827000000E+00  0.93827000000E+00 0.  1.
     999902    2    1    2    0    0 -0.20766449283E-01 -0.11104021024E-01 -0.36348191535E-02  0.10201023562E+01  0.10198240341E+01 0.  0.
     999903    2    3    3    0    0  0.11507723997E+00  0.50439878284E-01  0.69520985438E-02  0.12749200320E+00  0.20467699607E-01 0.  0.
         14    1    1    2    0    0  0.20766449283E-01  0.11104021024E-01  0.36348191535E-02  0.23827643799E-01  0.00000000000E+00 0. -1.
     999901    1    3    3    0    0 -0.13584368925E+00 -0.61543899307E-01 -0.10586917697E-01  0.89261035300E+00  0.88000000000E+00 0.  1.
        -11    1    4    4    0    0  0.79493599140E-01  0.36302223910E-01  0.14146094900E-01  0.88529412553E-01  0.51100000000E-03 0.  1.
         11    1    4    4    0    0  0.35583640827E-01  0.14137654373E-01 -0.71939963562E-02  0.38962590651E-01  0.51100000000E-03 0. -1.
</event>
<event>
 8    1  0.1094134E+005  0.1043930E+01  0.7957747E-01            NaN
         13   -1    0    0    0    0  0.00000000000E+00  0.00000000000E+00  0.74505805969E-08  0.10566000000E+00  0.10566000000E+00 0. -1.
     999900   -1    0    0    0    0 -0.00000000000E+00 -0.00000000000E+00 -0.74505805969E-08  0.93827000000E+00  0.93827000000E+00 0. -1.
     999902    2    1    2    0    0  0.13310268736E-01  0.14083674251E-01  0.71067122337E-02  0.10232897846E+01  0.10230816022E+01 0.  0.
     999903    2    3    3    0    0  0.59072931172E-01 -0.97624652969E-01  0.65653327415E-01  0.13312088049E+00  0.19764244404E-01 0.  0.
         14    1    1    2    0    0 -0.13310268736E-01 -0.14083674251E-01 -0.71067122337E-02  0.20640215430E-01  0.00000000000E+00 0.  1.
     999901    1    3    3    0    0 -0.45762662436E-01  0.11170832722E+00 -0.58546615181E-01  0.89016890408E+00  0.88000000000E+00 0.  1.
        -11    1    4    4    0    0  0.58511351943E-01 -0.87554605226E-01  0.56579248128E-01  0.11954438357E+00  0.51100000000E-03 0.  1.
         11    1    4    4    0    0  0.56157922889E-03 -0.10070047743E-01  0.90740792874E-02  0.13576496923E-01  0.51100000000E-03 0. -1.
</event>
<event>
 8    1  0.1094134E+005  0.1043930E+01  0.7957747E-01            NaN
         13   -1    0    0    0    0  0.00000000000E+00  0.00000000000E+00  0.74505805969E-08  0.10566000000E+00  0.10566000000E+00 0. -1.
     999900   -1    0    0    0    0 -0.00000000000E+00 -0.00000000000E+00 -0.74505805969E-08  0.93827000000E+00  0.93827000000E+00 0. -1.
     999902    2    1    2    0    0  0.58217092976E-02  0.18189550779E-01  0.13284045622E-01  0.10206659091E+01  0.10204007449E+01 0.  0.
     999903    2    3    3    0    0  0.23792632877E-01  0.12558015898E+00  0.33950651817E-01  0.13371449813E+00  0.19759922650E-01 0.  0.
         14    1    1    2    0    0 -0.58217092976E-02 -0.18189550779E-01 -0.13284045622E-01  0.23264090887E-01  0.00000000000E+00 0.  1.
     999901    1    3    3    0    0 -0.17970923579E-01 -0.10739060820E+00 -0.20666606194E-01  0.88695141098E+00  0.88000000000E+00 0. -1.
        -11    1    4    4    0    0  0.54438776242E-02  0.80038014224E-01  0.20443198821E-01  0.82788314535E-01  0.51100000000E-03 0. -1.
         11    1    4    4    0    0  0.18348755252E-01  0.45542144759E-01  0.13507452996E-01  0.50926183600E-01  0.51100000000E-03 0.  1.
</event>
<event>
 8    1  0.1094134E+005  0.1043930E+01  0.7957747E-01            NaN
         13   -1    0    0    0    0  0.00000000000E+00  0.00000000000E+00  0.74505805969E-08  0.10566000000E+00  0.10566000000E+00 0. -1.
     999900   -1    0    0    0    0 -0.00000000000E+00 -0.00000000000E+00 -0.74505805969E-08  0.93827000000E+00  0.93827000000E+00 0. -1.
     999902    2    1    2    0    0 -0.95185509313E-02 -0.67978314728E-02 -0.26750522649E-01  0.10147340450E+01  0.10143139447E+01 0.  0.
     999903    2    3    3    0    0 -0.68004520635E-01  0.37088551176E-01  0.95228562574E-01  0.12331634245E+00  0.11758644956E-01 0.  0.
         14    1    1    2    0    0  0.95185509313E-02  0.67978314728E-02  0.26750522649E-01  0.29195954969E-01  0.00000000000E+00 0. -1.
     999901    1    3    3    0    0  0.58485969704E-01 -0.43886382649E-01 -0.12197908522E+00  0.89141770258E+00  0.88000000000E+00 0. -1.
        -11    1    4    4    0    0 -0.14365374896E-01  0.12908229368E-01  0.27349756067E-01  0.33485170736E-01  0.51100000000E-03 0.  1.
         11    1    4    4    0    0 -0.53639145739E-01  0.24180321808E-01  0.67878806508E-01  0.89831171718E-01  0.51100000000E-03 0. -1.
</event>
<event>
 8    1  0.1094134E+005  0.1043930E+01  0.7957747E-01            NaN
         13   -1    0    0    0    0  0.00000000000E+00  0.00000000000E+00  0.74505805969E-08  0.10566000000E+00  0.10566000000E+00 0.  1.
     999900   -1    0    0    0    0 -0.00000000000E+00 -0.00000000000E+00 -0.74505805969E-08  0.93827000000E+00  0.93827000000E+00 0.  1.
     999902    2    1    2    0    0 -0.10599738850E-02 -0.97711878610E-02 -0.21611741057E-01  0.10201883276E+01  0.10199120338E+01 0.  0.
     999903    2    3    3    0    0  0.80103670720E-01  0.12129403823E-02  0.98248920239E-01  0.12829440655E+00  0.19711294649E-01 0.  0.
         14    1    1    2    0    0  0.10599738850E-02  0.97711878610E-02  0.21611741057E-01  0.23741672401E-01  0.00000000000E+00 0.  1.
     999901    1    3    3    0    0 -0.81163644605E-01 -0.10984128243E-01 -0.11986066130E+00  0.89189392105E+00  0.88000000000E+00 0.  1.
        -11    1    4    4    0    0  0.49758607527E-01  0.51050568623E-02  0.47187032896E-01  0.68766691233E-01  0.51100000000E-03 0. -1.
         11    1    4    4    0    0  0.30345063193E-01 -0.38921164800E-02  0.51061887342E-01  0.59527715317E-01  0.51100000000E-03 0.  1.
</event>
<event>
 8    1  0.1094134E+005  0.1043930E+01  0.7957747E-01            NaN
         13   -1    0    0    0    0  0.00000000000E+00  0.00000000000E+00  0.74505805969E-08  0.10566000000E+00  0.10566000000E+00 0. -1.
     999900   -1    0    0    0    0 -0.00000000000E+00 -0.00000000000E+00 -0.74505805969E-08  0.93827000000E+00  0.93827000000E+00 0. -1.
     999902    2    1    2    0    0 -0.15972006200E-01  0.17201564607E-01 -0.32980011612E-02  0.10202260843E+01  0.10199506790E+01 0.  0.
     999903    2    3    3    0    0  0.61212542764E-01  0.11136017202E+00  0.26905964460E-01  0.13133037756E+00  0.19382307496E-01 0.  0.
         14    1    1    2    0    0  0.15972006200E-01 -0.17201564607E-01  0.32980011612E-02  0.23703915681E-01  0.00000000000E+00 0.  1.
     999901    1    3    3    0    0 -0.77184548963E-01 -0.94158607412E-01 -0.30203965622E-01  0.88889570676E+00  0.88000000000E+00 0. -1.
        -11    1    4    4    0    0  0.54563761881E-01  0.10522845879E+00  0.29003895468E-01  0.12203163411E+00  0.51100000000E-03 0.  1.
         11    1    4    4    0    0  0.66487808829E-02  0.61317132326E-02 -0.20979310076E-02  0.92987434586E-02  0.51100000000E-03 0. -1.
</event>
<event>
 8    1  0.1094134E+005  0.1043930E+01  0.7957747E-01            NaN
         13   -1    0    0    0    0  0.00000000000E+00  0.00000000000E+00  0.74505805969E-08  0.10566000000E+00  0.10566000000E+00 0. -1.
     999900   -1    0    0    0    0 -0.00000000000E+00 -0.00000000000E+00 -0.74505805969E-08  0.93827000000E+00  0.93827000000E+00 0.  1.
     999902    2    1    2    0    0 -0.12624857587E-01 -0.12007669789E-01 -0.10179738338E-01  0.10237508465E+01  0.10235519515E+01 0.  0.
     999903    2    3    3    0    0  0.69482481794E-01 -0.39292350151E-01 -0.10623151097E+00  0.13430606914E+00  0.19526449449E-01 0.  0.
         14    1    1    2    0    0  0.12624857587E-01  0.12007669789E-01  0.10179738338E-01  0.20179153488E-01  0.00000000000E+00 0. -1.
     999901    1    3    3    0    0 -0.82107339381E-01  0.27284680361E-01  0.96051772636E-01  0.88944477737E+00  0.88000000000E+00 0. -1.
        -11    1    4    4    0    0  0.49714966587E-01 -0.24043191904E-01 -0.58578930637E-01  0.80507174931E-01  0.51100000000E-03 0. -1.
         11    1    4    4    0    0  0.19767515207E-01 -0.15249158247E-01 -0.47652580337E-01  0.53798894212E-01  0.51100000000E-03 0.  1.
</event>
<event>
 8    1  0.1094134E+005  0.1043930E+01  0.7957747E-01            NaN
         13   -1    0    0    0    0  0.00000000000E+00  0.00000000000E+00  0.74505805969E-08  0.10566000000E+00  0.10566000000E+00 0. -1.
     999900   -1    0    0    0    0 -0.00000000000E+00 -0.00000000000E+00 -0.74505805969E-08  0.93827000000E+00  0.93827000000E+00 0.  1.
     999902    2    1    2    0    0  0.82365745506E-02 -0.60280667108E-03 -0.24238090388E-01  0.10183235641E+01  0.10180015676E+01 0.  0.
     999903    2    3    3    0    0  0.47582853881E-01  0.88373136996E-02 -0.12134620068E+00  0.13205767243E+00  0.19289954124E-01 0.  0.
         14    1    1    2    0    0 -0.82365745506E-02  0.60280667108E-03  0.24238090388E-01  0.25606435947E-01  0.00000000000E+00 0. -1.
     999901    1    3    3    0    0 -0.39346279330E-01 -0.94401203707E-02  0.97108110296E-01  0.88626589162E+00  0.88000000000E+00 0. -1.
        -11    1    4    4    0    0  0.19663488461E-01  0.88445272805E-02 -0.33165217502E-01  0.39560980957E-01  0.51100000000E-03 0.  1.
         11    1    4    4    0    0  0.27919365420E-01 -0.72135809311E-05 -0.88180983183E-01  0.92496691473E-01  0.51100000000E-03 0. -1.
</event>
<event>
 8    1  0.1094134E+005  0.1043930E+01  0.7957747E-01            NaN
         13   -1    0    0    0    0  0.00000000000E+00  0.00000000000E+00  0.74505805969E-08  0.10566000000E+00  0.10566000000E+00 0. -1.
     999900   -1    0    0    0    0 -0.00000000000E+00 -0.00000000000E+00 -0.74505805969E-08  0.93827000000E+00  0.93827000000E+00 0. -1.
     999902    2    1    2    0    0 -0.22906456030E-01  0.53022551841E-02  0.42244456801E-02  0.10200413923E+01  0.10197616272E+01 0.  0.
     999903    2    3    3    0    0 -0.16389956951E-01  0.12700050032E+00  0.22188911310E-01  0.13146069832E+00  0.19794182171E-01 0.  0.
         14    1    1    2    0    0  0.22906456030E-01 -0.53022551841E-02 -0.42244456801E-02  0.23888607728E-01  0.00000000000E+00 0.  1.
     999901    1    3    3    0    0 -0.65164990787E-02 -0.12169824514E+00 -0.17964465629E-01  0.88858069395E+00  0.88000000000E+00 0.  1.
        -11    1    4    4    0    0 -0.61505253234E-02  0.14925390083E-01 -0.22147297107E-02  0.16302220082E-01  0.51100000000E-03 0. -1.
         11    1    4    4    0    0 -0.10239431628E-01  0.11207511024E+00  0.24403641020E-01  0.11515847824E+00  0.51100000000E-03 0.  1.
</event>
<event>
 8    1  0.1094134E+005  0.1043930E+01  0.7957747E-01            NaN
         13   -1    0    0    0    0  0.00000000000E+00  0.00000000000E+00  0.74505805969E-08  0.10566000000E+00  0.10566000000E+00 0.  1.
     999900   -1    0    0    0    0 -0.00000000000E+00 -0.00000000000E+00 -0.74505805969E-08  0.93827000000E+00  0.93827000000E+00 0. -1.
     999902    2    1    2    0    0 -0.19398822891E-01 -0.66709441595E-02  0.70623944834E-02  0.10222345341E+01  0.10220042805E+01 0.  0.
     999903    2    3    3    0    0 -0.36178526712E-01 -0.12682976461E+00  0.11795497816E-01  0.13389782829E+00  0.19870069611E-01 0.  0.
         14    1    1    2    0    0  0.19398822891E-01  0.66709441595E-02 -0.70623944834E-02  0.21695465917E-01  0.00000000000E+00 0. -1.
     999901    1    3    3    0    0  0.16779703821E-01  0.12015882045E+00 -0.47331033322E-02  0.88833670579E+00  0.88000000000E+00 0. -1.
        -11    1    4    4    0    0 -0.10832093797E-01 -0.16409196686E-01  0.55298366570E-02  0.20431255624E-01  0.51100000000E-03 0. -1.
         11    1    4    4    0    0 -0.25346432914E-01 -0.11042056792E+00  0.62656611586E-02  0.11346657267E+00  0.51100000000E-03 0.  1.
</event>
<event>
 8    1  0.1094134E+005  0.1043930E+01  0.7957747E-01            NaN
         13   -1    0    0    0    0  0.00000000000E+00  0.00000000000E+00  0.74505805969E-08  0.10566000000E+00  0.10566000000E+00 0. -1.
     999900   -1    0    0    0    0 -0.00000000000E+00 -0.00000000000E+00 -0.74505805969E-08  0.93827000000E+00  0.93827000000E+00 0. -1.
     999902    2    1    2    0    0  0.42934293432E-03 -0.74250851432E-02 -0.18052875181E-01  0.10244050793E+01  0.10242189922E+01 0.  0.
     999903    2    3    3    0    0  0.87469472089E-03  0.12537485591E+00  0.39235618767E-01  0.13259904985E+00  0.17984845193E-01 0.  0.
         14    1    1    2    0    0 -0.42934293432E-03  0.74250851432E-02  0.18052875181E-01  0.19524920667E-01  0.00000000000E+00 0. -1.
     999901    1    3    3    0    0 -0.44535178656E-03 -0.13279994105E+00 -0.57288493948E-01  0.89180602948E+00  0.88000000000E+00 0. -1.
        -11    1    4    4    0    0 -0.36562896796E-03  0.38754146802E-01  0.36040124574E-02  0.38926438390E-01  0.51100000000E-03 0.  1.
         11    1    4    4    0    0  0.12403236888E-02  0.86620709106E-01  0.35631606309E-01  0.93672611461E-01  0.51100000000E-03 0. -1.
</event>
<event>
 8    1  0.1094134E+005  0.1043930E+01  0.7957747E-01            NaN
         13   -1    0    0    0    0  0.00000000000E+00  0.00000000000E+00  0.74505805969E-08  0.10566000000E+00  0.10566000000E+00 0.  1.
     999900   -1    0    0    0    0 -0.00000000000E+00 -0.00000000000E+00 -0.74505805969E-08  0.93827000000E+00  0.93827000000E+00 0.  1.
     999902    2    1    2    0    0  0.19972111128E-01  0.14979726559E-01 -0.12217365912E-02  0.10189345990E+01  0.10186279728E+01 0.  0.
     999903    2    3    3    0    0  0.10398561740E-01 -0.11652817158E+00  0.47408556684E-01  0.12778316095E+00  0.19849939960E-01 0.  0.
         14    1    1    2    0    0 -0.19972111128E-01 -0.14979726559E-01  0.12217365912E-02  0.24995400996E-01  0.00000000000E+00 0.  1.
     999901    1    3    3    0    0  0.95735493874E-02  0.13150789814E+00 -0.48630293276E-01  0.89115143805E+00  0.88000000000E+00 0.  1.
        -11    1    4    4    0    0  0.14490888807E-01 -0.95076609568E-01  0.33295069478E-01  0.10177607930E+00  0.51100000000E-03 0.  1.
         11    1    4    4    0    0 -0.40923270667E-02 -0.21451562016E-01  0.14113487206E-01  0.26007081648E-01  0.51100000000E-03 0. -1.
</event>
<event>
 8    1  0.1094134E+005  0.1043930E+01  0.7957747E-01            NaN
         13   -1    0    0    0    0  0.00000000000E+00  0.00000000000E+00  0.74505805969E-08  0.10566000000E+00  0.10566000000E+00 0. -1.
     999900   -1    0    0    0    0 -0.00000000000E+00 -0.00000000000E+00 -0.74505805969E-08  0.93827000000E+00  0.93827000000E+00 0. -1.
     999902    2    1    2    0    0  0.38904885330E-02  0.35194835033E-02 -0.23466215644E-01  0.10198845027E+01  0.10196010067E+01 0.  0.
     999903    2    3    3    0    0  0.30977103919E-01  0.66630789107E-01 -0.10904577798E+00  0.13306964989E+00  0.20428093458E-01 0.  0.
         14    1    1    2    0    0 -0.38904885330E-02 -0.35194835033E-02  0.23466215644E-01  0.24045497329E-01  0.00000000000E+00 0. -1.
     999901    1    3    3    0    0 -0.27086615386E-01 -0.63111305604E-01  0.85579562332E-01  0.88681485278E+00  0.88000000000E+00 0.  1.
        -11    1    4    4    0    0  0.31465314635E-01  0.66629554225E-01 -0.10116171416E+00  0.12515397339E+00  0.51100000000E-03 0.  1.
         11    1    4    4    0    0 -0.48821071584E-03  0.12348824875E-05 -0.78840638156E-02  0.79156765015E-02  0.51100000000E-03 0. -1.
</event>
<event>
 8    1  0.1094134E+005  0.1043930E+01  0.7957747E-01            NaN
         13   -1    0    0    0    0  0.00000000000E+00  0.00000000000E+00  0.74505805969E-08  0.10566000000E+00  0.10566000000E+00 0.  1.
     999900   -1    0    0    0    0 -0.00000000000E+00 -0.00000000000E+00 -0.74505805969E-08  0.93827000000E+00  0.93827000000E+00 0.  1.
     999902    2    1    2    0    0 -0.85019679468E-02 -0.16264663328E-01  0.12702310177E-01  0.10216102461E+01  0.10213664002E+01 0.  0.
     999903    2    3    3    0    0 -0.73867646795E-01  0.83816471051E-01 -0.63907637948E-01  0.13023042265E+00  0.19853129048E-01 0.  0.
         14    1    1    2    0    0  0.85019679468E-02  0.16264663328E-01 -0.12702310177E-01  0.22319753940E-01  0.00000000000E+00 0. -1.
     999901    1    3    3    0    0  0.65365678849E-01 -0.10008113438E+00  0.76609948125E-01  0.89137982341E+00  0.88000000000E+00 0. -1.
        -11    1    4    4    0    0 -0.33473353362E-01  0.26673646810E-01 -0.31292042844E-01  0.53022654458E-01  0.51100000000E-03 0. -1.
         11    1    4    4    0    0 -0.40394293434E-01  0.57142824241E-01 -0.32615595105E-01  0.77207768192E-01  0.51100000000E-03 0.  1.
</event>
<event>
 8    1  0.1094134E+005  0.1043930E+01  0.7957747E-01            NaN
         13   -1    0    0    0    0  0.00000000000E+00  0.00000000000E+00  0.74505805969E-08  0.10566000000E+00  0.10566000000E+00 0. -1.
     999900   -1    0    0    0    0 -0.00000000000E+00 -0.00000000000E+00 -0.74505805969E-08  0.93827000000E+00  0.93827000000E+00 0.  1.
     999902    2    1    2    0    0  0.19106745183E-01 -0.13945268874E-01 -0.21472796856E-02  0.10201781781E+01  0.10199016452E+01 0.  0.
     999903    2    3    3    0    0  0.12725019321E+00  0.22456517385E-01  0.19914893206E-01  0.13253701471E+00  0.21738225611E-01 0.  0.
         14    1    1    2    0    0 -0.19106745183E-01  0.13945268874E-01  0.21472796856E-02  0.23751821941E-01  0.00000000000E+00 0.  1.
     999901    1    3    3    0    0 -0.10814344803E+00 -0.36401786259E-01 -0.22062172892E-01  0.88764116335E+00  0.88000000000E+00 0. -1.
        -11    1    4    4    0    0  0.65035637289E-01  0.17690375688E-01  0.19395917625E-01  0.70135912706E-01  0.51100000000E-03 0.  1.
         11    1    4    4    0    0  0.62214555920E-01  0.47661416974E-02  0.51897558130E-03  0.62401102007E-01  0.51100000000E-03 0. -1.
</event>
<event>
 8    1  0.1094134E+005  0.1043930E+01  0.7957747E-01            NaN
         13   -1    0    0    0    0  0.00000000000E+00  0.00000000000E+00  0.74505805969E-08  0.10566000000E+00  0.10566000000E+00 0. -1.
     999900   -1    0    0    0    0 -0.00000000000E+00 -0.00000000000E+00 -0.74505805969E-08  0.93827000000E+00  0.93827000000E+00 0.  1.
     999902    2    1    2    0    0 -0.96391900686E-02 -0.17463121922E-01 -0.12658560539E-01  0.10203055684E+01  0.10200320285E+01 0.  0.
     999903    2    3    3    0    0  0.90947528513E-02  0.81020956018E-01 -0.10063379210E+00  0.13025516783E+00  0.13861413741E-01 0.  0.
         14    1    1    2    0    0  0.96391900686E-02  0.17463121922E-01  0.12658560539E-01  0.23624431578E-01  0.00000000000E+00 0. -1.
     999901    1    3    3    0    0 -0.18733942920E-01 -0.98484077941E-01  0.87975231559E-01  0.89005040059E+00  0.88000000000E+00 0. -1.
        -11    1    4    4    0    0  0.44459875719E-02  0.19101352043E-01 -0.16180693636E-01  0.25430383853E-01  0.51100000000E-03 0.  1.
         11    1    4    4    0    0  0.46487652794E-02  0.61919603976E-01 -0.84453098462E-01  0.10482478398E+00  0.51100000000E-03 0. -1.
</event>
<event>
 8    1  0.1094134E+005  0.1043930E+01  0.7957747E-01            NaN
         13   -1    0    0    0    0  0.00000000000E+00  0.00000000000E+00  0.74505805969E-08  0.10566000000E+00  0.10566000000E+00 0. -1.
     999900   -1    0    0    0    0 -0.00000000000E+00 -0.00000000000E+00 -0.74505805969E-08  0.93827000000E+00  0.93827000000E+00 0.  1.
     999902    2    1    2    0    0  0.58561515711E-02  0.17303828974E-01 -0.14620645006E-01  0.10205317037E+01  0.10202634356E+01 0.  0.
     999903    2    3    3    0    0  0.94409359377E-01  0.91156101796E-01 -0.10264074401E-01  0.13299871362E+00  0.18993276914E-01 0.  0.
         14    1    1    2    0    0 -0.58561515711E-02 -0.17303828974E-01  0.14620645006E-01  0.23398296279E-01  0.00000000000E+00 0. -1.
     999901    1    3    3    0    0 -0.88553207806E-01 -0.73852272822E-01 -0.43565706044E-02  0.88753299010E+00  0.88000000000E+00 0.  1.
        -11    1    4    4    0    0  0.99072717303E-02  0.17836519137E-01 -0.49150197464E-02  0.20993189090E-01  0.51100000000E-03 0.  1.
         11    1    4    4    0    0  0.84502087647E-01  0.73319582659E-01 -0.53490546550E-02  0.11200552453E+00  0.51100000000E-03 0. -1.
</event>
<event>
 8    1  0.1094134E+005  0.1043930E+01  0.7957747E-01            NaN
         13   -1    0    0    0    0  0.00000000000E+00  0.00000000000E+00  0.74505805969E-08  0.10566000000E+00  0.10566000000E+00 0. -1.
     999900   -1    0    0    0    0 -0.00000000000E+00 -0.00000000000E+00 -0.74505805969E-08  0.93827000000E+00  0.93827000000E+00 0. -1.
     999902    2    1    2    0    0 -0.11988552336E-01  0.11868689568E-01 -0.16976366598E-01  0.10199970060E+01  0.10197161880E+01 0.  0.
     999903    2    3    3    0    0  0.39140435358E-01  0.11259600852E+00  0.48822310116E-01  0.13033997544E+00  0.19876026194E-01 0.  0.
         14    1    1    2    0    0  0.11988552336E-01 -0.11868689568E-01  0.16976366598E-01  0.23932994005E-01  0.00000000000E+00 0. -1.
     999901    1    3    3    0    0 -0.51128987694E-01 -0.10072731895E+00 -0.65798676714E-01  0.88965703056E+00  0.88000000000E+00 0. -1.
        -11    1    4    4    0    0  0.20954670969E-01  0.42619172070E-01  0.27844379483E-01  0.55055087441E-01  0.51100000000E-03 0. -1.
         11    1    4    4    0    0  0.18185764390E-01  0.69976836449E-01  0.20977930633E-01  0.75284887995E-01  0.51100000000E-03 0.  1.
</event>
<event>
 8    1  0.1094134E+005  0.1043930E+01  0.7957747E-01            NaN
         13   -1    0    0    0    0  0.00000000000E+00  0.00000000000E+00  0.74505805969E-08  0.10566000000E+00  0.10566000000E+00 0.  1.
     999900   -1    0    0    0    0 -0.00000000000E+00 -0.00000000000E+00 -0.74505805969E-08  0.93827000000E+00  0.93827000000E+00 0.  1.
     999902    2    1    2    0    0  0.52997937027E-02 -0.15887737956E-01 -0.16391132030E-01  0.10204954691E+01  0.10202263598E+01 0.  0.
     999903    2    3    3    0    0  0.81596754055E-01  0.86801474598E-01 -0.49802882956E-01  0.13061758664E+00  0.19700267127E-01 0.  0.
         14    1    1    2    0    0 -0.52997937027E-02  0.15887737956E-01  0.16391132030E-01  0.23434530929E-01  0.00000000000E+00 0.  1.
     999901    1    3    3    0    0 -0.76296960352E-01 -0.10268921255E+00  0.33411750926E-01  0.88987788243E+00  0.88000000000E+00 0.  1.
        -11    1    4    4    0    0  0.37577422124E-01  0.51885750235E-01 -0.32422788193E-01  0.71803147885E-01  0.51100000000E-03 0.  1.
         11    1    4    4    0    0  0.44019331931E-01  0.34915724363E-01 -0.17380094763E-01  0.58814438758E-01  0.51100000000E-03 0. -1.
</event>
<event>
 8    1  0.1094134E+005  0.1043930E+01  0.7957747E-01            NaN
         13   -1    0    0    0    0  0.00000000000E+00  0.00000000000E+00  0.74505805969E-08  0.10566000000E+00  0.10566000000E+00 0. -1.
     999900   -1    0    0    0    0 -0.00000000000E+00 -0.00000000000E+00 -0.74505805969E-08  0.93827000000E+00  0.93827000000E+00 0.  1.
     999902    2    1    2    0    0 -0.82476267768E-02 -0.53951217613E-02  0.21786719384E-01  0.10200178310E+01  0.10197375072E+01 0.  0.
     999903    2    3    3    0    0  0.16979132787E-01  0.78469360779E-01 -0.97375540445E-01  0.12767861016E+00  0.19341667031E-01 0.  0.
         14    1    1    2    0    0  0.82476267768E-02  0.53951217613E-02 -0.21786719384E-01  0.23912169032E-01  0.00000000000E+00 0.  1.
     999901    1    3    3    0    0 -0.25226759564E-01 -0.83864482540E-01  0.11916225983E+00  0.89233922081E+00  0.88000000000E+00 0. -1.
        -11    1    4    4    0    0  0.18278436735E-02  0.36070894302E-01 -0.55305047594E-01  0.66055732821E-01  0.51100000000E-03 0. -1.
         11    1    4    4    0    0  0.15151289114E-01  0.42398466477E-01 -0.42070492851E-01  0.61622877336E-01  0.51100000000E-03 0.  1.
</event>
<event>
 8    1  0.1094134E+005  0.1043930E+01  0.7957747E-01            NaN
         13   -1    0    0    0    0  0.00000000000E+00  0.00000000000E+00  0.74505805969E-08  0.10566000000E+00  0.10566000000E+00 0. -1.
     999900   -1    0    0    0    0 -0.00000000000E+00 -0.00000000000E+00 -0.74505805969E-08  0.93827000000E+00  0.93827000000E+00 0. -1.
     999902    2    1    2    0    0 -0.17914508196E-01 -0.77396781412E-02 -0.10338178336E-01  0.10218458393E+01  0.10216071697E+01 0.  0.
     999903    2    3    3    0    0  0.67059131673E-01  0.22841555124E-01  0.10657608729E+00  0.12953161394E+00  0.20032794323E-01 0.  0.
         14    1    1    2    0    0  0.17914508196E-01  0.77396781412E-02  0.10338178336E-01  0.22084160680E-01  0.00000000000E+00 0. -1.
     999901    1    3    3    0    0 -0.84973639869E-01 -0.30581233265E-01 -0.11691426562E+00  0.89231422538E+00  0.88000000000E+00 0. -1.
        -11    1    4    4    0    0  0.31761676507E-01  0.21335300850E-01  0.56976088001E-01  0.68633336520E-01  0.51100000000E-03 0.  1.
         11    1    4    4    0    0  0.35297455166E-01  0.15062542737E-02  0.49599999286E-01  0.60898277425E-01  0.51100000000E-03 0. -1.
</event>
<event>
 8    1  0.1094134E+005  0.1043930E+01  0.7957747E-01            NaN
         13   -1    0    0    0    0  0.00000000000E+00  0.00000000000E+00  0.74505805969E-08  0.10566000000E+00  0.10566000000E+00 0. -1.
     999900   -1    0    0    0    0 -0.00000000000E+00 -0.00000000000E+00 -0.74505805969E-08  0.93827000000E+00  0.93827000000E+00 0. -1.
     999902    2    1    2    0    0 -0.90611420213E-02 -0.35033117010E-02  0.21888588513E-01  0.10199823948E+01  0.10197012297E+01 0.  0.
     999903    2    3    3    0    0 -0.11799563898E+00  0.72137586888E-02 -0.50865884662E-01  0.13022130687E+00  0.19880679250E-01 0.  0.
         14    1    1    2    0    0  0.90611420213E-02  0.35033117010E-02 -0.21888588513E-01  0.23947605198E-01  0.00000000000E+00 0.  1.
     999901    1    3    3    0    0  0.10893449696E+00 -0.10717070390E-01  0.72754473176E-01  0.88976108793E+00  0.88000000000E+00 0. -1.
        -11    1    4    4    0    0 -0.10205793803E+00 -0.12639724018E-03 -0.46376826762E-01  0.11210222956E+00  0.51100000000E-03 0. -1.
         11    1    4    4    0    0 -0.15937700953E-01  0.73401559290E-02 -0.44890579002E-02  0.18119077310E-01  0.51100000000E-03 0.  1.
</event>
<event>
 8    1  0.1094134E+005  0.1043930E+01  0.7957747E-01            NaN
         13   -1    0    0    0    0  0.00000000000E+00  0.00000000000E+00  0.74505805969E-08  0.10566000000E+00  0.10566000000E+00 0. -1.
     999900   -1    0    0    0    0 -0.00000000000E+00 -0.00000000000E+00 -0.74505805969E-08  0.93827000000E+00  0.93827000000E+00 0. -1.
     999902    2    1    2    0    0  0.11122791851E-01 -0.20225033395E-01  0.24320335309E-02  0.10207204489E+01  0.10204565408E+01 0.  0.
     999903    2    3    3    0    0 -0.28455624655E-01 -0.10231203347E+00  0.77304913172E-01  0.13285183547E+00  0.19901904968E-01 0.  0.
         14    1    1    2    0    0 -0.11122791851E-01  0.20225033395E-01 -0.24320335309E-02  0.23209551083E-01  0.00000000000E+00 0.  1.
     999901    1    3    3    0    0  0.39578416505E-01  0.82087000072E-01 -0.74872879641E-01  0.88786861344E+00  0.88000000000E+00 0. -1.
        -11    1    4    4    0    0 -0.50870732334E-02 -0.15745371344E-01  0.39923021942E-02  0.17029228716E-01  0.51100000000E-03 0.  1.
         11    1    4    4    0    0 -0.23368551421E-01 -0.86566662123E-01  0.73312610978E-01  0.11582260676E+00  0.51100000000E-03 0. -1.
</event>
<event>
 8    1  0.1094134E+005  0.1043930E+01  0.7957747E-01            NaN
         13   -1    0    0    0    0  0.00000000000E+00  0.00000000000E+00  0.74505805969E-08  0.10566000000E+00  0.10566000000E+00 0. -1.
     999900   -1    0    0    0    0 -0.00000000000E+00 -0.00000000000E+00 -0.74505805969E-08  0.93827000000E+00  0.93827000000E+00 0.  1.
     999902    2    1    2    0    0  0.11671859706E-01  0.15845092782E-01  0.15386883039E-01  0.10189488983E+01  0.10186426271E+01 0.  0.
     999903    2    3    3    0    0 -0.35647879207E-01 -0.11587981248E+00 -0.30862159789E-01  0.12668795979E+00  0.19961563523E-01 0.  0.
         14    1    1    2    0    0 -0.11671859706E-01 -0.15845092782E-01 -0.15386883039E-01  0.24981101736E-01  0.00000000000E+00 0.  1.
     999901    1    3    3    0    0  0.47319738913E-01  0.13172490526E+00  0.46249042828E-01  0.89226093847E+00  0.88000000000E+00 0. -1.
        -11    1    4    4    0    0 -0.17881016738E-01 -0.49514506087E-01 -0.35907418843E-02  0.52769040364E-01  0.51100000000E-03 0. -1.
         11    1    4    4    0    0 -0.17766862469E-01 -0.66365306390E-01 -0.27271417905E-01  0.73918919430E-01  0.51100000000E-03 0.  1.
</event>
<event>
 8    1  0.1094134E+005  0.1043930E+01  0.7957747E-01            NaN
         13   -1    0    0    0    0  0.00000000000E+00  0.00000000000E+00  0.74505805969E-08  0.10566000000E+00  0.10566000000E+00 0.  1.
     999900   -1    0    0    0    0 -0.00000000000E+00 -0.00000000000E+00 -0.74505805969E-08  0.93827000000E+00  0.93827000000E+00 0.  1.
     999902    2    1    2    0    0  0.25672886100E-02 -0.22868661271E-01 -0.30893398070E-02  0.10207112434E+01  0.10204471234E+01 0.  0.
     999903    2    3    3    0    0 -0.19970285816E-01 -0.20403833488E-01 -0.12715391267E+00  0.13171965967E+00  0.19152610779E-01 0.  0.
         14    1    1    2    0    0 -0.25672886100E-02  0.22868661271E-01  0.30893398070E-02  0.23218756633E-01  0.00000000000E+00 0.  1.
     999901    1    3    3    0    0  0.22537574426E-01 -0.24648277832E-02  0.12406457287E+00  0.88899158369E+00  0.88000000000E+00 0. -1.
        -11    1    4    4    0    0 -0.13417103561E-01 -0.22551211139E-01 -0.11243071002E+00  0.11545346019E+00  0.51100000000E-03 0.  1.
         11    1    4    4    0    0 -0.65531822542E-02  0.21473776515E-02 -0.14723202650E-01  0.16266199486E-01  0.51100000000E-03 0. -1.
</event>
<event>
 8    1  0.1094134E+005  0.1043930E+01  0.7957747E-01            NaN
         13   -1    0    0    0    0  0.00000000000E+00  0.00000000000E+00  0.74505805969E-08  0.10566000000E+00  0.10566000000E+00 0. -1.
     999900   -1    0    0    0    0 -0.00000000000E+00 -0.00000000000E+00 -0.74505805969E-08  0.93827000000E+00  0.93827000000E+00 0.  1.
     999902    2    1    2    0    0 -0.19903171818E-01  0.22683801371E-03  0.12040029127E-01  0.10206673689E+01  0.10204022383E+01 0.  0.
     999903    2    3    3    0    0 -0.86362470391E-02 -0.95634121482E-01  0.88423148097E-01  0.13210074337E+00  0.20285051793E-01 0.  0.
         14    1    1    2    0    0  0.19903171818E-01 -0.22683801371E-03 -0.12040029127E-01  0.23262631091E-01  0.00000000000E+00 0.  1.
     999901    1    3    3    0    0 -0.11266924779E-01  0.95860959495E-01 -0.76383118971E-01  0.88856662553E+00  0.88000000000E+00 0.  1.
        -11    1    4    4    0    0 -0.57398288266E-02 -0.64712602703E-01  0.46365639691E-01  0.79816666483E-01  0.51100000000E-03 0. -1.
         11    1    4    4    0    0 -0.28964182125E-02 -0.30921518779E-01  0.42057508407E-01  0.52284076892E-01  0.51100000000E-03 0.  1.
</event>
<event>
 8    1  0.1094134E+005  0.1043930E+01  0.7957747E-01            NaN
         13   -1    0    0    0    0  0.00000000000E+00  0.00000000000E+00  0.74505805969E-08  0.10566000000E+00  0.10566000000E+00 0. -1.
     999900   -1    0    0    0    0 -0.00000000000E+00 -0.00000000000E+00 -0.74505805969E-08  0.93827000000E+00  0.93827000000E+00 0. -1.
     999902    2    1    2    0    0 -0.70805705153E-03  0.20329590509E-01  0.12111589665E-01  0.10202554525E+01  0.10199807372E+01 0.  0.
     999903    2    3    3    0    0 -0.38185874409E-01 -0.92325345484E-01 -0.77078044724E-01  0.12781469128E+00  0.20333221746E-01 0.  0.
         14    1    1    2    0    0  0.70805705153E-03 -0.20329590509E-01 -0.12111589665E-01  0.23674547499E-01  0.00000000000E+00 0. -1.
     999901    1    3    3    0    0  0.37477817358E-01  0.11265493599E+00  0.89189634390E-01  0.89244076122E+00  0.88000000000E+00 0.  1.
        -11    1    4    4    0    0 -0.21964102368E-01 -0.45508526777E-01 -0.26707469411E-01  0.57157657804E-01  0.51100000000E-03 0.  1.
         11    1    4    4    0    0 -0.16221772041E-01 -0.46816818707E-01 -0.50370575313E-01  0.70657033481E-01  0.51100000000E-03 0. -1.
</event>
<event>
 8    1  0.1094134E+005  0.1043930E+01  0.7957747E-01            NaN
         13   -1    0    0    0    0  0.00000000000E+00  0.00000000000E+00  0.74505805969E-08  0.10566000000E+00  0.10566000000E+00 0. -1.
     999900   -1    0    0    0    0 -0.00000000000E+00 -0.00000000000E+00 -0.74505805969E-08  0.93827000000E+00  0.93827000000E+00 0.  1.
     999902    2    1    2    0    0  0.22731446893E-01 -0.42158675167E-02 -0.76873580093E-02  0.10195663449E+01  0.10192752052E+01 0.  0.
     999903    2    3    3    0    0  0.47329284554E-01  0.32481988976E-01 -0.11691646038E+00  0.13171343867E+00  0.19591590949E-01 0.  0.
         14    1    1    2    0    0 -0.22731446893E-01  0.42158675167E-02  0.76873580093E-02  0.24363655102E-01  0.00000000000E+00 0. -1.
     999901    1    3    3    0    0 -0.24597837661E-01 -0.36697856492E-01  0.10922910237E+00  0.88785290623E+00  0.88000000000E+00 0. -1.
        -11    1    4    4    0    0  0.27995241462E-01  0.81234896530E-02 -0.49074658376E-01  0.57081589365E-01  0.51100000000E-03 0.  1.
         11    1    4    4    0    0  0.19334043091E-01  0.24358499323E-01 -0.67841802000E-01  0.74631849308E-01  0.51100000000E-03 0. -1.
</event>
<event>
 8    1  0.1094134E+005  0.1043930E+01  0.7957747E-01            NaN
         13   -1    0    0    0    0  0.00000000000E+00  0.00000000000E+00  0.74505805969E-08  0.10566000000E+00  0.10566000000E+00 0.  1.
     999900   -1    0    0    0    0 -0.00000000000E+00 -0.00000000000E+00 -0.74505805969E-08  0.93827000000E+00  0.93827000000E+00 0.  1.
     999902    2    1    2    0    0  0.76222378626E-02  0.21145849368E-01 -0.75673064292E-02  0.10202127155E+01  0.10199369958E+01 0.  0.
     999903    2    3    3    0    0 -0.10842374600E+00 -0.16356705237E-02  0.67315562944E-01  0.12914980410E+00  0.19745955789E-01 0.  0.
         14    1    1    2    0    0 -0.76222378626E-02 -0.21145849368E-01  0.75673064292E-02  0.23717284459E-01  0.00000000000E+00 0. -1.
     999901    1    3    3    0    0  0.11604598386E+00  0.22781519892E-01 -0.74882869373E-01  0.89106291144E+00  0.88000000000E+00 0.  1.
        -11    1    4    4    0    0 -0.31012801296E-01 -0.79406257051E-02  0.25557683260E-01  0.40967104797E-01  0.51100000000E-03 0.  1.
         11    1    4    4    0    0 -0.77410944703E-01  0.63049551814E-02  0.41757879683E-01  0.88182699303E-01  0.51100000000E-03 0. -1.
</event>
<event>
 8    1  0.1094134E+005  0.1043930E+01  0.7957747E-01            NaN
         13   -1    0    0    0    0  0.00000000000E+00  0.00000000000E+00  0.74505805969E-08  0.10566000000E+00  0.10566000000E+00 0. -1.
     999900   -1    0    0    0    0 -0.00000000000E+00 -0.00000000000E+00 -0.74505805969E-08  0.93827000000E+00  0.93827000000E+00 0. -1.
     999902    2    1    2    0    0 -0.97841102758E-02  0.36210287636E-02  0.21664465384E-01  0.10198844240E+01  0.10196009262E+01 0.  0.
     999903    2    3    3    0    0  0.46875063981E-01  0.62128066681E-01  0.10454263426E+00  0.13224591293E+00  0.22419875464E-01 0.  0.
         14    1    1    2    0    0  0.97841102758E-02 -0.36210287636E-02 -0.21664465384E-01  0.24045575966E-01  0.00000000000E+00 0.  1.
     999901    1    3    3    0    0 -0.56659174257E-01 -0.58507037918E-01 -0.82878168880E-01  0.88763851110E+00  0.88000000000E+00 0. -1.
        -11    1    4    4    0    0  0.42865754389E-01  0.43568170721E-01  0.70883595332E-01  0.93597027770E-01  0.51100000000E-03 0. -1.
         11    1    4    4    0    0  0.40093095919E-02  0.18559895960E-01  0.33659038932E-01  0.38648885162E-01  0.51100000000E-03 0.  1.
</event>
<event>
 8    1  0.1094134E+005  0.1043930E+01  0.7957747E-01            NaN
         13   -1    0    0    0    0  0.00000000000E+00  0.00000000000E+00  0.74505805969E-08  0.10566000000E+00  0.10566000000E+00 0.  1.
     999900   -1    0    0    0    0 -0.00000000000E+00 -0.00000000000E+00 -0.74505805969E-08  0.93827000000E+00  0.93827000000E+00 0. -1.
     999902    2    1    2    0    0  0.56328814581E-02 -0.17793992548E-01 -0.16150319828E-01  0.10192482587E+01  0.10189493729E+01 0.  0.
     999903    2    3    3    0    0  0.34502594750E-01  0.11810525411E+00 -0.30631236813E-01  0.12823099591E+00  0.19121599090E-01 0.  0.
         14    1    1    2    0    0 -0.56328814581E-02  0.17793992548E-01  0.16150319828E-01  0.24681741326E-01  0.00000000000E+00 0.  1.
     999901    1    3    3    0    0 -0.28869713292E-01 -0.13589924665E+00  0.14480916985E-01  0.89101726276E+00  0.88000000000E+00 0. -1.
        -11    1    4    4    0    0  0.22802545330E-01  0.60457337615E-01 -0.24425831428E-01  0.69079143792E-01  0.51100000000E-03 0.  1.
         11    1    4    4    0    0  0.11700049420E-01  0.57647916490E-01 -0.62054053843E-02  0.59151852119E-01  0.51100000000E-03 0. -1.
</event>
<event>
 8    1  0.1094134E+005  0.1043930E+01  0.7957747E-01            NaN
         13   -1    0    0    0    0  0.00000000000E+00  0.00000000000E+00  0.74505805969E-08  0.10566000000E+00  0.10566000000E+00 0.  1.
     999900   -1    0    0    0    0 -0.00000000000E+00 -0.00000000000E+00 -0.74505805969E-08  0.93827000000E+00  0.93827000000E+00 0. -1.
     999902    2    1    2    0    0 -0.19481625260E-01 -0.35342556567E-02 -0.77447354973E-03  0.10241152455E+01  0.10239235380E+01 0.  0.
     999903    2    3    3    0    0 -0.10484196231E+00 -0.47426477988E-01 -0.70752671326E-01  0.13613446730E+00  0.16898071224E-01 0.  0.
         14    1    1    2    0    0  0.19481625260E-01  0.35342556567E-02  0.77447354973E-03  0.19814754480E-01  0.00000000000E+00 0.  1.
     999901    1    3    3    0    0  0.85360337055E-01  0.43892222332E-01  0.69978197776E-01  0.88798077822E+00  0.88000000000E+00 0. -1.
        -11    1    4    4    0    0 -0.24401977911E-01 -0.18044490758E-01 -0.22982645118E-01  0.38072605248E-01  0.51100000000E-03 0.  1.
         11    1    4    4    0    0 -0.80439984404E-01 -0.29381987230E-01 -0.47770026207E-01  0.98061862053E-01  0.51100000000E-03 0. -1.
</event>
<event>
 8    1  0.1094134E+005  0.1043930E+01  0.7957747E-01            NaN
         13   -1    0    0    0    0  0.00000000000E+00  0.00000000000E+00  0.74505805969E-08  0.10566000000E+00  0.10566000000E+00 0.  1.
     999900   -1    0    0    0    0 -0.00000000000E+00 -0.00000000000E+00 -0.74505805969E-08  0.93827000000E+00  0.93827000000E+00 0. -1.
     999902    2    1    2    0    0 -0.21305197190E-02  0.27109306144E-01  0.15406523100E-02  0.10166934950E+01  0.10163286061E+01 0.  0.
     999903    2    3    3    0    0  0.33788354350E-01 -0.60084891601E-01  0.10334036087E+00  0.12581966877E+00  0.19987790707E-01 0.  0.
         14    1    1    2    0    0  0.21305197190E-02 -0.27109306144E-01 -0.15406523100E-02  0.27236504978E-01  0.00000000000E+00 0. -1.
     999901    1    3    3    0    0 -0.35918874069E-01  0.87194197744E-01 -0.10179970856E+00  0.89087382625E+00  0.88000000000E+00 0. -1.
        -11    1    4    4    0    0  0.42936942798E-02 -0.11220480509E-01  0.72095485250E-02  0.14020474470E-01  0.51100000000E-03 0. -1.
         11    1    4    4    0    0  0.29494660070E-01 -0.48864411091E-01  0.96130812343E-01  0.11179919430E+00  0.51100000000E-03 0.  1.
</event>
<event>
 8    1  0.1094134E+005  0.1043930E+01  0.7957747E-01            NaN
         13   -1    0    0    0    0  0.00000000000E+00  0.00000000000E+00  0.74505805969E-08  0.10566000000E+00  0.10566000000E+00 0.  1.
     999900   -1    0    0    0    0 -0.00000000000E+00 -0.00000000000E+00 -0.74505805969E-08  0.93827000000E+00  0.93827000000E+00 0. -1.
     999902    2    1    2    0    0 -0.54373015468E-02  0.40204631418E-02 -0.18517900892E-01  0.10242160195E+01  0.10240262759E+01 0.  0.
     999903    2    3    3    0    0 -0.80754609612E-01  0.98278184698E-01 -0.42480965795E-01  0.13566020056E+00  0.20473128741E-01 0.  0.
         14    1    1    2    0    0  0.54373015468E-02 -0.40204631418E-02  0.18517900892E-01  0.19713980456E-01  0.00000000000E+00 0. -1.
     999901    1    3    3    0    0  0.75317308065E-01 -0.94257721556E-01  0.23963064903E-01  0.88855581898E+00  0.88000000000E+00 0. -1.
        -11    1    4    4    0    0 -0.64126031771E-01  0.83755068104E-01 -0.42089218998E-01  0.11357298473E+00  0.51100000000E-03 0. -1.
         11    1    4    4    0    0 -0.16628577840E-01  0.14523116594E-01 -0.39174679739E-03  0.22087215831E-01  0.51100000000E-03 0.  1.
</event>
<event>
 8    1  0.1094134E+005  0.1043930E+01  0.7957747E-01            NaN
         13   -1    0    0    0    0  0.00000000000E+00  0.00000000000E+00  0.74505805969E-08  0.10566000000E+00  0.10566000000E+00 0.  1.
     999900   -1    0    0    0    0 -0.00000000000E+00 -0.00000000000E+00 -0.74505805969E-08  0.93827000000E+00  0.93827000000E+00 0. -1.
     999902    2    1    2    0    0 -0.20861608122E-01  0.16091412936E-01 -0.18468269055E-02  0.10175188086E+01  0.10171759802E+01 0.  0.
     999903    2    3    3    0    0  0.46625630388E-02  0.12864903216E+00 -0.60827435430E-02  0.12997239065E+00  0.16837743106E-01 0.  0.
         14    1    1    2    0    0  0.20861608122E-01 -0.16091412936E-01  0.18468269055E-02  0.26411191441E-01  0.00000000000E+00 0.  1.
     999901    1    3    3    0    0 -0.25524171161E-01 -0.11255761922E+00  0.42359166375E-02  0.88754641791E+00  0.88000000000E+00 0.  1.
        -11    1    4    4    0    0 -0.20258664389E-02  0.18698170047E-01 -0.62231059472E-02  0.19817009526E-01  0.51100000000E-03 0. -1.
         11    1    4    4    0    0  0.66884294777E-02  0.10995086211E+00  0.14036240423E-03  0.11015538112E+00  0.51100000000E-03 0.  1.
</event>
<event>
 8    1  0.1094134E+005  0.1043930E+01  0.7957747E-01            NaN
         13   -1    0    0    0    0  0.00000000000E+00  0.00000000000E+00  0.74505805969E-08  0.10566000000E+00  0.10566000000E+00 0.  1.
     999900   -1    0    0    0    0 -0.00000000000E+00 -0.00000000000E+00 -0.74505805969E-08  0.93827000000E+00  0.93827000000E+00 0.  1.
     999902    2    1    2    0    0 -0.14397008001E-01  0.58551869717E-02 -0.16735868062E-01  0.10210904218E+01  0.10208349539E+01 0.  0.
     999903    2    3    3    0    0  0.11182661765E+00  0.19038526803E-01  0.57749555858E-01  0.12887168038E+00  0.20130595716E-01 0.  0.
         14    1    1    2    0    0  0.14397008001E-01 -0.58551869717E-02  0.16735868062E-01  0.22839578228E-01  0.00000000000E+00 0. -1.
     999901    1    3    3    0    0 -0.12622362565E+00 -0.13183339832E-01 -0.74485423921E-01  0.89221874140E+00  0.88000000000E+00 0.  1.
        -11    1    4    4    0    0  0.11130269313E+00  0.17452184531E-01  0.54435520484E-01  0.12512535816E+00  0.51100000000E-03 0. -1.
         11    1    4    4    0    0  0.52392451890E-03  0.15863422726E-02  0.33140353748E-02  0.37463222195E-02  0.51100000000E-03 0.  1.
</event>
<event>
 8    1  0.1094134E+005  0.1043930E+01  0.7957747E-01            NaN
         13   -1    0    0    0    0  0.00000000000E+00  0.00000000000E+00  0.74505805969E-08  0.10566000000E+00  0.10566000000E+00 0.  1.
     999900   -1    0    0    0    0 -0.00000000000E+00 -0.00000000000E+00 -0.74505805969E-08  0.93827000000E+00  0.93827000000E+00 0. -1.
     999902    2    1    2    0    0 -0.83921692885E-02  0.75200478707E-03  0.22334295182E-01  0.10200592070E+01  0.10197798640E+01 0.  0.
     999903    2    3    3    0    0  0.11411878782E+00 -0.25769006449E-01 -0.49056474245E-01  0.12831432163E+00  0.19258453789E-01 0.  0.
         14    1    1    2    0    0  0.83921692885E-02 -0.75200478707E-03 -0.22334295182E-01  0.23870792987E-01  0.00000000000E+00 0. -1.
     999901    1    3    3    0    0 -0.12251095711E+00  0.26521011237E-01  0.71390769427E-01  0.89174488538E+00  0.88000000000E+00 0.  1.
        -11    1    4    4    0    0  0.68754825654E-01 -0.23680760895E-01 -0.24836662626E-01  0.76844813869E-01  0.51100000000E-03 0.  1.
         11    1    4    4    0    0  0.45363962168E-01 -0.20882455541E-02 -0.24219811620E-01  0.51469507759E-01  0.51100000000E-03 0. -1.
</event>
<event>
 8    1  0.1094134E+005  0.1043930E+01  0.7957747E-01            NaN
         13   -1    0    0    0    0  0.00000000000E+00  0.00000000000E+00  0.74505805969E-08  0.10566000000E+00  0.10566000000E+00 0. -1.
     999900   -1    0    0    0    0 -0.00000000000E+00 -0.00000000000E+00 -0.74505805969E-08  0.93827000000E+00  0.93827000000E+00 0. -1.
     999902    2    1    2    0    0  0.82369188652E-02 -0.15346961139E-01 -0.16393316362E-01  0.10200110353E+01  0.10197305504E+01 0.  0.
     999903    2    3    3    0    0 -0.65928136432E-02  0.10149832408E+00 -0.78430485068E-01  0.12999903996E+00  0.20075717139E-01 0.  0.
         14    1    1    2    0    0 -0.82369188652E-02  0.15346961139E-01  0.16393316362E-01  0.23918964650E-01  0.00000000000E+00 0. -1.
     999901    1    3    3    0    0  0.14829732508E-01 -0.11684528522E+00  0.62037168706E-01  0.89001199539E+00  0.88000000000E+00 0. -1.
        -11    1    4    4    0    0  0.20650293015E-02  0.70176255863E-01 -0.45101908322E-01  0.83447075971E-01  0.51100000000E-03 0.  1.
         11    1    4    4    0    0 -0.86578429447E-02  0.31322068217E-01 -0.33328576747E-01  0.46551963985E-01  0.51100000000E-03 0. -1.
</event>
<event>
 8    1  0.1094134E+005  0.1043930E+01  0.7957747E-01            NaN
         13   -1    0    0    0    0  0.00000000000E+00  0.00000000000E+00  0.74505805969E-08  0.10566000000E+00  0.10566000000E+00 0. -1.
     999900   -1    0    0    0    0 -0.00000000000E+00 -0.00000000000E+00 -0.74505805969E-08  0.93827000000E+00  0.93827000000E+00 0. -1.
     999902    2    1    2    0    0 -0.46433975000E-02 -0.12804966654E-01 -0.19975179040E-01  0.10197528188E+01  0.10194661718E+01 0.  0.
     999903    2    3    3    0    0 -0.32043207686E-01  0.12303962006E+00 -0.59156177814E-02  0.12879705529E+00  0.19702072280E-01 0.  0.
         14    1    1    2    0    0  0.46433975000E-02  0.12804966654E-01  0.19975179040E-01  0.24177181164E-01  0.00000000000E+00 0.  1.
     999901    1    3    3    0    0  0.27399810186E-01 -0.13584458672E+00 -0.14059561259E-01  0.89095576355E+00  0.88000000000E+00 0.  1.
        -11    1    4    4    0    0 -0.26225350899E-01  0.93773853723E-01  0.36993150829E-02  0.97443577135E-01  0.51100000000E-03 0.  1.
         11    1    4    4    0    0 -0.58178567866E-02  0.29265766342E-01 -0.96149328642E-02  0.31353478151E-01  0.51100000000E-03 0. -1.
</event>
<event>
 8    1  0.1094134E+005  0.1043930E+01  0.7957747E-01            NaN
         13   -1    0    0    0    0  0.00000000000E+00  0.00000000000E+00  0.74505805969E-08  0.10566000000E+00  0.10566000000E+00 0.  1.
     999900   -1    0    0    0    0 -0.00000000000E+00 -0.00000000000E+00 -0.74505805969E-08  0.93827000000E+00  0.93827000000E+00 0. -1.
     999902    2    1    2    0    0 -0.14279884265E-01 -0.92232169409E-02 -0.16028106425E-01  0.10205658604E+01  0.10202983840E+01 0.  0.
     999903    2    3    3    0    0 -0.12713717048E-01 -0.12263858975E+00 -0.44936446148E-01  0.13281522433E+00  0.20463072216E-01 0.  0.
         14    1    1    2    0    0  0.14279884265E-01  0.92232169409E-02  0.16028106425E-01  0.23364139636E-01  0.00000000000E+00 0.  1.
     999901    1    3    3    0    0 -0.15661672176E-02  0.11341537281E+00  0.28908339724E-01  0.88775063603E+00  0.88000000000E+00 0. -1.
        -11    1    4    4    0    0 -0.17575469769E-01 -0.96343187654E-01 -0.39026691475E-01  0.10542414673E+00  0.51100000000E-03 0. -1.
         11    1    4    4    0    0  0.48617527215E-02 -0.26295402097E-01 -0.59097546740E-02  0.27391077604E-01  0.51100000000E-03 0.  1.
</event>
<event>
 8    1  0.1094134E+005  0.1043930E+01  0.7957747E-01            NaN
         13   -1    0    0    0    0  0.00000000000E+00  0.00000000000E+00  0.74505805969E-08  0.10566000000E+00  0.10566000000E+00 0. -1.
     999900   -1    0    0    0    0 -0.00000000000E+00 -0.00000000000E+00 -0.74505805969E-08  0.93827000000E+00  0.93827000000E+00 0. -1.
     999902    2    1    2    0    0  0.96654728755E-02  0.87496973477E-02  0.19597093791E-01  0.10203922717E+01  0.10201207592E+01 0.  0.
     999903    2    3    3    0    0 -0.25144632646E-01  0.95229839297E-01  0.86880060324E-01  0.13291407139E+00  0.20421328262E-01 0.  0.
         14    1    1    2    0    0 -0.96654728755E-02 -0.87496973477E-02 -0.19597093791E-01  0.23537728324E-01  0.00000000000E+00 0.  1.
     999901    1    3    3    0    0  0.34810105522E-01 -0.86480141949E-01 -0.67282966533E-01  0.88747820029E+00  0.88000000000E+00 0. -1.
        -11    1    4    4    0    0 -0.26029368300E-01  0.70167625286E-01  0.58164054353E-01  0.94785768933E-01  0.51100000000E-03 0.  1.
         11    1    4    4    0    0  0.88473565401E-03  0.25062214011E-01  0.28716005971E-01  0.38128302457E-01  0.51100000000E-03 0. -1.
</event>
<event>
 8    1  0.1094134E+005  0.1043930E+01  0.7957747E-01            NaN
         13   -1    0    0    0    0  0.00000000000E+00  0.00000000000E+00  0.74505805969E-08  0.10566000000E+00  0.10566000000E+00 0.  1.
     999900   -1    0    0    0    0 -0.00000000000E+00 -0.00000000000E+00 -0.74505805969E-08  0.93827000000E+00  0.93827000000E+00 0. -1.
     999902    2    1    2    0    0 -0.15230881624E-01 -0.13389380072E-02  0.17682956712E-01  0.10205535275E+01  0.10202857653E+01 0.  0.
     999903    2    3    3    0    0  0.12048590027E+00  0.27290446703E-01 -0.29143172410E-01  0.12845971349E+00  0.19772527585E-01 0.  0.
         14    1    1    2    0    0  0.15230881624E-01  0.13389380072E-02 -0.17682956712E-01  0.23376472534E-01  0.00000000000E+00 0. -1.
     999901    1    3    3    0    0 -0.13571678190E+00 -0.28629384711E-01  0.46826129123E-01  0.89209381397E+00  0.88000000000E+00 0.  1.
        -11    1    4    4    0    0  0.69182437567E-01  0.25063168418E-01 -0.13846545955E-01  0.74875630446E-01  0.51100000000E-03 0.  1.
         11    1    4    4    0    0  0.51303462706E-01  0.22272782849E-02 -0.15296626456E-01  0.53584083048E-01  0.51100000000E-03 0. -1.
</event>
<event>
 8    1  0.1094134E+005  0.1043930E+01  0.7957747E-01            NaN
         13   -1    0    0    0    0  0.00000000000E+00  0.00000000000E+00  0.74505805969E-08  0.10566000000E+00  0.10566000000E+00 0. -1.
     999900   -1    0    0    0    0 -0.00000000000E+00 -0.00000000000E+00 -0.74505805969E-08  0.93827000000E+00  0.93827000000E+00 0. -1.
     999902    2    1    2    0    0  0.10054720750E-01 -0.12815929012E-01  0.17014086269E-01  0.10203752855E+01  0.10201033764E+01 0.  0.
     999903    2    3    3    0    0  0.52163914178E-01  0.93686549884E-01  0.72846139447E-01  0.13119972329E+00  0.20212960892E-01 0.  0.
         14    1    1    2    0    0 -0.10054720750E-01  0.12815929012E-01 -0.17014086269E-01  0.23554714547E-01  0.00000000000E+00 0.  1.
     999901    1    3    3    0    0 -0.42109193427E-01 -0.10650247890E+00 -0.55832053178E-01  0.88917556216E+00  0.88000000000E+00 0.  1.
        -11    1    4    4    0    0  0.33867284567E-01  0.47708285683E-01  0.48751920392E-01  0.76158284839E-01  0.51100000000E-03 0.  1.
         11    1    4    4    0    0  0.18296629611E-01  0.45978264201E-01  0.24094219055E-01  0.55041438453E-01  0.51100000000E-03 0. -1.
</event>
<event>
 8    1  0.1094134E+005  0.1043930E+01  0.7957747E-01            NaN
         13   -1    0    0    0    0  0.00000000000E+00  0.00000000000E+00  0.74505805969E-08  0.10566000000E+00  0.10566000000E+00 0. -1.
     999900   -1    0    0    0    0 -0.00000000000E+00 -0.00000000000E+00 -0.74505805969E-08  0.93827000000E+00  0.93827000000E+00 0. -1.
     999902    2    1    2    0    0 -0.79216547118E-03  0.33882991653E-02  0.29048012678E-01  0.10146743144E+01  0.10142524682E+01 0.  0.
     999903    2    3    3    0    0  0.64933797735E-01  0.84999723719E-01  0.66779314686E-01  0.12765459762E+00  0.19871293470E-01 0.  0.
         14    1    1    2    0    0  0.79216547118E-03 -0.33882991653E-02 -0.29048012678E-01  0.29255685566E-01  0.00000000000E+00 0.  1.
     999901    1    3    3    0    0 -0.65725963206E-01 -0.81611424554E-01 -0.37731302008E-01  0.88701971681E+00  0.88000000000E+00 0.  1.
        -11    1    4    4    0    0  0.42907230636E-01  0.48889558823E-01  0.50412792242E-01  0.82297813734E-01  0.51100000000E-03 0. -1.
         11    1    4    4    0    0  0.22026567099E-01  0.36110164896E-01  0.16366522444E-01  0.45356783891E-01  0.51100000000E-03 0.  1.
</event>
<event>
 8    1  0.1094134E+005  0.1043930E+01  0.7957747E-01            NaN
         13   -1    0    0    0    0  0.00000000000E+00  0.00000000000E+00  0.74505805969E-08  0.10566000000E+00  0.10566000000E+00 0. -1.
     999900   -1    0    0    0    0 -0.00000000000E+00 -0.00000000000E+00 -0.74505805969E-08  0.93827000000E+00  0.93827000000E+00 0. -1.
     999902    2    1    2    0    0  0.17158914135E-02 -0.23588347350E-01  0.67566414015E-03  0.10202696759E+01  0.10199952944E+01 0.  0.
     999903    2    3    3    0    0 -0.12505124429E+00 -0.83345833045E-02  0.30513211278E-01  0.13055462982E+00  0.20153816705E-01 0.  0.
         14    1    1    2    0    0 -0.17158914135E-02  0.23588347350E-01 -0.67566414015E-03  0.23660324091E-01  0.00000000000E+00 0. -1.
     999901    1    3    3    0    0  0.12676713571E+00 -0.15253764046E-01 -0.29837547138E-01  0.88971504609E+00  0.88000000000E+00 0. -1.
        -11    1    4    4    0    0 -0.10057315208E+00 -0.12938740233E-01  0.19250255887E-01  0.10321435652E+00  0.51100000000E-03 0.  1.
         11    1    4    4    0    0 -0.24478092209E-01  0.46041569287E-02  0.11262955391E-01  0.27340273305E-01  0.51100000000E-03 0. -1.
</event>
<event>
 8    1  0.1094134E+005  0.1043930E+01  0.7957747E-01            NaN
         13   -1    0    0    0    0  0.00000000000E+00  0.00000000000E+00  0.74505805969E-08  0.10566000000E+00  0.10566000000E+00 0.  1.
     999900   -1    0    0    0    0 -0.00000000000E+00 -0.00000000000E+00 -0.74505805969E-08  0.93827000000E+00  0.93827000000E+00 0.  1.
     999902    2    1    2    0    0  0.15968506019E-01  0.21866718957E-01 -0.59363587022E-02  0.10162102068E+01  0.10158320715E+01 0.  0.
     999903    2    3    3    0    0  0.68802981961E-01 -0.10257030880E+00 -0.14784934915E-01  0.12584266859E+00  0.19059495375E-01 0.  0.
         14    1    1    2    0    0 -0.15968506019E-01 -0.21866718957E-01  0.59363587022E-02  0.27719793236E-01  0.00000000000E+00 0. -1.
     999901    1    3    3    0    0 -0.52834475942E-01  0.12443702776E+00  0.88485762129E-02  0.89036753817E+00  0.88000000000E+00 0.  1.
        -11    1    4    4    0    0  0.19727545218E-01 -0.15822136693E-01 -0.35771926554E-02  0.25545517770E-01  0.51100000000E-03 0. -1.
         11    1    4    4    0    0  0.49075436742E-01 -0.86748172109E-01 -0.11207742260E-01  0.10029715082E+00  0.51100000000E-03 0.  1.
</event>
<event>
 8    1  0.1094134E+005  0.1043930E+01  0.7957747E-01            NaN
         13   -1    0    0    0    0  0.00000000000E+00  0.00000000000E+00  0.74505805969E-08  0.10566000000E+00  0.10566000000E+00 0.  1.
     999900   -1    0    0    0    0 -0.00000000000E+00 -0.00000000000E+00 -0.74505805969E-08  0.93827000000E+00  0.93827000000E+00 0.  1.
     999902    2    1    2    0    0  0.11378492719E-01 -0.18986603741E-01  0.10942871944E-01  0.10192377408E+01  0.10189385971E+01 0.  0.
     999903    2    3    3    0    0  0.11435234391E+00 -0.38120777676E-01  0.50651722957E-01  0.13213767683E+00  0.19108018007E-01 0.  0.
         14    1    1    2    0    0 -0.11378492719E-01  0.18986603741E-01 -0.10942871944E-01  0.24692259203E-01  0.00000000000E+00 0. -1.
     999901    1    3    3    0    0 -0.10297385119E+00  0.19134173935E-01 -0.39708851014E-01  0.88710006397E+00  0.88000000000E+00 0.  1.
        -11    1    4    4    0    0  0.69512135743E-01 -0.29784231834E-01  0.38863819872E-01  0.85027613735E-01  0.51100000000E-03 0. -1.
         11    1    4    4    0    0  0.44840208163E-01 -0.83365458427E-02  0.11787903086E-01  0.47110063095E-01  0.51100000000E-03 0.  1.
</event>
<event>
 8    1  0.1094134E+005  0.1043930E+01  0.7957747E-01            NaN
         13   -1    0    0    0    0  0.00000000000E+00  0.00000000000E+00  0.74505805969E-08  0.10566000000E+00  0.10566000000E+00 0. -1.
     999900   -1    0    0    0    0 -0.00000000000E+00 -0.00000000000E+00 -0.74505805969E-08  0.93827000000E+00  0.93827000000E+00 0. -1.
     999902    2    1    2    0    0  0.55221994103E-02  0.16294321999E-02 -0.25583537098E-01  0.10177065924E+01  0.10173686849E+01 0.  0.
     999903    2    3    3    0    0 -0.61839865368E-01 -0.10963738292E+00 -0.11241197063E-01  0.12803044085E+00  0.20515959417E-01 0.  0.
         14    1    1    2    0    0 -0.55221994103E-02 -0.16294321999E-02  0.25583537098E-01  0.26223407598E-01  0.00000000000E+00 0. -1.
     999901    1    3    3    0    0  0.67362064778E-01  0.11126681512E+00 -0.14342340035E-01  0.88967615155E+00  0.88000000000E+00 0. -1.
        -11    1    4    4    0    0 -0.17484638164E-01 -0.21651494440E-01 -0.97223710153E-02  0.29483646355E-01  0.51100000000E-03 0.  1.
         11    1    4    4    0    0 -0.44355227204E-01 -0.87985888481E-01 -0.15188260475E-02  0.98546794497E-01  0.51100000000E-03 0. -1.
</event>
<event>
 8    1  0.1094134E+005  0.1043930E+01  0.7957747E-01            NaN
         13   -1    0    0    0    0  0.00000000000E+00  0.00000000000E+00  0.74505805969E-08  0.10566000000E+00  0.10566000000E+00 0.  1.
     999900   -1    0    0    0    0 -0.00000000000E+00 -0.00000000000E+00 -0.74505805969E-08  0.93827000000E+00  0.93827000000E+00 0.  1.
     999902    2    1    2    0    0 -0.74757218472E-02 -0.20618836966E-01 -0.57802079690E-02  0.10212488700E+01  0.10209969739E+01 0.  0.
     999903    2    3    3    0    0 -0.57878810837E-01  0.43592424003E-01 -0.10859577465E+00  0.13151037010E+00  0.15864393997E-01 0.  0.
         14    1    1    2    0    0  0.74757218472E-02  0.20618836966E-01  0.57802079690E-02  0.22681130023E-01  0.00000000000E+00 0.  1.
     999901    1    3    3    0    0  0.50403088990E-01 -0.64211260969E-01  0.10281556668E+00  0.88973849988E+00  0.88000000000E+00 0. -1.
        -11    1    4    4    0    0 -0.36227075428E-02  0.89999415288E-02 -0.11920754691E-01  0.15378181650E-01  0.51100000000E-03 0.  1.
         11    1    4    4    0    0 -0.54256103295E-01  0.34592482475E-01 -0.96675019960E-01  0.11613218845E+00  0.51100000000E-03 0. -1.
</event>
<event>
 8    1  0.1094134E+005  0.1043930E+01  0.7957747E-01            NaN
         13   -1    0    0    0    0  0.00000000000E+00  0.00000000000E+00  0.74505805969E-08  0.10566000000E+00  0.10566000000E+00 0.  1.
     999900   -1    0    0    0    0 -0.00000000000E+00 -0.00000000000E+00 -0.74505805969E-08  0.93827000000E+00  0.93827000000E+00 0.  1.
     999902    2    1    2    0    0  0.95533891217E-02 -0.19499023017E-01  0.15586136969E-01  0.10172016105E+01  0.10168503870E+01 0.  0.
     999903    2    3    3    0    0  0.12615219755E+00  0.14043659854E-01  0.58222928128E-02  0.12882346667E+00  0.21212853181E-01 0.  0.
         14    1    1    2    0    0 -0.95533891217E-02  0.19499023017E-01 -0.15586136969E-01  0.26728389550E-01  0.00000000000E+00 0.  1.
     999901    1    3    3    0    0 -0.11659880843E+00 -0.33542682871E-01  0.97638441559E-02  0.88837814378E+00  0.88000000000E+00 0.  1.
        -11    1    4    4    0    0  0.51673353486E-01  0.14563558343E-01 -0.32688702301E-02  0.53788282420E-01  0.51100000000E-03 0.  1.
         11    1    4    4    0    0  0.74478844068E-01 -0.51989848930E-03  0.90911630429E-02  0.75035184245E-01  0.51100000000E-03 0. -1.
</event>
<event>
 8    1  0.1094134E+005  0.1043930E+01  0.7957747E-01            NaN
         13   -1    0    0    0    0  0.00000000000E+00  0.00000000000E+00  0.74505805969E-08  0.10566000000E+00  0.10566000000E+00 0. -1.
     999900   -1    0    0    0    0 -0.00000000000E+00 -0.00000000000E+00 -0.74505805969E-08  0.93827000000E+00  0.93827000000E+00 0. -1.
     999902    2    1    2    0    0  0.36986672644E-02 -0.25308539200E-02  0.22462272908E-01  0.10210249991E+01  0.10207680490E+01 0.  0.
     999903    2    3    3    0    0 -0.16429653165E-01 -0.76246836605E-01 -0.10107870897E+00  0.12911605220E+00  0.19249309980E-01 0.  0.
         14    1    1    2    0    0 -0.36986672644E-02  0.25308539200E-02 -0.22462272908E-01  0.22905000880E-01  0.00000000000E+00 0.  1.
     999901    1    3    3    0    0  0.20128320430E-01  0.73715982685E-01  0.12354098188E+00  0.89190894692E+00  0.88000000000E+00 0.  1.
        -11    1    4    4    0    0 -0.34238884421E-02 -0.37493650616E-01 -0.62145614327E-01  0.72662475527E-01  0.51100000000E-03 0.  1.
         11    1    4    4    0    0 -0.13005764723E-01 -0.38753185989E-01 -0.38933094641E-01  0.56453576677E-01  0.51100000000E-03 0. -1.
</event>
<event>
 8    1  0.1094134E+005  0.1043930E+01  0.7957747E-01            NaN
         13   -1    0    0    0    0  0.00000000000E+00  0.00000000000E+00  0.74505805969E-08  0.10566000000E+00  0.10566000000E+00 0.  1.
     999900   -1    0    0    0    0 -0.00000000000E+00 -0.00000000000E+00 -0.74505805969E-08  0.93827000000E+00  0.93827000000E+00 0. -1.
     999902    2    1    2    0    0  0.11168091575E-01  0.20412707118E-01  0.19389249684E-02  0.10205812460E+01  0.10203141259E+01 0.  0.
     999903    2    3    3    0    0  0.79032233791E-02 -0.57449003605E-01 -0.11394292181E+00  0.12956962559E+00  0.21034483369E-01 0.  0.
         14    1    1    2    0    0 -0.11168091575E-01 -0.20412707118E-01 -0.19389249684E-02  0.23348753957E-01  0.00000000000E+00 0. -1.
     999901    1    3    3    0    0  0.32648681956E-02  0.77861710722E-01  0.11588184678E+00  0.89101162045E+00  0.88000000000E+00 0. -1.
        -11    1    4    4    0    0 -0.48534556184E-02 -0.27348968804E-01 -0.39791164793E-01  0.48529579049E-01  0.51100000000E-03 0.  1.
         11    1    4    4    0    0  0.12756678997E-01 -0.30100034800E-01 -0.74151757020E-01  0.81040046546E-01  0.51100000000E-03 0. -1.
</event>
<event>
 8    1  0.1094134E+005  0.1043930E+01  0.7957747E-01            NaN
         13   -1    0    0    0    0  0.00000000000E+00  0.00000000000E+00  0.74505805969E-08  0.10566000000E+00  0.10566000000E+00 0.  1.
     999900   -1    0    0    0    0 -0.00000000000E+00 -0.00000000000E+00 -0.74505805969E-08  0.93827000000E+00  0.93827000000E+00 0. -1.
     999902    2    1    2    0    0 -0.88501947530E-02  0.39406626535E-03 -0.22554963348E-01  0.10196976331E+01  0.10194096602E+01 0.  0.
     999903    2    3    3    0    0 -0.31236131743E-01 -0.62808330832E-01  0.10505971295E+00  0.12796831384E+00  0.20439268921E-01 0.  0.
         14    1    1    2    0    0  0.88501947530E-02 -0.39406626535E-03  0.22554963348E-01  0.24232366930E-01  0.00000000000E+00 0.  1.
     999901    1    3    3    0    0  0.22385936990E-01  0.63202397098E-01 -0.12761467629E+00  0.89172931923E+00  0.88000000000E+00 0. -1.
        -11    1    4    4    0    0 -0.10510863523E-01 -0.34284150763E-01  0.67592122184E-01  0.76516908902E-01  0.51100000000E-03 0.  1.
         11    1    4    4    0    0 -0.20725268220E-01 -0.28524180069E-01  0.37467590762E-01  0.51451404936E-01  0.51100000000E-03 0. -1.
</event>
<event>
 8    1  0.1094134E+005  0.1043930E+01  0.7957747E-01            NaN
         13   -1    0    0    0    0  0.00000000000E+00  0.00000000000E+00  0.74505805969E-08  0.10566000000E+00  0.10566000000E+00 0.  1.
     999900   -1    0    0    0    0 -0.00000000000E+00 -0.00000000000E+00 -0.74505805969E-08  0.93827000000E+00  0.93827000000E+00 0. -1.
     999902    2    1    2    0    0 -0.90253286776E-02  0.21676125502E-01 -0.11694287461E-02  0.10204208839E+01  0.10201500389E+01 0.  0.
     999903    2    3    3    0    0 -0.46074883806E-01  0.24982802733E-01  0.11901794952E+00  0.13147284859E+00  0.19308087933E-01 0.  0.
         14    1    1    2    0    0  0.90253286776E-02 -0.21676125502E-01  0.11694287461E-02  0.23509116064E-01  0.00000000000E+00 0. -1.
     999901    1    3    3    0    0  0.37049555128E-01 -0.33066772307E-02 -0.12018737826E+00  0.88894803534E+00  0.88000000000E+00 0. -1.
        -11    1    4    4    0    0 -0.20909426670E-01  0.47357432170E-02  0.65920913726E-01  0.69321420751E-01  0.51100000000E-03 0.  1.
         11    1    4    4    0    0 -0.25165457136E-01  0.20247059516E-01  0.53097035790E-01  0.62151427840E-01  0.51100000000E-03 0. -1.
</event>
<event>
 8    1  0.1094134E+005  0.1043930E+01  0.7957747E-01            NaN
         13   -1    0    0    0    0  0.00000000000E+00  0.00000000000E+00  0.74505805969E-08  0.10566000000E+00  0.10566000000E+00 0. -1.
     999900   -1    0    0    0    0 -0.00000000000E+00 -0.00000000000E+00 -0.74505805969E-08  0.93827000000E+00  0.93827000000E+00 0.  1.
     999902    2    1    2    0    0 -0.15427526440E-01  0.10984219715E-01  0.11029000874E-01  0.10220142405E+01  0.10217792361E+01 0.  0.
     999903    2    3    3    0    0  0.82639082514E-01  0.10087612235E+00  0.39662381708E-02  0.13198755742E+00  0.19994355442E-01 0.  0.
         14    1    1    2    0    0  0.15427526440E-01 -0.10984219715E-01 -0.11029000874E-01  0.21915759514E-01  0.00000000000E+00 0.  1.
     999901    1    3    3    0    0 -0.98066608954E-01 -0.89891902634E-01  0.70627627029E-02  0.89002668307E+00  0.88000000000E+00 0. -1.
        -11    1    4    4    0    0  0.65741091205E-01  0.90509267396E-01  0.61576083533E-02  0.11203568993E+00  0.51100000000E-03 0. -1.
         11    1    4    4    0    0  0.16897991309E-01  0.10366854953E-01 -0.21913701825E-02  0.19951867486E-01  0.51100000000E-03 0.  1.
</event>
<event>
 8    1  0.1094134E+005  0.1043930E+01  0.7957747E-01            NaN
         13   -1    0    0    0    0  0.00000000000E+00  0.00000000000E+00  0.74505805969E-08  0.10566000000E+00  0.10566000000E+00 0.  1.
     999900   -1    0    0    0    0 -0.00000000000E+00 -0.00000000000E+00 -0.74505805969E-08  0.93827000000E+00  0.93827000000E+00 0. -1.
     999902    2    1    2    0    0  0.15979258869E-01  0.75032077166E-02  0.16293353144E-01  0.10199069237E+01  0.10196239624E+01 0.  0.
     999903    2    3    3    0    0 -0.10987085226E+00 -0.54857730023E-01 -0.28501439511E-01  0.12764367188E+00  0.19990002437E-01 0.  0.
         14    1    1    2    0    0 -0.15979258869E-01 -0.75032077166E-02 -0.16293353144E-01  0.24023076338E-01  0.00000000000E+00 0. -1.
     999901    1    3    3    0    0  0.12585011113E+00  0.62360937740E-01  0.44794792655E-01  0.89226325178E+00  0.88000000000E+00 0.  1.
        -11    1    4    4    0    0 -0.43244378695E-01 -0.29947604147E-01 -0.18749103262E-01  0.55845548408E-01  0.51100000000E-03 0.  1.
         11    1    4    4    0    0 -0.66626473567E-01 -0.24910125876E-01 -0.97523362486E-02  0.71798123475E-01  0.51100000000E-03 0. -1.
</event>
<event>
 8    1  0.1094134E+005  0.1043930E+01  0.7957747E-01            NaN
         13   -1    0    0    0    0  0.00000000000E+00  0.00000000000E+00  0.74505805969E-08  0.10566000000E+00  0.10566000000E+00 0.  1.
     999900   -1    0    0    0    0 -0.00000000000E+00 -0.00000000000E+00 -0.74505805969E-08  0.93827000000E+00  0.93827000000E+00 0. -1.
     999902    2    1    2    0    0 -0.13724590687E-01  0.18568771872E-02 -0.18710907983E-01  0.10206510297E+01  0.10203855222E+01 0.  0.
     999903    2    3    3    0    0 -0.98536211801E-01  0.45461188653E-02 -0.88020468787E-01  0.13385677037E+00  0.20975695830E-01 0.  0.
         14    1    1    2    0    0  0.13724590687E-01 -0.18568771872E-02  0.18710907983E-01  0.23278970337E-01  0.00000000000E+00 0. -1.
     999901    1    3    3    0    0  0.84811621113E-01 -0.26892416781E-02  0.69309560804E-01  0.88679425929E+00  0.88000000000E+00 0. -1.
        -11    1    4    4    0    0 -0.91829800245E-01 -0.10420907984E-02 -0.77429606914E-01  0.12012245133E+00  0.51100000000E-03 0.  1.
         11    1    4    4    0    0 -0.67064115553E-02  0.55882096637E-02 -0.10590861873E-01  0.13734319037E-01  0.51100000000E-03 0. -1.
</event>
<event>
 8    1  0.1094134E+005  0.1043930E+01  0.7957747E-01            NaN
         13   -1    0    0    0    0  0.00000000000E+00  0.00000000000E+00  0.74505805969E-08  0.10566000000E+00  0.10566000000E+00 0. -1.
     999900   -1    0    0    0    0 -0.00000000000E+00 -0.00000000000E+00 -0.74505805969E-08  0.93827000000E+00  0.93827000000E+00 0.  1.
     999902    2    1    2    0    0 -0.13512367702E-01 -0.19074400955E-02  0.19298994799E-01  0.10202937226E+01  0.10200199051E+01 0.  0.
     999903    2    3    3    0    0  0.19835389776E-01 -0.14428360804E-01  0.12895255665E+00  0.13277315946E+00  0.19958199423E-01 0.  0.
         14    1    1    2    0    0  0.13512367702E-01  0.19074400955E-02 -0.19298994799E-01  0.23636277391E-01  0.00000000000E+00 0.  1.
     999901    1    3    3    0    0 -0.33347757478E-01  0.12520920709E-01 -0.10965356185E+00  0.88752056315E+00  0.88000000000E+00 0.  1.
        -11    1    4    4    0    0  0.92024806298E-02 -0.17712643787E-01  0.70727265397E-01  0.73491704234E-01  0.51100000000E-03 0. -1.
         11    1    4    4    0    0  0.10632909147E-01  0.32842829822E-02  0.58225291251E-01  0.59281455228E-01  0.51100000000E-03 0.  1.
</event>
<event>
 8    1  0.1094134E+005  0.1043930E+01  0.7957747E-01            NaN
         13   -1    0    0    0    0  0.00000000000E+00  0.00000000000E+00  0.74505805969E-08  0.10566000000E+00  0.10566000000E+00 0.  1.
     999900   -1    0    0    0    0 -0.00000000000E+00 -0.00000000000E+00 -0.74505805969E-08  0.93827000000E+00  0.93827000000E+00 0. -1.
     999902    2    1    2    0    0  0.17282211838E-01 -0.69627074979E-02  0.14790817967E-01  0.10201408756E+01  0.10198634633E+01 0.  0.
     999903    2    3    3    0    0  0.53327446185E-01  0.97985514949E-01 -0.62917018668E-01  0.12977471715E+00  0.20927214727E-01 0.  0.
         14    1    1    2    0    0 -0.17282211838E-01  0.69627074979E-02 -0.14790817967E-01  0.23789124360E-01  0.00000000000E+00 0.  1.
     999901    1    3    3    0    0 -0.36045234347E-01 -0.10494822245E+00  0.77707836634E-01  0.89036615849E+00  0.88000000000E+00 0. -1.
        -11    1    4    4    0    0  0.33323922006E-01  0.64623417277E-01 -0.51926239010E-01  0.89349120069E-01  0.51100000000E-03 0.  1.
         11    1    4    4    0    0  0.20003524178E-01  0.33362097673E-01 -0.10990779658E-01  0.40425597079E-01  0.51100000000E-03 0. -1.
</event>
<event>
 8    1  0.1094134E+005  0.1043930E+01  0.7957747E-01            NaN
         13   -1    0    0    0    0  0.00000000000E+00  0.00000000000E+00  0.74505805969E-08  0.10566000000E+00  0.10566000000E+00 0.  1.
     999900   -1    0    0    0    0 -0.00000000000E+00 -0.00000000000E+00 -0.74505805969E-08  0.93827000000E+00  0.93827000000E+00 0. -1.
     999902    2    1    2    0    0  0.20355044525E-01 -0.95261286807E-03 -0.12671488504E-01  0.10199341268E+01  0.10196518137E+01 0.  0.
     999903    2    3    3    0    0 -0.10862667378E+00 -0.59210320370E-01 -0.28164646865E-01  0.12849131761E+00  0.20276959134E-01 0.  0.
         14    1    1    2    0    0 -0.20355044525E-01  0.95261286807E-03  0.12671488504E-01  0.23995873182E-01  0.00000000000E+00 0. -1.
     999901    1    3    3    0    0  0.12898171831E+00  0.58257707502E-01  0.15493158361E-01  0.89144280921E+00  0.88000000000E+00 0. -1.
        -11    1    4    4    0    0 -0.22632375238E-01 -0.35226138614E-02 -0.55459505218E-02  0.23572269843E-01  0.51100000000E-03 0. -1.
         11    1    4    4    0    0 -0.85994298544E-01 -0.55687706508E-01 -0.22618696343E-01  0.10491904776E+00  0.51100000000E-03 0.  1.
</event>
<event>
 8    1  0.1094134E+005  0.1043930E+01  0.7957747E-01            NaN
         13   -1    0    0    0    0  0.00000000000E+00  0.00000000000E+00  0.74505805969E-08  0.10566000000E+00  0.10566000000E+00 0.  1.
     999900   -1    0    0    0    0 -0.00000000000E+00 -0.00000000000E+00 -0.74505805969E-08  0.93827000000E+00  0.93827000000E+00 0. -1.
     999902    2    1    2    0    0 -0.93896304581E-03  0.21519073643E-01 -0.94928340396E-02  0.10203913917E+01  0.10201198587E+01 0.  0.
     999903    2    3    3    0    0  0.81931992169E-02 -0.12276965970E+00 -0.30763475198E-01  0.12834034209E+00  0.19629929833E-01 0.  0.
         14    1    1    2    0    0  0.93896304581E-03 -0.21519073643E-01  0.94928340396E-02  0.23538608289E-01  0.00000000000E+00 0.  1.
     999901    1    3    3    0    0 -0.91321622627E-02  0.14428873334E+00  0.21270641158E-01  0.89205104962E+00  0.88000000000E+00 0.  1.
        -11    1    4    4    0    0  0.56943629810E-02 -0.87237252354E-01 -0.12518437954E-01  0.88316116184E-01  0.51100000000E-03 0. -1.
         11    1    4    4    0    0  0.24988362358E-02 -0.35532407345E-01 -0.18245037243E-01  0.40024225905E-01  0.51100000000E-03 0.  1.
</event>
<event>
 8    1  0.1094134E+005  0.1043930E+01  0.7957747E-01            NaN
         13   -1    0    0    0    0  0.00000000000E+00  0.00000000000E+00  0.74505805969E-08  0.10566000000E+00  0.10566000000E+00 0.  1.
     999900   -1    0    0    0    0 -0.00000000000E+00 -0.00000000000E+00 -0.74505805969E-08  0.93827000000E+00  0.93827000000E+00 0. -1.
     999902    2    1    2    0    0  0.23228307246E-01  0.36120409587E-02 -0.74262336288E-02  0.10192774131E+01  0.10189792416E+01 0.  0.
     999903    2    3    3    0    0  0.10746605862E+00  0.18608115895E-01  0.71070353283E-01  0.13164990380E+00  0.19633805624E-01 0.  0.
         14    1    1    2    0    0 -0.23228307246E-01 -0.36120409587E-02  0.74262336288E-02  0.24652586950E-01  0.00000000000E+00 0.  1.
     999901    1    3    3    0    0 -0.84237751371E-01 -0.14996074936E-01 -0.78496586912E-01  0.88762750925E+00  0.88000000000E+00 0. -1.
        -11    1    4    4    0    0  0.10450266805E+00  0.17326608792E-01  0.63752575423E-01  0.12363523363E+00  0.51100000000E-03 0.  1.
         11    1    4    4    0    0  0.29633905710E-02  0.12815071028E-02  0.73177778594E-02  0.80146701698E-02  0.51100000000E-03 0. -1.
</event>
<event>
 8    1  0.1094134E+005  0.1043930E+01  0.7957747E-01            NaN
         13   -1    0    0    0    0  0.00000000000E+00  0.00000000000E+00  0.74505805969E-08  0.10566000000E+00  0.10566000000E+00 0. -1.
     999900   -1    0    0    0    0 -0.00000000000E+00 -0.00000000000E+00 -0.74505805969E-08  0.93827000000E+00  0.93827000000E+00 0.  1.
     999902    2    1    2    0    0  0.11204373569E-01 -0.17980392333E-01  0.54254348216E-02  0.10220606644E+01  0.10218266653E+01 0.  0.
     999903    2    3    3    0    0 -0.79075093974E-02 -0.11839799157E+00  0.59549254782E-01  0.13449188050E+00  0.21478804959E-01 0.  0.
         14    1    1    2    0    0 -0.11204373569E-01  0.17980392333E-01 -0.54254348216E-02  0.21869335576E-01  0.00000000000E+00 0.  1.
     999901    1    3    3    0    0  0.19111882967E-01  0.10041759924E+00 -0.54123819961E-01  0.88756878392E+00  0.88000000000E+00 0.  1.
        -11    1    4    4    0    0  0.55089735109E-02 -0.73901208139E-01  0.37113126111E-01  0.82881738666E-01  0.51100000000E-03 0. -1.
         11    1    4    4    0    0 -0.13416482908E-01 -0.44496783433E-01  0.22436128671E-01  0.51610141835E-01  0.51100000000E-03 0.  1.
</event>
<event>
 8    1  0.1094134E+005  0.1043930E+01  0.7957747E-01            NaN
         13   -1    0    0    0    0  0.00000000000E+00  0.00000000000E+00  0.74505805969E-08  0.10566000000E+00  0.10566000000E+00 0. -1.
     999900   -1    0    0    0    0 -0.00000000000E+00 -0.00000000000E+00 -0.74505805969E-08  0.93827000000E+00  0.93827000000E+00 0. -1.
     999902    2    1    2    0    0  0.22629782581E-01  0.44016758580E-02 -0.52012309654E-02  0.10202966631E+01  0.10200229145E+01 0.  0.
     999903    2    3    3    0    0  0.24560571930E-01 -0.96760033483E-01 -0.82808598693E-01  0.13110583829E+00  0.19124618757E-01 0.  0.
         14    1    1    2    0    0 -0.22629782581E-01 -0.44016758580E-02  0.52012309654E-02  0.23633336912E-01  0.00000000000E+00 0. -1.
     999901    1    3    3    0    0 -0.19307893487E-02  0.10116170934E+00  0.77607367727E-01  0.88919082480E+00  0.88000000000E+00 0.  1.
        -11    1    4    4    0    0  0.14380227371E-01 -0.66098786356E-01 -0.44411599841E-01  0.80922752168E-01  0.51100000000E-03 0.  1.
         11    1    4    4    0    0  0.10180344559E-01 -0.30661247126E-01 -0.38396998851E-01  0.50183086119E-01  0.51100000000E-03 0. -1.
</event>
<event>
 8    1  0.1094134E+005  0.1043930E+01  0.7957747E-01            NaN
         13   -1    0    0    0    0  0.00000000000E+00  0.00000000000E+00  0.74505805969E-08  0.10566000000E+00  0.10566000000E+00 0. -1.
     999900   -1    0    0    0    0 -0.00000000000E+00 -0.00000000000E+00 -0.74505805969E-08  0.93827000000E+00  0.93827000000E+00 0. -1.
     999902    2    1    2    0    0 -0.65309726451E-03 -0.21929705617E-02 -0.20368178995E-01  0.10234336986E+01  0.10232284383E+01 0.  0.
     999903    2    3    3    0    0 -0.21104692275E-01 -0.90315377108E-01  0.91515296747E-01  0.13174892334E+00  0.19505227083E-01 0.  0.
         14    1    1    2    0    0  0.65309726451E-03  0.21929705617E-02  0.20368178995E-01  0.20496301410E-01  0.00000000000E+00 0. -1.
     999901    1    3    3    0    0  0.20451595011E-01  0.88122406546E-01 -0.11188347574E+00  0.89168477525E+00  0.88000000000E+00 0. -1.
        -11    1    4    4    0    0 -0.15960771260E-02 -0.32257370407E-01  0.21904464652E-01  0.39027581278E-01  0.51100000000E-03 0. -1.
         11    1    4    4    0    0 -0.19508615149E-01 -0.58058006701E-01  0.69610832096E-01  0.92721342059E-01  0.51100000000E-03 0.  1.
</event>
<event>
 8    1  0.1094134E+005  0.1043930E+01  0.7957747E-01            NaN
         13   -1    0    0    0    0  0.00000000000E+00  0.00000000000E+00  0.74505805969E-08  0.10566000000E+00  0.10566000000E+00 0.  1.
     999900   -1    0    0    0    0 -0.00000000000E+00 -0.00000000000E+00 -0.74505805969E-08  0.93827000000E+00  0.93827000000E+00 0. -1.
     999902    2    1    2    0    0 -0.58730092217E-02  0.23395827200E-01 -0.33420549907E-02  0.10195778687E+01  0.10192870077E+01 0.  0.
     999903    2    3    3    0    0 -0.12306272915E+00  0.41625132263E-01  0.87536596682E-02  0.13153955627E+00  0.18679972295E-01 0.  0.
         14    1    1    2    0    0  0.58730092217E-02 -0.23395827200E-01  0.33420549907E-02  0.24352131308E-01  0.00000000000E+00 0. -1.
     999901    1    3    3    0    0  0.11718971992E+00 -0.18229305063E-01 -0.12095714659E-01  0.88803831242E+00  0.88000000000E+00 0. -1.
        -11    1    4    4    0    0 -0.53029037782E-01  0.92082675401E-02  0.75837567915E-02  0.54356651177E-01  0.51100000000E-03 0.  1.
         11    1    4    4    0    0 -0.70033691364E-01  0.32416864723E-01  0.11699028767E-02  0.77182905091E-01  0.51100000000E-03 0. -1.
</event>
<event>
 8    1  0.1094134E+005  0.1043930E+01  0.7957747E-01            NaN
         13   -1    0    0    0    0  0.00000000000E+00  0.00000000000E+00  0.74505805969E-08  0.10566000000E+00  0.10566000000E+00 0. -1.
     999900   -1    0    0    0    0 -0.00000000000E+00 -0.00000000000E+00 -0.74505805969E-08  0.93827000000E+00  0.93827000000E+00 0. -1.
     999902    2    1    2    0    0 -0.13239501012E-01 -0.20865740895E-01  0.43380862609E-02  0.10188405097E+01  0.10185315418E+01 0.  0.
     999903    2    3    3    0    0 -0.27807182826E-01  0.12228349534E+00 -0.30415284999E-02  0.12712397410E+00  0.20609736648E-01 0.  0.
         14    1    1    2    0    0  0.13239501012E-01  0.20865740895E-01 -0.43380862609E-02  0.25089490281E-01  0.00000000000E+00 0.  1.
     999901    1    3    3    0    0  0.14567681814E-01 -0.14314923624E+00  0.73796147608E-02  0.89171653562E+00  0.88000000000E+00 0.  1.
        -11    1    4    4    0    0 -0.15927053154E-01  0.99938858344E-01  0.24179551873E-02  0.10123020329E+00  0.51100000000E-03 0. -1.
         11    1    4    4    0    0 -0.11880129672E-01  0.22344636998E-01 -0.54594836871E-02  0.25893770809E-01  0.51100000000E-03 0.  1.
</event>
<event>
 8    1  0.1094134E+005  0.1043930E+01  0.7957747E-01            NaN
         13   -1    0    0    0    0  0.00000000000E+00  0.00000000000E+00  0.74505805969E-08  0.10566000000E+00  0.10566000000E+00 0. -1.
     999900   -1    0    0    0    0 -0.00000000000E+00 -0.00000000000E+00 -0.74505805969E-08  0.93827000000E+00  0.93827000000E+00 0. -1.
     999902    2    1    2    0    0  0.26330857986E-02  0.18571015841E-01  0.91538244917E-02  0.10230587693E+01  0.10228458521E+01 0.  0.
     999903    2    3    3    0    0  0.76165959556E-01 -0.82395565490E-01 -0.64893913775E-01  0.13115944667E+00  0.20032418711E-01 0.  0.
         14    1    1    2    0    0 -0.26330857986E-02 -0.18571015841E-01 -0.91538244917E-02  0.20871230750E-01  0.00000000000E+00 0.  1.
     999901    1    3    3    0    0 -0.73532873758E-01  0.10096658133E+00  0.74047738267E-01  0.89189932258E+00  0.88000000000E+00 0.  1.
        -11    1    4    4    0    0  0.40620505752E-01 -0.32958531732E-01 -0.22397864398E-01  0.56905322704E-01  0.51100000000E-03 0. -1.
         11    1    4    4    0    0  0.35545453804E-01 -0.49437033758E-01 -0.42496049377E-01  0.74254123971E-01  0.51100000000E-03 0.  1.
</event>
<event>
 8    1  0.1094134E+005  0.1043930E+01  0.7957747E-01            NaN
         13   -1    0    0    0    0  0.00000000000E+00  0.00000000000E+00  0.74505805969E-08  0.10566000000E+00  0.10566000000E+00 0. -1.
     999900   -1    0    0    0    0 -0.00000000000E+00 -0.00000000000E+00 -0.74505805969E-08  0.93827000000E+00  0.93827000000E+00 0.  1.
     999902    2    1    2    0    0  0.39300662572E-03  0.10553710188E-01 -0.22312267525E-01  0.10192445279E+01  0.10189455506E+01 0.  0.
     999903    2    3    3    0    0 -0.80316191519E-01  0.81007313401E-01  0.57337687155E-01  0.12917610343E+00  0.19646370792E-01 0.  0.
         14    1    1    2    0    0 -0.39300662572E-03 -0.10553710188E-01  0.22312267525E-01  0.24685472146E-01  0.00000000000E+00 0. -1.
     999901    1    3    3    0    0  0.80709198145E-01 -0.70453603213E-01 -0.79649954680E-01  0.89006842442E+00  0.88000000000E+00 0.  1.
        -11    1    4    4    0    0 -0.72591156322E-01  0.66577180735E-01  0.43260151876E-01  0.10758112675E+00  0.51100000000E-03 0.  1.
         11    1    4    4    0    0 -0.77250351975E-02  0.14430132666E-01  0.14077535279E-01  0.21594976686E-01  0.51100000000E-03 0. -1.
</event>
<event>
 8    1  0.1094134E+005  0.1043930E+01  0.7957747E-01            NaN
         13   -1    0    0    0    0  0.00000000000E+00  0.00000000000E+00  0.74505805969E-08  0.10566000000E+00  0.10566000000E+00 0.  1.
     999900   -1    0    0    0    0 -0.00000000000E+00 -0.00000000000E+00 -0.74505805969E-08  0.93827000000E+00  0.93827000000E+00 0.  1.
     999902    2    1    2    0    0 -0.22827049006E-01  0.26749868126E-02  0.62848473257E-02  0.10201029350E+01  0.10198246266E+01 0.  0.
     999903    2    3    3    0    0 -0.46513718525E-01 -0.41772310546E-01 -0.11273718880E+00  0.13066329925E+00  0.21325386096E-01 0.  0.
         14    1    1    2    0    0  0.22827049006E-01 -0.26749868126E-02 -0.62848473257E-02  0.23827065003E-01  0.00000000000E+00 0.  1.
     999901    1    3    3    0    0  0.23686669519E-01  0.44447297358E-01  0.11902203613E+00  0.88943963575E+00  0.88000000000E+00 0. -1.
        -11    1    4    4    0    0 -0.26720343907E-01 -0.13254963596E-01 -0.38462175475E-01  0.48675156925E-01  0.51100000000E-03 0. -1.
         11    1    4    4    0    0 -0.19793374617E-01 -0.28517346950E-01 -0.74275013328E-01  0.81988142323E-01  0.51100000000E-03 0.  1.
</event>
<event>
 8    1  0.1094134E+005  0.1043930E+01  0.7957747E-01            NaN
         13   -1    0    0    0    0  0.00000000000E+00  0.00000000000E+00  0.74505805969E-08  0.10566000000E+00  0.10566000000E+00 0. -1.
     999900   -1    0    0    0    0 -0.00000000000E+00 -0.00000000000E+00 -0.74505805969E-08  0.93827000000E+00  0.93827000000E+00 0. -1.
     999902    2    1    2    0    0  0.86952210268E-03 -0.20815573135E-01 -0.11418646050E-01  0.10201722722E+01  0.10198956002E+01 0.  0.
     999903    2    3    3    0    0  0.11938447384E+00  0.28350822473E-01  0.39038346292E-01  0.12943716210E+00  0.13174396541E-01 0.  0.
         14    1    1    2    0    0 -0.86952210268E-03  0.20815573135E-01  0.11418646050E-01  0.23757727822E-01  0.00000000000E+00 0. -1.
     999901    1    3    3    0    0 -0.11851495173E+00 -0.49166395607E-01 -0.50456992342E-01  0.89073511007E+00  0.88000000000E+00 0. -1.
        -11    1    4    4    0    0  0.93838397413E-01  0.18869291388E-01  0.34842290668E-01  0.10186236462E+00  0.51100000000E-03 0.  1.
         11    1    4    4    0    0  0.25546076424E-01  0.94815310842E-02  0.41960556243E-02  0.27574797482E-01  0.51100000000E-03 0. -1.
</event>
<event>
 8    1  0.1094134E+005  0.1043930E+01  0.7957747E-01            NaN
         13   -1    0    0    0    0  0.00000000000E+00  0.00000000000E+00  0.74505805969E-08  0.10566000000E+00  0.10566000000E+00 0.  1.
     999900   -1    0    0    0    0 -0.00000000000E+00 -0.00000000000E+00 -0.74505805969E-08  0.93827000000E+00  0.93827000000E+00 0.  1.
     999902    2    1    2    0    0 -0.16547815408E-01  0.82385467730E-02  0.16995505129E-01  0.10188192246E+01  0.10185097257E+01 0.  0.
     999903    2    3    3    0    0  0.10238249036E+00 -0.54424502909E-01  0.50319532772E-01  0.12798727284E+00  0.20111831862E-01 0.  0.
         14    1    1    2    0    0  0.16547815408E-01 -0.82385467730E-02 -0.16995505129E-01  0.25110775422E-01  0.00000000000E+00 0. -1.
     999901    1    3    3    0    0 -0.11893030577E+00  0.62663049682E-01 -0.33324027643E-01  0.89083195174E+00  0.88000000000E+00 0.  1.
        -11    1    4    4    0    0  0.10863047856E-01 -0.11036998979E-01  0.15473577471E-02  0.15571659905E-01  0.51100000000E-03 0. -1.
         11    1    4    4    0    0  0.91519442502E-01 -0.43387503930E-01  0.48772175025E-01  0.11241561293E+00  0.51100000000E-03 0.  1.
</event>
<event>
 8    1  0.1094134E+005  0.1043930E+01  0.7957747E-01            NaN
         13   -1    0    0    0    0  0.00000000000E+00  0.00000000000E+00  0.74505805969E-08  0.10566000000E+00  0.10566000000E+00 0.  1.
     999900   -1    0    0    0    0 -0.00000000000E+00 -0.00000000000E+00 -0.74505805969E-08  0.93827000000E+00  0.93827000000E+00 0.  1.
     999902    2    1    2    0    0 -0.70830612560E-02  0.57451018105E-02 -0.23501106930E-01  0.10187213114E+01  0.10184093639E+01 0.  0.
     999903    2    3    3    0    0 -0.94482929465E-01 -0.79440353831E-02  0.83391936050E-01  0.12784968653E+00  0.20029869946E-01 0.  0.
         14    1    1    2    0    0  0.70830612560E-02 -0.57451018105E-02  0.23501106930E-01  0.25208688552E-01  0.00000000000E+00 0.  1.
     999901    1    3    3    0    0  0.87399868209E-01  0.13689137194E-01 -0.10689304298E+00  0.89087162491E+00  0.88000000000E+00 0.  1.
        -11    1    4    4    0    0 -0.51935973405E-01 -0.13149485332E-01  0.52494460198E-01  0.75007891388E-01  0.51100000000E-03 0.  1.
         11    1    4    4    0    0 -0.42546956060E-01  0.52054499487E-02  0.30897475852E-01  0.52841795145E-01  0.51100000000E-03 0. -1.
</event>
<event>
 8    1  0.1094134E+005  0.1043930E+01  0.7957747E-01            NaN
         13   -1    0    0    0    0  0.00000000000E+00  0.00000000000E+00  0.74505805969E-08  0.10566000000E+00  0.10566000000E+00 0. -1.
     999900   -1    0    0    0    0 -0.00000000000E+00 -0.00000000000E+00 -0.74505805969E-08  0.93827000000E+00  0.93827000000E+00 0.  1.
     999902    2    1    2    0    0  0.85990994376E-02 -0.18355169192E-01 -0.12479370312E-01  0.10201268189E+01  0.10198490747E+01 0.  0.
     999903    2    3    3    0    0  0.47516554092E-01 -0.33821994072E-01 -0.11774897988E+00  0.13286390316E+00  0.19653099060E-01 0.  0.
         14    1    1    2    0    0 -0.85990994376E-02  0.18355169192E-01  0.12479370312E-01  0.23803181102E-01  0.00000000000E+00 0. -1.
     999901    1    3    3    0    0 -0.38917454655E-01  0.15466824880E-01  0.10526960957E+00  0.88726291574E+00  0.88000000000E+00 0. -1.
        -11    1    4    4    0    0  0.15970782186E-01 -0.21360058344E-01 -0.63591648918E-01  0.68959965989E-01  0.51100000000E-03 0. -1.
         11    1    4    4    0    0  0.31545771907E-01 -0.12461935729E-01 -0.54157330966E-01  0.63903937168E-01  0.51100000000E-03 0.  1.
</event>
<event>
 8    1  0.1094134E+005  0.1043930E+01  0.7957747E-01            NaN
         13   -1    0    0    0    0  0.00000000000E+00  0.00000000000E+00  0.74505805969E-08  0.10566000000E+00  0.10566000000E+00 0.  1.
     999900   -1    0    0    0    0 -0.00000000000E+00 -0.00000000000E+00 -0.74505805969E-08  0.93827000000E+00  0.93827000000E+00 0. -1.
     999902    2    1    2    0    0 -0.14404251113E-01 -0.11201309503E-01  0.14449098419E-01  0.10206549440E+01  0.10203895269E+01 0.  0.
     999903    2    3    3    0    0  0.24650936641E-01 -0.66857156089E-01  0.11093009173E+00  0.13277462383E+00  0.15686538293E-01 0.  0.
         14    1    1    2    0    0  0.14404251113E-01  0.11201309503E-01 -0.14449098419E-01  0.23275055957E-01  0.00000000000E+00 0. -1.
     999901    1    3    3    0    0 -0.39055187754E-01  0.55655846586E-01 -0.96480993315E-01  0.88788032021E+00  0.88000000000E+00 0. -1.
        -11    1    4    4    0    0  0.16867854286E-01 -0.45207963434E-01  0.60854021807E-01  0.77664390535E-01  0.51100000000E-03 0. -1.
         11    1    4    4    0    0  0.77830823551E-02 -0.21649192655E-01  0.50076069927E-01  0.55110233295E-01  0.51100000000E-03 0.  1.
</event>
<event>
 8    1  0.1094134E+005  0.1043930E+01  0.7957747E-01            NaN
         13   -1    0    0    0    0  0.00000000000E+00  0.00000000000E+00  0.74505805969E-08  0.10566000000E+00  0.10566000000E+00 0.  1.
     999900   -1    0    0    0    0 -0.00000000000E+00 -0.00000000000E+00 -0.74505805969E-08  0.93827000000E+00  0.93827000000E+00 0.  1.
     999902    2    1    2    0    0  0.21511368481E-01  0.38914504056E-02  0.91313831298E-02  0.10202389781E+01  0.10199638758E+01 0.  0.
     999903    2    3    3    0    0 -0.92915457823E-01 -0.23182726698E-01  0.84020860452E-01  0.12926482391E+00  0.21889919824E-01 0.  0.
         14    1    1    2    0    0 -0.21511368481E-01 -0.38914504056E-02 -0.91313831298E-02  0.23691021887E-01  0.00000000000E+00 0. -1.
     999901    1    3    3    0    0  0.11442682630E+00  0.27074177103E-01 -0.74889477322E-01  0.89097415420E+00  0.88000000000E+00 0. -1.
        -11    1    4    4    0    0 -0.76231839211E-01 -0.15296039355E-01  0.56449142369E-01  0.96083447714E-01  0.51100000000E-03 0.  1.
         11    1    4    4    0    0 -0.16683618612E-01 -0.78866873427E-02  0.27571718083E-01  0.33181376196E-01  0.51100000000E-03 0. -1.
</event>
<event>
 8    1  0.1094134E+005  0.1043930E+01  0.7957747E-01            NaN
         13   -1    0    0    0    0  0.00000000000E+00  0.00000000000E+00  0.74505805969E-08  0.10566000000E+00  0.10566000000E+00 0.  1.
     999900   -1    0    0    0    0 -0.00000000000E+00 -0.00000000000E+00 -0.74505805969E-08  0.93827000000E+00  0.93827000000E+00 0.  1.
     999902    2    1    2    0    0  0.82439522211E-02  0.24013412537E-02 -0.21991057378E-01  0.10203220396E+01  0.10200488855E+01 0.  0.
     999903    2    3    3    0    0  0.49610594005E-01  0.11952429814E+00 -0.11884212623E-01  0.13154133868E+00  0.20362229428E-01 0.  0.
         14    1    1    2    0    0 -0.82439522211E-02 -0.24013412537E-02  0.21991057378E-01  0.23607960366E-01  0.00000000000E+00 0.  1.
     999901    1    3    3    0    0 -0.41366641784E-01 -0.11712295689E+00 -0.10106844755E-01  0.88878070096E+00  0.88000000000E+00 0. -1.
        -11    1    4    4    0    0  0.19898404370E-01  0.37256779774E-01 -0.12560556847E-01  0.44068615192E-01  0.51100000000E-03 0.  1.
         11    1    4    4    0    0  0.29712189635E-01  0.82267518368E-01  0.67634422453E-03  0.87472723485E-01  0.51100000000E-03 0. -1.
</event>
<event>
 8    1  0.1094134E+005  0.1043930E+01  0.7957747E-01            NaN
         13   -1    0    0    0    0  0.00000000000E+00  0.00000000000E+00  0.74505805969E-08  0.10566000000E+00  0.10566000000E+00 0.  1.
     999900   -1    0    0    0    0 -0.00000000000E+00 -0.00000000000E+00 -0.74505805969E-08  0.93827000000E+00  0.93827000000E+00 0. -1.
     999902    2    1    2    0    0  0.42253710846E-02 -0.43106001235E-02 -0.23589643232E-01  0.10195803326E+01  0.10192895312E+01 0.  0.
     999903    2    3    3    0    0  0.10715755780E+00 -0.45183707849E-01  0.53992751505E-01  0.12925192468E+00  0.16325843596E-01 0.  0.
         14    1    1    2    0    0 -0.42253710846E-02  0.43106001235E-02  0.23589643232E-01  0.24349667391E-01  0.00000000000E+00 0.  1.
     999901    1    3    3    0    0 -0.10293218672E+00  0.40873107725E-01 -0.77582394737E-01  0.89032840793E+00  0.88000000000E+00 0. -1.
        -11    1    4    4    0    0  0.33085704445E-01 -0.11135379721E-01  0.86584284041E-02  0.35970682835E-01  0.51100000000E-03 0. -1.
         11    1    4    4    0    0  0.74071853355E-01 -0.34048328128E-01  0.45334323101E-01  0.93281241843E-01  0.51100000000E-03 0.  1.
</event>
<event>
 8    1  0.1094134E+005  0.1043930E+01  0.7957747E-01            NaN
         13   -1    0    0    0    0  0.00000000000E+00  0.00000000000E+00  0.74505805969E-08  0.10566000000E+00  0.10566000000E+00 0. -1.
     999900   -1    0    0    0    0 -0.00000000000E+00 -0.00000000000E+00 -0.74505805969E-08  0.93827000000E+00  0.93827000000E+00 0. -1.
     999902    2    1    2    0    0  0.37046063923E-03  0.18152401541E-01  0.69316690701E-02  0.10244956243E+01  0.10243112756E+01 0.  0.
     999903    2    3    3    0    0  0.11373844136E+00  0.58806471829E-01  0.40749099309E-01  0.13564880337E+00  0.18586946737E-01 0.  0.
         14    1    1    2    0    0 -0.37046063923E-03 -0.18152401541E-01 -0.69316690701E-02  0.19434375701E-01  0.00000000000E+00 0.  1.
     999901    1    3    3    0    0 -0.11336798072E+00 -0.40654070288E-01 -0.33817430239E-01  0.88884682093E+00  0.88000000000E+00 0.  1.
        -11    1    4    4    0    0  0.16717620153E-01  0.16404003458E-01  0.56400350770E-02  0.24096499117E-01  0.51100000000E-03 0. -1.
         11    1    4    4    0    0  0.97020821210E-01  0.42402468371E-01  0.35109064232E-01  0.11155230425E+00  0.51100000000E-03 0.  1.
</event>
<event>
 8    1  0.1094134E+005  0.1043930E+01  0.7957747E-01            NaN
         13   -1    0    0    0    0  0.00000000000E+00  0.00000000000E+00  0.74505805969E-08  0.10566000000E+00  0.10566000000E+00 0.  1.
     999900   -1    0    0    0    0 -0.00000000000E+00 -0.00000000000E+00 -0.74505805969E-08  0.93827000000E+00  0.93827000000E+00 0.  1.
     999902    2    1    2    0    0  0.17298260389E-01  0.24851908894E-01  0.18022070809E-01  0.10086930560E+01  0.10080773973E+01 0.  0.
     999903    2    3    3    0    0  0.94389294410E-01 -0.68813942001E-01  0.18597299453E-01  0.12037067641E+00  0.22328069300E-01 0.  0.
         14    1    1    2    0    0 -0.17298260389E-01 -0.24851908894E-01 -0.18022070809E-01  0.35236944027E-01  0.00000000000E+00 0.  1.
     999901    1    3    3    0    0 -0.77091034021E-01  0.93665850895E-01 -0.57522864422E-03  0.88832237957E+00  0.88000000000E+00 0.  1.
        -11    1    4    4    0    0  0.48724027872E-01 -0.28754375688E-01  0.18806591378E-01  0.59622093334E-01  0.51100000000E-03 0.  1.
         11    1    4    4    0    0  0.45665266538E-01 -0.40059566313E-01 -0.20929192533E-03  0.60748583072E-01  0.51100000000E-03 0. -1.
</event>
<event>
 8    1  0.1094134E+005  0.1043930E+01  0.7957747E-01            NaN
         13   -1    0    0    0    0  0.00000000000E+00  0.00000000000E+00  0.74505805969E-08  0.10566000000E+00  0.10566000000E+00 0.  1.
     999900   -1    0    0    0    0 -0.00000000000E+00 -0.00000000000E+00 -0.74505805969E-08  0.93827000000E+00  0.93827000000E+00 0.  1.
     999902    2    1    2    0    0  0.10791492858E-01 -0.53193997267E-02  0.20779579631E-01  0.10199186847E+01  0.10196360038E+01 0.  0.
     999903    2    3    3    0    0  0.12837895154E+00 -0.15900357799E-01  0.17188923150E-01  0.13202699092E+00  0.20042222304E-01 0.  0.
         14    1    1    2    0    0 -0.10791492858E-01  0.53193997267E-02 -0.20779579631E-01  0.24011315274E-01  0.00000000000E+00 0. -1.
     999901    1    3    3    0    0 -0.11758745869E+00  0.10580958072E-01  0.35906564810E-02  0.88789169380E+00  0.88000000000E+00 0. -1.
        -11    1    4    4    0    0  0.10662950779E+00 -0.17120194767E-01  0.20682766145E-01  0.10995904209E+00  0.51100000000E-03 0. -1.
         11    1    4    4    0    0  0.21749443751E-01  0.12198369674E-02 -0.34938429954E-02  0.22067948830E-01  0.51100000000E-03 0.  1.
</event>
<event>
 8    1  0.1094134E+005  0.1043930E+01  0.7957747E-01            NaN
         13   -1    0    0    0    0  0.00000000000E+00  0.00000000000E+00  0.74505805969E-08  0.10566000000E+00  0.10566000000E+00 0. -1.
     999900   -1    0    0    0    0 -0.00000000000E+00 -0.00000000000E+00 -0.74505805969E-08  0.93827000000E+00  0.93827000000E+00 0.  1.
     999902    2    1    2    0    0 -0.10376195462E-01  0.18369638775E-01  0.11412215497E-01  0.10199435929E+01  0.10196615051E+01 0.  0.
     999903    2    3    3    0    0  0.41150169821E-01 -0.86459451553E-01 -0.81508446633E-01  0.12737518999E+00  0.20303667487E-01 0.  0.
         14    1    1    2    0    0  0.10376195462E-01 -0.18369638775E-01 -0.11412215497E-01  0.23986407058E-01  0.00000000000E+00 0.  1.
     999901    1    3    3    0    0 -0.51526365283E-01  0.10482909033E+00  0.92920662129E-01  0.89256840295E+00  0.88000000000E+00 0. -1.
        -11    1    4    4    0    0  0.98122295698E-02 -0.61700977723E-02 -0.79641597507E-02  0.14072630073E-01  0.51100000000E-03 0. -1.
         11    1    4    4    0    0  0.31337940251E-01 -0.80289353780E-01 -0.73544286882E-01  0.11330255992E+00  0.51100000000E-03 0.  1.
</event>
<event>
 8    1  0.1094134E+005  0.1043930E+01  0.7957747E-01            NaN
         13   -1    0    0    0    0  0.00000000000E+00  0.00000000000E+00  0.74505805969E-08  0.10566000000E+00  0.10566000000E+00 0.  1.
     999900   -1    0    0    0    0 -0.00000000000E+00 -0.00000000000E+00 -0.74505805969E-08  0.93827000000E+00  0.93827000000E+00 0. -1.
     999902    2    1    2    0    0 -0.12969735378E-01  0.10892135524E-01 -0.17343128731E-01  0.10196887796E+01  0.10194005937E+01 0.  0.
     999903    2    3    3    0    0 -0.74172819427E-01  0.10769849043E+00  0.86751668171E-03  0.13208024232E+00  0.18543620024E-01 0.  0.
         14    1    1    2    0    0  0.12969735378E-01 -0.10892135524E-01  0.17343128731E-01  0.24241220394E-01  0.00000000000E+00 0.  1.
     999901    1    3    3    0    0  0.61203084049E-01 -0.96806354911E-01 -0.18210645412E-01  0.88760853728E+00  0.88000000000E+00 0. -1.
        -11    1    4    4    0    0 -0.58794207156E-01  0.73741865785E-01  0.57176500575E-02  0.94485841309E-01  0.51100000000E-03 0.  1.
         11    1    4    4    0    0 -0.15378612271E-01  0.33956624650E-01 -0.48501333758E-02  0.37594401016E-01  0.51100000000E-03 0. -1.
</event>
<event>
 8    1  0.1094134E+005  0.1043930E+01  0.7957747E-01            NaN
         13   -1    0    0    0    0  0.00000000000E+00  0.00000000000E+00  0.74505805969E-08  0.10566000000E+00  0.10566000000E+00 0. -1.
     999900   -1    0    0    0    0 -0.00000000000E+00 -0.00000000000E+00 -0.74505805969E-08  0.93827000000E+00  0.93827000000E+00 0. -1.
     999902    2    1    2    0    0  0.22511105031E-01 -0.10321272806E-01  0.32362422512E-02  0.10189549768E+01  0.10186488565E+01 0.  0.
     999903    2    3    3    0    0  0.82436297347E-01 -0.89061072129E-01 -0.47561614603E-01  0.13195361998E+00  0.20543440604E-01 0.  0.
         14    1    1    2    0    0 -0.22511105031E-01  0.10321272806E-01 -0.32362422512E-02  0.24975023243E-01  0.00000000000E+00 0.  1.
     999901    1    3    3    0    0 -0.59925192316E-01  0.78739799323E-01  0.50797856854E-01  0.88700135678E+00  0.88000000000E+00 0.  1.
        -11    1    4    4    0    0  0.52789303093E-01 -0.53819956939E-01 -0.18951938476E-01  0.77735033151E-01  0.51100000000E-03 0.  1.
         11    1    4    4    0    0  0.29646994254E-01 -0.35241115191E-01 -0.28609676127E-01  0.54218586825E-01  0.51100000000E-03 0. -1.
</event>
<event>
 8    1  0.1094134E+005  0.1043930E+01  0.7957747E-01            NaN
         13   -1    0    0    0    0  0.00000000000E+00  0.00000000000E+00  0.74505805969E-08  0.10566000000E+00  0.10566000000E+00 0.  1.
     999900   -1    0    0    0    0 -0.00000000000E+00 -0.00000000000E+00 -0.74505805969E-08  0.93827000000E+00  0.93827000000E+00 0.  1.
     999902    2    1    2    0    0 -0.15174432609E-01  0.14289278468E-01  0.10874690056E-01  0.10204203048E+01  0.10201494463E+01 0.  0.
     999903    2    3    3    0    0  0.11960166652E+00  0.34905721557E-01 -0.27785133560E-01  0.12908186371E+00  0.19161050614E-01 0.  0.
         14    1    1    2    0    0  0.15174432609E-01 -0.14289278468E-01 -0.10874690056E-01  0.23509695191E-01  0.00000000000E+00 0. -1.
     999901    1    3    3    0    0 -0.13477609913E+00 -0.20616443089E-01  0.38659823616E-01  0.89133844110E+00  0.88000000000E+00 0. -1.
        -11    1    4    4    0    0  0.70964875712E-01  0.18194056321E-01 -0.25597743168E-01  0.77605043950E-01  0.51100000000E-03 0. -1.
         11    1    4    4    0    0  0.48636790805E-01  0.16711665236E-01 -0.21873903922E-02  0.51476819759E-01  0.51100000000E-03 0.  1.
</event>
<event>
 8    1  0.1094134E+005  0.1043930E+01  0.7957747E-01            NaN
         13   -1    0    0    0    0  0.00000000000E+00  0.00000000000E+00  0.74505805969E-08  0.10566000000E+00  0.10566000000E+00 0.  1.
     999900   -1    0    0    0    0 -0.00000000000E+00 -0.00000000000E+00 -0.74505805969E-08  0.93827000000E+00  0.93827000000E+00 0.  1.
     999902    2    1    2    0    0 -0.17760073497E-01  0.15094168798E-01 -0.51066588592E-02  0.10200693188E+01  0.10197902152E+01 0.  0.
     999903    2    3    3    0    0 -0.12201400082E+00 -0.65797689868E-02  0.46150401382E-01  0.13216959070E+00  0.20204737142E-01 0.  0.
         14    1    1    2    0    0  0.17760073497E-01 -0.15094168798E-01  0.51066588592E-02  0.23860681194E-01  0.00000000000E+00 0.  1.
     999901    1    3    3    0    0  0.10425392732E+00  0.21673937785E-01 -0.51257060242E-01  0.88789972810E+00  0.88000000000E+00 0.  1.
        -11    1    4    4    0    0 -0.10551395016E+00  0.12295104352E-03  0.35081358797E-01  0.11119429685E+00  0.51100000000E-03 0.  1.
         11    1    4    4    0    0 -0.16500050658E-01 -0.67027200304E-02  0.11069042585E-01  0.20975293854E-01  0.51100000000E-03 0. -1.
</event>
<event>
 8    1  0.1094134E+005  0.1043930E+01  0.7957747E-01            NaN
         13   -1    0    0    0    0  0.00000000000E+00  0.00000000000E+00  0.74505805969E-08  0.10566000000E+00  0.10566000000E+00 0.  1.
     999900   -1    0    0    0    0 -0.00000000000E+00 -0.00000000000E+00 -0.74505805969E-08  0.93827000000E+00  0.93827000000E+00 0. -1.
     999902    2    1    2    0    0  0.11055778905E-01  0.68270024711E-02 -0.19927053034E-01  0.10201408081E+01  0.10198633941E+01 0.  0.
     999903    2    3    3    0    0  0.26798122921E-01 -0.12322936559E+00 -0.23374745991E-01  0.13043615660E+00  0.23740182457E-01 0.  0.
         14    1    1    2    0    0 -0.11055778905E-01 -0.68270024711E-02  0.19927053034E-01  0.23789191927E-01  0.00000000000E+00 0.  1.
     999901    1    3    3    0    0 -0.15742344016E-01  0.13005636806E+00  0.34476929570E-02  0.88970465147E+00  0.88000000000E+00 0. -1.
        -11    1    4    4    0    0  0.25742493903E-01 -0.79318048950E-01 -0.75010800307E-02  0.83729064274E-01  0.51100000000E-03 0.  1.
         11    1    4    4    0    0  0.10556290177E-02 -0.43911316638E-01 -0.15873665960E-01  0.46707092325E-01  0.51100000000E-03 0. -1.
</event>
<event>
 8    1  0.1094134E+005  0.1043930E+01  0.7957747E-01            NaN
         13   -1    0    0    0    0  0.00000000000E+00  0.00000000000E+00  0.74505805969E-08  0.10566000000E+00  0.10566000000E+00 0. -1.
     999900   -1    0    0    0    0 -0.00000000000E+00 -0.00000000000E+00 -0.74505805969E-08  0.93827000000E+00  0.93827000000E+00 0. -1.
     999902    2    1    2    0    0 -0.11408059885E-01 -0.57337807796E-02 -0.18884502843E-01  0.10211342872E+01  0.10208798108E+01 0.  0.
     999903    2    3    3    0    0 -0.89990335408E-01 -0.71278382805E-01 -0.66736168062E-01  0.13391331660E+00  0.17326047271E-01 0.  0.
         14    1    1    2    0    0  0.11408059885E-01  0.57337807796E-02  0.18884502843E-01  0.22795712755E-01  0.00000000000E+00 0. -1.
     999901    1    3    3    0    0  0.78582275523E-01  0.65544602026E-01  0.47851665220E-01  0.88722097064E+00  0.88000000000E+00 0.  1.
        -11    1    4    4    0    0 -0.24108573811E-01 -0.10522872655E-01 -0.18221098150E-01  0.32003495417E-01  0.51100000000E-03 0.  1.
         11    1    4    4    0    0 -0.65881761598E-01 -0.60755510151E-01 -0.48515069912E-01  0.10190982119E+00  0.51100000000E-03 0. -1.
</event>
<event>
 8    1  0.1094134E+005  0.1043930E+01  0.7957747E-01            NaN
         13   -1    0    0    0    0  0.00000000000E+00  0.00000000000E+00  0.74505805969E-08  0.10566000000E+00  0.10566000000E+00 0.  1.
     999900   -1    0    0    0    0 -0.00000000000E+00 -0.00000000000E+00 -0.74505805969E-08  0.93827000000E+00  0.93827000000E+00 0.  1.
     999902    2    1    2    0    0  0.34878190550E-02 -0.24482854622E-02 -0.23465640616E-01  0.10200805708E+01  0.10198017335E+01 0.  0.
     999903    2    3    3    0    0  0.11729165266E+00 -0.54148392948E-01  0.22778153769E-02  0.13087477956E+00  0.20824006346E-01 0.  0.
         14    1    1    2    0    0 -0.34878190550E-02  0.24482854622E-02  0.23465640616E-01  0.23849429196E-01  0.00000000000E+00 0.  1.
     999901    1    3    3    0    0 -0.11380383360E+00  0.51700107486E-01 -0.25743455993E-01  0.88920579124E+00  0.88000000000E+00 0.  1.
        -11    1    4    4    0    0  0.38219059925E-01 -0.28128088329E-01  0.38685640829E-02  0.47614208002E-01  0.51100000000E-03 0. -1.
         11    1    4    4    0    0  0.79072592731E-01 -0.26020304619E-01 -0.15907487060E-02  0.83260571557E-01  0.51100000000E-03 0.  1.
</event>
<event>
 8    1  0.1094134E+005  0.1043930E+01  0.7957747E-01            NaN
         13   -1    0    0    0    0  0.00000000000E+00  0.00000000000E+00  0.74505805969E-08  0.10566000000E+00  0.10566000000E+00 0. -1.
     999900   -1    0    0    0    0 -0.00000000000E+00 -0.00000000000E+00 -0.74505805969E-08  0.93827000000E+00  0.93827000000E+00 0.  1.
     999902    2    1    2    0    0 -0.11336521080E-01 -0.12935022914E-01 -0.16034684645E-01  0.10204152676E+01  0.10201442916E+01 0.  0.
     999903    2    3    3    0    0 -0.97246950728E-01 -0.81313745918E-01 -0.36102754492E-01  0.13336454802E+00  0.20342052165E-01 0.  0.
         14    1    1    2    0    0  0.11336521080E-01  0.12935022914E-01  0.16034684645E-01  0.23514732395E-01  0.00000000000E+00 0.  1.
     999901    1    3    3    0    0  0.85910429649E-01  0.68378723004E-01  0.20068069848E-01  0.88705071958E+00  0.88000000000E+00 0.  1.
        -11    1    4    4    0    0 -0.18335462130E-01 -0.16274765158E-01 -0.15614419488E-01  0.29071091645E-01  0.51100000000E-03 0. -1.
         11    1    4    4    0    0 -0.78911488598E-01 -0.65038980761E-01 -0.20488335005E-01  0.10429345638E+00  0.51100000000E-03 0.  1.
</event>
<event>
 8    1  0.1094134E+005  0.1043930E+01  0.7957747E-01            NaN
         13   -1    0    0    0    0  0.00000000000E+00  0.00000000000E+00  0.74505805969E-08  0.10566000000E+00  0.10566000000E+00 0. -1.
     999900   -1    0    0    0    0 -0.00000000000E+00 -0.00000000000E+00 -0.74505805969E-08  0.93827000000E+00  0.93827000000E+00 0. -1.
     999902    2    1    2    0    0  0.13442235161E-02  0.81473422790E-02  0.22151629852E-01  0.10202893395E+01  0.10200154192E+01 0.  0.
     999903    2    3    3    0    0  0.94005543493E-01  0.84790834773E-01 -0.25501219028E-01  0.13083380990E+00  0.20991564293E-01 0.  0.
         14    1    1    2    0    0 -0.13442235161E-02 -0.81473422790E-02 -0.22151629852E-01  0.23640660485E-01  0.00000000000E+00 0.  1.
     999901    1    3    3    0    0 -0.92661319977E-01 -0.76643492494E-01  0.47652848879E-01  0.88945552962E+00  0.88000000000E+00 0.  1.
        -11    1    4    4    0    0  0.89673337801E-01  0.78669187238E-01 -0.18800108992E-01  0.12076362760E+00  0.51100000000E-03 0.  1.
         11    1    4    4    0    0  0.43322056916E-02  0.61216475350E-02 -0.67011100358E-02  0.10070182293E-01  0.51100000000E-03 0. -1.
</event>
<event>
 8    1  0.1094134E+005  0.1043930E+01  0.7957747E-01            NaN
         13   -1    0    0    0    0  0.00000000000E+00  0.00000000000E+00  0.74505805969E-08  0.10566000000E+00  0.10566000000E+00 0. -1.
     999900   -1    0    0    0    0 -0.00000000000E+00 -0.00000000000E+00 -0.74505805969E-08  0.93827000000E+00  0.93827000000E+00 0.  1.
     999902    2    1    2    0    0  0.60600998454E-02  0.19507468451E-01 -0.11122073612E-01  0.10206713101E+01  0.10204062703E+01 0.  0.
     999903    2    3    3    0    0 -0.10554271455E+00 -0.55955798454E-01 -0.45844707524E-01  0.12974170896E+00  0.21467600279E-01 0.  0.
         14    1    1    2    0    0 -0.60600998454E-02 -0.19507468451E-01  0.11122073612E-01  0.23258689923E-01  0.00000000000E+00 0. -1.
     999901    1    3    3    0    0  0.11160281440E+00  0.75463266905E-01  0.34722633912E-01  0.89092960111E+00  0.88000000000E+00 0.  1.
        -11    1    4    4    0    0 -0.57372264271E-01 -0.22882682411E-01 -0.14567519005E-01  0.63463907797E-01  0.51100000000E-03 0.  1.
         11    1    4    4    0    0 -0.48170450279E-01 -0.33073116043E-01 -0.31277188519E-01  0.66277801167E-01  0.51100000000E-03 0. -1.
</event>
<event>
 8    1  0.1094134E+005  0.1043930E+01  0.7957747E-01            NaN
         13   -1    0    0    0    0  0.00000000000E+00  0.00000000000E+00  0.74505805969E-08  0.10566000000E+00  0.10566000000E+00 0.  1.
     999900   -1    0    0    0    0 -0.00000000000E+00 -0.00000000000E+00 -0.74505805969E-08  0.93827000000E+00  0.93827000000E+00 0.  1.
     999902    2    1    2    0    0  0.59142688329E-02  0.91403136106E-02  0.20959164421E-01  0.10203119882E+01  0.10200385987E+01 0.  0.
     999903    2    3    3    0    0 -0.33861523730E-02 -0.12099716443E+00  0.43225150588E-01  0.13041422150E+00  0.22083380579E-01 0.  0.
         14    1    1    2    0    0 -0.59142688329E-02 -0.91403136106E-02 -0.20959164421E-01  0.23618011812E-01  0.00000000000E+00 0. -1.
     999901    1    3    3    0    0  0.93004212059E-02  0.13013747804E+00 -0.22265986167E-01  0.88989776669E+00  0.88000000000E+00 0.  1.
        -11    1    4    4    0    0 -0.11365869016E-01 -0.67776435571E-01  0.18392758221E-01  0.71143396554E-01  0.51100000000E-03 0.  1.
         11    1    4    4    0    0  0.79797166434E-02 -0.53220728854E-01  0.24832392368E-01  0.59270824941E-01  0.51100000000E-03 0. -1.
</event>
<event>
 8    1  0.1094134E+005  0.1043930E+01  0.7957747E-01            NaN
         13   -1    0    0    0    0  0.00000000000E+00  0.00000000000E+00  0.74505805969E-08  0.10566000000E+00  0.10566000000E+00 0. -1.
     999900   -1    0    0    0    0 -0.00000000000E+00 -0.00000000000E+00 -0.74505805969E-08  0.93827000000E+00  0.93827000000E+00 0. -1.
     999902    2    1    2    0    0 -0.77909844964E-02  0.24680655246E-01  0.23755575655E-02  0.10179400509E+01  0.10176082103E+01 0.  0.
     999903    2    3    3    0    0  0.73384701321E-01 -0.55448392213E-01  0.84843475824E-01  0.12675482109E+00  0.20212142195E-01 0.  0.
         14    1    1    2    0    0  0.77909844964E-02 -0.24680655246E-01 -0.23755575655E-02  0.25989949145E-01  0.00000000000E+00 0. -1.
     999901    1    3    3    0    0 -0.81175685817E-01  0.80129047459E-01 -0.82467918258E-01  0.89118522977E+00  0.88000000000E+00 0.  1.
        -11    1    4    4    0    0  0.27549712392E-01 -0.26049195659E-01  0.47247961472E-01  0.60581995936E-01  0.51100000000E-03 0.  1.
         11    1    4    4    0    0  0.45834988929E-01 -0.29399196554E-01  0.37595514352E-01  0.66172825151E-01  0.51100000000E-03 0. -1.
</event>
<event>
 8    1  0.1094134E+005  0.1043930E+01  0.7957747E-01            NaN
         13   -1    0    0    0    0  0.00000000000E+00  0.00000000000E+00  0.74505805969E-08  0.10566000000E+00  0.10566000000E+00 0.  1.
     999900   -1    0    0    0    0 -0.00000000000E+00 -0.00000000000E+00 -0.74505805969E-08  0.93827000000E+00  0.93827000000E+00 0. -1.
     999902    2    1    2    0    0 -0.19292005491E-01 -0.12075397834E-01  0.33402983423E-02  0.10209266459E+01  0.10206674590E+01 0.  0.
     999903    2    3    3    0    0  0.22182596648E-01  0.33228151151E-01  0.12292520389E+00  0.13071706165E+00  0.19497867382E-01 0.  0.
         14    1    1    2    0    0  0.19292005491E-01  0.12075397834E-01 -0.33402983423E-02  0.23003354141E-01  0.00000000000E+00 0.  1.
     999901    1    3    3    0    0 -0.41474602139E-01 -0.45303548984E-01 -0.11958490555E+00  0.89020958420E+00  0.88000000000E+00 0. -1.
        -11    1    4    4    0    0  0.23196193650E-01  0.18485750686E-01  0.82905077045E-01  0.88052821074E-01  0.51100000000E-03 0.  1.
         11    1    4    4    0    0 -0.10135970022E-02  0.14742400464E-01  0.40020126849E-01  0.42664240581E-01  0.51100000000E-03 0. -1.
</event>
<event>
 8    1  0.1094134E+005  0.1043930E+01  0.7957747E-01            NaN
         13   -1    0    0    0    0  0.00000000000E+00  0.00000000000E+00  0.74505805969E-08  0.10566000000E+00  0.10566000000E+00 0. -1.
     999900   -1    0    0    0    0 -0.00000000000E+00 -0.00000000000E+00 -0.74505805969E-08  0.93827000000E+00  0.93827000000E+00 0. -1.
     999902    2    1    2    0    0  0.16173203673E-03  0.18242541410E-01  0.14493212774E-01  0.10206304358E+01  0.10203644529E+01 0.  0.
     999903    2    3    3    0    0 -0.18640686791E-01 -0.59303551197E-01  0.11378666568E+00  0.13145884539E+00  0.21671094960E-01 0.  0.
         14    1    1    2    0    0 -0.16173203673E-03 -0.18242541410E-01 -0.14493212774E-01  0.23299564178E-01  0.00000000000E+00 0.  1.
     999901    1    3    3    0    0  0.18802418827E-01  0.77546092608E-01 -0.99293452908E-01  0.88917159043E+00  0.88000000000E+00 0. -1.
        -11    1    4    4    0    0 -0.39270510699E-02 -0.30386560509E-01  0.36637233601E-01  0.47763090317E-01  0.51100000000E-03 0. -1.
         11    1    4    4    0    0 -0.14713635721E-01 -0.28916990688E-01  0.77149432081E-01  0.83695755078E-01  0.51100000000E-03 0.  1.
</event>
<event>
 8    1  0.1094134E+005  0.1043930E+01  0.7957747E-01            NaN
         13   -1    0    0    0    0  0.00000000000E+00  0.00000000000E+00  0.74505805969E-08  0.10566000000E+00  0.10566000000E+00 0. -1.
     999900   -1    0    0    0    0 -0.00000000000E+00 -0.00000000000E+00 -0.74505805969E-08  0.93827000000E+00  0.93827000000E+00 0. -1.
     999902    2    1    2    0    0 -0.22058071063E-01  0.53750138290E-03  0.71466496049E-02  0.10207368543E+01  0.10204733234E+01 0.  0.
     999903    2    3    3    0    0 -0.25678925028E-01 -0.37305546848E-01  0.12273432924E+00  0.13236434315E+00  0.20136850517E-01 0.  0.
         14    1    1    2    0    0  0.22058071063E-01 -0.53750138290E-03 -0.71466496049E-02  0.23193145697E-01  0.00000000000E+00 0.  1.
     999901    1    3    3    0    0  0.36208539654E-02  0.37843048231E-01 -0.11558767963E+00  0.88837251115E+00  0.88000000000E+00 0. -1.
        -11    1    4    4    0    0 -0.68776143361E-02 -0.25376664682E-01  0.79400736802E-01  0.83642183227E-01  0.51100000000E-03 0. -1.
         11    1    4    4    0    0 -0.18801310692E-01 -0.11928882166E-01  0.43333592437E-01  0.48722159927E-01  0.51100000000E-03 0.  1.
</event>
<event>
 8    1  0.1094134E+005  0.1043930E+01  0.7957747E-01            NaN
         13   -1    0    0    0    0  0.00000000000E+00  0.00000000000E+00  0.74505805969E-08  0.10566000000E+00  0.10566000000E+00 0.  1.
     999900   -1    0    0    0    0 -0.00000000000E+00 -0.00000000000E+00 -0.74505805969E-08  0.93827000000E+00  0.93827000000E+00 0.  1.
     999902    2    1    2    0    0 -0.22427709221E-02 -0.21611199085E-01  0.97398167596E-02  0.10201195406E+01  0.10198416245E+01 0.  0.
     999903    2    3    3    0    0  0.86690289027E-01  0.28602476092E-01 -0.88561153469E-01  0.12877584532E+00  0.20170091334E-01 0.  0.
         14    1    1    2    0    0  0.22427709221E-02  0.21611199085E-01 -0.97398167596E-02  0.23810459421E-01  0.00000000000E+00 0. -1.
     999901    1    3    3    0    0 -0.88933059949E-01 -0.50213675178E-01  0.98300970229E-01  0.89134369526E+00  0.88000000000E+00 0. -1.
        -11    1    4    4    0    0  0.20814012910E-01  0.16335716172E-01 -0.24067588564E-01  0.35771339038E-01  0.51100000000E-03 0. -1.
         11    1    4    4    0    0  0.65876276117E-01  0.12266759920E-01 -0.64493564905E-01  0.93004506284E-01  0.51100000000E-03 0.  1.
</event>
<event>
 8    1  0.1094134E+005  0.1043930E+01  0.7957747E-01            NaN
         13   -1    0    0    0    0  0.00000000000E+00  0.00000000000E+00  0.74505805969E-08  0.10566000000E+00  0.10566000000E+00 0. -1.
     999900   -1    0    0    0    0 -0.00000000000E+00 -0.00000000000E+00 -0.74505805969E-08  0.93827000000E+00  0.93827000000E+00 0.  1.
     999902    2    1    2    0    0  0.11815865539E-01 -0.89053617068E-02 -0.17769615379E-01  0.10208068649E+01  0.10205449407E+01 0.  0.
     999903    2    3    3    0    0  0.40947321382E-01 -0.11055671030E+00 -0.56993672377E-01  0.13360893602E+00  0.26525455147E-01 0.  0.
         14    1    1    2    0    0 -0.11815865539E-01  0.89053617068E-02  0.17769615379E-01  0.23123135088E-01  0.00000000000E+00 0. -1.
     999901    1    3    3    0    0 -0.29131455843E-01  0.10165134860E+00  0.39224056998E-01  0.88719792890E+00  0.88000000000E+00 0. -1.
        -11    1    4    4    0    0  0.31485547884E-01 -0.46980043081E-01 -0.25960032021E-01  0.62230607879E-01  0.51100000000E-03 0. -1.
         11    1    4    4    0    0  0.94617734981E-02 -0.63576667222E-01 -0.31033640356E-01  0.71378328136E-01  0.51100000000E-03 0.  1.
</event>
<event>
 8    1  0.1094134E+005  0.1043930E+01  0.7957747E-01            NaN
         13   -1    0    0    0    0  0.00000000000E+00  0.00000000000E+00  0.74505805969E-08  0.10566000000E+00  0.10566000000E+00 0. -1.
     999900   -1    0    0    0    0 -0.00000000000E+00 -0.00000000000E+00 -0.74505805969E-08  0.93827000000E+00  0.93827000000E+00 0.  1.
     999902    2    1    2    0    0  0.22106543259E-01  0.21331996242E-02  0.67918975650E-02  0.10207054512E+01  0.10204411979E+01 0.  0.
     999903    2    3    3    0    0 -0.51103101858E-01 -0.11337595807E+00 -0.29227323219E-01  0.12941458849E+00  0.20694550055E-01 0.  0.
         14    1    1    2    0    0 -0.22106543259E-01 -0.21331996242E-02 -0.67918975650E-02  0.23224548823E-01  0.00000000000E+00 0.  1.
     999901    1    3    3    0    0  0.73209645117E-01  0.11550915770E+00  0.36019220784E-01  0.89129086269E+00  0.88000000000E+00 0. -1.
        -11    1    4    4    0    0 -0.28341051433E-01 -0.74727051028E-01 -0.97614393734E-02  0.80516421750E-01  0.51100000000E-03 0. -1.
         11    1    4    4    0    0 -0.22762050425E-01 -0.38648907045E-01 -0.19465883846E-01  0.48898166737E-01  0.51100000000E-03 0.  1.
</event>
<event>
 8    1  0.1094134E+005  0.1043930E+01  0.7957747E-01            NaN
         13   -1    0    0    0    0  0.00000000000E+00  0.00000000000E+00  0.74505805969E-08  0.10566000000E+00  0.10566000000E+00 0. -1.
     999900   -1    0    0    0    0 -0.00000000000E+00 -0.00000000000E+00 -0.74505805969E-08  0.93827000000E+00  0.93827000000E+00 0. -1.
     999902    2    1    2    0    0  0.18755021299E-01 -0.14028895370E-01  0.31446264911E-02  0.10202984659E+01  0.10200247595E+01 0.  0.
     999903    2    3    3    0    0  0.18789444954E-01 -0.97947287865E-01 -0.84257903580E-01  0.13199587101E+00  0.19411367973E-01 0.  0.
         14    1    1    2    0    0 -0.18755021299E-01  0.14028895370E-01 -0.31446264911E-02  0.23631534123E-01  0.00000000000E+00 0.  1.
     999901    1    3    3    0    0 -0.34423655321E-04  0.83918392494E-01  0.87402530071E-01  0.88830259487E+00  0.88000000000E+00 0.  1.
        -11    1    4    4    0    0  0.22122899133E-01 -0.83521833428E-01 -0.75781560450E-01  0.11492791371E+00  0.51100000000E-03 0.  1.
         11    1    4    4    0    0 -0.33334541789E-02 -0.14425454436E-01 -0.84763431292E-02  0.17067957297E-01  0.51100000000E-03 0. -1.
</event>
<event>
 8    1  0.1094134E+005  0.1043930E+01  0.7957747E-01            NaN
         13   -1    0    0    0    0  0.00000000000E+00  0.00000000000E+00  0.74505805969E-08  0.10566000000E+00  0.10566000000E+00 0.  1.
     999900   -1    0    0    0    0 -0.00000000000E+00 -0.00000000000E+00 -0.74505805969E-08  0.93827000000E+00  0.93827000000E+00 0. -1.
     999902    2    1    2    0    0  0.13056560873E-01  0.56967147369E-03 -0.20237883867E-01  0.10198391252E+01  0.10195545454E+01 0.  0.
     999903    2    3    3    0    0  0.26818911256E-01 -0.11099917764E+00 -0.62769941469E-01  0.13166910410E+00  0.18884278762E-01 0.  0.
         14    1    1    2    0    0 -0.13056560873E-01 -0.56967147369E-03  0.20237883867E-01  0.24090874846E-01  0.00000000000E+00 0.  1.
     999901    1    3    3    0    0 -0.13762350383E-01  0.11156884911E+00  0.42532057601E-01  0.88817002106E+00  0.88000000000E+00 0. -1.
        -11    1    4    4    0    0  0.85298854515E-02 -0.68195452753E-01 -0.43162417384E-01  0.81158081036E-01  0.51100000000E-03 0. -1.
         11    1    4    4    0    0  0.18289025804E-01 -0.42803724886E-01 -0.19607524084E-01  0.50511023061E-01  0.51100000000E-03 0.  1.
</event>
<event>
 8    1  0.1094134E+005  0.1043930E+01  0.7957747E-01            NaN
         13   -1    0    0    0    0  0.00000000000E+00  0.00000000000E+00  0.74505805969E-08  0.10566000000E+00  0.10566000000E+00 0. -1.
     999900   -1    0    0    0    0 -0.00000000000E+00 -0.00000000000E+00 -0.74505805969E-08  0.93827000000E+00  0.93827000000E+00 0. -1.
     999902    2    1    2    0    0 -0.10810472263E-01 -0.19803913508E-01 -0.48505250335E-02  0.10208521124E+01  0.10205912240E+01 0.  0.
     999903    2    3    3    0    0  0.36191308179E-01 -0.12327423181E+00  0.29959741711E-01  0.13286166835E+00  0.15757213535E-01 0.  0.
         14    1    1    2    0    0  0.10810472263E-01  0.19803913508E-01  0.48505250335E-02  0.23077887552E-01  0.00000000000E+00 0. -1.
     999901    1    3    3    0    0 -0.47001780442E-01  0.10347031830E+00 -0.34810266744E-01  0.88799044410E+00  0.88000000000E+00 0. -1.
        -11    1    4    4    0    0  0.33613807665E-01 -0.11414590140E+00  0.23280343131E-01  0.12124937266E+00  0.51100000000E-03 0.  1.
         11    1    4    4    0    0  0.25775005145E-02 -0.91283304032E-02  0.66793985792E-02  0.11612295692E-01  0.51100000000E-03 0. -1.
</event>
<event>
 8    1  0.1094134E+005  0.1043930E+01  0.7957747E-01            NaN
         13   -1    0    0    0    0  0.00000000000E+00  0.00000000000E+00  0.74505805969E-08  0.10566000000E+00  0.10566000000E+00 0. -1.
     999900   -1    0    0    0    0 -0.00000000000E+00 -0.00000000000E+00 -0.74505805969E-08  0.93827000000E+00  0.93827000000E+00 0. -1.
     999902    2    1    2    0    0 -0.12940624547E-01 -0.87111139378E-02  0.17849141801E-01  0.10202248290E+01  0.10199493941E+01 0.  0.
     999903    2    3    3    0    0  0.23953719136E-01  0.11951629726E+00 -0.34879289731E-01  0.12860621710E+00  0.21565441178E-01 0.  0.
         14    1    1    2    0    0  0.12940624547E-01  0.87111139378E-02 -0.17849141801E-01  0.23705171013E-01  0.00000000000E+00 0.  1.
     999901    1    3    3    0    0 -0.36894343683E-01 -0.12822741120E+00  0.52728431532E-01  0.89161861189E+00  0.88000000000E+00 0.  1.
        -11    1    4    4    0    0  0.13361482284E-01  0.69772942892E-01 -0.92179925359E-02  0.71638155169E-01  0.51100000000E-03 0. -1.
         11    1    4    4    0    0  0.10592236852E-01  0.49743354366E-01 -0.25661297195E-01  0.56968061927E-01  0.51100000000E-03 0.  1.
</event>
<event>
 8    1  0.1094134E+005  0.1043930E+01  0.7957747E-01            NaN
         13   -1    0    0    0    0  0.00000000000E+00  0.00000000000E+00  0.74505805969E-08  0.10566000000E+00  0.10566000000E+00 0.  1.
     999900   -1    0    0    0    0 -0.00000000000E+00 -0.00000000000E+00 -0.74505805969E-08  0.93827000000E+00  0.93827000000E+00 0.  1.
     999902    2    1    2    0    0  0.11892776314E-01  0.13205609671E-01  0.16509303128E-01  0.10196733855E+01  0.10193848291E+01 0.  0.
     999903    2    3    3    0    0  0.54972406574E-01 -0.49000790152E-01 -0.10427804332E+00  0.12820545354E+00  0.11818844233E-01 0.  0.
         14    1    1    2    0    0 -0.11892776314E-01 -0.13205609671E-01 -0.16509303128E-01  0.24256614459E-01  0.00000000000E+00 0. -1.
     999901    1    3    3    0    0 -0.43079630261E-01  0.62206399822E-01  0.12078734645E+00  0.89146793200E+00  0.88000000000E+00 0. -1.
        -11    1    4    4    0    0  0.14333341588E-01 -0.19324107710E-01 -0.29497892566E-01  0.38069050510E-01  0.51100000000E-03 0. -1.
         11    1    4    4    0    0  0.40639064986E-01 -0.29676682442E-01 -0.74780150754E-01  0.90136403031E-01  0.51100000000E-03 0.  1.
</event>
<event>
 8    1  0.1094134E+005  0.1043930E+01  0.7957747E-01            NaN
         13   -1    0    0    0    0  0.00000000000E+00  0.00000000000E+00  0.74505805969E-08  0.10566000000E+00  0.10566000000E+00 0.  1.
     999900   -1    0    0    0    0 -0.00000000000E+00 -0.00000000000E+00 -0.74505805969E-08  0.93827000000E+00  0.93827000000E+00 0. -1.
     999902    2    1    2    0    0  0.43982704325E-02  0.14043685426E-01  0.19190494007E-01  0.10197464324E+01  0.10194596321E+01 0.  0.
     999903    2    3    3    0    0  0.12785818859E+00  0.18474651779E-01  0.75869003362E-02  0.13104140355E+00  0.20621814658E-01 0.  0.
         14    1    1    2    0    0 -0.43982704325E-02 -0.14043685426E-01 -0.19190494007E-01  0.24183567631E-01  0.00000000000E+00 0. -1.
     999901    1    3    3    0    0 -0.12345991816E+00 -0.44309663527E-02  0.11603593671E-01  0.88870502882E+00  0.88000000000E+00 0.  1.
        -11    1    4    4    0    0  0.29710253830E-01 -0.42264898918E-02  0.35141755913E-02  0.30218751638E-01  0.51100000000E-03 0.  1.
         11    1    4    4    0    0  0.98147934764E-01  0.22701141670E-01  0.40727247450E-02  0.10082265192E+00  0.51100000000E-03 0. -1.
</event>
<event>
 8    1  0.1094134E+005  0.1043930E+01  0.7957747E-01            NaN
         13   -1    0    0    0    0  0.00000000000E+00  0.00000000000E+00  0.74505805969E-08  0.10566000000E+00  0.10566000000E+00 0.  1.
     999900   -1    0    0    0    0 -0.00000000000E+00 -0.00000000000E+00 -0.74505805969E-08  0.93827000000E+00  0.93827000000E+00 0. -1.
     999902    2    1    2    0    0  0.48752497846E-02 -0.23433642607E-01  0.27240832058E-02  0.10198400790E+01  0.10195555220E+01 0.  0.
     999903    2    3    3    0    0 -0.68233410476E-01 -0.95654442060E-01 -0.56216357111E-01  0.13190162637E+00  0.20789171279E-01 0.  0.
         14    1    1    2    0    0 -0.48752497846E-02  0.23433642607E-01 -0.27240832058E-02  0.24089921038E-01  0.00000000000E+00 0. -1.
     999901    1    3    3    0    0  0.73108660260E-01  0.72220799453E-01  0.58940440317E-01  0.88793845259E+00  0.88000000000E+00 0.  1.
        -11    1    4    4    0    0 -0.64123611693E-01 -0.78779777031E-01 -0.51546512791E-01  0.11390959111E+00  0.51100000000E-03 0.  1.
         11    1    4    4    0    0 -0.41097987827E-02 -0.16874665029E-01 -0.46698443198E-02  0.17992035262E-01  0.51100000000E-03 0. -1.
</event>
<event>
 8    1  0.1094134E+005  0.1043930E+01  0.7957747E-01            NaN
         13   -1    0    0    0    0  0.00000000000E+00  0.00000000000E+00  0.74505805969E-08  0.10566000000E+00  0.10566000000E+00 0.  1.
     999900   -1    0    0    0    0 -0.00000000000E+00 -0.00000000000E+00 -0.74505805969E-08  0.93827000000E+00  0.93827000000E+00 0.  1.
     999902    2    1    2    0    0  0.14015345854E-01  0.19268157691E-01 -0.12053971920E-01  0.10172281263E+01  0.10168776086E+01 0.  0.
     999903    2    3    3    0    0 -0.82015288382E-01 -0.91271894716E-01 -0.13835072075E-01  0.12512714647E+00  0.20207109387E-01 0.  0.
         14    1    1    2    0    0 -0.14015345854E-01 -0.19268157691E-01  0.12053971920E-01  0.26701873704E-01  0.00000000000E+00 0.  1.
     999901    1    3    3    0    0  0.96030634236E-01  0.11054005241E+00  0.17811001549E-02  0.89210097983E+00  0.88000000000E+00 0. -1.
        -11    1    4    4    0    0 -0.38224290581E-01 -0.45639455466E-01  0.32181367147E-02  0.59621085285E-01  0.51100000000E-03 0. -1.
         11    1    4    4    0    0 -0.43790997801E-01 -0.45632439250E-01 -0.17053208790E-01  0.65506061180E-01  0.51100000000E-03 0.  1.
</event>
<event>
 8    1  0.1094134E+005  0.1043930E+01  0.7957747E-01            NaN
         13   -1    0    0    0    0  0.00000000000E+00  0.00000000000E+00  0.74505805969E-08  0.10566000000E+00  0.10566000000E+00 0.  1.
     999900   -1    0    0    0    0 -0.00000000000E+00 -0.00000000000E+00 -0.74505805969E-08  0.93827000000E+00  0.93827000000E+00 0. -1.
     999902    2    1    2    0    0  0.79171587943E-02 -0.19910510155E-01  0.10541796599E-01  0.10200503163E+01  0.10197707627E+01 0.  0.
     999903    2    3    3    0    0  0.59417782035E-01 -0.85473595614E-01 -0.78127750299E-01  0.13167363892E+00  0.19944759973E-01 0.  0.
         14    1    1    2    0    0 -0.79171587943E-02  0.19910510155E-01 -0.10541796599E-01  0.23879683698E-01  0.00000000000E+00 0. -1.
     999901    1    3    3    0    0 -0.51500623241E-01  0.65563085460E-01  0.88669546898E-01  0.88837667738E+00  0.88000000000E+00 0.  1.
        -11    1    4    4    0    0  0.22696467951E-01 -0.38910515230E-01 -0.45318788967E-01  0.63900012577E-01  0.51100000000E-03 0.  1.
         11    1    4    4    0    0  0.36721314084E-01 -0.46563080385E-01 -0.32808961332E-01  0.67773626342E-01  0.51100000000E-03 0. -1.
</event>
<event>
 8    1  0.1094134E+005  0.1043930E+01  0.7957747E-01            NaN
         13   -1    0    0    0    0  0.00000000000E+00  0.00000000000E+00  0.74505805969E-08  0.10566000000E+00  0.10566000000E+00 0. -1.
     999900   -1    0    0    0    0 -0.00000000000E+00 -0.00000000000E+00 -0.74505805969E-08  0.93827000000E+00  0.93827000000E+00 0.  1.
     999902    2    1    2    0    0 -0.29945629159E-01  0.46590171266E-02 -0.69954674029E-02  0.10128272074E+01  0.10123495287E+01 0.  0.
     999903    2    3    3    0    0 -0.11020521142E+00 -0.16945633428E-01 -0.58440620762E-01  0.12741489364E+00  0.19669922441E-01 0.  0.
         14    1    1    2    0    0  0.29945629159E-01 -0.46590171266E-02  0.69954674029E-02  0.31102792648E-01  0.00000000000E+00 0. -1.
     999901    1    3    3    0    0  0.80259582263E-01  0.21604650554E-01  0.51445153359E-01  0.88541231371E+00  0.88000000000E+00 0.  1.
        -11    1    4    4    0    0 -0.76338337507E-01 -0.19850301679E-01 -0.45353304806E-01  0.90987689430E-01  0.51100000000E-03 0. -1.
         11    1    4    4    0    0 -0.33866873916E-01  0.29046682513E-02 -0.13087315957E-01  0.36427204208E-01  0.51100000000E-03 0.  1.
</event>
<event>
 8    1  0.1094134E+005  0.1043930E+01  0.7957747E-01            NaN
         13   -1    0    0    0    0  0.00000000000E+00  0.00000000000E+00  0.74505805969E-08  0.10566000000E+00  0.10566000000E+00 0.  1.
     999900   -1    0    0    0    0 -0.00000000000E+00 -0.00000000000E+00 -0.74505805969E-08  0.93827000000E+00  0.93827000000E+00 0.  1.
     999902    2    1    2    0    0 -0.14457959611E-01 -0.93584295991E-02  0.16124340687E-01  0.10203374765E+01  0.10200646837E+01 0.  0.
     999903    2    3    3    0    0 -0.61953614334E-01  0.40704322045E-01  0.10834668776E+00  0.13283137649E+00  0.20250374554E-01 0.  0.
         14    1    1    2    0    0  0.14457959611E-01  0.93584295991E-02 -0.16124340687E-01  0.23592523461E-01  0.00000000000E+00 0.  1.
     999901    1    3    3    0    0  0.47495654723E-01 -0.50062751644E-01 -0.92222347075E-01  0.88750610005E+00  0.88000000000E+00 0.  1.
        -11    1    4    4    0    0 -0.19980827851E-01  0.24880065584E-01  0.47876589653E-01  0.57538509738E-01  0.51100000000E-03 0.  1.
         11    1    4    4    0    0 -0.41972786483E-01  0.15824256460E-01  0.60470098110E-01  0.75292866755E-01  0.51100000000E-03 0. -1.
</event>
<event>
 8    1  0.1094134E+005  0.1043930E+01  0.7957747E-01            NaN
         13   -1    0    0    0    0  0.00000000000E+00  0.00000000000E+00  0.74505805969E-08  0.10566000000E+00  0.10566000000E+00 0.  1.
     999900   -1    0    0    0    0 -0.00000000000E+00 -0.00000000000E+00 -0.74505805969E-08  0.93827000000E+00  0.93827000000E+00 0.  1.
     999902    2    1    2    0    0  0.17199866971E-01  0.15602100193E-01 -0.10925697451E-01  0.10182661768E+01  0.10179427170E+01 0.  0.
     999903    2    3    3    0    0  0.11561180169E+00  0.44221512642E-01 -0.40664472080E-01  0.13181912576E+00  0.20026276632E-01 0.  0.
         14    1    1    2    0    0 -0.17199866971E-01 -0.15602100193E-01  0.10925697451E-01  0.25663823158E-01  0.00000000000E+00 0.  1.
     999901    1    3    3    0    0 -0.98411934716E-01 -0.28619412449E-01  0.29738774630E-01  0.88644705109E+00  0.88000000000E+00 0. -1.
        -11    1    4    4    0    0  0.82051583601E-01  0.21994236086E-01 -0.30900130869E-01  0.90395176869E-01  0.51100000000E-03 0. -1.
         11    1    4    4    0    0  0.33560218086E-01  0.22227276556E-01 -0.97643412116E-02  0.41423948887E-01  0.51100000000E-03 0.  1.
</event>
<event>
 8    1  0.1094134E+005  0.1043930E+01  0.7957747E-01            NaN
         13   -1    0    0    0    0  0.00000000000E+00  0.00000000000E+00  0.74505805969E-08  0.10566000000E+00  0.10566000000E+00 0.  1.
     999900   -1    0    0    0    0 -0.00000000000E+00 -0.00000000000E+00 -0.74505805969E-08  0.93827000000E+00  0.93827000000E+00 0. -1.
     999902    2    1    2    0    0  0.68171535096E-02  0.21787618262E-01 -0.33357716229E-02  0.10208583450E+01  0.10205975991E+01 0.  0.
     999903    2    3    3    0    0 -0.38302364299E-01 -0.12016357569E+00 -0.11232860411E-01  0.12830679112E+00  0.20738839444E-01 0.  0.
         14    1    1    2    0    0 -0.68171535096E-02 -0.21787618262E-01  0.33357716229E-02  0.23071654986E-01  0.00000000000E+00 0.  1.
     999901    1    3    3    0    0  0.45119517809E-01  0.14195119395E+00  0.78970887882E-02  0.89255155390E+00  0.88000000000E+00 0.  1.
        -11    1    4    4    0    0 -0.99043349115E-02 -0.55259563982E-01 -0.12203822331E-01  0.57453543512E-01  0.51100000000E-03 0.  1.
         11    1    4    4    0    0 -0.28398029388E-01 -0.64904011703E-01  0.97096192036E-03  0.70853247606E-01  0.51100000000E-03 0. -1.
</event>
<event>
 8    1  0.1401538E+005  0.1043930E+01  0.7957747E-01            NaN
         13   -1    0    0    0    0  0.00000000000E+00  0.00000000000E+00  0.74505805969E-08  0.10566000000E+00  0.10566000000E+00 0. -1.
     999900   -1    0    0    0    0 -0.00000000000E+00 -0.00000000000E+00 -0.74505805969E-08  0.93827000000E+00  0.93827000000E+00 0.  1.
     999902    2    1    2    0    0 -0.22025647789E-01  0.59910639511E-02 -0.62845294261E-02  0.10202547531E+01  0.10199800213E+01 0.  0.
     999903    2    3    3    0    0 -0.89787646458E-01 -0.41601752509E-01  0.84540391295E-01  0.13171329039E+00  0.20218452913E-01 0.  0.
         14    1    1    2    0    0  0.22025647789E-01 -0.59910639511E-02  0.62845294261E-02  0.23675246945E-01  0.00000000000E+00 0. -1.
     999901    1    3    3    0    0  0.67761998668E-01  0.47592816460E-01 -0.90824920721E-01  0.88854146266E+00  0.88000000000E+00 0.  1.
        -11    1    4    4    0    0 -0.28777979447E-01 -0.17638117506E-01  0.40593089519E-01  0.52795220692E-01  0.51100000000E-03 0.  1.
         11    1    4    4    0    0 -0.61009667010E-01 -0.23963635003E-01  0.43947301776E-01  0.78918069703E-01  0.51100000000E-03 0. -1.
</event>
<event>
 8    1  0.1094134E+005  0.1043930E+01  0.7957747E-01            NaN
         13   -1    0    0    0    0  0.00000000000E+00  0.00000000000E+00  0.74505805969E-08  0.10566000000E+00  0.10566000000E+00 0. -1.
     999900   -1    0    0    0    0 -0.00000000000E+00 -0.00000000000E+00 -0.74505805969E-08  0.93827000000E+00  0.93827000000E+00 0. -1.
     999902    2    1    2    0    0  0.96955482543E-02 -0.18317656503E-01 -0.86234804646E-03  0.10231867158E+01  0.10229764276E+01 0.  0.
     999903    2    3    3    0    0  0.27707273216E-01  0.80088723963E-01  0.99072545318E-01  0.13189819860E+00  0.19996721338E-01 0.  0.
         14    1    1    2    0    0 -0.96955482543E-02  0.18317656503E-01  0.86234804646E-03  0.20743284211E-01  0.00000000000E+00 0. -1.
     999901    1    3    3    0    0 -0.18011724962E-01 -0.98406380466E-01 -0.99934893364E-01  0.89128851718E+00  0.88000000000E+00 0. -1.
        -11    1    4    4    0    0  0.39094849595E-02  0.41799030791E-01  0.47195956851E-01  0.63167733154E-01  0.51100000000E-03 0. -1.
         11    1    4    4    0    0  0.23797788257E-01  0.38289693172E-01  0.51876588467E-01  0.68730465451E-01  0.51100000000E-03 0.  1.
</event>
<event>
 8    1  0.1094134E+005  0.1043930E+01  0.7957747E-01            NaN
         13   -1    0    0    0    0  0.00000000000E+00  0.00000000000E+00  0.74505805969E-08  0.10566000000E+00  0.10566000000E+00 0.  1.
     999900   -1    0    0    0    0 -0.00000000000E+00 -0.00000000000E+00 -0.74505805969E-08  0.93827000000E+00  0.93827000000E+00 0.  1.
     999902    2    1    2    0    0 -0.17398231866E-01 -0.56795371178E-02  0.14347053514E-01  0.10206750315E+01  0.10204100776E+01 0.  0.
     999903    2    3    3    0    0  0.33517519750E-01 -0.76220302998E-01 -0.97006930960E-01  0.12940171584E+00  0.20037482073E-01 0.  0.
         14    1    1    2    0    0  0.17398231866E-01  0.56795371178E-02 -0.14347053514E-01  0.23254968468E-01  0.00000000000E+00 0. -1.
     999901    1    3    3    0    0 -0.50915751616E-01  0.70540765880E-01  0.11135398447E+00  0.89127331570E+00  0.88000000000E+00 0.  1.
        -11    1    4    4    0    0  0.10816532264E-03 -0.21345726488E-01 -0.22459172636E-01  0.30989148028E-01  0.51100000000E-03 0.  1.
         11    1    4    4    0    0  0.33409354427E-01 -0.54874576510E-01 -0.74547758324E-01  0.98412567808E-01  0.51100000000E-03 0. -1.
</event>
<event>
 8    1  0.1094134E+005  0.1043930E+01  0.7957747E-01            NaN
         13   -1    0    0    0    0  0.00000000000E+00  0.00000000000E+00  0.74505805969E-08  0.10566000000E+00  0.10566000000E+00 0. -1.
     999900   -1    0    0    0    0 -0.00000000000E+00 -0.00000000000E+00 -0.74505805969E-08  0.93827000000E+00  0.93827000000E+00 0.  1.
     999902    2    1    2    0    0 -0.17785795917E-01  0.93883380827E-03 -0.15953293244E-01  0.10200192595E+01  0.10197389697E+01 0.  0.
     999903    2    3    3    0    0  0.33149428947E-01 -0.66003906571E-01 -0.10677062172E+00  0.13135536648E+00  0.19971637886E-01 0.  0.
         14    1    1    2    0    0  0.17785795917E-01 -0.93883380827E-03  0.15953293244E-01  0.23910740487E-01  0.00000000000E+00 0. -1.
     999901    1    3    3    0    0 -0.50935224864E-01  0.66942740380E-01  0.90817328474E-01  0.88866389303E+00  0.88000000000E+00 0. -1.
        -11    1    4    4    0    0  0.33103748356E-03 -0.15656452294E-01 -0.30120319357E-01  0.33951860677E-01  0.51100000000E-03 0. -1.
         11    1    4    4    0    0  0.32818391463E-01 -0.50347454277E-01 -0.76650302361E-01  0.97403505807E-01  0.51100000000E-03 0.  1.
</event>
<event>
 8    1  0.1094134E+005  0.1043930E+01  0.7957747E-01            NaN
         13   -1    0    0    0    0  0.00000000000E+00  0.00000000000E+00  0.74505805969E-08  0.10566000000E+00  0.10566000000E+00 0.  1.
     999900   -1    0    0    0    0 -0.00000000000E+00 -0.00000000000E+00 -0.74505805969E-08  0.93827000000E+00  0.93827000000E+00 0.  1.
     999902    2    1    2    0    0 -0.19732940259E-01 -0.68386828311E-02  0.11557371384E-01  0.10200609961E+01  0.10197816955E+01 0.  0.
     999903    2    3    3    0    0  0.66450985148E-01  0.99317421037E-01  0.43965105885E-01  0.12891171082E+00  0.20139888349E-01 0.  0.
         14    1    1    2    0    0  0.19732940259E-01  0.68386828311E-02 -0.11557371384E-01  0.23869003906E-01  0.00000000000E+00 0.  1.
     999901    1    3    3    0    0 -0.86183925407E-01 -0.10615610387E+00 -0.32407734501E-01  0.89114928527E+00  0.88000000000E+00 0.  1.
        -11    1    4    4    0    0  0.25850843598E-01  0.24235888941E-01  0.82669803211E-02  0.36390225503E-01  0.51100000000E-03 0.  1.
         11    1    4    4    0    0  0.40600141550E-01  0.75081532096E-01  0.35698125564E-01  0.92521485318E-01  0.51100000000E-03 0. -1.
</event>
<event>
 8    1  0.1094134E+005  0.1043930E+01  0.7957747E-01            NaN
         13   -1    0    0    0    0  0.00000000000E+00  0.00000000000E+00  0.74505805969E-08  0.10566000000E+00  0.10566000000E+00 0.  1.
     999900   -1    0    0    0    0 -0.00000000000E+00 -0.00000000000E+00 -0.74505805969E-08  0.93827000000E+00  0.93827000000E+00 0. -1.
     999902    2    1    2    0    0  0.45893846178E-02 -0.23389786486E-01  0.64483112118E-02  0.10192373841E+01  0.10189382316E+01 0.  0.
     999903    2    3    3    0    0 -0.22505431290E-01 -0.65038340740E-01 -0.10780164834E+00  0.13046194317E+00  0.25741853628E-01 0.  0.
         14    1    1    2    0    0 -0.45893846178E-02  0.23389786486E-01 -0.64483112118E-02  0.24692615910E-01  0.00000000000E+00 0.  1.
     999901    1    3    3    0    0  0.27094815908E-01  0.41648554254E-01  0.11424995955E+00  0.88877544092E+00  0.88000000000E+00 0.  1.
        -11    1    4    4    0    0 -0.22308558738E-01 -0.33291709767E-01 -0.73525706269E-01  0.83739478954E-01  0.51100000000E-03 0.  1.
         11    1    4    4    0    0 -0.19687255229E-03 -0.31746630972E-01 -0.34275942069E-01  0.46722464218E-01  0.51100000000E-03 0. -1.
</event>
<event>
 8    1  0.1094134E+005  0.1043930E+01  0.7957747E-01            NaN
         13   -1    0    0    0    0  0.00000000000E+00  0.00000000000E+00  0.74505805969E-08  0.10566000000E+00  0.10566000000E+00 0. -1.
     999900   -1    0    0    0    0 -0.00000000000E+00 -0.00000000000E+00 -0.74505805969E-08  0.93827000000E+00  0.93827000000E+00 0.  1.
     999902    2    1    2    0    0 -0.16903755560E-01  0.45768481768E-02  0.16311003097E-01  0.10199981527E+01  0.10197173620E+01 0.  0.
     999903    2    3    3    0    0  0.18454967073E-02 -0.32292303765E-01 -0.12237526221E+00  0.12817712304E+00  0.20185919124E-01 0.  0.
         14    1    1    2    0    0  0.16903755560E-01 -0.45768481768E-02 -0.16311003097E-01  0.23931847261E-01  0.00000000000E+00 0.  1.
     999901    1    3    3    0    0 -0.18749252267E-01  0.36869151942E-01  0.13868626530E+00  0.89182102970E+00  0.88000000000E+00 0. -1.
        -11    1    4    4    0    0  0.42265078310E-02 -0.11549649663E-01 -0.79925468616E-01  0.80867789819E-01  0.51100000000E-03 0.  1.
         11    1    4    4    0    0 -0.23810111237E-02 -0.20742654102E-01 -0.42449793591E-01  0.47309333224E-01  0.51100000000E-03 0. -1.
</event>
<event>
 8    1  0.1094134E+005  0.1043930E+01  0.7957747E-01            NaN
         13   -1    0    0    0    0  0.00000000000E+00  0.00000000000E+00  0.74505805969E-08  0.10566000000E+00  0.10566000000E+00 0. -1.
     999900   -1    0    0    0    0 -0.00000000000E+00 -0.00000000000E+00 -0.74505805969E-08  0.93827000000E+00  0.93827000000E+00 0.  1.
     999902    2    1    2    0    0 -0.65631743547E-03  0.23890231383E-01 -0.53237567474E-02  0.10194449782E+01  0.10191508952E+01 0.  0.
     999903    2    3    3    0    0  0.83328281567E-01  0.75930734147E-01 -0.65465730288E-01  0.13187600407E+00  0.19910793836E-01 0.  0.
         14    1    1    2    0    0  0.65631743547E-03 -0.23890231383E-01  0.53237567474E-02  0.24485021830E-01  0.00000000000E+00 0.  1.
     999901    1    3    3    0    0 -0.83984599003E-01 -0.52040502764E-01  0.60141973540E-01  0.88756897410E+00  0.88000000000E+00 0. -1.
        -11    1    4    4    0    0  0.35763846583E-01  0.24849711512E-01 -0.34288857119E-01  0.55430566731E-01  0.51100000000E-03 0.  1.
         11    1    4    4    0    0  0.47564434984E-01  0.51081022636E-01 -0.31176873169E-01  0.76445437342E-01  0.51100000000E-03 0. -1.
</event>
<event>
 8    1  0.1094134E+005  0.1043930E+01  0.7957747E-01            NaN
         13   -1    0    0    0    0  0.00000000000E+00  0.00000000000E+00  0.74505805969E-08  0.10566000000E+00  0.10566000000E+00 0.  1.
     999900   -1    0    0    0    0 -0.00000000000E+00 -0.00000000000E+00 -0.74505805969E-08  0.93827000000E+00  0.93827000000E+00 0. -1.
     999902    2    1    2    0    0 -0.17892373872E-01 -0.86768978511E-02 -0.13052230712E-01  0.10201437366E+01  0.10198663918E+01 0.  0.
     999903    2    3    3    0    0  0.76607694263E-02 -0.52552314650E-01 -0.11939284268E+00  0.13228882669E+00  0.20621581395E-01 0.  0.
         14    1    1    2    0    0  0.17892373872E-01  0.86768978511E-02  0.13052230712E-01  0.23786263381E-01  0.00000000000E+00 0.  1.
     999901    1    3    3    0    0 -0.25553143299E-01  0.43875416798E-01  0.10634061197E+00  0.88785490993E+00  0.88000000000E+00 0.  1.
        -11    1    4    4    0    0  0.18504611304E-02 -0.46954563711E-01 -0.86762249942E-01  0.98671700075E-01  0.51100000000E-03 0. -1.
         11    1    4    4    0    0  0.58103082959E-02 -0.55977509388E-02 -0.32630592742E-01  0.33617126614E-01  0.51100000000E-03 0.  1.
</event>
<event>
 8    1  0.1094134E+005  0.1043930E+01  0.7957747E-01            NaN
         13   -1    0    0    0    0  0.00000000000E+00  0.00000000000E+00  0.74505805969E-08  0.10566000000E+00  0.10566000000E+00 0.  1.
     999900   -1    0    0    0    0 -0.00000000000E+00 -0.00000000000E+00 -0.74505805969E-08  0.93827000000E+00  0.93827000000E+00 0.  1.
     999902    2    1    2    0    0 -0.10078364063E-01 -0.11620315325E-01 -0.17401688254E-01  0.10207044988E+01  0.10204402236E+01 0.  0.
     999903    2    3    3    0    0 -0.42460219104E-01 -0.11041718460E+00 -0.58192039881E-01  0.13364573037E+00  0.21909880854E-01 0.  0.
         14    1    1    2    0    0  0.10078364063E-01  0.11620315325E-01  0.17401688254E-01  0.23225501168E-01  0.00000000000E+00 0.  1.
     999901    1    3    3    0    0  0.32381855042E-01  0.98796869279E-01  0.40790351627E-01  0.88705876846E+00  0.88000000000E+00 0. -1.
        -11    1    4    4    0    0 -0.14578326422E-01 -0.29054036637E-01 -0.60595454587E-02  0.33070286639E-01  0.51100000000E-03 0.  1.
         11    1    4    4    0    0 -0.27881892682E-01 -0.81363147966E-01 -0.52132494422E-01  0.10057544373E+00  0.51100000000E-03 0. -1.
</event>
<event>
 8    1  0.1094134E+005  0.1043930E+01  0.7957747E-01            NaN
         13   -1    0    0    0    0  0.00000000000E+00  0.00000000000E+00  0.74505805969E-08  0.10566000000E+00  0.10566000000E+00 0.  1.
     999900   -1    0    0    0    0 -0.00000000000E+00 -0.00000000000E+00 -0.74505805969E-08  0.93827000000E+00  0.93827000000E+00 0. -1.
     999902    2    1    2    0    0  0.19907807944E-01  0.36753597592E-03 -0.13037860094E-01  0.10201299644E+01  0.10198522945E+01 0.  0.
     999903    2    3    3    0    0 -0.77985274094E-01  0.10049931758E+00 -0.10958542135E-01  0.12905547099E+00  0.18799179171E-01 0.  0.
         14    1    1    2    0    0 -0.19907807944E-01 -0.36753597592E-03  0.13037860094E-01  0.23800035624E-01  0.00000000000E+00 0.  1.
     999901    1    3    3    0    0  0.97893082038E-01 -0.10013178160E+00 -0.20793179594E-02  0.89107449339E+00  0.88000000000E+00 0.  1.
        -11    1    4    4    0    0 -0.42100674481E-01  0.62423247950E-01 -0.14236243326E-01  0.76629370489E-01  0.51100000000E-03 0. -1.
         11    1    4    4    0    0 -0.35884599612E-01  0.38076069630E-01  0.32777011913E-02  0.52426100503E-01  0.51100000000E-03 0.  1.
</event>
<event>
 8    1  0.1094134E+005  0.1043930E+01  0.7957747E-01            NaN
         13   -1    0    0    0    0  0.00000000000E+00  0.00000000000E+00  0.74505805969E-08  0.10566000000E+00  0.10566000000E+00 0. -1.
     999900   -1    0    0    0    0 -0.00000000000E+00 -0.00000000000E+00 -0.74505805969E-08  0.93827000000E+00  0.93827000000E+00 0.  1.
     999902    2    1    2    0    0  0.15153413961E-01  0.19558566358E-01  0.14765259857E-01  0.10151172186E+01  0.10147082296E+01 0.  0.
     999903    2    3    3    0    0  0.11684078614E+00  0.43863040386E-01  0.24534820255E-01  0.12887432108E+00  0.20758073408E-01 0.  0.
         14    1    1    2    0    0 -0.15153413961E-01 -0.19558566358E-01 -0.14765259857E-01  0.28812781387E-01  0.00000000000E+00 0.  1.
     999901    1    3    3    0    0 -0.10168737218E+00 -0.24304474028E-01 -0.97695603987E-02  0.88624289753E+00  0.88000000000E+00 0. -1.
        -11    1    4    4    0    0  0.94422813748E-01  0.27337976066E-01  0.23114703030E-01  0.10098308427E+00  0.51100000000E-03 0. -1.
         11    1    4    4    0    0  0.22417972389E-01  0.16525064320E-01  0.14201172250E-02  0.27891236810E-01  0.51100000000E-03 0.  1.
</event>
<event>
 8    1  0.1094134E+005  0.1043930E+01  0.7957747E-01            NaN
         13   -1    0    0    0    0  0.00000000000E+00  0.00000000000E+00  0.74505805969E-08  0.10566000000E+00  0.10566000000E+00 0. -1.
     999900   -1    0    0    0    0 -0.00000000000E+00 -0.00000000000E+00 -0.74505805969E-08  0.93827000000E+00  0.93827000000E+00 0.  1.
     999902    2    1    2    0    0  0.24432494150E-01 -0.81658906246E-02 -0.42240649741E-02  0.10178249954E+01  0.10174901719E+01 0.  0.
     999903    2    3    3    0    0  0.62567167855E-01  0.79146901608E-01  0.77734094017E-01  0.12889591114E+00  0.19816256157E-01 0.  0.
         14    1    1    2    0    0 -0.24432494150E-01  0.81658906246E-02  0.42240649741E-02  0.26105004597E-01  0.00000000000E+00 0. -1.
     999901    1    3    3    0    0 -0.38134673704E-01 -0.87312792233E-01 -0.81958158991E-01  0.88892908426E+00  0.88000000000E+00 0.  1.
        -11    1    4    4    0    0  0.43693067952E-01  0.40047499131E-01  0.41690885517E-01  0.72465698298E-01  0.51100000000E-03 0.  1.
         11    1    4    4    0    0  0.18874099903E-01  0.39099402477E-01  0.36043208500E-01  0.56430212840E-01  0.51100000000E-03 0. -1.
</event>
<event>
 8    1  0.1094134E+005  0.1043930E+01  0.7957747E-01            NaN
         13   -1    0    0    0    0  0.00000000000E+00  0.00000000000E+00  0.74505805969E-08  0.10566000000E+00  0.10566000000E+00 0. -1.
     999900   -1    0    0    0    0 -0.00000000000E+00 -0.00000000000E+00 -0.74505805969E-08  0.93827000000E+00  0.93827000000E+00 0.  1.
     999902    2    1    2    0    0 -0.50734620460E-02 -0.84667672449E-02  0.21416777646E-01  0.10203481313E+01  0.10200755877E+01 0.  0.
     999903    2    3    3    0    0  0.11740196255E+00 -0.18956038651E-01 -0.40916736747E-01  0.12962049538E+00  0.31380587407E-01 0.  0.
         14    1    1    2    0    0  0.50734620460E-02  0.84667672449E-02 -0.21416777646E-01  0.23581868659E-01  0.00000000000E+00 0.  1.
     999901    1    3    3    0    0 -0.12247542459E+00  0.10489271406E-01  0.62333514393E-01  0.89072763596E+00  0.88000000000E+00 0. -1.
        -11    1    4    4    0    0  0.84608368524E-01 -0.47240484614E-02 -0.16518869206E-01  0.86336706093E-01  0.51100000000E-03 0.  1.
         11    1    4    4    0    0  0.32793594023E-01 -0.14231990190E-01 -0.24397867542E-01  0.43283789290E-01  0.51100000000E-03 0. -1.
</event>
<event>
 8    1  0.1094134E+005  0.1043930E+01  0.7957747E-01            NaN
         13   -1    0    0    0    0  0.00000000000E+00  0.00000000000E+00  0.74505805969E-08  0.10566000000E+00  0.10566000000E+00 0. -1.
     999900   -1    0    0    0    0 -0.00000000000E+00 -0.00000000000E+00 -0.74505805969E-08  0.93827000000E+00  0.93827000000E+00 0. -1.
     999902    2    1    2    0    0  0.22172535431E-01  0.16062770265E-02  0.77707549162E-02  0.10203803485E+01  0.10201085577E+01 0.  0.
     999903    2    3    3    0    0 -0.79092489361E-01 -0.22066348767E-01  0.98102491986E-01  0.12966444477E+00  0.21124007240E-01 0.  0.
         14    1    1    2    0    0 -0.22172535431E-01 -0.16062770265E-02 -0.77707549162E-02  0.23549651490E-01  0.00000000000E+00 0. -1.
     999901    1    3    3    0    0  0.10126502479E+00  0.23672625794E-01 -0.90331737070E-01  0.89071590374E+00  0.88000000000E+00 0. -1.
        -11    1    4    4    0    0 -0.31230233505E-01 -0.15337127671E-01  0.28791159232E-01  0.45163557664E-01  0.51100000000E-03 0. -1.
         11    1    4    4    0    0 -0.47862255856E-01 -0.67292210963E-02  0.69311332754E-01  0.84500887104E-01  0.51100000000E-03 0.  1.
</event>
<event>
 8    1  0.1094134E+005  0.1043930E+01  0.7957747E-01            NaN
         13   -1    0    0    0    0  0.00000000000E+00  0.00000000000E+00  0.74505805969E-08  0.10566000000E+00  0.10566000000E+00 0. -1.
     999900   -1    0    0    0    0 -0.00000000000E+00 -0.00000000000E+00 -0.74505805969E-08  0.93827000000E+00  0.93827000000E+00 0.  1.
     999902    2    1    2    0    0 -0.12102388181E-02 -0.14498806857E-01  0.18634877332E-01  0.10202881149E+01  0.10200141659E+01 0.  0.
     999903    2    3    3    0    0 -0.80325988429E-01  0.87228859192E-01  0.51196247611E-01  0.13030605737E+00  0.17247449808E-01 0.  0.
         14    1    1    2    0    0  0.12102388181E-02  0.14498806857E-01 -0.18634877332E-01  0.23641885108E-01  0.00000000000E+00 0.  1.
     999901    1    3    3    0    0  0.79115749611E-01 -0.10172766605E+00 -0.32561370279E-01  0.88998205752E+00  0.88000000000E+00 0. -1.
        -11    1    4    4    0    0 -0.77933433109E-01  0.77979546516E-01  0.46610055985E-01  0.11969623265E+00  0.51100000000E-03 0.  1.
         11    1    4    4    0    0 -0.23925553202E-02  0.92493126759E-02  0.45861916261E-02  0.10609824719E-01  0.51100000000E-03 0. -1.
</event>
<event>
 8    1  0.1094134E+005  0.1043930E+01  0.7957747E-01            NaN
         13   -1    0    0    0    0  0.00000000000E+00  0.00000000000E+00  0.74505805969E-08  0.10566000000E+00  0.10566000000E+00 0. -1.
     999900   -1    0    0    0    0 -0.00000000000E+00 -0.00000000000E+00 -0.74505805969E-08  0.93827000000E+00  0.93827000000E+00 0. -1.
     999902    2    1    2    0    0 -0.16756824301E-01  0.16181397635E-01  0.55280646690E-02  0.10199886490E+01  0.10197076325E+01 0.  0.
     999903    2    3    3    0    0 -0.66501072196E-01  0.45819364340E-01  0.10337560591E+00  0.13267413844E+00  0.19852061949E-01 0.  0.
         14    1    1    2    0    0  0.16756824301E-01 -0.16181397635E-01 -0.55280646690E-02  0.23941351028E-01  0.00000000000E+00 0. -1.
     999901    1    3    3    0    0  0.49744247895E-01 -0.29637966705E-01 -0.97847541236E-01  0.88731451053E+00  0.88000000000E+00 0. -1.
        -11    1    4    4    0    0 -0.50729760572E-02  0.83503997690E-02  0.21821263550E-01  0.23914282893E-01  0.51100000000E-03 0.  1.
         11    1    4    4    0    0 -0.61428096139E-01  0.37468964571E-01  0.81554342356E-01  0.10875985555E+00  0.51100000000E-03 0. -1.
</event>
<event>
 8    1  0.1094134E+005  0.1043930E+01  0.7957747E-01            NaN
         13   -1    0    0    0    0  0.00000000000E+00  0.00000000000E+00  0.74505805969E-08  0.10566000000E+00  0.10566000000E+00 0. -1.
     999900   -1    0    0    0    0 -0.00000000000E+00 -0.00000000000E+00 -0.74505805969E-08  0.93827000000E+00  0.93827000000E+00 0.  1.
     999902    2    1    2    0    0  0.77449729179E-02  0.19074958421E-01 -0.11395348520E-01  0.10203993261E+01  0.10201279783E+01 0.  0.
     999903    2    3    3    0    0  0.10787577224E-01 -0.12279502527E+00  0.28650872416E-01  0.12813252214E+00  0.20051949689E-01 0.  0.
         14    1    1    2    0    0 -0.77449729179E-02 -0.19074958421E-01  0.11395348520E-01  0.23530673857E-01  0.00000000000E+00 0. -1.
     999901    1    3    3    0    0 -0.30426043062E-02  0.14186998369E+00 -0.40046220936E-01  0.89226680400E+00  0.88000000000E+00 0.  1.
        -11    1    4    4    0    0  0.13325491201E-02 -0.87304096350E-01  0.13305710065E-01  0.88323745210E-01  0.51100000000E-03 0.  1.
         11    1    4    4    0    0  0.94550281041E-02 -0.35490928921E-01  0.15345162351E-01  0.39808776930E-01  0.51100000000E-03 0. -1.
</event>
<event>
 8    1  0.1094134E+005  0.1043930E+01  0.7957747E-01            NaN
         13   -1    0    0    0    0  0.00000000000E+00  0.00000000000E+00  0.74505805969E-08  0.10566000000E+00  0.10566000000E+00 0.  1.
     999900   -1    0    0    0    0 -0.00000000000E+00 -0.00000000000E+00 -0.74505805969E-08  0.93827000000E+00  0.93827000000E+00 0. -1.
     999902    2    1    2    0    0  0.15548468652E-01  0.93483435667E-02  0.14930877794E-01  0.10204336701E+01  0.10201631231E+01 0.  0.
     999903    2    3    3    0    0 -0.14726715266E-01 -0.10342517542E+00  0.75931018690E-01  0.13062724708E+00  0.19603954343E-01 0.  0.
         14    1    1    2    0    0 -0.15548468652E-01 -0.93483435667E-02 -0.14930877794E-01  0.23496329853E-01  0.00000000000E+00 0.  1.
     999901    1    3    3    0    0  0.30275183918E-01  0.11277351899E+00 -0.61000140896E-01  0.88980642307E+00  0.88000000000E+00 0. -1.
        -11    1    4    4    0    0 -0.46643524847E-03 -0.12435176891E-01  0.21978777512E-02  0.12646856280E-01  0.51100000000E-03 0. -1.
         11    1    4    4    0    0 -0.14260280018E-01 -0.90989998532E-01  0.73733140938E-01  0.11798039080E+00  0.51100000000E-03 0.  1.
</event>
<event>
 8    1  0.1094134E+005  0.1043930E+01  0.7957747E-01            NaN
         13   -1    0    0    0    0  0.00000000000E+00  0.00000000000E+00  0.74505805969E-08  0.10566000000E+00  0.10566000000E+00 0.  1.
     999900   -1    0    0    0    0 -0.00000000000E+00 -0.00000000000E+00 -0.74505805969E-08  0.93827000000E+00  0.93827000000E+00 0. -1.
     999902    2    1    2    0    0  0.30294778021E-02  0.11836055524E-01 -0.20341023114E-01  0.10202018065E+01  0.10199258300E+01 0.  0.
     999903    2    3    3    0    0  0.10795268187E+00  0.16131967761E-02 -0.73199816923E-01  0.13233501598E+00  0.22315002360E-01 0.  0.
         14    1    1    2    0    0 -0.30294778021E-02 -0.11836055524E-01  0.20341023114E-01  0.23728193514E-01  0.00000000000E+00 0.  1.
     999901    1    3    3    0    0 -0.10492320407E+00  0.10222858748E-01  0.52858793809E-01  0.88786679050E+00  0.88000000000E+00 0.  1.
        -11    1    4    4    0    0  0.57856664276E-01 -0.85522312466E-02 -0.46133050039E-01  0.74491970623E-01  0.51100000000E-03 0. -1.
         11    1    4    4    0    0  0.50096017598E-01  0.10165428023E-01 -0.27066766884E-01  0.57843045361E-01  0.51100000000E-03 0.  1.
</event>
<event>
 8    1  0.1094134E+005  0.1043930E+01  0.7957747E-01            NaN
         13   -1    0    0    0    0  0.00000000000E+00  0.00000000000E+00  0.74505805969E-08  0.10566000000E+00  0.10566000000E+00 0.  1.
     999900   -1    0    0    0    0 -0.00000000000E+00 -0.00000000000E+00 -0.74505805969E-08  0.93827000000E+00  0.93827000000E+00 0.  1.
     999902    2    1    2    0    0 -0.18542732208E-02 -0.17893281236E-01 -0.15045335529E-01  0.10204785616E+01  0.10202090593E+01 0.  0.
     999903    2    3    3    0    0  0.35268138243E-01  0.12193069901E+00 -0.41737662079E-02  0.12860020110E+00  0.20239922495E-01 0.  0.
         14    1    1    2    0    0  0.18542732208E-02  0.17893281236E-01  0.15045335529E-01  0.23451438416E-01  0.00000000000E+00 0.  1.
     999901    1    3    3    0    0 -0.37122411464E-01 -0.13982398024E+00 -0.10871569321E-01  0.89187836049E+00  0.88000000000E+00 0.  1.
        -11    1    4    4    0    0  0.22910747773E-01  0.97154903985E-01 -0.99407536990E-02  0.10031479172E+00  0.51100000000E-03 0. -1.
         11    1    4    4    0    0  0.12357390470E-01  0.24775795022E-01  0.57669874911E-02  0.28285409382E-01  0.51100000000E-03 0.  1.
</event>
<event>
 8    1  0.1094134E+005  0.1043930E+01  0.7957747E-01            NaN
         13   -1    0    0    0    0  0.00000000000E+00  0.00000000000E+00  0.74505805969E-08  0.10566000000E+00  0.10566000000E+00 0. -1.
     999900   -1    0    0    0    0 -0.00000000000E+00 -0.00000000000E+00 -0.74505805969E-08  0.93827000000E+00  0.93827000000E+00 0. -1.
     999902    2    1    2    0    0  0.14249701428E-01 -0.31440353486E-02 -0.18481580938E-01  0.10203820111E+01  0.10201102591E+01 0.  0.
     999903    2    3    3    0    0  0.17193009411E-01  0.10287597506E+00  0.73774206565E-01  0.12922543896E+00  0.19429737588E-01 0.  0.
         14    1    1    2    0    0 -0.14249701428E-01  0.31440353486E-02  0.18481580938E-01  0.23547988938E-01  0.00000000000E+00 0. -1.
     999901    1    3    3    0    0 -0.29433079834E-02 -0.10602001041E+00 -0.92255787503E-01  0.89115657210E+00  0.88000000000E+00 0. -1.
        -11    1    4    4    0    0  0.19752957495E-02  0.43490901849E-01  0.21024564371E-01  0.48349289187E-01  0.51100000000E-03 0.  1.
         11    1    4    4    0    0  0.15217713662E-01  0.59385073214E-01  0.52749642194E-01  0.80876149774E-01  0.51100000000E-03 0. -1.
</event>
<event>
 8    1  0.1094134E+005  0.1043930E+01  0.7957747E-01            NaN
         13   -1    0    0    0    0  0.00000000000E+00  0.00000000000E+00  0.74505805969E-08  0.10566000000E+00  0.10566000000E+00 0. -1.
     999900   -1    0    0    0    0 -0.00000000000E+00 -0.00000000000E+00 -0.74505805969E-08  0.93827000000E+00  0.93827000000E+00 0. -1.
     999902    2    1    2    0    0  0.79215630579E-02  0.73530908958E-02  0.21049342374E-01  0.10202679223E+01  0.10199934997E+01 0.  0.
     999903    2    3    3    0    0 -0.96240662239E-01 -0.68542699542E-01 -0.45879120036E-01  0.12836582045E+00  0.20310673964E-01 0.  0.
         14    1    1    2    0    0 -0.79215630579E-02 -0.73530908958E-02 -0.21049342374E-01  0.23662077707E-01  0.00000000000E+00 0.  1.
     999901    1    3    3    0    0  0.10416222530E+00  0.75895790438E-01  0.66928462410E-01  0.89190210184E+00  0.88000000000E+00 0.  1.
        -11    1    4    4    0    0 -0.57300993750E-01 -0.28400684843E-01 -0.23963802243E-01  0.68297347849E-01  0.51100000000E-03 0. -1.
         11    1    4    4    0    0 -0.38939668489E-01 -0.40142014699E-01 -0.21915317793E-01  0.60068472605E-01  0.51100000000E-03 0.  1.
</event>
<event>
 8    1  0.1094134E+005  0.1043930E+01  0.7957747E-01            NaN
         13   -1    0    0    0    0  0.00000000000E+00  0.00000000000E+00  0.74505805969E-08  0.10566000000E+00  0.10566000000E+00 0. -1.
     999900   -1    0    0    0    0 -0.00000000000E+00 -0.00000000000E+00 -0.74505805969E-08  0.93827000000E+00  0.93827000000E+00 0. -1.
     999902    2    1    2    0    0 -0.11288163163E-01 -0.15621143676E-02 -0.20287659576E-01  0.10206608797E+01  0.10203955994E+01 0.  0.
     999903    2    3    3    0    0  0.86352856531E-01  0.95224664484E-01  0.44828925362E-02  0.12964178363E+00  0.16197011486E-01 0.  0.
         14    1    1    2    0    0  0.11288163163E-01  0.15621143676E-02  0.20287659576E-01  0.23269120309E-01  0.00000000000E+00 0. -1.
     999901    1    3    3    0    0 -0.97641019693E-01 -0.96786778852E-01 -0.24770552112E-01  0.89101909606E+00  0.88000000000E+00 0.  1.
        -11    1    4    4    0    0  0.56010188120E-01  0.62069635233E-01 -0.48094991047E-02  0.83744690542E-01  0.51100000000E-03 0. -1.
         11    1    4    4    0    0  0.30342668410E-01  0.33155029251E-01  0.92923916409E-02  0.45897093092E-01  0.51100000000E-03 0.  1.
</event>
<event>
 8    1  0.1094134E+005  0.1043930E+01  0.7957747E-01            NaN
         13   -1    0    0    0    0  0.00000000000E+00  0.00000000000E+00  0.74505805969E-08  0.10566000000E+00  0.10566000000E+00 0.  1.
     999900   -1    0    0    0    0 -0.00000000000E+00 -0.00000000000E+00 -0.74505805969E-08  0.93827000000E+00  0.93827000000E+00 0.  1.
     999902    2    1    2    0    0 -0.61972785549E-02 -0.15690973754E-01 -0.16353035371E-01  0.10204345816E+01  0.10201640558E+01 0.  0.
     999903    2    3    3    0    0  0.53890338427E-01  0.10092585706E+00 -0.58078431062E-01  0.12973204116E+00  0.19159883890E-01 0.  0.
         14    1    1    2    0    0  0.61972785549E-02  0.15690973754E-01  0.16353035371E-01  0.23495418376E-01  0.00000000000E+00 0.  1.
     999901    1    3    3    0    0 -0.60087616981E-01 -0.11661683081E+00  0.41725395691E-01  0.89070254046E+00  0.88000000000E+00 0.  1.
        -11    1    4    4    0    0  0.30098352563E-01  0.43423908791E-01 -0.34904137244E-01  0.63325402481E-01  0.51100000000E-03 0. -1.
         11    1    4    4    0    0  0.23791985863E-01  0.57501948265E-01 -0.23174293818E-01  0.66406638678E-01  0.51100000000E-03 0.  1.
</event>
<event>
 8    1  0.1094134E+005  0.1043930E+01  0.7957747E-01            NaN
         13   -1    0    0    0    0  0.00000000000E+00  0.00000000000E+00  0.74505805969E-08  0.10566000000E+00  0.10566000000E+00 0.  1.
     999900   -1    0    0    0    0 -0.00000000000E+00 -0.00000000000E+00 -0.74505805969E-08  0.93827000000E+00  0.93827000000E+00 0. -1.
     999902    2    1    2    0    0 -0.43136951224E-02  0.94219978088E-02  0.21260877926E-01  0.10202782149E+01  0.10200040337E+01 0.  0.
     999903    2    3    3    0    0 -0.11585292563E+00 -0.54638495743E-01  0.16522842690E-01  0.13091484948E+00  0.21410929192E-01 0.  0.
         14    1    1    2    0    0  0.43136951224E-02 -0.94219978088E-02 -0.21260877926E-01  0.23651785102E-01  0.00000000000E+00 0. -1.
     999901    1    3    3    0    0  0.11153923051E+00  0.64060493552E-01  0.47380352363E-02  0.88936336542E+00  0.88000000000E+00 0. -1.
        -11    1    4    4    0    0 -0.32126152938E-01 -0.15439664887E-01 -0.49901286736E-02  0.35994936583E-01  0.51100000000E-03 0. -1.
         11    1    4    4    0    0 -0.83726772692E-01 -0.39198830857E-01  0.21512971363E-01  0.94919912894E-01  0.51100000000E-03 0.  1.
</event>
<event>
 8    1  0.1094134E+005  0.1043930E+01  0.7957747E-01            NaN
         13   -1    0    0    0    0  0.00000000000E+00  0.00000000000E+00  0.74505805969E-08  0.10566000000E+00  0.10566000000E+00 0.  1.
     999900   -1    0    0    0    0 -0.00000000000E+00 -0.00000000000E+00 -0.74505805969E-08  0.93827000000E+00  0.93827000000E+00 0. -1.
     999902    2    1    2    0    0  0.28767618259E-02  0.24220706386E-01  0.23596577048E-03  0.10195379100E+01  0.10192460821E+01 0.  0.
     999903    2    3    3    0    0 -0.11592315379E+00  0.34039189673E-01  0.44534087537E-01  0.13039666913E+00  0.20570910261E-01 0.  0.
         14    1    1    2    0    0 -0.28767618259E-02 -0.24220706386E-01 -0.23596577048E-03  0.24392090036E-01  0.00000000000E+00 0. -1.
     999901    1    3    3    0    0  0.11879991561E+00 -0.98184832866E-02 -0.44298121767E-01  0.88914124084E+00  0.88000000000E+00 0.  1.
        -11    1    4    4    0    0 -0.72508370997E-01  0.11464429140E-01  0.22973971835E-01  0.76921788221E-01  0.51100000000E-03 0.  1.
         11    1    4    4    0    0 -0.43414782791E-01  0.22574760533E-01  0.21560115703E-01  0.53474880907E-01  0.51100000000E-03 0. -1.
</event>
<event>
 8    1  0.1094134E+005  0.1043930E+01  0.7957747E-01            NaN
         13   -1    0    0    0    0  0.00000000000E+00  0.00000000000E+00  0.74505805969E-08  0.10566000000E+00  0.10566000000E+00 0. -1.
     999900   -1    0    0    0    0 -0.00000000000E+00 -0.00000000000E+00 -0.74505805969E-08  0.93827000000E+00  0.93827000000E+00 0. -1.
     999902    2    1    2    0    0  0.15814682601E-01 -0.40038560005E-03 -0.18044246364E-01  0.10199329310E+01  0.10196505894E+01 0.  0.
     999903    2    3    3    0    0  0.34324378090E-01  0.86677208517E-01  0.87225986675E-01  0.12919899867E+00  0.19821884295E-01 0.  0.
         14    1    1    2    0    0 -0.15814682601E-01  0.40038560005E-03  0.18044246364E-01  0.23997069014E-01  0.00000000000E+00 0. -1.
     999901    1    3    3    0    0 -0.18509695489E-01 -0.87077594117E-01 -0.10527023304E+00  0.89073393232E+00  0.88000000000E+00 0. -1.
        -11    1    4    4    0    0  0.22965970307E-01  0.36342677204E-01  0.47559637277E-01  0.64112449629E-01  0.51100000000E-03 0. -1.
         11    1    4    4    0    0  0.11358407784E-01  0.50334531313E-01  0.39666349398E-01  0.65086549036E-01  0.51100000000E-03 0.  1.
</event>
<event>
 8    1  0.1094134E+005  0.1043930E+01  0.7957747E-01            NaN
         13   -1    0    0    0    0  0.00000000000E+00  0.00000000000E+00  0.74505805969E-08  0.10566000000E+00  0.10566000000E+00 0.  1.
     999900   -1    0    0    0    0 -0.00000000000E+00 -0.00000000000E+00 -0.74505805969E-08  0.93827000000E+00  0.93827000000E+00 0.  1.
     999902    2    1    2    0    0  0.11974523848E-01 -0.66022214379E-02  0.19762205055E-01  0.10198982856E+01  0.10196151184E+01 0.  0.
     999903    2    3    3    0    0  0.88644590285E-01  0.45240177954E-01 -0.81091707264E-01  0.12931564197E+00  0.15560629301E-01 0.  0.
         14    1    1    2    0    0 -0.11974523848E-01  0.66022214379E-02 -0.19762205055E-01  0.24031714419E-01  0.00000000000E+00 0. -1.
     999901    1    3    3    0    0 -0.76670066437E-01 -0.51842399392E-01  0.10085391232E+00  0.89058264361E+00  0.88000000000E+00 0. -1.
        -11    1    4    4    0    0  0.52024563151E-01  0.34871419430E-01 -0.48777370459E-01  0.79385540586E-01  0.51100000000E-03 0. -1.
         11    1    4    4    0    0  0.36620027134E-01  0.10368758524E-01 -0.32314336804E-01  0.49930101389E-01  0.51100000000E-03 0.  1.
</event>
<event>
 8    1  0.1094134E+005  0.1043930E+01  0.7957747E-01            NaN
         13   -1    0    0    0    0  0.00000000000E+00  0.00000000000E+00  0.74505805969E-08  0.10566000000E+00  0.10566000000E+00 0.  1.
     999900   -1    0    0    0    0 -0.00000000000E+00 -0.00000000000E+00 -0.74505805969E-08  0.93827000000E+00  0.93827000000E+00 0. -1.
     999902    2    1    2    0    0  0.21300745644E-01 -0.87336512919E-02 -0.10967806027E-01  0.10184291922E+01  0.10181098803E+01 0.  0.
     999903    2    3    3    0    0 -0.94363694823E-02  0.12181958942E+00  0.29841803615E-01  0.12733192301E+00  0.19845098569E-01 0.  0.
         14    1    1    2    0    0 -0.21300745644E-01  0.87336512919E-02  0.10967806027E-01  0.25500807809E-01  0.00000000000E+00 0. -1.
     999901    1    3    3    0    0  0.30737115126E-01 -0.13055324072E+00 -0.40809609642E-01  0.89109726918E+00  0.88000000000E+00 0. -1.
        -11    1    4    4    0    0 -0.86379949046E-02  0.61132439982E-01  0.56715252101E-02  0.62001753954E-01  0.51100000000E-03 0. -1.
         11    1    4    4    0    0 -0.79837457771E-03  0.60687149442E-01  0.24170278405E-01  0.65330169053E-01  0.51100000000E-03 0.  1.
</event>
<event>
 8    1  0.1094134E+005  0.1043930E+01  0.7957747E-01            NaN
         13   -1    0    0    0    0  0.00000000000E+00  0.00000000000E+00  0.74505805969E-08  0.10566000000E+00  0.10566000000E+00 0.  1.
     999900   -1    0    0    0    0 -0.00000000000E+00 -0.00000000000E+00 -0.74505805969E-08  0.93827000000E+00  0.93827000000E+00 0.  1.
     999902    2    1    2    0    0 -0.22159340478E-01  0.64845558231E-02  0.64765444296E-02  0.10199501864E+01  0.10196682555E+01 0.  0.
     999903    2    3    3    0    0  0.39330688326E-01 -0.90617424358E-01  0.80648139549E-01  0.12938225311E+00  0.21845465583E-01 0.  0.
         14    1    1    2    0    0  0.22159340478E-01 -0.64845558231E-02 -0.64765444296E-02  0.23979813644E-01  0.00000000000E+00 0.  1.
     999901    1    3    3    0    0 -0.61490028804E-01  0.97101980181E-01 -0.74171595119E-01  0.89056793324E+00  0.88000000000E+00 0.  1.
        -11    1    4    4    0    0  0.25806528028E-01 -0.32898212165E-01  0.35757491087E-01  0.55019346983E-01  0.51100000000E-03 0. -1.
         11    1    4    4    0    0  0.13524160298E-01 -0.57719212193E-01  0.44890648462E-01  0.74362906131E-01  0.51100000000E-03 0.  1.
</event>
<event>
 8    1  0.1094134E+005  0.1043930E+01  0.7957747E-01            NaN
         13   -1    0    0    0    0  0.00000000000E+00  0.00000000000E+00  0.74505805969E-08  0.10566000000E+00  0.10566000000E+00 0.  1.
     999900   -1    0    0    0    0 -0.00000000000E+00 -0.00000000000E+00 -0.74505805969E-08  0.93827000000E+00  0.93827000000E+00 0. -1.
     999902    2    1    2    0    0 -0.20394651599E-02 -0.42155318389E-02 -0.23797124869E-01  0.10196764790E+01  0.10193879971E+01 0.  0.
     999903    2    3    3    0    0 -0.12632228207E+00 -0.84171204504E-02 -0.26752013452E-01  0.13092870645E+00  0.19962191374E-01 0.  0.
         14    1    1    2    0    0  0.20394651599E-02  0.42155318389E-02  0.23797124869E-01  0.24253520958E-01  0.00000000000E+00 0.  1.
     999901    1    3    3    0    0  0.12428281691E+00  0.42015886115E-02  0.29548885838E-02  0.88874777259E+00  0.88000000000E+00 0.  1.
        -11    1    4    4    0    0 -0.53593422776E-01  0.30449353049E-02 -0.18769332689E-01  0.56868933228E-01  0.51100000000E-03 0.  1.
         11    1    4    4    0    0 -0.72728859293E-01 -0.11462055755E-01 -0.79826807631E-02  0.74059773220E-01  0.51100000000E-03 0. -1.
</event>
<event>
 8    1  0.1094134E+005  0.1043930E+01  0.7957747E-01            NaN
         13   -1    0    0    0    0  0.00000000000E+00  0.00000000000E+00  0.74505805969E-08  0.10566000000E+00  0.10566000000E+00 0. -1.
     999900   -1    0    0    0    0 -0.00000000000E+00 -0.00000000000E+00 -0.74505805969E-08  0.93827000000E+00  0.93827000000E+00 0. -1.
     999902    2    1    2    0    0  0.12193985783E-01  0.11865633365E-01 -0.17215632539E-01  0.10197253610E+01  0.10194380547E+01 0.  0.
     999903    2    3    3    0    0  0.10886563251E+00  0.55622432023E-01  0.43905119814E-01  0.13124586712E+00  0.18767983490E-01 0.  0.
         14    1    1    2    0    0 -0.12193985783E-01 -0.11865633365E-01  0.17215632539E-01  0.24204638980E-01  0.00000000000E+00 0. -1.
     999901    1    3    3    0    0 -0.96671646729E-01 -0.43756798658E-01 -0.61120752353E-01  0.88847949390E+00  0.88000000000E+00 0. -1.
        -11    1    4    4    0    0  0.57380444849E-01  0.22004852820E-01  0.14797049687E-01  0.63213470077E-01  0.51100000000E-03 0.  1.
         11    1    4    4    0    0  0.51485187663E-01  0.33617579203E-01  0.29108070127E-01  0.68032397045E-01  0.51100000000E-03 0. -1.
</event>
<event>
 8    1  0.1094134E+005  0.1043930E+01  0.7957747E-01            NaN
         13   -1    0    0    0    0  0.00000000000E+00  0.00000000000E+00  0.74505805969E-08  0.10566000000E+00  0.10566000000E+00 0. -1.
     999900   -1    0    0    0    0 -0.00000000000E+00 -0.00000000000E+00 -0.74505805969E-08  0.93827000000E+00  0.93827000000E+00 0. -1.
     999902    2    1    2    0    0 -0.59728603091E-02 -0.19786987154E-01  0.12768667071E-01  0.10196351697E+01  0.10193456923E+01 0.  0.
     999903    2    3    3    0    0  0.22180461900E-01  0.43992746940E-02  0.12771931651E+00  0.13138338297E+00  0.20929476860E-01 0.  0.
         14    1    1    2    0    0  0.59728603091E-02  0.19786987154E-01 -0.12768667071E-01  0.24294830308E-01  0.00000000000E+00 0.  1.
     999901    1    3    3    0    0 -0.28153322209E-01 -0.24186261848E-01 -0.11495064944E+00  0.88825178673E+00  0.88000000000E+00 0. -1.
        -11    1    4    4    0    0  0.10317023513E-01 -0.42259194184E-02  0.22192148362E-01  0.24840530168E-01  0.51100000000E-03 0. -1.
         11    1    4    4    0    0  0.11863438387E-01  0.86251941124E-02  0.10552716815E+00  0.10654285280E+00  0.51100000000E-03 0.  1.
</event>
<event>
 8    1  0.1094134E+005  0.1043930E+01  0.7957747E-01            NaN
         13   -1    0    0    0    0  0.00000000000E+00  0.00000000000E+00  0.74505805969E-08  0.10566000000E+00  0.10566000000E+00 0.  1.
     999900   -1    0    0    0    0 -0.00000000000E+00 -0.00000000000E+00 -0.74505805969E-08  0.93827000000E+00  0.93827000000E+00 0.  1.
     999902    2    1    2    0    0  0.99207215262E-02  0.71257401433E-02  0.19912011730E-01  0.10205700963E+01  0.10203027180E+01 0.  0.
     999903    2    3    3    0    0  0.11849546872E+00  0.35119155355E-01  0.44926765171E-01  0.13310300122E+00  0.20578229356E-01 0.  0.
         14    1    1    2    0    0 -0.99207215262E-02 -0.71257401433E-02 -0.19912011730E-01  0.23359903667E-01  0.00000000000E+00 0. -1.
     999901    1    3    3    0    0 -0.10857474720E+00 -0.27993415211E-01 -0.25014753440E-01  0.88746709512E+00  0.88000000000E+00 0. -1.
        -11    1    4    4    0    0  0.14674997405E-01 -0.82547452651E-03  0.87618899649E-03  0.14733152588E-01  0.51100000000E-03 0.  1.
         11    1    4    4    0    0  0.10382047132E+00  0.35944629881E-01  0.44050576174E-01  0.11836984863E+00  0.51100000000E-03 0. -1.
</event>
<event>
 8    1  0.1094134E+005  0.1043930E+01  0.7957747E-01            NaN
         13   -1    0    0    0    0  0.00000000000E+00  0.00000000000E+00  0.74505805969E-08  0.10566000000E+00  0.10566000000E+00 0.  1.
     999900   -1    0    0    0    0 -0.00000000000E+00 -0.00000000000E+00 -0.74505805969E-08  0.93827000000E+00  0.93827000000E+00 0. -1.
     999902    2    1    2    0    0 -0.10708613483E-01  0.83192193247E-02  0.18914700121E-01  0.10206566312E+01  0.10203912530E+01 0.  0.
     999903    2    3    3    0    0  0.51272690477E-01  0.10847484111E+00 -0.46508948726E-01  0.13040212580E+00  0.21117579424E-01 0.  0.
         14    1    1    2    0    0  0.10708613483E-01 -0.83192193247E-02 -0.18914700121E-01  0.23273368763E-01  0.00000000000E+00 0.  1.
     999901    1    3    3    0    0 -0.61981303960E-01 -0.10015562178E+00  0.65423648847E-01  0.89025450543E+00  0.88000000000E+00 0.  1.
        -11    1    4    4    0    0  0.39221956824E-01  0.98969647333E-01 -0.41198431090E-01  0.11415307633E+00  0.51100000000E-03 0. -1.
         11    1    4    4    0    0  0.12050733653E-01  0.95051937738E-02 -0.53105176364E-02  0.16249049474E-01  0.51100000000E-03 0.  1.
</event>
<event>
 8    1  0.1094134E+005  0.1043930E+01  0.7957747E-01            NaN
         13   -1    0    0    0    0  0.00000000000E+00  0.00000000000E+00  0.74505805969E-08  0.10566000000E+00  0.10566000000E+00 0. -1.
     999900   -1    0    0    0    0 -0.00000000000E+00 -0.00000000000E+00 -0.74505805969E-08  0.93827000000E+00  0.93827000000E+00 0.  1.
     999902    2    1    2    0    0  0.14228844021E-01  0.10202408991E-01 -0.16290808431E-01  0.10200147415E+01  0.10197343444E+01 0.  0.
     999903    2    3    3    0    0 -0.15266015707E-03 -0.70796963611E-01 -0.10842350090E+00  0.13138874643E+00  0.22251152350E-01 0.  0.
         14    1    1    2    0    0 -0.14228844021E-01 -0.10202408991E-01  0.16290808431E-01  0.23915258534E-01  0.00000000000E+00 0.  1.
     999901    1    3    3    0    0  0.14381504178E-01  0.80999372602E-01  0.92132692467E-01  0.88862599503E+00  0.88000000000E+00 0. -1.
        -11    1    4    4    0    0  0.37354375603E-02 -0.67623916418E-01 -0.10600483407E+00  0.12579440978E+00  0.51100000000E-03 0.  1.
         11    1    4    4    0    0 -0.38880977174E-02 -0.31730471931E-02 -0.24186668298E-02  0.55943366527E-02  0.51100000000E-03 0. -1.
</event>
<event>
 8    1  0.1094134E+005  0.1043930E+01  0.7957747E-01            NaN
         13   -1    0    0    0    0  0.00000000000E+00  0.00000000000E+00  0.74505805969E-08  0.10566000000E+00  0.10566000000E+00 0.  1.
     999900   -1    0    0    0    0 -0.00000000000E+00 -0.00000000000E+00 -0.74505805969E-08  0.93827000000E+00  0.93827000000E+00 0. -1.
     999902    2    1    2    0    0 -0.35933417867E-02  0.21984429299E-01 -0.85031110954E-02  0.10200861300E+01  0.10198074242E+01 0.  0.
     999903    2    3    3    0    0  0.63103539903E-02  0.19833903930E-01 -0.12866336210E+00  0.13186251299E+00  0.20006430743E-01 0.  0.
         14    1    1    2    0    0  0.35933417867E-02 -0.21984429299E-01  0.85031110954E-02  0.23843869969E-01  0.00000000000E+00 0.  1.
     999901    1    3    3    0    0 -0.99036957770E-02  0.21505253685E-02  0.12016025101E+00  0.88822361704E+00  0.88000000000E+00 0.  1.
        -11    1    4    4    0    0 -0.63124923261E-02  0.12801067880E-01 -0.57716777425E-01  0.59457568194E-01  0.51100000000E-03 0. -1.
         11    1    4    4    0    0  0.12622846316E-01  0.70328360506E-02 -0.70946584680E-01  0.72404944795E-01  0.51100000000E-03 0.  1.
</event>
<event>
 8    1  0.1094134E+005  0.1043930E+01  0.7957747E-01            NaN
         13   -1    0    0    0    0  0.00000000000E+00  0.00000000000E+00  0.74505805969E-08  0.10566000000E+00  0.10566000000E+00 0.  1.
     999900   -1    0    0    0    0 -0.00000000000E+00 -0.00000000000E+00 -0.74505805969E-08  0.93827000000E+00  0.93827000000E+00 0. -1.
     999902    2    1    2    0    0 -0.33049974788E-02 -0.48998054566E-02 -0.23294102870E-01  0.10198978064E+01  0.10196146277E+01 0.  0.
     999903    2    3    3    0    0 -0.11375877015E+00 -0.60825307838E-01 -0.12021381650E-01  0.13116006556E+00  0.20437057510E-01 0.  0.
         14    1    1    2    0    0  0.33049974788E-02  0.48998054566E-02  0.23294102870E-01  0.24032193623E-01  0.00000000000E+00 0.  1.
     999901    1    3    3    0    0  0.11045377267E+00  0.55925502381E-01 -0.11272721220E-01  0.88873774082E+00  0.88000000000E+00 0. -1.
        -11    1    4    4    0    0 -0.69063034009E-01 -0.38983610778E-01 -0.17169331154E-01  0.81144757250E-01  0.51100000000E-03 0.  1.
         11    1    4    4    0    0 -0.44695736144E-01 -0.21841697059E-01  0.51479495042E-02  0.50015308307E-01  0.51100000000E-03 0. -1.
</event>
<event>
 8    1  0.1094134E+005  0.1043930E+01  0.7957747E-01            NaN
         13   -1    0    0    0    0  0.00000000000E+00  0.00000000000E+00  0.74505805969E-08  0.10566000000E+00  0.10566000000E+00 0. -1.
     999900   -1    0    0    0    0 -0.00000000000E+00 -0.00000000000E+00 -0.74505805969E-08  0.93827000000E+00  0.93827000000E+00 0.  1.
     999902    2    1    2    0    0 -0.93703518982E-02  0.14990248215E-01 -0.16199473779E-01  0.10199522189E+01  0.10196703363E+01 0.  0.
     999903    2    3    3    0    0 -0.79244925106E-01 -0.98383313874E-01  0.18601118983E-01  0.12925187544E+00  0.20025260896E-01 0.  0.
         14    1    1    2    0    0  0.93703518982E-02 -0.14990248215E-01  0.16199473779E-01  0.23977781110E-01  0.00000000000E+00 0. -1.
     999901    1    3    3    0    0  0.69874573208E-01  0.11337356209E+00 -0.34800592762E-01  0.89070034345E+00  0.88000000000E+00 0.  1.
        -11    1    4    4    0    0 -0.95486789344E-02 -0.14230232982E-01  0.95110993500E-02  0.19606094255E-01  0.51100000000E-03 0.  1.
         11    1    4    4    0    0 -0.69696246171E-01 -0.84153080892E-01  0.90900196328E-02  0.10964578119E+00  0.51100000000E-03 0. -1.
</event>
<event>
 8    1  0.1094134E+005  0.1043930E+01  0.7957747E-01            NaN
         13   -1    0    0    0    0  0.00000000000E+00  0.00000000000E+00  0.74505805969E-08  0.10566000000E+00  0.10566000000E+00 0.  1.
     999900   -1    0    0    0    0 -0.00000000000E+00 -0.00000000000E+00 -0.74505805969E-08  0.93827000000E+00  0.93827000000E+00 0. -1.
     999902    2    1    2    0    0 -0.18675826411E-01 -0.84053221071E-02  0.12428083798E-01  0.10199739319E+01  0.10196925657E+01 0.  0.
     999903    2    3    3    0    0 -0.51226159538E-01 -0.37330571852E-01  0.11506333516E+00  0.13293944042E+00  0.20387071965E-01 0.  0.
         14    1    1    2    0    0  0.18675826411E-01  0.84053221071E-02 -0.12428083798E-01  0.23956068099E-01  0.00000000000E+00 0. -1.
     999901    1    3    3    0    0  0.32550333126E-01  0.28925249745E-01 -0.10263525137E+00  0.88703449148E+00  0.88000000000E+00 0. -1.
        -11    1    4    4    0    0 -0.34783323617E-01 -0.12924110732E-01  0.66446481510E-01  0.76107215598E-01  0.51100000000E-03 0.  1.
         11    1    4    4    0    0 -0.16442835921E-01 -0.24406461120E-01  0.48616853655E-01  0.56832224819E-01  0.51100000000E-03 0. -1.
</event>
<event>
 8    1  0.1094134E+005  0.1043930E+01  0.7957747E-01            NaN
         13   -1    0    0    0    0  0.00000000000E+00  0.00000000000E+00  0.74505805969E-08  0.10566000000E+00  0.10566000000E+00 0.  1.
     999900   -1    0    0    0    0 -0.00000000000E+00 -0.00000000000E+00 -0.74505805969E-08  0.93827000000E+00  0.93827000000E+00 0.  1.
     999902    2    1    2    0    0  0.17993095605E-01 -0.95402444671E-02 -0.11263875303E-01  0.10206567828E+01  0.10203914080E+01 0.  0.
     999903    2    3    3    0    0 -0.76703578745E-01 -0.28291509239E-01  0.97496379010E-01  0.12872188436E+00  0.19491821511E-01 0.  0.
         14    1    1    2    0    0 -0.17993095605E-01  0.95402444671E-02  0.11263875303E-01  0.23273217242E-01  0.00000000000E+00 0.  1.
     999901    1    3    3    0    0  0.94696674349E-01  0.18751264772E-01 -0.10876025431E+00  0.89193489840E+00  0.88000000000E+00 0.  1.
        -11    1    4    4    0    0 -0.45460846323E-01 -0.22727266578E-01  0.71335840224E-01  0.87591554478E-01  0.51100000000E-03 0. -1.
         11    1    4    4    0    0 -0.31242732422E-01 -0.55642426604E-02  0.26160538786E-01  0.41130329881E-01  0.51100000000E-03 0.  1.
</event>
<event>
 8    1  0.1094134E+005  0.1043930E+01  0.7957747E-01            NaN
         13   -1    0    0    0    0  0.00000000000E+00  0.00000000000E+00  0.74505805969E-08  0.10566000000E+00  0.10566000000E+00 0. -1.
     999900   -1    0    0    0    0 -0.00000000000E+00 -0.00000000000E+00 -0.74505805969E-08  0.93827000000E+00  0.93827000000E+00 0. -1.
     999902    2    1    2    0    0  0.17117433622E-01  0.10152010683E-01  0.11929053997E-01  0.10207271514E+01  0.10204633974E+01 0.  0.
     999903    2    3    3    0    0 -0.39901123780E-01  0.10577049888E+00  0.65546630140E-01  0.13209401243E+00  0.19312412739E-01 0.  0.
         14    1    1    2    0    0 -0.17117433622E-01 -0.10152010683E-01 -0.11929053997E-01  0.23202848617E-01  0.00000000000E+00 0.  1.
     999901    1    3    3    0    0  0.57018557402E-01 -0.95618488194E-01 -0.53617576143E-01  0.88863313895E+00  0.88000000000E+00 0. -1.
        -11    1    4    4    0    0 -0.31604825942E-01  0.59748405207E-01  0.33836156907E-01  0.75590234705E-01  0.51100000000E-03 0.  1.
         11    1    4    4    0    0 -0.82962978385E-02  0.46022093670E-01  0.31710473233E-01  0.56503777725E-01  0.51100000000E-03 0. -1.
</event>
<event>
 8    1  0.1094134E+005  0.1043930E+01  0.7957747E-01            NaN
         13   -1    0    0    0    0  0.00000000000E+00  0.00000000000E+00  0.74505805969E-08  0.10566000000E+00  0.10566000000E+00 0. -1.
     999900   -1    0    0    0    0 -0.00000000000E+00 -0.00000000000E+00 -0.74505805969E-08  0.93827000000E+00  0.93827000000E+00 0.  1.
     999902    2    1    2    0    0  0.82674221467E-02 -0.22722249772E-01  0.34685769834E-02  0.10195029263E+01  0.10192102505E+01 0.  0.
     999903    2    3    3    0    0 -0.81926751365E-01  0.83062861495E-01 -0.47363830726E-01  0.12714122139E+00  0.17610399385E-01 0.  0.
         14    1    1    2    0    0 -0.82674221467E-02  0.22722249772E-01 -0.34685769834E-02  0.24427073708E-01  0.00000000000E+00 0. -1.
     999901    1    3    3    0    0  0.90194173512E-01 -0.10578511127E+00  0.50832407710E-01  0.89236170490E+00  0.88000000000E+00 0.  1.
        -11    1    4    4    0    0 -0.18045755932E-01  0.21686280780E-01 -0.19400502004E-01  0.34243023819E-01  0.51100000000E-03 0.  1.
         11    1    4    4    0    0 -0.63880995433E-01  0.61376580715E-01 -0.27963328722E-01  0.92898197571E-01  0.51100000000E-03 0. -1.
</event>
<event>
 8    1  0.1094134E+005  0.1043930E+01  0.7957747E-01            NaN
         13   -1    0    0    0    0  0.00000000000E+00  0.00000000000E+00  0.74505805969E-08  0.10566000000E+00  0.10566000000E+00 0.  1.
     999900   -1    0    0    0    0 -0.00000000000E+00 -0.00000000000E+00 -0.74505805969E-08  0.93827000000E+00  0.93827000000E+00 0. -1.
     999902    2    1    2    0    0 -0.16224740300E-01 -0.16845160678E-01 -0.34369511778E-02  0.10202907473E+01  0.10200168600E+01 0.  0.
     999903    2    3    3    0    0 -0.82036312903E-01  0.68135659853E-01  0.72512051148E-01  0.13050360762E+00  0.20019222279E-01 0.  0.
         14    1    1    2    0    0  0.16224740300E-01  0.16845160678E-01  0.34369511778E-02  0.23639252727E-01  0.00000000000E+00 0. -1.
     999901    1    3    3    0    0  0.65811572603E-01 -0.84980820531E-01 -0.75949002326E-01  0.88978713966E+00  0.88000000000E+00 0. -1.
        -11    1    4    4    0    0 -0.54306210509E-01  0.46958441333E-01  0.37206435780E-01  0.80863092302E-01  0.51100000000E-03 0.  1.
         11    1    4    4    0    0 -0.27730102394E-01  0.21177218520E-01  0.35305615368E-01  0.49640515313E-01  0.51100000000E-03 0. -1.
</event>
<event>
 8    1  0.1094134E+005  0.1043930E+01  0.7957747E-01            NaN
         13   -1    0    0    0    0  0.00000000000E+00  0.00000000000E+00  0.74505805969E-08  0.10566000000E+00  0.10566000000E+00 0.  1.
     999900   -1    0    0    0    0 -0.00000000000E+00 -0.00000000000E+00 -0.74505805969E-08  0.93827000000E+00  0.93827000000E+00 0.  1.
     999902    2    1    2    0    0  0.16232705556E-01 -0.15986873810E-01  0.79307915679E-02  0.10198057732E+01  0.10195203954E+01 0.  0.
     999903    2    3    3    0    0  0.66899239832E-01  0.78751662220E-01 -0.75633641316E-01  0.12934212860E+00  0.18210050522E-01 0.  0.
         14    1    1    2    0    0 -0.16232705556E-01  0.15986873810E-01 -0.79307915679E-02  0.24124226802E-01  0.00000000000E+00 0. -1.
     999901    1    3    3    0    0 -0.50666534276E-01 -0.94738536030E-01  0.83564432884E-01  0.89046364460E+00  0.88000000000E+00 0. -1.
        -11    1    4    4    0    0  0.40554432131E-01  0.34678410759E-01 -0.34432834393E-01  0.63506970827E-01  0.51100000000E-03 0. -1.
         11    1    4    4    0    0  0.26344807700E-01  0.44073251462E-01 -0.41200806923E-01  0.65835157775E-01  0.51100000000E-03 0.  1.
</event>
<event>
 8    1  0.1094134E+005  0.1043930E+01  0.7957747E-01            NaN
         13   -1    0    0    0    0  0.00000000000E+00  0.00000000000E+00  0.74505805969E-08  0.10566000000E+00  0.10566000000E+00 0. -1.
     999900   -1    0    0    0    0 -0.00000000000E+00 -0.00000000000E+00 -0.74505805969E-08  0.93827000000E+00  0.93827000000E+00 0. -1.
     999902    2    1    2    0    0  0.29640640241E-01  0.17456155825E-01 -0.48263109061E-02  0.10091941654E+01  0.10085961953E+01 0.  0.
     999903    2    3    3    0    0 -0.16722250456E-01 -0.78163908441E-01 -0.85906068219E-01  0.11910055155E+00  0.20392610918E-01 0.  0.
         14    1    1    2    0    0 -0.29640640241E-01 -0.17456155825E-01  0.48263109061E-02  0.34735834624E-01  0.00000000000E+00 0. -1.
     999901    1    3    3    0    0  0.46362890697E-01  0.95620064266E-01  0.81079757313E-01  0.89009361382E+00  0.88000000000E+00 0.  1.
        -11    1    4    4    0    0 -0.73530244067E-02 -0.86027734093E-02 -0.62756314391E-02  0.12950650533E-01  0.51100000000E-03 0.  1.
         11    1    4    4    0    0 -0.93692260490E-02 -0.69561135032E-01 -0.79630436780E-01  0.10614990102E+00  0.51100000000E-03 0. -1.
</event>
<event>
 8    1  0.1094134E+005  0.1043930E+01  0.7957747E-01            NaN
         13   -1    0    0    0    0  0.00000000000E+00  0.00000000000E+00  0.74505805969E-08  0.10566000000E+00  0.10566000000E+00 0.  1.
     999900   -1    0    0    0    0 -0.00000000000E+00 -0.00000000000E+00 -0.74505805969E-08  0.93827000000E+00  0.93827000000E+00 0. -1.
     999902    2    1    2    0    0 -0.18231364601E-01  0.13530570268E-01 -0.48607006657E-02  0.10207117874E+01  0.10204476799E+01 0.  0.
     999903    2    3    3    0    0  0.12652978042E+00 -0.93499069768E-02 -0.51576931430E-02  0.12859105924E+00  0.20294152453E-01 0.  0.
         14    1    1    2    0    0  0.18231364601E-01 -0.13530570268E-01  0.48607006657E-02  0.23218212635E-01  0.00000000000E+00 0.  1.
     999901    1    3    3    0    0 -0.14476114502E+00  0.22880477245E-01  0.29699247733E-03  0.89212072813E+00  0.88000000000E+00 0. -1.
        -11    1    4    4    0    0  0.37190939281E-01  0.30183402191E-02  0.56924610504E-02  0.37748398325E-01  0.51100000000E-03 0.  1.
         11    1    4    4    0    0  0.89338841140E-01 -0.12368247196E-01 -0.10850154193E-01  0.90842660915E-01  0.51100000000E-03 0. -1.
</event>
<event>
 8    1  0.1094134E+005  0.1043930E+01  0.7957747E-01            NaN
         13   -1    0    0    0    0  0.00000000000E+00  0.00000000000E+00  0.74505805969E-08  0.10566000000E+00  0.10566000000E+00 0. -1.
     999900   -1    0    0    0    0 -0.00000000000E+00 -0.00000000000E+00 -0.74505805969E-08  0.93827000000E+00  0.93827000000E+00 0. -1.
     999902    2    1    2    0    0  0.16403328332E-01 -0.59817058326E-03 -0.16768477188E-01  0.10204649448E+01  0.10201951258E+01 0.  0.
     999903    2    3    3    0    0 -0.71804647958E-01  0.53398196230E-01  0.89440068742E-01  0.12806564519E+00  0.19849653718E-01 0.  0.
         14    1    1    2    0    0 -0.16403328332E-01  0.59817058326E-03  0.16768477188E-01  0.23465055202E-01  0.00000000000E+00 0. -1.
     999901    1    3    3    0    0  0.88207976290E-01 -0.53996366813E-01 -0.10620854593E+00  0.89239929961E+00  0.88000000000E+00 0. -1.
        -11    1    4    4    0    0 -0.11454423187E-01  0.18318812300E-01  0.25211344632E-01  0.33206260160E-01  0.51100000000E-03 0. -1.
         11    1    4    4    0    0 -0.60350224771E-01  0.35079383930E-01  0.64228724110E-01  0.94859385032E-01  0.51100000000E-03 0.  1.
</event>
<event>
 8    1  0.1094134E+005  0.1043930E+01  0.7957747E-01            NaN
         13   -1    0    0    0    0  0.00000000000E+00  0.00000000000E+00  0.74505805969E-08  0.10566000000E+00  0.10566000000E+00 0. -1.
     999900   -1    0    0    0    0 -0.00000000000E+00 -0.00000000000E+00 -0.74505805969E-08  0.93827000000E+00  0.93827000000E+00 0. -1.
     999902    2    1    2    0    0  0.17752593246E-01  0.33711879951E-02 -0.17345444097E-01  0.10188823673E+01  0.10185744422E+01 0.  0.
     999903    2    3    3    0    0 -0.13063588833E-01 -0.10236200434E+00 -0.78282874044E-01  0.12992651041E+00  0.10200610433E-01 0.  0.
         14    1    1    2    0    0 -0.17752593246E-01 -0.33711879951E-02  0.17345444097E-01  0.25047632750E-01  0.00000000000E+00 0.  1.
     999901    1    3    3    0    0  0.30816182080E-01  0.10573319234E+00  0.60937429948E-01  0.88895585684E+00  0.88000000000E+00 0.  1.
        -11    1    4    4    0    0 -0.34934741077E-02 -0.32862597091E-01 -0.31069654812E-01  0.45362310568E-01  0.51100000000E-03 0. -1.
         11    1    4    4    0    0 -0.95701147258E-02 -0.69499407249E-01 -0.47213219232E-01  0.84564199843E-01  0.51100000000E-03 0.  1.
</event>
<event>
 8    1  0.1094134E+005  0.1043930E+01  0.7957747E-01            NaN
         13   -1    0    0    0    0  0.00000000000E+00  0.00000000000E+00  0.74505805969E-08  0.10566000000E+00  0.10566000000E+00 0.  1.
     999900   -1    0    0    0    0 -0.00000000000E+00 -0.00000000000E+00 -0.74505805969E-08  0.93827000000E+00  0.93827000000E+00 0. -1.
     999902    2    1    2    0    0 -0.51648959537E-02  0.21267877172E-01 -0.12597238397E-01  0.10186774919E+01  0.10183644453E+01 0.  0.
     999903    2    3    3    0    0  0.88055962446E-01  0.93931200937E-02  0.89848927700E-01  0.12776427770E+00  0.20218744300E-01 0.  0.
         14    1    1    2    0    0  0.51648959537E-02 -0.21267877172E-01  0.12597238397E-01  0.25252508091E-01  0.00000000000E+00 0.  1.
     999901    1    3    3    0    0 -0.93220858400E-01  0.11874757079E-01 -0.10244616610E+00  0.89091321420E+00  0.88000000000E+00 0. -1.
        -11    1    4    4    0    0  0.58830740191E-01  0.15151448999E-01  0.55391161480E-01  0.82213528627E-01  0.51100000000E-03 0.  1.
         11    1    4    4    0    0  0.29225222256E-01 -0.57583289051E-02  0.34457766220E-01  0.45550749078E-01  0.51100000000E-03 0. -1.
</event>
<event>
 8    1  0.1094134E+005  0.1043930E+01  0.7957747E-01            NaN
         13   -1    0    0    0    0  0.00000000000E+00  0.00000000000E+00  0.74505805969E-08  0.10566000000E+00  0.10566000000E+00 0.  1.
     999900   -1    0    0    0    0 -0.00000000000E+00 -0.00000000000E+00 -0.74505805969E-08  0.93827000000E+00  0.93827000000E+00 0.  1.
     999902    2    1    2    0    0 -0.37946259568E-02 -0.20289887565E-01 -0.12943682389E-01  0.10195657303E+01  0.10192745758E+01 0.  0.
     999903    2    3    3    0    0 -0.45343308173E-01  0.81779580327E-02 -0.12155652524E+00  0.13145905831E+00  0.19560178679E-01 0.  0.
         14    1    1    2    0    0  0.37946259568E-02  0.20289887565E-01  0.12943682389E-01  0.24364269686E-01  0.00000000000E+00 0.  1.
     999901    1    3    3    0    0  0.41548682217E-01 -0.28467845598E-01  0.10861284285E+00  0.88810667200E+00  0.88000000000E+00 0. -1.
        -11    1    4    4    0    0 -0.61655442492E-02 -0.50154764110E-02 -0.29289989856E-01  0.30353477004E-01  0.51100000000E-03 0. -1.
         11    1    4    4    0    0 -0.39177763924E-01  0.13193434444E-01 -0.92266535383E-01  0.10110558131E+00  0.51100000000E-03 0.  1.
</event>
<event>
 8    1  0.1094134E+005  0.1043930E+01  0.7957747E-01            NaN
         13   -1    0    0    0    0  0.00000000000E+00  0.00000000000E+00  0.74505805969E-08  0.10566000000E+00  0.10566000000E+00 0.  1.
     999900   -1    0    0    0    0 -0.00000000000E+00 -0.00000000000E+00 -0.74505805969E-08  0.93827000000E+00  0.93827000000E+00 0.  1.
     999902    2    1    2    0    0  0.16353717400E-01 -0.93557585674E-02 -0.12747053809E-01  0.10211822161E+01  0.10209288206E+01 0.  0.
     999903    2    3    3    0    0  0.85434084512E-01 -0.40574414278E-01 -0.92881139646E-01  0.13429542892E+00  0.21519531484E-01 0.  0.
         14    1    1    2    0    0 -0.16353717400E-01  0.93557585674E-02  0.12747053809E-01  0.22747783892E-01  0.00000000000E+00 0.  1.
     999901    1    3    3    0    0 -0.69080367112E-01  0.31218655710E-01  0.80134085837E-01  0.88688678719E+00  0.88000000000E+00 0. -1.
        -11    1    4    4    0    0  0.37450673690E-01 -0.83446005899E-02 -0.45746569536E-01  0.59709254426E-01  0.51100000000E-03 0.  1.
         11    1    4    4    0    0  0.47983410822E-01 -0.32229813688E-01 -0.47134570109E-01  0.74586174489E-01  0.51100000000E-03 0. -1.
</event>
<event>
 8    1  0.1094134E+005  0.1043930E+01  0.7957747E-01            NaN
         13   -1    0    0    0    0  0.00000000000E+00  0.00000000000E+00  0.74505805969E-08  0.10566000000E+00  0.10566000000E+00 0.  1.
     999900   -1    0    0    0    0 -0.00000000000E+00 -0.00000000000E+00 -0.74505805969E-08  0.93827000000E+00  0.93827000000E+00 0.  1.
     999902    2    1    2    0    0 -0.14312619009E-01  0.18427868026E-01  0.36030727042E-02  0.10203202665E+01  0.10200470708E+01 0.  0.
     999903    2    3    3    0    0 -0.36811163278E-01 -0.12494454182E-01  0.12383406162E+00  0.13132202961E+00  0.19985682781E-01 0.  0.
         14    1    1    2    0    0  0.14312619009E-01 -0.18427868026E-01 -0.36030727042E-02  0.23609733497E-01  0.00000000000E+00 0.  1.
     999901    1    3    3    0    0  0.22498544269E-01  0.30922322208E-01 -0.12023098892E+00  0.88899823689E+00  0.88000000000E+00 0.  1.
        -11    1    4    4    0    0 -0.17166715254E-01  0.43851185191E-02  0.54246597073E-01  0.57069079124E-01  0.51100000000E-03 0.  1.
         11    1    4    4    0    0 -0.19644448024E-01 -0.16879572701E-01  0.69587464547E-01  0.74252950486E-01  0.51100000000E-03 0. -1.
</event>
<event>
 8    1  0.1094134E+005  0.1043930E+01  0.7957747E-01            NaN
         13   -1    0    0    0    0  0.00000000000E+00  0.00000000000E+00  0.74505805969E-08  0.10566000000E+00  0.10566000000E+00 0.  1.
     999900   -1    0    0    0    0 -0.00000000000E+00 -0.00000000000E+00 -0.74505805969E-08  0.93827000000E+00  0.93827000000E+00 0.  1.
     999902    2    1    2    0    0 -0.52401748673E-02  0.20336768329E-01 -0.82819658168E-02  0.10213549134E+01  0.10211053934E+01 0.  0.
     999903    2    3    3    0    0 -0.13143938105E-01 -0.12282492604E+00  0.30944387094E-01  0.12888841709E+00  0.19898326607E-01 0.  0.
         14    1    1    2    0    0  0.52401748673E-02 -0.20336768329E-01  0.82819658168E-02  0.22575086634E-01  0.00000000000E+00 0.  1.
     999901    1    3    3    0    0  0.79037632375E-02  0.14316169437E+00 -0.39226352911E-01  0.89246649627E+00  0.88000000000E+00 0.  1.
        -11    1    4    4    0    0  0.16352998784E-02 -0.92941115741E-02  0.73988916362E-02  0.12002476165E-01  0.51100000000E-03 0. -1.
         11    1    4    4    0    0 -0.14779237983E-01 -0.11353081447E+00  0.23545495458E-01  0.11688594093E+00  0.51100000000E-03 0.  1.
</event>
<event>
 8    1  0.1094134E+005  0.1043930E+01  0.7957747E-01            NaN
         13   -1    0    0    0    0  0.00000000000E+00  0.00000000000E+00  0.74505805969E-08  0.10566000000E+00  0.10566000000E+00 0. -1.
     999900   -1    0    0    0    0 -0.00000000000E+00 -0.00000000000E+00 -0.74505805969E-08  0.93827000000E+00  0.93827000000E+00 0.  1.
     999902    2    1    2    0    0  0.26744140733E-02  0.19847307741E-01  0.14075471744E-01  0.10194517031E+01  0.10191577836E+01 0.  0.
     999903    2    3    3    0    0  0.40190890503E-01  0.12132390038E+00  0.28607340712E-01  0.13270700472E+00  0.21400296188E-01 0.  0.
         14    1    1    2    0    0 -0.26744140733E-02 -0.19847307741E-01 -0.14075471744E-01  0.24478296918E-01  0.00000000000E+00 0.  1.
     999901    1    3    3    0    0 -0.37516476430E-01 -0.10147659264E+00 -0.14531868968E-01  0.88674469836E+00  0.88000000000E+00 0. -1.
        -11    1    4    4    0    0  0.24625208237E-01  0.72034397891E-01  0.62414689450E-02  0.76384372851E-01  0.51100000000E-03 0. -1.
         11    1    4    4    0    0  0.15565682266E-01  0.49289502487E-01  0.22365871767E-01  0.56322631869E-01  0.51100000000E-03 0.  1.
</event>
<event>
 8    1  0.1373036E+005  0.1043930E+01  0.7957747E-01            NaN
         13   -1    0    0    0    0  0.00000000000E+00  0.00000000000E+00  0.74505805969E-08  0.10566000000E+00  0.10566000000E+00 0.  1.
     999900   -1    0    0    0    0 -0.00000000000E+00 -0.00000000000E+00 -0.74505805969E-08  0.93827000000E+00  0.93827000000E+00 0. -1.
     999902    2    1    2    0    0  0.89795733931E-02 -0.49298856239E-02  0.21494804418E-01  0.10201190125E+01  0.10198410839E+01 0.  0.
     999903    2    3    3    0    0  0.12445528093E+00 -0.28963086533E-01  0.27282941341E-01  0.13223065444E+00  0.20312797746E-01 0.  0.
         14    1    1    2    0    0 -0.89795733931E-02  0.49298856239E-02 -0.21494804418E-01  0.23810987538E-01  0.00000000000E+00 0. -1.
     999901    1    3    3    0    0 -0.11547570754E+00  0.24033200909E-01 -0.57881369234E-02  0.88788835802E+00  0.88000000000E+00 0. -1.
        -11    1    4    4    0    0  0.82248095862E-01 -0.18328675337E-01  0.27688408001E-01  0.88699485180E-01  0.51100000000E-03 0.  1.
         11    1    4    4    0    0  0.42207185071E-01 -0.10634411196E-01 -0.40546665989E-03  0.43531169262E-01  0.51100000000E-03 0. -1.
</event>
<event>
 8    1  0.1094134E+005  0.1043930E+01  0.7957747E-01            NaN
         13   -1    0    0    0    0  0.00000000000E+00  0.00000000000E+00  0.74505805969E-08  0.10566000000E+00  0.10566000000E+00 0.  1.
     999900   -1    0    0    0    0 -0.00000000000E+00 -0.00000000000E+00 -0.74505805969E-08  0.93827000000E+00  0.93827000000E+00 0.  1.
     999902    2    1    2    0    0 -0.19497289646E-01  0.92402677862E-02 -0.95789590087E-02  0.10203231512E+01  0.10200500231E+01 0.  0.
     999903    2    3    3    0    0 -0.60565650722E-01 -0.99679229307E-01  0.54265624780E-01  0.13036461401E+00  0.21119369074E-01 0.  0.
         14    1    1    2    0    0  0.19497289646E-01 -0.92402677862E-02  0.95789590087E-02  0.23606848752E-01  0.00000000000E+00 0.  1.
     999901    1    3    3    0    0  0.41068361076E-01  0.10891949709E+00 -0.63844583788E-01  0.88995853724E+00  0.88000000000E+00 0. -1.
        -11    1    4    4    0    0 -0.34201135393E-01 -0.74408402992E-01  0.40173845307E-01  0.91216923132E-01  0.51100000000E-03 0. -1.
         11    1    4    4    0    0 -0.26364515329E-01 -0.25270826314E-01  0.14091779473E-01  0.39147690875E-01  0.51100000000E-03 0.  1.
</event>
<event>
 8    1  0.1094134E+005  0.1043930E+01  0.7957747E-01            NaN
         13   -1    0    0    0    0  0.00000000000E+00  0.00000000000E+00  0.74505805969E-08  0.10566000000E+00  0.10566000000E+00 0.  1.
     999900   -1    0    0    0    0 -0.00000000000E+00 -0.00000000000E+00 -0.74505805969E-08  0.93827000000E+00  0.93827000000E+00 0. -1.
     999902    2    1    2    0    0 -0.15525083172E-01  0.56808912965E-02 -0.19825576052E-01  0.10181161626E+01  0.10177888614E+01 0.  0.
     999903    2    3    3    0    0  0.45698857282E-02  0.17313149071E-01 -0.12826255359E+00  0.13115635786E+00  0.20738335696E-01 0.  0.
         14    1    1    2    0    0  0.15525083172E-01 -0.56808912965E-02  0.19825576052E-01  0.25813837359E-01  0.00000000000E+00 0.  1.
     999901    1    3    3    0    0 -0.20094968900E-01 -0.11632257774E-01  0.10843697754E+00  0.88695980478E+00  0.88000000000E+00 0.  1.
        -11    1    4    4    0    0  0.90213736236E-02 -0.16156724007E-03 -0.33842642507E-01  0.35028514940E-01  0.51100000000E-03 0. -1.
         11    1    4    4    0    0 -0.44514878955E-02  0.17474716311E-01 -0.94419911084E-01  0.96127842921E-01  0.51100000000E-03 0.  1.
</event>
<event>
 8    1  0.1094134E+005  0.1043930E+01  0.7957747E-01            NaN
         13   -1    0    0    0    0  0.00000000000E+00  0.00000000000E+00  0.74505805969E-08  0.10566000000E+00  0.10566000000E+00 0. -1.
     999900   -1    0    0    0    0 -0.00000000000E+00 -0.00000000000E+00 -0.74505805969E-08  0.93827000000E+00  0.93827000000E+00 0. -1.
     999902    2    1    2    0    0 -0.23141290101E-01 -0.52351556443E-04  0.48767561855E-02  0.10202803742E+01  0.10200062437E+01 0.  0.
     999903    2    3    3    0    0 -0.13664579585E-01 -0.35768617268E-01  0.12432400914E+00  0.13144230916E+00  0.18828347593E-01 0.  0.
         14    1    1    2    0    0  0.23141290101E-01  0.52351556443E-04 -0.48767561855E-02  0.23649625772E-01  0.00000000000E+00 0. -1.
     999901    1    3    3    0    0 -0.94767105167E-02  0.35716265712E-01 -0.11944725295E+00  0.88883806507E+00  0.88000000000E+00 0.  1.
        -11    1    4    4    0    0 -0.33524182897E-02 -0.44868274975E-02  0.47792663918E-01  0.48122449800E-01  0.51100000000E-03 0.  1.
         11    1    4    4    0    0 -0.10312161295E-01 -0.31281789771E-01  0.76531345217E-01  0.83319859359E-01  0.51100000000E-03 0. -1.
</event>
<event>
 8    1  0.1094134E+005  0.1043930E+01  0.7957747E-01            NaN
         13   -1    0    0    0    0  0.00000000000E+00  0.00000000000E+00  0.74505805969E-08  0.10566000000E+00  0.10566000000E+00 0.  1.
     999900   -1    0    0    0    0 -0.00000000000E+00 -0.00000000000E+00 -0.74505805969E-08  0.93827000000E+00  0.93827000000E+00 0.  1.
     999902    2    1    2    0    0  0.41121782286E-02  0.41312864452E-02  0.23243145836E-01  0.10199670835E+01  0.10196855545E+01 0.  0.
     999903    2    3    3    0    0 -0.56698527506E-01  0.53421034358E-01  0.10546447165E+00  0.13267470353E+00  0.20280341324E-01 0.  0.
         14    1    1    2    0    0 -0.41121782286E-02 -0.41312864452E-02 -0.23243145836E-01  0.23962916472E-01  0.00000000000E+00 0. -1.
     999901    1    3    3    0    0  0.60810705735E-01 -0.49289747913E-01 -0.82221325811E-01  0.88729238000E+00  0.88000000000E+00 0.  1.
        -11    1    4    4    0    0 -0.23401676953E-01  0.24086146640E-01  0.29525916462E-01  0.44719367259E-01  0.51100000000E-03 0.  1.
         11    1    4    4    0    0 -0.33296850553E-01  0.29334887719E-01  0.75938555185E-01  0.87955336273E-01  0.51100000000E-03 0. -1.
</event>
<event>
 8    1  0.1094134E+005  0.1043930E+01  0.7957747E-01            NaN
         13   -1    0    0    0    0  0.00000000000E+00  0.00000000000E+00  0.74505805969E-08  0.10566000000E+00  0.10566000000E+00 0. -1.
     999900   -1    0    0    0    0 -0.00000000000E+00 -0.00000000000E+00 -0.74505805969E-08  0.93827000000E+00  0.93827000000E+00 0.  1.
     999902    2    1    2    0    0 -0.37142759450E-03  0.21734122270E-01  0.88560674244E-02  0.10204578898E+01  0.10201879066E+01 0.  0.
     999903    2    3    3    0    0 -0.97048120271E-01  0.24797227390E-01 -0.81610924540E-01  0.13054775825E+00  0.18685128969E-01 0.  0.
         14    1    1    2    0    0  0.37142759450E-03 -0.21734122270E-01 -0.88560674244E-02  0.23472110249E-01  0.00000000000E+00 0.  1.
     999901    1    3    3    0    0  0.96676692676E-01 -0.30631051203E-02  0.90466991965E-01  0.88991013150E+00  0.88000000000E+00 0. -1.
        -11    1    4    4    0    0 -0.34127531269E-01  0.93465243803E-02 -0.17812898761E-01  0.39618258313E-01  0.51100000000E-03 0. -1.
         11    1    4    4    0    0 -0.62920589002E-01  0.15450703010E-01 -0.63798025779E-01  0.90929499933E-01  0.51100000000E-03 0.  1.
</event>
<event>
 8    1  0.1094134E+005  0.1043930E+01  0.7957747E-01            NaN
         13   -1    0    0    0    0  0.00000000000E+00  0.00000000000E+00  0.74505805969E-08  0.10566000000E+00  0.10566000000E+00 0. -1.
     999900   -1    0    0    0    0 -0.00000000000E+00 -0.00000000000E+00 -0.74505805969E-08  0.93827000000E+00  0.93827000000E+00 0.  1.
     999902    2    1    2    0    0 -0.24807310844E-01 -0.23551645675E-01  0.13132705758E-01  0.10072891670E+01  0.10066225287E+01 0.  0.
     999903    2    3    3    0    0 -0.62838284015E-01  0.92798265558E-01  0.33099767936E-01  0.11859217679E+00  0.20207467185E-01 0.  0.
         14    1    1    2    0    0  0.24807310844E-01  0.23551645675E-01 -0.13132705758E-01  0.36640833040E-01  0.00000000000E+00 0. -1.
     999901    1    3    3    0    0  0.38030973171E-01 -0.11634991123E+00 -0.19967062178E-01  0.88869699017E+00  0.88000000000E+00 0. -1.
        -11    1    4    4    0    0 -0.23988740501E-01  0.49194669462E-01  0.92618612338E-02  0.55512326278E-01  0.51100000000E-03 0.  1.
         11    1    4    4    0    0 -0.38849543514E-01  0.43603596096E-01  0.23837906702E-01  0.63079850512E-01  0.51100000000E-03 0. -1.
</event>
<event>
 8    1  0.1094134E+005  0.1043930E+01  0.7957747E-01            NaN
         13   -1    0    0    0    0  0.00000000000E+00  0.00000000000E+00  0.74505805969E-08  0.10566000000E+00  0.10566000000E+00 0. -1.
     999900   -1    0    0    0    0 -0.00000000000E+00 -0.00000000000E+00 -0.74505805969E-08  0.93827000000E+00  0.93827000000E+00 0.  1.
     999902    2    1    2    0    0 -0.25128920789E-01 -0.12879108408E-03 -0.10876984286E-02  0.10187772201E+01  0.10184666720E+01 0.  0.
     999903    2    3    3    0    0 -0.12937247658E+00 -0.12293371202E-01 -0.15333518092E-01  0.13242647730E+00  0.20329546019E-01 0.  0.
         14    1    1    2    0    0  0.25128920789E-01  0.12879108408E-03  0.10876984286E-02  0.25152779867E-01  0.00000000000E+00 0. -1.
     999901    1    3    3    0    0  0.10424355579E+00  0.12164580117E-01  0.14245819664E-01  0.88635074283E+00  0.88000000000E+00 0. -1.
        -11    1    4    4    0    0 -0.10953907945E+00 -0.13367235268E-01 -0.19663641170E-01  0.11209109158E+00  0.51100000000E-03 0.  1.
         11    1    4    4    0    0 -0.19833397132E-01  0.10738640664E-02  0.43301230776E-02  0.20335385728E-01  0.51100000000E-03 0. -1.
</event>
<event>
 8    1  0.1094134E+005  0.1043930E+01  0.7957747E-01            NaN
         13   -1    0    0    0    0  0.00000000000E+00  0.00000000000E+00  0.74505805969E-08  0.10566000000E+00  0.10566000000E+00 0. -1.
     999900   -1    0    0    0    0 -0.00000000000E+00 -0.00000000000E+00 -0.74505805969E-08  0.93827000000E+00  0.93827000000E+00 0. -1.
     999902    2    1    2    0    0 -0.17375193196E-01  0.14457397386E-01  0.16174506193E-02  0.10212688036E+01  0.10210173550E+01 0.  0.
     999903    2    3    3    0    0 -0.29015099711E-01  0.54850277258E-01 -0.11536141751E+00  0.13253311295E+00  0.20157888092E-01 0.  0.
         14    1    1    2    0    0  0.17375193196E-01 -0.14457397386E-01 -0.16174506193E-02  0.22661196444E-01  0.00000000000E+00 0.  1.
     999901    1    3    3    0    0  0.11639906515E-01 -0.40392879872E-01  0.11697886813E+00  0.88873569061E+00  0.88000000000E+00 0.  1.
        -11    1    4    4    0    0 -0.26032959068E-01  0.45206746034E-01 -0.10827971332E+00  0.12019202254E+00  0.51100000000E-03 0.  1.
         11    1    4    4    0    0 -0.29821406429E-02  0.96435312238E-02 -0.70817041875E-02  0.12341090409E-01  0.51100000000E-03 0. -1.
</event>
<event>
 8    1  0.1094134E+005  0.1043930E+01  0.7957747E-01            NaN
         13   -1    0    0    0    0  0.00000000000E+00  0.00000000000E+00  0.74505805969E-08  0.10566000000E+00  0.10566000000E+00 0. -1.
     999900   -1    0    0    0    0 -0.00000000000E+00 -0.00000000000E+00 -0.74505805969E-08  0.93827000000E+00  0.93827000000E+00 0.  1.
     999902    2    1    2    0    0  0.10630492850E-01 -0.13753272834E-01 -0.16309552971E-01  0.10200938634E+01  0.10198153405E+01 0.  0.
     999903    2    3    3    0    0  0.51397089058E-01  0.11597669858E+00 -0.17843846390E-01  0.12964783192E+00  0.19947483280E-01 0.  0.
         14    1    1    2    0    0 -0.10630492850E-01  0.13753272834E-01  0.16309552971E-01  0.23836136642E-01  0.00000000000E+00 0. -1.
     999901    1    3    3    0    0 -0.40766596208E-01 -0.12972997142E+00  0.15342934190E-02  0.89044603144E+00  0.88000000000E+00 0.  1.
        -11    1    4    4    0    0  0.46465886037E-01  0.84664611100E-01 -0.10877060402E-01  0.97189230381E-01  0.51100000000E-03 0. -1.
         11    1    4    4    0    0  0.49312030210E-02  0.31312087483E-01 -0.69667859882E-02  0.32458601538E-01  0.51100000000E-03 0.  1.
</event>
<event>
 8    1  0.1094134E+005  0.1043930E+01  0.7957747E-01            NaN
         13   -1    0    0    0    0  0.00000000000E+00  0.00000000000E+00  0.74505805969E-08  0.10566000000E+00  0.10566000000E+00 0. -1.
     999900   -1    0    0    0    0 -0.00000000000E+00 -0.00000000000E+00 -0.74505805969E-08  0.93827000000E+00  0.93827000000E+00 0.  1.
     999902    2    1    2    0    0  0.74842843288E-02 -0.17217314299E-01  0.13068362327E-01  0.10210557237E+01  0.10207994702E+01 0.  0.
     999903    2    3    3    0    0 -0.10956636267E+00  0.31375151450E-01 -0.57209620455E-01  0.12920311446E+00  0.20768152462E-01 0.  0.
         14    1    1    2    0    0 -0.74842843288E-02  0.17217314299E-01 -0.13068362327E-01  0.22874276327E-01  0.00000000000E+00 0. -1.
     999901    1    3    3    0    0  0.11705064700E+00 -0.48592465749E-01  0.70277982782E-01  0.89185260921E+00  0.88000000000E+00 0. -1.
        -11    1    4    4    0    0 -0.39517279730E-01  0.12001827561E-02 -0.21031783593E-01  0.44784516052E-01  0.51100000000E-03 0.  1.
         11    1    4    4    0    0 -0.70049082942E-01  0.30174968693E-01 -0.36177836863E-01  0.84418598411E-01  0.51100000000E-03 0. -1.
</event>
<event>
 8    1  0.1094134E+005  0.1043930E+01  0.7957747E-01            NaN
         13   -1    0    0    0    0  0.00000000000E+00  0.00000000000E+00  0.74505805969E-08  0.10566000000E+00  0.10566000000E+00 0.  1.
     999900   -1    0    0    0    0 -0.00000000000E+00 -0.00000000000E+00 -0.74505805969E-08  0.93827000000E+00  0.93827000000E+00 0.  1.
     999902    2    1    2    0    0 -0.80569114819E-02  0.25994621271E-01 -0.81106872504E-03  0.10167033221E+01  0.10163387000E+01 0.  0.
     999903    2    3    3    0    0 -0.53643987849E-01  0.28489446714E-01 -0.11060529514E+00  0.12870603727E+00  0.25345348881E-01 0.  0.
         14    1    1    2    0    0  0.80569114819E-02 -0.25994621271E-01  0.81106872504E-03  0.27226677912E-01  0.00000000000E+00 0.  1.
     999901    1    3    3    0    0  0.45587076368E-01 -0.24948254428E-02  0.10979422642E+00  0.88799728482E+00  0.88000000000E+00 0. -1.
        -11    1    4    4    0    0 -0.38310598923E-01  0.15237194501E-01 -0.93473419474E-01  0.10216366945E+00  0.51100000000E-03 0. -1.
         11    1    4    4    0    0 -0.15333388927E-01  0.13252252212E-01 -0.17131875670E-01  0.26542367823E-01  0.51100000000E-03 0.  1.
</event>
<event>
 8    1  0.1094134E+005  0.1043930E+01  0.7957747E-01            NaN
         13   -1    0    0    0    0  0.00000000000E+00  0.00000000000E+00  0.74505805969E-08  0.10566000000E+00  0.10566000000E+00 0. -1.
     999900   -1    0    0    0    0 -0.00000000000E+00 -0.00000000000E+00 -0.74505805969E-08  0.93827000000E+00  0.93827000000E+00 0. -1.
     999902    2    1    2    0    0 -0.19962220540E-01  0.99950710905E-02 -0.91516171416E-02  0.10198023439E+01  0.10195168840E+01 0.  0.
     999903    2    3    3    0    0 -0.10580683057E+00 -0.38389257523E-01 -0.67209668213E-01  0.13240103800E+00  0.18549255330E-01 0.  0.
         14    1    1    2    0    0  0.19962220540E-01 -0.99950710905E-02  0.91516171416E-02  0.24127656150E-01  0.00000000000E+00 0. -1.
     999901    1    3    3    0    0  0.85844610034E-01  0.48384328614E-01  0.58058051072E-01  0.88740130585E+00  0.88000000000E+00 0.  1.
        -11    1    4    4    0    0 -0.76483954916E-01 -0.24977783563E-01 -0.38384529482E-01  0.89147732758E-01  0.51100000000E-03 0.  1.
         11    1    4    4    0    0 -0.29322875658E-01 -0.13411473960E-01 -0.28825138731E-01  0.43253305244E-01  0.51100000000E-03 0. -1.
</event>
<event>
 8    1  0.1094134E+005  0.1043930E+01  0.7957747E-01            NaN
         13   -1    0    0    0    0  0.00000000000E+00  0.00000000000E+00  0.74505805969E-08  0.10566000000E+00  0.10566000000E+00 0.  1.
     999900   -1    0    0    0    0 -0.00000000000E+00 -0.00000000000E+00 -0.74505805969E-08  0.93827000000E+00  0.93827000000E+00 0.  1.
     999902    2    1    2    0    0  0.95351641732E-02  0.20485194214E-01 -0.42526680250E-02  0.10209376595E+01  0.10206787236E+01 0.  0.
     999903    2    3    3    0    0 -0.78046755113E-01  0.10210041553E+00 -0.25423166768E-01  0.13257972094E+00  0.20377785966E-01 0.  0.
         14    1    1    2    0    0 -0.95351641732E-02 -0.20485194214E-01  0.42526680250E-02  0.22992340531E-01  0.00000000000E+00 0.  1.
     999901    1    3    3    0    0  0.87581919286E-01 -0.81615221313E-01  0.21170498743E-01  0.88835793853E+00  0.88000000000E+00 0.  1.
        -11    1    4    4    0    0 -0.40174993891E-01  0.66887184453E-01 -0.10336716654E-01  0.78708540899E-01  0.51100000000E-03 0. -1.
         11    1    4    4    0    0 -0.37871761222E-01  0.35213231073E-01 -0.15086450114E-01  0.53871180038E-01  0.51100000000E-03 0.  1.
</event>
<event>
 8    1  0.1094134E+005  0.1043930E+01  0.7957747E-01            NaN
         13   -1    0    0    0    0  0.00000000000E+00  0.00000000000E+00  0.74505805969E-08  0.10566000000E+00  0.10566000000E+00 0. -1.
     999900   -1    0    0    0    0 -0.00000000000E+00 -0.00000000000E+00 -0.74505805969E-08  0.93827000000E+00  0.93827000000E+00 0. -1.
     999902    2    1    2    0    0 -0.75696925626E-03 -0.16734741756E-01  0.10349371854E-01  0.10242390355E+01  0.10240497389E+01 0.  0.
     999903    2    3    3    0    0  0.59170021622E-01 -0.11942204251E+00 -0.19028871768E-01  0.13575774300E+00  0.17474299051E-01 0.  0.
         14    1    1    2    0    0  0.75696925626E-03  0.16734741756E-01 -0.10349371854E-01  0.19690964473E-01  0.00000000000E+00 0.  1.
     999901    1    3    3    0    0 -0.59926990879E-01  0.10268730075E+00  0.29378243622E-01  0.88848129253E+00  0.88000000000E+00 0. -1.
        -11    1    4    4    0    0  0.29911211341E-01 -0.78214799210E-01 -0.89036665850E-02  0.84212658068E-01  0.51100000000E-03 0.  1.
         11    1    4    4    0    0  0.29258810282E-01 -0.41207243302E-01 -0.10125205183E-01  0.51545084932E-01  0.51100000000E-03 0. -1.
</event>
<event>
 8    1  0.1094134E+005  0.1043930E+01  0.7957747E-01            NaN
         13   -1    0    0    0    0  0.00000000000E+00  0.00000000000E+00  0.74505805969E-08  0.10566000000E+00  0.10566000000E+00 0. -1.
     999900   -1    0    0    0    0 -0.00000000000E+00 -0.00000000000E+00 -0.74505805969E-08  0.93827000000E+00  0.93827000000E+00 0. -1.
     999902    2    1    2    0    0  0.36988883386E-02  0.22970882116E-01  0.43000070617E-02  0.10202692041E+01  0.10199948116E+01 0.  0.
     999903    2    3    3    0    0  0.43667591496E-01 -0.11664658731E+00  0.27903895130E-01  0.12805416362E+00  0.10293521123E-01 0.  0.
         14    1    1    2    0    0 -0.36988883386E-02 -0.22970882116E-01 -0.43000070617E-02  0.23660795863E-01  0.00000000000E+00 0.  1.
     999901    1    3    3    0    0 -0.39968703158E-01  0.13961746943E+00 -0.23603888068E-01  0.89221504052E+00  0.88000000000E+00 0.  1.
        -11    1    4    4    0    0  0.28766393215E-01 -0.67719882971E-01  0.12463556197E-01  0.74626331025E-01  0.51100000000E-03 0. -1.
         11    1    4    4    0    0  0.14901198281E-01 -0.48926704341E-01  0.15440338933E-01  0.53427832590E-01  0.51100000000E-03 0.  1.
</event>
<event>
 8    1  0.1094134E+005  0.1043930E+01  0.7957747E-01            NaN
         13   -1    0    0    0    0  0.00000000000E+00  0.00000000000E+00  0.74505805969E-08  0.10566000000E+00  0.10566000000E+00 0.  1.
     999900   -1    0    0    0    0 -0.00000000000E+00 -0.00000000000E+00 -0.74505805969E-08  0.93827000000E+00  0.93827000000E+00 0.  1.
     999902    2    1    2    0    0 -0.10425963342E-01  0.78461129981E-02 -0.19358134952E-01  0.10205847737E+01  0.10203177352E+01 0.  0.
     999903    2    3    3    0    0  0.12714811913E+00  0.14989140707E-01 -0.42411981798E-02  0.12973901110E+00  0.20564646891E-01 0.  0.
         14    1    1    2    0    0  0.10425963342E-01 -0.78461129981E-02  0.19358134952E-01  0.23345226270E-01  0.00000000000E+00 0. -1.
     999901    1    3    3    0    0 -0.13757408247E+00 -0.71430277086E-02 -0.15116936772E-01  0.89084576263E+00  0.88000000000E+00 0. -1.
        -11    1    4    4    0    0  0.62955154594E-01  0.16096151803E-01  0.34594326566E-02  0.65074314350E-01  0.51100000000E-03 0. -1.
         11    1    4    4    0    0  0.64192964538E-01 -0.11070110959E-02 -0.77006308364E-02  0.64664696752E-01  0.51100000000E-03 0.  1.
</event>
<event>
 8    1  0.1094134E+005  0.1043930E+01  0.7957747E-01            NaN
         13   -1    0    0    0    0  0.00000000000E+00  0.00000000000E+00  0.74505805969E-08  0.10566000000E+00  0.10566000000E+00 0.  1.
     999900   -1    0    0    0    0 -0.00000000000E+00 -0.00000000000E+00 -0.74505805969E-08  0.93827000000E+00  0.93827000000E+00 0.  1.
     999902    2    1    2    0    0  0.25193911926E-02 -0.12219610649E-01 -0.20298131344E-01  0.10201039564E+01  0.10198256721E+01 0.  0.
     999903    2    3    3    0    0  0.12193866228E+00 -0.44053137348E-01 -0.40964057177E-02  0.13132005038E+00  0.20456266098E-01 0.  0.
         14    1    1    2    0    0 -0.25193911926E-02  0.12219610649E-01  0.20298131344E-01  0.23826043575E-01  0.00000000000E+00 0.  1.
     999901    1    3    3    0    0 -0.11941927109E+00  0.31833526699E-01 -0.16201725626E-01  0.88878390604E+00  0.88000000000E+00 0.  1.
        -11    1    4    4    0    0  0.10010838486E+00 -0.30816594620E-01 -0.96474161938E-02  0.10518880636E+00  0.51100000000E-03 0.  1.
         11    1    4    4    0    0  0.21830277421E-01 -0.13236542728E-01  0.55510104762E-02  0.26131244019E-01  0.51100000000E-03 0. -1.
</event>
<event>
 8    1  0.1094134E+005  0.1043930E+01  0.7957747E-01            NaN
         13   -1    0    0    0    0  0.00000000000E+00  0.00000000000E+00  0.74505805969E-08  0.10566000000E+00  0.10566000000E+00 0. -1.
     999900   -1    0    0    0    0 -0.00000000000E+00 -0.00000000000E+00 -0.74505805969E-08  0.93827000000E+00  0.93827000000E+00 0. -1.
     999902    2    1    2    0    0 -0.16452415976E-01 -0.62199129927E-02 -0.12716780679E-01  0.10222254885E+01  0.10219950408E+01 0.  0.
     999903    2    3    3    0    0 -0.40896839019E-01  0.14492029788E-01  0.12228045876E+00  0.13135469592E+00  0.20468883175E-01 0.  0.
         14    1    1    2    0    0  0.16452415976E-01  0.62199129927E-02  0.12716780679E-01  0.21704511510E-01  0.00000000000E+00 0. -1.
     999901    1    3    3    0    0  0.24444423043E-01 -0.20711942781E-01 -0.13499723944E+00  0.89087079257E+00  0.88000000000E+00 0. -1.
        -11    1    4    4    0    0 -0.18804110532E-01  0.14589772276E-01  0.82292826951E-01  0.85666951134E-01  0.51100000000E-03 0. -1.
         11    1    4    4    0    0 -0.22092728487E-01 -0.97742487549E-04  0.39987631805E-01  0.45687744790E-01  0.51100000000E-03 0.  1.
</event>
<event>
 8    1  0.1094134E+005  0.1043930E+01  0.7957747E-01            NaN
         13   -1    0    0    0    0  0.00000000000E+00  0.00000000000E+00  0.74505805969E-08  0.10566000000E+00  0.10566000000E+00 0.  1.
     999900   -1    0    0    0    0 -0.00000000000E+00 -0.00000000000E+00 -0.74505805969E-08  0.93827000000E+00  0.93827000000E+00 0. -1.
     999902    2    1    2    0    0  0.21545605206E-01  0.12000742863E-02 -0.11891793442E-01  0.10192912494E+01  0.10189934166E+01 0.  0.
     999903    2    3    3    0    0  0.64612716708E-01 -0.54829816767E-01 -0.99349617353E-01  0.13213681199E+00  0.20215801896E-01 0.  0.
         14    1    1    2    0    0 -0.21545605206E-01 -0.12000742863E-02  0.11891793442E-01  0.24638750643E-01  0.00000000000E+00 0.  1.
     999901    1    3    3    0    0 -0.43067111502E-01  0.56029891053E-01  0.87457823912E-01  0.88715443737E+00  0.88000000000E+00 0.  1.
        -11    1    4    4    0    0  0.29040206862E-01 -0.19316906679E-01 -0.54851463149E-01  0.65003235525E-01  0.51100000000E-03 0.  1.
         11    1    4    4    0    0  0.35572509846E-01 -0.35512910088E-01 -0.44498154205E-01  0.67133576460E-01  0.51100000000E-03 0. -1.
</event>
<event>
 8    1  0.1094134E+005  0.1043930E+01  0.7957747E-01            NaN
         13   -1    0    0    0    0  0.00000000000E+00  0.00000000000E+00  0.74505805969E-08  0.10566000000E+00  0.10566000000E+00 0. -1.
     999900   -1    0    0    0    0 -0.00000000000E+00 -0.00000000000E+00 -0.74505805969E-08  0.93827000000E+00  0.93827000000E+00 0. -1.
     999902    2    1    2    0    0 -0.59352971991E-03 -0.23721276874E-01  0.11096953093E-02  0.10201753651E+01  0.10198987660E+01 0.  0.
     999903    2    3    3    0    0 -0.96781291256E-01 -0.87999325400E-01  0.79533318757E-02  0.13257715178E+00  0.20073516801E-01 0.  0.
         14    1    1    2    0    0  0.59352971991E-03  0.23721276874E-01 -0.11096953093E-02  0.23754634869E-01  0.00000000000E+00 0. -1.
     999901    1    3    3    0    0  0.96187761536E-01  0.64278048526E-01 -0.68436365664E-02  0.88759821336E+00  0.88000000000E+00 0. -1.
        -11    1    4    4    0    0 -0.65614970058E-01 -0.70963520692E-01  0.87491195952E-02  0.97046142527E-01  0.51100000000E-03 0.  1.
         11    1    4    4    0    0 -0.31166321198E-01 -0.17035804708E-01 -0.79578771951E-03  0.35531009248E-01  0.51100000000E-03 0. -1.
</event>
<event>
 8    1  0.1094134E+005  0.1043930E+01  0.7957747E-01            NaN
         13   -1    0    0    0    0  0.00000000000E+00  0.00000000000E+00  0.74505805969E-08  0.10566000000E+00  0.10566000000E+00 0. -1.
     999900   -1    0    0    0    0 -0.00000000000E+00 -0.00000000000E+00 -0.74505805969E-08  0.93827000000E+00  0.93827000000E+00 0. -1.
     999902    2    1    2    0    0 -0.20383139498E-01  0.55339097949E-02 -0.48779441676E-03  0.10228033704E+01  0.10225851554E+01 0.  0.
     999903    2    3    3    0    0 -0.11735600323E+00 -0.54374724454E-01 -0.31540080931E-01  0.13490865525E+00  0.21829484681E-01 0.  0.
         14    1    1    2    0    0  0.20383139498E-01 -0.55339097949E-02  0.48779441676E-03  0.21126629566E-01  0.00000000000E+00 0. -1.
     999901    1    3    3    0    0  0.96972863734E-01  0.59908634249E-01  0.31052286514E-01  0.88789471519E+00  0.88000000000E+00 0.  1.
        -11    1    4    4    0    0 -0.63562297193E-01 -0.23990603903E-01 -0.26477318379E-01  0.72917927903E-01  0.51100000000E-03 0.  1.
         11    1    4    4    0    0 -0.53793706039E-01 -0.30384120551E-01 -0.50627625526E-02  0.61990727345E-01  0.51100000000E-03 0. -1.
</event>
<event>
 8    1  0.1094134E+005  0.1043930E+01  0.7957747E-01            NaN
         13   -1    0    0    0    0  0.00000000000E+00  0.00000000000E+00  0.74505805969E-08  0.10566000000E+00  0.10566000000E+00 0. -1.
     999900   -1    0    0    0    0 -0.00000000000E+00 -0.00000000000E+00 -0.74505805969E-08  0.93827000000E+00  0.93827000000E+00 0.  1.
     999902    2    1    2    0    0  0.69117670232E-02 -0.19034403153E-01  0.11990763896E-01  0.10203957814E+01  0.10201243509E+01 0.  0.
     999903    2    3    3    0    0  0.31260627233E-01  0.22546793257E-01  0.12455175585E+00  0.13191852237E+00  0.20094077687E-01 0.  0.
         14    1    1    2    0    0 -0.69117670232E-02  0.19034403153E-01 -0.11990763896E-01  0.23534218610E-01  0.00000000000E+00 0.  1.
     999901    1    3    3    0    0 -0.24348860210E-01 -0.41581196410E-01 -0.11256099195E+00  0.88847725902E+00  0.88000000000E+00 0.  1.
        -11    1    4    4    0    0  0.12659409792E-01  0.29649617746E-02  0.19452692293E-01  0.23403418833E-01  0.51100000000E-03 0.  1.
         11    1    4    4    0    0  0.18601217442E-01  0.19581831482E-01  0.10509906355E+00  0.10851510354E+00  0.51100000000E-03 0. -1.
</event>
<event>
 8    1  0.1094134E+005  0.1043930E+01  0.7957747E-01            NaN
         13   -1    0    0    0    0  0.00000000000E+00  0.00000000000E+00  0.74505805969E-08  0.10566000000E+00  0.10566000000E+00 0. -1.
     999900   -1    0    0    0    0 -0.00000000000E+00 -0.00000000000E+00 -0.74505805969E-08  0.93827000000E+00  0.93827000000E+00 0. -1.
     999902    2    1    2    0    0  0.14116175316E-01  0.19182136547E-01 -0.42728288189E-03  0.10201097704E+01  0.10198316235E+01 0.  0.
     999903    2    3    3    0    0  0.81227794284E-01  0.19246333453E-01  0.99798521829E-01  0.13188165473E+00  0.21555741202E-01 0.  0.
         14    1    1    2    0    0 -0.14116175316E-01 -0.19182136547E-01  0.42728288189E-03  0.23820229611E-01  0.00000000000E+00 0.  1.
     999901    1    3    3    0    0 -0.67111618967E-01 -0.64196905679E-04 -0.10022580471E+00  0.88822811566E+00  0.88000000000E+00 0. -1.
        -11    1    4    4    0    0  0.59812493345E-01  0.62866888291E-02  0.79275897958E-01  0.99508722907E-01  0.51100000000E-03 0.  1.
         11    1    4    4    0    0  0.21415300938E-01  0.12959644624E-01  0.20522623871E-01  0.32372931820E-01  0.51100000000E-03 0. -1.
</event>
<event>
 8    1  0.1094134E+005  0.1043930E+01  0.7957747E-01            NaN
         13   -1    0    0    0    0  0.00000000000E+00  0.00000000000E+00  0.74505805969E-08  0.10566000000E+00  0.10566000000E+00 0. -1.
     999900   -1    0    0    0    0 -0.00000000000E+00 -0.00000000000E+00 -0.74505805969E-08  0.93827000000E+00  0.93827000000E+00 0.  1.
     999902    2    1    2    0    0  0.43083735910E-02  0.27396817966E-01 -0.65455566075E-02  0.10154345262E+01  0.10150346225E+01 0.  0.
     999903    2    3    3    0    0  0.81967757739E-01  0.63697440112E-01  0.71694266014E-01  0.12781400761E+00  0.20500623824E-01 0.  0.
         14    1    1    2    0    0 -0.43083735910E-02 -0.27396817966E-01  0.65455566075E-02  0.28495473833E-01  0.00000000000E+00 0.  1.
     999901    1    3    3    0    0 -0.77659384148E-01 -0.36300622146E-01 -0.78239822622E-01  0.88762051855E+00  0.88000000000E+00 0.  1.
        -11    1    4    4    0    0  0.68375914867E-01  0.53496857038E-01  0.68330295173E-01  0.11048289373E+00  0.51100000000E-03 0.  1.
         11    1    4    4    0    0  0.13591842872E-01  0.10200583074E-01  0.33639708412E-02  0.17331113886E-01  0.51100000000E-03 0. -1.
</event>
<event>
 8    1  0.1094134E+005  0.1043930E+01  0.7957747E-01            NaN
         13   -1    0    0    0    0  0.00000000000E+00  0.00000000000E+00  0.74505805969E-08  0.10566000000E+00  0.10566000000E+00 0. -1.
     999900   -1    0    0    0    0 -0.00000000000E+00 -0.00000000000E+00 -0.74505805969E-08  0.93827000000E+00  0.93827000000E+00 0.  1.
     999902    2    1    2    0    0  0.16034518371E-02 -0.24174819524E-01  0.52507796526E-02  0.10191396058E+01  0.10188380502E+01 0.  0.
     999903    2    3    3    0    0 -0.40870160418E-01  0.11211638533E+00  0.38584932665E-01  0.12701267202E+00  0.20074061676E-01 0.  0.
         14    1    1    2    0    0 -0.16034518371E-02  0.24174819524E-01 -0.52507796526E-02  0.24790394183E-01  0.00000000000E+00 0. -1.
     999901    1    3    3    0    0  0.42473612256E-01 -0.13629120485E+00 -0.33334153012E-01  0.89212693380E+00  0.88000000000E+00 0.  1.
        -11    1    4    4    0    0 -0.35527654404E-01  0.78597880281E-01  0.34185355035E-01  0.92783299316E-01  0.51100000000E-03 0. -1.
         11    1    4    4    0    0 -0.53425060146E-02  0.33518505046E-01  0.43995776302E-02  0.34229372699E-01  0.51100000000E-03 0.  1.
</event>
<event>
 8    1  0.1094134E+005  0.1043930E+01  0.7957747E-01            NaN
         13   -1    0    0    0    0  0.00000000000E+00  0.00000000000E+00  0.74505805969E-08  0.10566000000E+00  0.10566000000E+00 0.  1.
     999900   -1    0    0    0    0 -0.00000000000E+00 -0.00000000000E+00 -0.74505805969E-08  0.93827000000E+00  0.93827000000E+00 0. -1.
     999902    2    1    2    0    0  0.10872439861E-01  0.10125390357E-01 -0.16286661070E-01  0.10218848462E+01  0.10216470281E+01 0.  0.
     999903    2    3    3    0    0  0.68631641518E-01  0.51034944535E-01  0.98039146749E-01  0.13167132834E+00  0.20268118579E-01 0.  0.
         14    1    1    2    0    0 -0.10872439861E-01 -0.10125390357E-01  0.16286661070E-01  0.22045153826E-01  0.00000000000E+00 0.  1.
     999901    1    3    3    0    0 -0.57759201657E-01 -0.40909554178E-01 -0.11432580782E+00  0.89021351783E+00  0.88000000000E+00 0. -1.
        -11    1    4    4    0    0  0.41387146940E-01  0.41964922995E-01  0.70339965899E-01  0.91771033651E-01  0.51100000000E-03 0.  1.
         11    1    4    4    0    0  0.27244494578E-01  0.90700215396E-02  0.27699180850E-01  0.39900294689E-01  0.51100000000E-03 0. -1.
</event>
<event>
 8    1  0.1094134E+005  0.1043930E+01  0.7957747E-01            NaN
         13   -1    0    0    0    0  0.00000000000E+00  0.00000000000E+00  0.74505805969E-08  0.10566000000E+00  0.10566000000E+00 0. -1.
     999900   -1    0    0    0    0 -0.00000000000E+00 -0.00000000000E+00 -0.74505805969E-08  0.93827000000E+00  0.93827000000E+00 0. -1.
     999902    2    1    2    0    0  0.93648446276E-02  0.15503063202E-01  0.15516067813E-01  0.10200806050E+01  0.10198017685E+01 0.  0.
     999903    2    3    3    0    0  0.35396186625E-01  0.12536186473E+00 -0.13172439560E-01  0.13240407745E+00  0.19719011241E-01 0.  0.
         14    1    1    2    0    0 -0.93648446276E-02 -0.15503063202E-01 -0.15516067813E-01  0.23849395043E-01  0.00000000000E+00 0.  1.
     999901    1    3    3    0    0 -0.26031341998E-01 -0.10985880153E+00  0.28688507373E-01  0.88767652751E+00  0.88000000000E+00 0.  1.
        -11    1    4    4    0    0  0.18504977918E-01  0.51895296101E-01  0.34570594458E-02  0.55206596944E-01  0.51100000000E-03 0.  1.
         11    1    4    4    0    0  0.16891208707E-01  0.73466568628E-01 -0.16629499006E-01  0.77197480501E-01  0.51100000000E-03 0. -1.
</event>
<event>
 8    1  0.1094134E+005  0.1043930E+01  0.7957747E-01            NaN
         13   -1    0    0    0    0  0.00000000000E+00  0.00000000000E+00  0.74505805969E-08  0.10566000000E+00  0.10566000000E+00 0.  1.
     999900   -1    0    0    0    0 -0.00000000000E+00 -0.00000000000E+00 -0.74505805969E-08  0.93827000000E+00  0.93827000000E+00 0. -1.
     999902    2    1    2    0    0  0.27561878690E-02  0.21026238859E-01 -0.12493434843E-01  0.10193172958E+01  0.10190201001E+01 0.  0.
     999903    2    3    3    0    0  0.98281817785E-01 -0.64575020796E-01 -0.49276707127E-01  0.12925789852E+00  0.21217008445E-01 0.  0.
         14    1    1    2    0    0 -0.27561878690E-02 -0.21026238859E-01  0.12493434843E-01  0.24612704165E-01  0.00000000000E+00 0. -1.
     999901    1    3    3    0    0 -0.95525629916E-01  0.85601259655E-01  0.36783272283E-01  0.89005939731E+00  0.88000000000E+00 0. -1.
        -11    1    4    4    0    0  0.63317792433E-01 -0.32811181892E-01 -0.21639880670E-01  0.74526921660E-01  0.51100000000E-03 0.  1.
         11    1    4    4    0    0  0.34964025351E-01 -0.31763838904E-01 -0.27636826456E-01  0.54730976862E-01  0.51100000000E-03 0. -1.
</event>
<event>
 8    1  0.1094134E+005  0.1043930E+01  0.7957747E-01            NaN
         13   -1    0    0    0    0  0.00000000000E+00  0.00000000000E+00  0.74505805969E-08  0.10566000000E+00  0.10566000000E+00 0.  1.
     999900   -1    0    0    0    0 -0.00000000000E+00 -0.00000000000E+00 -0.74505805969E-08  0.93827000000E+00  0.93827000000E+00 0. -1.
     999902    2    1    2    0    0 -0.90337525677E-02 -0.11842402400E-01  0.17658997341E-01  0.10208282389E+01  0.10205668042E+01 0.  0.
     999903    2    3    3    0    0 -0.42597670083E-01 -0.12315052380E+00  0.17105830611E-01  0.13318172114E+00  0.21544103503E-01 0.  0.
         14    1    1    2    0    0  0.90337525677E-02  0.11842402400E-01 -0.17658997341E-01  0.23101761126E-01  0.00000000000E+00 0. -1.
     999901    1    3    3    0    0  0.33563917515E-01  0.11130812140E+00  0.55316672989E-03  0.88764651773E+00  0.88000000000E+00 0.  1.
        -11    1    4    4    0    0 -0.17125491641E-01 -0.79676267000E-01  0.14048576231E-01  0.82699538101E-01  0.51100000000E-03 0. -1.
         11    1    4    4    0    0 -0.25472178442E-01 -0.43474256803E-01  0.30572543793E-02  0.50482183040E-01  0.51100000000E-03 0.  1.
</event>
<event>
 7    1  0.2410535E+005  0.1043930E+01  0.7957747E-01            NaN
         13   -1    0    0    0    0  0.00000000000E+00  0.00000000000E+00  0.74505805969E-08  0.10566000000E+00  0.10566000000E+00 0. -1.
     999900   -1    0    0    0    0 -0.00000000000E+00 -0.00000000000E+00 -0.74505805969E-08  0.93827000000E+00  0.93827000000E+00 0. -1.
     999903    2    1    2    0    0 -0.26116555469E-01 -0.75429004413E-01 -0.73515133389E-01  0.11010615206E+00  0.18635469070E-01 0.  0.
         14    1    1    2    0    0 -0.30172450520E-01  0.15836698128E-01  0.35483622347E-01  0.49196191244E-01  0.00000000000E+00 0. -1.
     999901    1    1    2    0    0  0.56289005990E-01  0.59592306285E-01  0.38031511042E-01  0.88462765670E+00  0.88000000000E+00 0.  1.
        -11    1    3    3    0    0 -0.59971587450E-02 -0.45442827508E-01 -0.40067985213E-01  0.60882846886E-01  0.51100000000E-03 0. -1.
         11    1    3    3    0    0 -0.20119396724E-01 -0.29986176906E-01 -0.33447148175E-01  0.49223305172E-01  0.51100000000E-03 0.  1.
</event>
<event>
 8    1  0.1094134E+005  0.1043930E+01  0.7957747E-01            NaN
         13   -1    0    0    0    0  0.00000000000E+00  0.00000000000E+00  0.74505805969E-08  0.10566000000E+00  0.10566000000E+00 0.  1.
     999900   -1    0    0    0    0 -0.00000000000E+00 -0.00000000000E+00 -0.74505805969E-08  0.93827000000E+00  0.93827000000E+00 0. -1.
     999902    2    1    2    0    0  0.51844993239E-02  0.20810374145E-01  0.66132418422E-02  0.10214870574E+01  0.10212404823E+01 0.  0.
     999903    2    3    3    0    0 -0.12666049235E+00 -0.11304258969E-01  0.24622779825E-01  0.13090365594E+00  0.18942525106E-01 0.  0.
         14    1    1    2    0    0 -0.51844993239E-02 -0.20810374145E-01 -0.66132418422E-02  0.22442942609E-01  0.00000000000E+00 0.  1.
     999901    1    3    3    0    0  0.13184499168E+00  0.32114633114E-01 -0.18009537983E-01  0.89058340146E+00  0.88000000000E+00 0.  1.
        -11    1    4    4    0    0 -0.32472940181E-01 -0.98176814742E-02  0.17917228772E-02  0.33975728181E-01  0.51100000000E-03 0. -1.
         11    1    4    4    0    0 -0.94187552170E-01 -0.14865774953E-02  0.22831056948E-01  0.96927927755E-01  0.51100000000E-03 0.  1.
</event>
<event>
 8    1  0.1094134E+005  0.1043930E+01  0.7957747E-01            NaN
         13   -1    0    0    0    0  0.00000000000E+00  0.00000000000E+00  0.74505805969E-08  0.10566000000E+00  0.10566000000E+00 0.  1.
     999900   -1    0    0    0    0 -0.00000000000E+00 -0.00000000000E+00 -0.74505805969E-08  0.93827000000E+00  0.93827000000E+00 0.  1.
     999902    2    1    2    0    0 -0.11047047229E-01  0.18288770229E-01 -0.85959352849E-02  0.10208994448E+01  0.10206396376E+01 0.  0.
     999903    2    3    3    0    0  0.73006202756E-01 -0.89201931270E-01  0.52386682177E-01  0.12829758543E+00  0.20712695951E-01 0.  0.
         14    1    1    2    0    0  0.11047047229E-01 -0.18288770229E-01  0.85959352849E-02  0.23030555191E-01  0.00000000000E+00 0. -1.
     999901    1    3    3    0    0 -0.84053249985E-01  0.10749070150E+00 -0.60982617462E-01  0.89260185938E+00  0.88000000000E+00 0.  1.
        -11    1    4    4    0    0  0.41360972869E-01 -0.63724341249E-01  0.39779961461E-01  0.85756796809E-01  0.51100000000E-03 0.  1.
         11    1    4    4    0    0  0.31645229888E-01 -0.25477590021E-01  0.12606720716E-01  0.42540788617E-01  0.51100000000E-03 0. -1.
</event>
<event>
 8    1  0.1094134E+005  0.1043930E+01  0.7957747E-01            NaN
         13   -1    0    0    0    0  0.00000000000E+00  0.00000000000E+00  0.74505805969E-08  0.10566000000E+00  0.10566000000E+00 0.  1.
     999900   -1    0    0    0    0 -0.00000000000E+00 -0.00000000000E+00 -0.74505805969E-08  0.93827000000E+00  0.93827000000E+00 0. -1.
     999902    2    1    2    0    0  0.38331452880E-03 -0.23841700367E-01  0.54061320158E-02  0.10194800538E+01  0.10191868230E+01 0.  0.
     999903    2    3    3    0    0 -0.58265174161E-01 -0.10262036641E+00  0.56916031850E-01  0.13251951733E+00  0.19905217185E-01 0.  0.
         14    1    1    2    0    0 -0.38331452880E-03  0.23841700367E-01 -0.54061320158E-02  0.24449946212E-01  0.00000000000E+00 0.  1.
     999901    1    3    3    0    0  0.58648488690E-01  0.78778666038E-01 -0.51509899834E-01  0.88696053646E+00  0.88000000000E+00 0. -1.
        -11    1    4    4    0    0 -0.41274133296E-01 -0.62898002149E-01  0.45143191844E-01  0.87737572593E-01  0.51100000000E-03 0.  1.
         11    1    4    4    0    0 -0.16991040865E-01 -0.39722364257E-01  0.11772840006E-01  0.44781944739E-01  0.51100000000E-03 0. -1.
</event>
<event>
 8    1  0.1146944E+005  0.1043930E+01  0.7957747E-01            NaN
         13   -1    0    0    0    0  0.00000000000E+00  0.00000000000E+00  0.74505805969E-08  0.10566000000E+00  0.10566000000E+00 0.  1.
     999900   -1    0    0    0    0 -0.00000000000E+00 -0.00000000000E+00 -0.74505805969E-08  0.93827000000E+00  0.93827000000E+00 0. -1.
     999902    2    1    2    0    0 -0.17016315057E-01 -0.92164897461E-02  0.15193467010E-01  0.10193263397E+01  0.10190293650E+01 0.  0.
     999903    2    3    3    0    0  0.11278940504E+00 -0.26627102130E-01  0.52534471105E-01  0.12885062133E+00  0.20301711882E-01 0.  0.
         14    1    1    2    0    0  0.17016315057E-01  0.92164897461E-02 -0.15193467010E-01  0.24603660320E-01  0.00000000000E+00 0. -1.
     999901    1    3    3    0    0 -0.12980572009E+00  0.17410612384E-01 -0.37341004095E-01  0.89047571835E+00  0.88000000000E+00 0. -1.
        -11    1    4    4    0    0  0.67141397482E-01 -0.25380886245E-01  0.35806219109E-01  0.80215354455E-01  0.51100000000E-03 0.  1.
         11    1    4    4    0    0  0.45648007555E-01 -0.12462158844E-02  0.16728251996E-01  0.48635266871E-01  0.51100000000E-03 0. -1.
</event>
<event>
 8    1  0.1094134E+005  0.1043930E+01  0.7957747E-01            NaN
         13   -1    0    0    0    0  0.00000000000E+00  0.00000000000E+00  0.74505805969E-08  0.10566000000E+00  0.10566000000E+00 0. -1.
     999900   -1    0    0    0    0 -0.00000000000E+00 -0.00000000000E+00 -0.74505805969E-08  0.93827000000E+00  0.93827000000E+00 0.  1.
     999902    2    1    2    0    0 -0.19117256469E-01  0.79019918619E-02 -0.11749918733E-01  0.10201398432E+01  0.10198624065E+01 0.  0.
     999903    2    3    3    0    0 -0.21275604272E-01  0.66682294726E-01  0.10781313989E+00  0.13010888449E+00  0.20136258921E-01 0.  0.
         14    1    1    2    0    0  0.19117256469E-01 -0.79019918619E-02  0.11749918733E-01  0.23790156799E-01  0.00000000000E+00 0. -1.
     999901    1    3    3    0    0  0.21583478031E-02 -0.58780302864E-01 -0.11956305863E+00  0.89003095871E+00  0.88000000000E+00 0.  1.
        -11    1    4    4    0    0 -0.12514822568E-01  0.59639601503E-01  0.96652137463E-01  0.11426022776E+00  0.51100000000E-03 0. -1.
         11    1    4    4    0    0 -0.87607817036E-02  0.70426932234E-02  0.11161002431E-01  0.15848656730E-01  0.51100000000E-03 0.  1.
</event>
<event>
 8    1  0.1094134E+005  0.1043930E+01  0.7957747E-01            NaN
         13   -1    0    0    0    0  0.00000000000E+00  0.00000000000E+00  0.74505805969E-08  0.10566000000E+00  0.10566000000E+00 0.  1.
     999900   -1    0    0    0    0 -0.00000000000E+00 -0.00000000000E+00 -0.74505805969E-08  0.93827000000E+00  0.93827000000E+00 0.  1.
     999902    2    1    2    0    0  0.12563479623E-01  0.99542525911E-02 -0.18031307960E-01  0.10198041584E+01  0.10195187420E+01 0.  0.
     999903    2    3    3    0    0 -0.90701698710E-01 -0.72064853555E-01 -0.53436887909E-01  0.12927376258E+00  0.20882131982E-01 0.  0.
         14    1    1    2    0    0 -0.12563479623E-01 -0.99542525911E-02  0.18031307960E-01  0.24125841574E-01  0.00000000000E+00 0. -1.
     999901    1    3    3    0    0  0.10326517833E+00  0.82019106146E-01  0.35405579949E-01  0.89053039584E+00  0.88000000000E+00 0. -1.
        -11    1    4    4    0    0 -0.43504018516E-02 -0.11184571857E-01 -0.43939353446E-02  0.12790169377E-01  0.51100000000E-03 0.  1.
         11    1    4    4    0    0 -0.86351296858E-01 -0.60880281699E-01 -0.49042952565E-01  0.11648359321E+00  0.51100000000E-03 0. -1.
</event>
<event>
 8    1  0.1094134E+005  0.1043930E+01  0.7957747E-01            NaN
         13   -1    0    0    0    0  0.00000000000E+00  0.00000000000E+00  0.74505805969E-08  0.10566000000E+00  0.10566000000E+00 0. -1.
     999900   -1    0    0    0    0 -0.00000000000E+00 -0.00000000000E+00 -0.74505805969E-08  0.93827000000E+00  0.93827000000E+00 0. -1.
     999902    2    1    2    0    0  0.14396919693E-01  0.19758987861E-01  0.15997532865E-02  0.10194300386E+01  0.10191355923E+01 0.  0.
     999903    2    3    3    0    0 -0.41003560088E-01  0.12217079419E+00 -0.16199769699E-01  0.13158195799E+00  0.21080423071E-01 0.  0.
         14    1    1    2    0    0 -0.14396919693E-01 -0.19758987861E-01 -0.15997532865E-02  0.24499961398E-01  0.00000000000E+00 0. -1.
     999901    1    3    3    0    0  0.55400479781E-01 -0.10241180633E+00  0.17799522986E-01  0.88784808062E+00  0.88000000000E+00 0.  1.
        -11    1    4    4    0    0 -0.32751648408E-01  0.84005149269E-01 -0.25076485079E-02  0.90200249441E-01  0.51100000000E-03 0. -1.
         11    1    4    4    0    0 -0.82519116807E-02  0.38165644918E-01 -0.13692121191E-01  0.41381708545E-01  0.51100000000E-03 0.  1.
</event>
<event>
 8    1  0.1094134E+005  0.1043930E+01  0.7957747E-01            NaN
         13   -1    0    0    0    0  0.00000000000E+00  0.00000000000E+00  0.74505805969E-08  0.10566000000E+00  0.10566000000E+00 0.  1.
     999900   -1    0    0    0    0 -0.00000000000E+00 -0.00000000000E+00 -0.74505805969E-08  0.93827000000E+00  0.93827000000E+00 0.  1.
     999902    2    1    2    0    0  0.74165077151E-02  0.13025561867E-01 -0.20192276261E-01  0.10187824779E+01  0.10184720612E+01 0.  0.
     999903    2    3    3    0    0 -0.93311179411E-01  0.70221880123E-01  0.49323987631E-01  0.12847354457E+00  0.20844837409E-01 0.  0.
         14    1    1    2    0    0 -0.74165077151E-02 -0.13025561867E-01  0.20192276261E-01  0.25147522129E-01  0.00000000000E+00 0.  1.
     999901    1    3    3    0    0  0.10072768713E+00 -0.57196318256E-01 -0.69516263892E-01  0.89030893330E+00  0.88000000000E+00 0.  1.
        -11    1    4    4    0    0 -0.54328998542E-01  0.30147993137E-01  0.32306746502E-01  0.70032339410E-01  0.51100000000E-03 0. -1.
         11    1    4    4    0    0 -0.38982180870E-01  0.40073886986E-01  0.17017241129E-01  0.58441205157E-01  0.51100000000E-03 0.  1.
</event>
<event>
 8    1  0.1094134E+005  0.1043930E+01  0.7957747E-01            NaN
         13   -1    0    0    0    0  0.00000000000E+00  0.00000000000E+00  0.74505805969E-08  0.10566000000E+00  0.10566000000E+00 0. -1.
     999900   -1    0    0    0    0 -0.00000000000E+00 -0.00000000000E+00 -0.74505805969E-08  0.93827000000E+00  0.93827000000E+00 0.  1.
     999902    2    1    2    0    0  0.13551484826E-01 -0.18766737144E-01  0.35069545983E-02  0.10205177832E+01  0.10202491921E+01 0.  0.
     999903    2    3    3    0    0  0.13889759301E-01  0.61203889653E-01 -0.11142169623E+00  0.12944875651E+00  0.20083442172E-01 0.  0.
         14    1    1    2    0    0 -0.13551484826E-01  0.18766737144E-01 -0.35069545983E-02  0.23412216780E-01  0.00000000000E+00 0. -1.
     999901    1    3    3    0    0 -0.33827447507E-03 -0.79970626797E-01  0.11492865083E+00  0.89106902671E+00  0.88000000000E+00 0. -1.
        -11    1    4    4    0    0  0.39206610988E-02  0.11185838600E-01 -0.85400136449E-02  0.14618054682E-01  0.51100000000E-03 0.  1.
         11    1    4    4    0    0  0.99690982024E-02  0.50018051054E-01 -0.10288168258E+00  0.11483070183E+00  0.51100000000E-03 0. -1.
</event>
<event>
 8    1  0.1094134E+005  0.1043930E+01  0.7957747E-01            NaN
         13   -1    0    0    0    0  0.00000000000E+00  0.00000000000E+00  0.74505805969E-08  0.10566000000E+00  0.10566000000E+00 0. -1.
     999900   -1    0    0    0    0 -0.00000000000E+00 -0.00000000000E+00 -0.74505805969E-08  0.93827000000E+00  0.93827000000E+00 0.  1.
     999902    2    1    2    0    0  0.39897176263E-02 -0.48439503274E-02 -0.22953940189E-01  0.10201336752E+01  0.10198560929E+01 0.  0.
     999903    2    3    3    0    0  0.68280935178E-01 -0.43304260049E-01 -0.10400454217E+00  0.13323923048E+00  0.19955016900E-01 0.  0.
         14    1    1    2    0    0 -0.39897176263E-02  0.48439503274E-02  0.22953940189E-01  0.23796324752E-01  0.00000000000E+00 0. -1.
     999901    1    3    3    0    0 -0.64291217552E-01  0.38460309721E-01  0.81050601982E-01  0.88689444477E+00  0.88000000000E+00 0.  1.
        -11    1    4    4    0    0  0.22635144886E-01 -0.18343802005E-01 -0.52416202569E-01  0.59971362072E-01  0.51100000000E-03 0.  1.
         11    1    4    4    0    0  0.45645790292E-01 -0.24960458044E-01 -0.51588339602E-01  0.73267868408E-01  0.51100000000E-03 0. -1.
</event>
<event>
 8    1  0.1094134E+005  0.1043930E+01  0.7957747E-01            NaN
         13   -1    0    0    0    0  0.00000000000E+00  0.00000000000E+00  0.74505805969E-08  0.10566000000E+00  0.10566000000E+00 0.  1.
     999900   -1    0    0    0    0 -0.00000000000E+00 -0.00000000000E+00 -0.74505805969E-08  0.93827000000E+00  0.93827000000E+00 0. -1.
     999902    2    1    2    0    0 -0.31125980236E-02  0.23247523178E-01  0.14094084399E-02  0.10204327229E+01  0.10201621537E+01 0.  0.
     999903    2    3    3    0    0  0.70231115878E-01  0.87360305347E-01 -0.67348607728E-01  0.13239138712E+00  0.20673940940E-01 0.  0.
         14    1    1    2    0    0  0.31125980236E-02 -0.23247523178E-01 -0.14094084399E-02  0.23497277130E-01  0.00000000000E+00 0.  1.
     999901    1    3    3    0    0 -0.73343713901E-01 -0.64112782170E-01  0.68758016168E-01  0.88804133575E+00  0.88000000000E+00 0.  1.
        -11    1    4    4    0    0  0.59822483303E-01  0.60849211615E-01 -0.53509856392E-01  0.10072200313E+00  0.51100000000E-03 0. -1.
         11    1    4    4    0    0  0.10408632575E-01  0.26511093732E-01 -0.13838751336E-01  0.31669383993E-01  0.51100000000E-03 0.  1.
</event>
<event>
 8    1  0.1094134E+005  0.1043930E+01  0.7957747E-01            NaN
         13   -1    0    0    0    0  0.00000000000E+00  0.00000000000E+00  0.74505805969E-08  0.10566000000E+00  0.10566000000E+00 0. -1.
     999900   -1    0    0    0    0 -0.00000000000E+00 -0.00000000000E+00 -0.74505805969E-08  0.93827000000E+00  0.93827000000E+00 0. -1.
     999902    2    1    2    0    0  0.16256601770E-01  0.31102704568E-02 -0.17848987630E-01  0.10195879121E+01  0.10192972939E+01 0.  0.
     999903    2    3    3    0    0 -0.59106246340E-01 -0.11191549185E+00  0.88739999464E-02  0.12850733049E+00  0.20414711450E-01 0.  0.
         14    1    1    2    0    0 -0.16256601770E-01 -0.31102704568E-02  0.17848987630E-01  0.24342087890E-01  0.00000000000E+00 0. -1.
     999901    1    3    3    0    0  0.75362848110E-01  0.11502576230E+00 -0.26722987577E-01  0.89108058162E+00  0.88000000000E+00 0.  1.
        -11    1    4    4    0    0 -0.48815443524E-01 -0.76580132622E-01  0.77696189491E-03  0.90820311768E-01  0.51100000000E-03 0. -1.
         11    1    4    4    0    0 -0.10290802816E-01 -0.35335359226E-01  0.80970380515E-02  0.37687018725E-01  0.51100000000E-03 0.  1.
</event>
<event>
 7    1  0.1094134E+005  0.1043930E+01  0.7957747E-01            NaN
         13   -1    0    0    0    0  0.00000000000E+00  0.00000000000E+00  0.74505805969E-08  0.10566000000E+00  0.10566000000E+00 0.  1.
     999900   -1    0    0    0    0 -0.00000000000E+00 -0.00000000000E+00 -0.74505805969E-08  0.93827000000E+00  0.93827000000E+00 0.  1.
     999903    2    1    2    0    0  0.66989763710E-01 -0.44545167432E-01 -0.51139118202E-01  0.97384827711E-01  0.19917200467E-01 0.  0.
         14    1    1    2    0    0  0.53297900886E-01 -0.95312848459E-02  0.14088700685E-01  0.55946430776E-01  0.00000000000E+00 0.  1.
     999901    1    1    2    0    0 -0.12028766460E+00  0.54076452278E-01  0.37050417517E-01  0.89059874151E+00  0.88000000000E+00 0.  1.
        -11    1    3    3    0    0  0.77871677221E-02 -0.62669937067E-02  0.45843469791E-03  0.10019305097E-01  0.51100000000E-03 0.  1.
         11    1    3    3    0    0  0.59202595988E-01 -0.38278173725E-01 -0.51597552900E-01  0.87365522615E-01  0.51100000000E-03 0. -1.
</event>
<event>
 8    1  0.1094134E+005  0.1043930E+01  0.7957747E-01            NaN
         13   -1    0    0    0    0  0.00000000000E+00  0.00000000000E+00  0.74505805969E-08  0.10566000000E+00  0.10566000000E+00 0.  1.
     999900   -1    0    0    0    0 -0.00000000000E+00 -0.00000000000E+00 -0.74505805969E-08  0.93827000000E+00  0.93827000000E+00 0. -1.
     999902    2    1    2    0    0  0.19045806980E-01  0.13014209847E-01  0.29136611728E-02  0.10206791539E+01  0.10204142950E+01 0.  0.
     999903    2    3    3    0    0  0.10269570052E+00  0.16944705236E-01 -0.79873864186E-01  0.13283540200E+00  0.20781720463E-01 0.  0.
         14    1    1    2    0    0 -0.19045806980E-01 -0.13014209847E-01 -0.29136611728E-02  0.23250846068E-01  0.00000000000E+00 0.  1.
     999901    1    3    3    0    0 -0.83649893537E-01 -0.39304953894E-02  0.82787525359E-01  0.88784375193E+00  0.88000000000E+00 0.  1.
        -11    1    4    4    0    0  0.59746629166E-01 -0.24450831564E-03 -0.48206203218E-01  0.76771209647E-01  0.51100000000E-03 0.  1.
         11    1    4    4    0    0  0.42949071351E-01  0.17189213552E-01 -0.31667660968E-01  0.56064192356E-01  0.51100000000E-03 0. -1.
</event>
<event>
 8    1  0.1094134E+005  0.1043930E+01  0.7957747E-01            NaN
         13   -1    0    0    0    0  0.00000000000E+00  0.00000000000E+00  0.74505805969E-08  0.10566000000E+00  0.10566000000E+00 0.  1.
     999900   -1    0    0    0    0 -0.00000000000E+00 -0.00000000000E+00 -0.74505805969E-08  0.93827000000E+00  0.93827000000E+00 0. -1.
     999902    2    1    2    0    0  0.24468272011E-02 -0.23207678763E-01 -0.35865072583E-02  0.10203196982E+01  0.10200464892E+01 0.  0.
     999903    2    3    3    0    0  0.73231938049E-01 -0.10705674446E+00  0.22416567460E-01  0.13312335148E+00  0.19881170156E-01 0.  0.
         14    1    1    2    0    0 -0.24468272011E-02  0.23207678763E-01  0.35865072583E-02  0.23610301803E-01  0.00000000000E+00 0.  1.
     999901    1    3    3    0    0 -0.70785110848E-01  0.83849065698E-01 -0.26003074718E-01  0.88719634672E+00  0.88000000000E+00 0. -1.
        -11    1    4    4    0    0  0.51774065526E-01 -0.61656093862E-01  0.81886781178E-02  0.80928013331E-01  0.51100000000E-03 0. -1.
         11    1    4    4    0    0  0.21457872524E-01 -0.45400650600E-01  0.14227889342E-01  0.52195338147E-01  0.51100000000E-03 0.  1.
</event>
<event>
 8    1  0.1094134E+005  0.1043930E+01  0.7957747E-01            NaN
         13   -1    0    0    0    0  0.00000000000E+00  0.00000000000E+00  0.74505805969E-08  0.10566000000E+00  0.10566000000E+00 0. -1.
     999900   -1    0    0    0    0 -0.00000000000E+00 -0.00000000000E+00 -0.74505805969E-08  0.93827000000E+00  0.93827000000E+00 0. -1.
     999902    2    1    2    0    0  0.10237461983E-01 -0.21220789413E-01 -0.22989645075E-02  0.10202569611E+01  0.10199822812E+01 0.  0.
     999903    2    3    3    0    0 -0.39851982018E-01  0.11891863584E+00 -0.12769319451E-01  0.12770016225E+00  0.20358131005E-01 0.  0.
         14    1    1    2    0    0 -0.10237461983E-01  0.21220789413E-01  0.22989645075E-02  0.23673038862E-01  0.00000000000E+00 0.  1.
     999901    1    3    3    0    0  0.50089444001E-01 -0.14013942525E+00  0.10470354944E-01  0.89255679889E+00  0.88000000000E+00 0. -1.
        -11    1    4    4    0    0 -0.15861080542E-01  0.58655100797E-01 -0.15731029462E-01  0.62767197917E-01  0.51100000000E-03 0.  1.
         11    1    4    4    0    0 -0.23990901476E-01  0.60263535044E-01  0.29617100111E-02  0.64932964331E-01  0.51100000000E-03 0. -1.
</event>
<event>
 8    1  0.1094134E+005  0.1043930E+01  0.7957747E-01            NaN
         13   -1    0    0    0    0  0.00000000000E+00  0.00000000000E+00  0.74505805969E-08  0.10566000000E+00  0.10566000000E+00 0. -1.
     999900   -1    0    0    0    0 -0.00000000000E+00 -0.00000000000E+00 -0.74505805969E-08  0.93827000000E+00  0.93827000000E+00 0. -1.
     999902    2    1    2    0    0  0.94942539027E-02  0.19094958387E-01  0.75992513868E-02  0.10212913844E+01  0.10210404424E+01 0.  0.
     999903    2    3    3    0    0  0.68646356011E-01  0.74364884424E-01  0.85707371357E-01  0.13413039887E+00  0.20068686223E-01 0.  0.
         14    1    1    2    0    0 -0.94942539027E-02 -0.19094958387E-01 -0.75992513868E-02  0.22638615563E-01  0.00000000000E+00 0. -1.
     999901    1    3    3    0    0 -0.59152102108E-01 -0.55269926037E-01 -0.78108119971E-01  0.88716098557E+00  0.88000000000E+00 0. -1.
        -11    1    4    4    0    0  0.25947988716E-01  0.27906385384E-01  0.45308538925E-01  0.59204639042E-01  0.51100000000E-03 0.  1.
         11    1    4    4    0    0  0.42698367295E-01  0.46458499040E-01  0.40398832433E-01  0.74925759827E-01  0.51100000000E-03 0. -1.
</event>
<event>
 8    1  0.1094134E+005  0.1043930E+01  0.7957747E-01            NaN
         13   -1    0    0    0    0  0.00000000000E+00  0.00000000000E+00  0.74505805969E-08  0.10566000000E+00  0.10566000000E+00 0. -1.
     999900   -1    0    0    0    0 -0.00000000000E+00 -0.00000000000E+00 -0.74505805969E-08  0.93827000000E+00  0.93827000000E+00 0. -1.
     999902    2    1    2    0    0  0.13813266975E-01  0.12488598869E-01 -0.16861450994E-01  0.10188086948E+01  0.10184989330E+01 0.  0.
     999903    2    3    3    0    0 -0.88213661466E-02 -0.11824093749E+00  0.40848833540E-01  0.12699424366E+00  0.20004372539E-01 0.  0.
         14    1    1    2    0    0 -0.13813266975E-01 -0.12488598869E-01  0.16861450994E-01  0.25121305217E-01  0.00000000000E+00 0. -1.
     999901    1    3    3    0    0  0.22634633121E-01  0.13072953636E+00 -0.57710284534E-01  0.89181445112E+00  0.88000000000E+00 0. -1.
        -11    1    4    4    0    0 -0.85765054062E-02 -0.10489952040E+00  0.42563028740E-01  0.11353122197E+00  0.51100000000E-03 0. -1.
         11    1    4    4    0    0 -0.24486074034E-03 -0.13341417091E-01 -0.17141951992E-02  0.13463021688E-01  0.51100000000E-03 0.  1.
</event>
<event>
 8    1  0.1094134E+005  0.1043930E+01  0.7957747E-01            NaN
         13   -1    0    0    0    0  0.00000000000E+00  0.00000000000E+00  0.74505805969E-08  0.10566000000E+00  0.10566000000E+00 0. -1.
     999900   -1    0    0    0    0 -0.00000000000E+00 -0.00000000000E+00 -0.74505805969E-08  0.93827000000E+00  0.93827000000E+00 0.  1.
     999902    2    1    2    0    0 -0.11299731541E-02  0.21935163489E-01 -0.91013980255E-02  0.10201547254E+01  0.10198776397E+01 0.  0.
     999903    2    3    3    0    0  0.19565757348E-01 -0.15007251987E-01  0.12516696938E+00  0.12896392101E+00  0.18891432630E-01 0.  0.
         14    1    1    2    0    0  0.11299731541E-02 -0.21935163489E-01  0.91013980255E-02  0.23775274607E-01  0.00000000000E+00 0.  1.
     999901    1    3    3    0    0 -0.20695730502E-01  0.36942415476E-01 -0.13426836741E+00  0.89119080438E+00  0.88000000000E+00 0.  1.
        -11    1    4    4    0    0  0.19782724636E-01 -0.43626591214E-02  0.87656688036E-01  0.89968578220E-01  0.51100000000E-03 0. -1.
         11    1    4    4    0    0 -0.21696728806E-03 -0.10644592866E-01  0.37510281345E-01  0.38995342795E-01  0.51100000000E-03 0.  1.
</event>
<event>
 8    1  0.1094134E+005  0.1043930E+01  0.7957747E-01            NaN
         13   -1    0    0    0    0  0.00000000000E+00  0.00000000000E+00  0.74505805969E-08  0.10566000000E+00  0.10566000000E+00 0. -1.
     999900   -1    0    0    0    0 -0.00000000000E+00 -0.00000000000E+00 -0.74505805969E-08  0.93827000000E+00  0.93827000000E+00 0.  1.
     999902    2    1    2    0    0 -0.57547273246E-03 -0.24821217504E-01 -0.76598118159E-03  0.10190902992E+01  0.10187875280E+01 0.  0.
     999903    2    3    3    0    0 -0.45601358048E-01 -0.94304662977E-01  0.77409274739E-01  0.13175346906E+00  0.19847606342E-01 0.  0.
         14    1    1    2    0    0  0.57547273246E-03  0.24821217504E-01  0.76598118159E-03  0.24839700771E-01  0.00000000000E+00 0. -1.
     999901    1    3    3    0    0  0.45025885316E-01  0.69483445474E-01 -0.78175255921E-01  0.88733683017E+00  0.88000000000E+00 0.  1.
        -11    1    4    4    0    0 -0.28813078442E-01 -0.76765906888E-01  0.63973705959E-01  0.10400045252E+00  0.51100000000E-03 0.  1.
         11    1    4    4    0    0 -0.16788279606E-01 -0.17538756089E-01  0.13435568780E-01  0.27753016534E-01  0.51100000000E-03 0. -1.
</event>
<event>
 8    1  0.1094134E+005  0.1043930E+01  0.7957747E-01            NaN
         13   -1    0    0    0    0  0.00000000000E+00  0.00000000000E+00  0.74505805969E-08  0.10566000000E+00  0.10566000000E+00 0. -1.
     999900   -1    0    0    0    0 -0.00000000000E+00 -0.00000000000E+00 -0.74505805969E-08  0.93827000000E+00  0.93827000000E+00 0.  1.
     999902    2    1    2    0    0  0.19184958897E-01 -0.35069456249E-02 -0.11674662829E-01  0.10211998643E+01  0.10209468663E+01 0.  0.
     999903    2    3    3    0    0  0.46858076485E-02 -0.99188250583E-01 -0.85545032394E-01  0.13281820704E+00  0.21504829854E-01 0.  0.
         14    1    1    2    0    0 -0.19184958897E-01  0.35069456249E-02  0.11674662829E-01  0.22730135672E-01  0.00000000000E+00 0. -1.
     999901    1    3    3    0    0  0.14499151249E-01  0.95681304958E-01  0.73870369566E-01  0.88838165729E+00  0.88000000000E+00 0. -1.
        -11    1    4    4    0    0 -0.48784678244E-02 -0.10076314560E-01 -0.48246167875E-02  0.12201213529E-01  0.51100000000E-03 0. -1.
         11    1    4    4    0    0  0.95642754729E-02 -0.89111936023E-01 -0.80720415607E-01  0.12061699351E+00  0.51100000000E-03 0.  1.
</event>
<event>
 8    1  0.1094134E+005  0.1043930E+01  0.7957747E-01            NaN
         13   -1    0    0    0    0  0.00000000000E+00  0.00000000000E+00  0.74505805969E-08  0.10566000000E+00  0.10566000000E+00 0.  1.
     999900   -1    0    0    0    0 -0.00000000000E+00 -0.00000000000E+00 -0.74505805969E-08  0.93827000000E+00  0.93827000000E+00 0. -1.
     999902    2    1    2    0    0 -0.10307544466E-01 -0.13483400069E-01 -0.16956707700E-01  0.10199388040E+01  0.10196566022E+01 0.  0.
     999903    2    3    3    0    0  0.34746038394E-01 -0.72618229971E-01  0.99183216927E-01  0.12920021409E+00  0.19356918454E-01 0.  0.
         14    1    1    2    0    0  0.10307544466E-01  0.13483400069E-01  0.16956707700E-01  0.23991196018E-01  0.00000000000E+00 0.  1.
     999901    1    3    3    0    0 -0.45053582860E-01  0.59134829903E-01 -0.11613992463E+00  0.89073858990E+00  0.88000000000E+00 0. -1.
        -11    1    4    4    0    0  0.18982682260E-01 -0.44774799127E-01  0.73662165226E-01  0.88269476998E-01  0.51100000000E-03 0.  1.
         11    1    4    4    0    0  0.15763356135E-01 -0.27843430844E-01  0.25521051700E-01  0.40930737089E-01  0.51100000000E-03 0. -1.
</event>
<event>
 8    1  0.1094134E+005  0.1043930E+01  0.7957747E-01            NaN
         13   -1    0    0    0    0  0.00000000000E+00  0.00000000000E+00  0.74505805969E-08  0.10566000000E+00  0.10566000000E+00 0. -1.
     999900   -1    0    0    0    0 -0.00000000000E+00 -0.00000000000E+00 -0.74505805969E-08  0.93827000000E+00  0.93827000000E+00 0. -1.
     999902    2    1    2    0    0  0.11615099685E-01  0.16748713137E-01  0.46074712229E-02  0.10230336194E+01  0.10228201834E+01 0.  0.
     999903    2    3    3    0    0 -0.11350562743E+00  0.65954677030E-01  0.33788352788E-03  0.13281193202E+00  0.20133262074E-01 0.  0.
         14    1    1    2    0    0 -0.11615099685E-01 -0.16748713137E-01 -0.46074712229E-02  0.20896380632E-01  0.00000000000E+00 0.  1.
     999901    1    3    3    0    0  0.12512072712E+00 -0.49205963893E-01  0.42695876950E-02  0.89022168734E+00  0.88000000000E+00 0.  1.
        -11    1    4    4    0    0 -0.79312531254E-01  0.49173930772E-01 -0.85015788069E-02  0.93707475928E-01  0.51100000000E-03 0. -1.
         11    1    4    4    0    0 -0.34193096179E-01  0.16780746258E-01  0.88394623348E-02  0.39104456097E-01  0.51100000000E-03 0.  1.
</event>
<event>
 8    1  0.1094134E+005  0.1043930E+01  0.7957747E-01            NaN
         13   -1    0    0    0    0  0.00000000000E+00  0.00000000000E+00  0.74505805969E-08  0.10566000000E+00  0.10566000000E+00 0. -1.
     999900   -1    0    0    0    0 -0.00000000000E+00 -0.00000000000E+00 -0.74505805969E-08  0.93827000000E+00  0.93827000000E+00 0. -1.
     999902    2    1    2    0    0  0.15010521938E-01  0.15130963997E-03 -0.18269837903E-01  0.10202841623E+01  0.10200101206E+01 0.  0.
     999903    2    3    3    0    0  0.34248054674E-01  0.51620428705E-01 -0.11693153353E+00  0.13306756920E+00  0.14014154669E-01 0.  0.
         14    1    1    2    0    0 -0.15010521938E-01 -0.15130963997E-03  0.18269837903E-01  0.23645837699E-01  0.00000000000E+00 0. -1.
     999901    1    3    3    0    0 -0.19237532736E-01 -0.51469119065E-01  0.98661695629E-01  0.88721659310E+00  0.88000000000E+00 0.  1.
        -11    1    4    4    0    0  0.60552839583E-02  0.20859190372E-01 -0.42766219557E-01  0.47968562028E-01  0.51100000000E-03 0. -1.
         11    1    4    4    0    0  0.28192770716E-01  0.30761238332E-01 -0.74165313975E-01  0.85099007176E-01  0.51100000000E-03 0.  1.
</event>
<event>
 8    1  0.1094134E+005  0.1043930E+01  0.7957747E-01            NaN
         13   -1    0    0    0    0  0.00000000000E+00  0.00000000000E+00  0.74505805969E-08  0.10566000000E+00  0.10566000000E+00 0.  1.
     999900   -1    0    0    0    0 -0.00000000000E+00 -0.00000000000E+00 -0.74505805969E-08  0.93827000000E+00  0.93827000000E+00 0. -1.
     999902    2    1    2    0    0 -0.10736926270E-01 -0.77172101173E-02 -0.20383394143E-01  0.10196335049E+01  0.10193439874E+01 0.  0.
     999903    2    3    3    0    0 -0.11924404274E+00  0.46584172666E-01 -0.21356034253E-01  0.13130733702E+00  0.19907528354E-01 0.  0.
         14    1    1    2    0    0  0.10736926270E-01  0.77172101173E-02  0.20383394143E-01  0.24296495107E-01  0.00000000000E+00 0.  1.
     999901    1    3    3    0    0  0.10850711647E+00 -0.54301382784E-01  0.97264010985E-03  0.88832616787E+00  0.88000000000E+00 0. -1.
        -11    1    4    4    0    0 -0.99250037389E-01  0.31712025401E-01 -0.21468405647E-01  0.10638315674E+00  0.51100000000E-03 0. -1.
         11    1    4    4    0    0 -0.19994005348E-01  0.14872147266E-01  0.11237139400E-03  0.24924180277E-01  0.51100000000E-03 0.  1.
</event>
<event>
 8    1  0.1094134E+005  0.1043930E+01  0.7957747E-01            NaN
         13   -1    0    0    0    0  0.00000000000E+00  0.00000000000E+00  0.74505805969E-08  0.10566000000E+00  0.10566000000E+00 0. -1.
     999900   -1    0    0    0    0 -0.00000000000E+00 -0.00000000000E+00 -0.74505805969E-08  0.93827000000E+00  0.93827000000E+00 0.  1.
     999902    2    1    2    0    0 -0.39091352681E-02 -0.85988359835E-02 -0.21701763347E-01  0.10202617121E+01  0.10199871437E+01 0.  0.
     999903    2    3    3    0    0  0.10272836349E+00 -0.48093474257E-01 -0.64088421498E-01  0.13193293774E+00  0.20805656921E-01 0.  0.
         14    1    1    2    0    0  0.39091352681E-02  0.85988359835E-02  0.21701763347E-01  0.23668287880E-01  0.00000000000E+00 0.  1.
     999901    1    3    3    0    0 -0.10663749876E+00  0.39494638274E-01  0.42386658151E-01  0.88832877438E+00  0.88000000000E+00 0. -1.
        -11    1    4    4    0    0  0.74623390725E-01 -0.38149160778E-01 -0.36874535841E-01  0.91564192924E-01  0.51100000000E-03 0.  1.
         11    1    4    4    0    0  0.28104972767E-01 -0.99443134791E-02 -0.27213885657E-01  0.40368744820E-01  0.51100000000E-03 0. -1.
</event>
<event>
 8    1  0.1094134E+005  0.1043930E+01  0.7957747E-01            NaN
         13   -1    0    0    0    0  0.00000000000E+00  0.00000000000E+00  0.74505805969E-08  0.10566000000E+00  0.10566000000E+00 0. -1.
     999900   -1    0    0    0    0 -0.00000000000E+00 -0.00000000000E+00 -0.74505805969E-08  0.93827000000E+00  0.93827000000E+00 0.  1.
     999902    2    1    2    0    0 -0.22803431586E-01 -0.44481510167E-02  0.15239197128E-02  0.10206468544E+01  0.10203812505E+01 0.  0.
     999903    2    3    3    0    0 -0.97214412202E-01 -0.74422648843E-01  0.49100353171E-01  0.13346201375E+00  0.20295118458E-01 0.  0.
         14    1    1    2    0    0  0.22803431586E-01  0.44481510167E-02 -0.15239197128E-02  0.23283145639E-01  0.00000000000E+00 0. -1.
     999901    1    3    3    0    0  0.74410980617E-01  0.69974497826E-01 -0.47576433458E-01  0.88718484061E+00  0.88000000000E+00 0.  1.
        -11    1    4    4    0    0 -0.28572394205E-01 -0.23865157451E-01  0.52722292305E-02  0.37602991541E-01  0.51100000000E-03 0.  1.
         11    1    4    4    0    0 -0.68642017997E-01 -0.50557491392E-01  0.43828123940E-01  0.95859022213E-01  0.51100000000E-03 0. -1.
</event>
<event>
 8    1  0.1094134E+005  0.1043930E+01  0.7957747E-01            NaN
         13   -1    0    0    0    0  0.00000000000E+00  0.00000000000E+00  0.74505805969E-08  0.10566000000E+00  0.10566000000E+00 0.  1.
     999900   -1    0    0    0    0 -0.00000000000E+00 -0.00000000000E+00 -0.74505805969E-08  0.93827000000E+00  0.93827000000E+00 0. -1.
     999902    2    1    2    0    0 -0.21690607405E-01 -0.10229501480E-01 -0.36517872357E-02  0.10196717911E+01  0.10193831963E+01 0.  0.
     999903    2    3    3    0    0  0.19201347550E-01 -0.39894244879E-01 -0.12113424451E+00  0.13042813676E+00  0.19435821129E-01 0.  0.
         14    1    1    2    0    0  0.21690607405E-01  0.10229501480E-01  0.36517872357E-02  0.24258208923E-01  0.00000000000E+00 0.  1.
     999901    1    3    3    0    0 -0.40891954956E-01  0.29664743399E-01  0.11748245727E+00  0.88924365432E+00  0.88000000000E+00 0.  1.
        -11    1    4    4    0    0  0.14155152236E-01 -0.27014529439E-01 -0.55302315925E-01  0.63156633882E-01  0.51100000000E-03 0. -1.
         11    1    4    4    0    0  0.50461953146E-02 -0.12879715439E-01 -0.65831928585E-01  0.67271502875E-01  0.51100000000E-03 0.  1.
</event>
<event>
 8    1  0.1094134E+005  0.1043930E+01  0.7957747E-01            NaN
         13   -1    0    0    0    0  0.00000000000E+00  0.00000000000E+00  0.74505805969E-08  0.10566000000E+00  0.10566000000E+00 0.  1.
     999900   -1    0    0    0    0 -0.00000000000E+00 -0.00000000000E+00 -0.74505805969E-08  0.93827000000E+00  0.93827000000E+00 0.  1.
     999902    2    1    2    0    0  0.98546834132E-03 -0.72113597878E-02 -0.21126146604E-01  0.10215852259E+01  0.10213408270E+01 0.  0.
     999903    2    3    3    0    0  0.38312506223E-01  0.99595605327E-01  0.70709390454E-01  0.12960159300E+00  0.20239127343E-01 0.  0.
         14    1    1    2    0    0 -0.98546834132E-03  0.72113597878E-02  0.21126146604E-01  0.22344774069E-01  0.00000000000E+00 0.  1.
     999901    1    3    3    0    0 -0.37327037881E-01 -0.10680696511E+00 -0.91835537059E-01  0.89198363293E+00  0.88000000000E+00 0.  1.
        -11    1    4    4    0    0  0.19364828734E-01  0.65787080760E-01  0.35433514871E-01  0.77192821453E-01  0.51100000000E-03 0. -1.
         11    1    4    4    0    0  0.18947677489E-01  0.33808524567E-01  0.35275875583E-01  0.52408771545E-01  0.51100000000E-03 0.  1.
</event>
<event>
 8    1  0.1094134E+005  0.1043930E+01  0.7957747E-01            NaN
         13   -1    0    0    0    0  0.00000000000E+00  0.00000000000E+00  0.74505805969E-08  0.10566000000E+00  0.10566000000E+00 0. -1.
     999900   -1    0    0    0    0 -0.00000000000E+00 -0.00000000000E+00 -0.74505805969E-08  0.93827000000E+00  0.93827000000E+00 0.  1.
     999902    2    1    2    0    0  0.93603183346E-02  0.13975621018E-01 -0.10989494367E-01  0.10238376500E+01  0.10236404794E+01 0.  0.
     999903    2    3    3    0    0 -0.70805315206E-01  0.77166099536E-01  0.78170259062E-01  0.13346187146E+00  0.27082875634E-01 0.  0.
         14    1    1    2    0    0 -0.93603183346E-02 -0.13975621018E-01  0.10989494367E-01  0.20092350002E-01  0.00000000000E+00 0. -1.
     999901    1    3    3    0    0  0.80165633541E-01 -0.63190478519E-01 -0.89159753429E-01  0.89037577854E+00  0.88000000000E+00 0. -1.
        -11    1    4    4    0    0 -0.35096927703E-01  0.44609608828E-01  0.26271338331E-01  0.62548028528E-01  0.51100000000E-03 0. -1.
         11    1    4    4    0    0 -0.35708387503E-01  0.32556490708E-01  0.51898920732E-01  0.70913842932E-01  0.51100000000E-03 0.  1.
</event>
<event>
 8    1  0.1094134E+005  0.1043930E+01  0.7957747E-01            NaN
         13   -1    0    0    0    0  0.00000000000E+00  0.00000000000E+00  0.74505805969E-08  0.10566000000E+00  0.10566000000E+00 0. -1.
     999900   -1    0    0    0    0 -0.00000000000E+00 -0.00000000000E+00 -0.74505805969E-08  0.93827000000E+00  0.93827000000E+00 0.  1.
     999902    2    1    2    0    0 -0.13983499326E-01  0.12114703598E-01 -0.16042016062E-01  0.10194422362E+01  0.10191480866E+01 0.  0.
     999903    2    3    3    0    0 -0.93457512912E-01 -0.86335158956E-01  0.15613226583E-01  0.12982965273E+00  0.20588819607E-01 0.  0.
         14    1    1    2    0    0  0.13983499326E-01 -0.12114703598E-01  0.16042016062E-01  0.24487763802E-01  0.00000000000E+00 0. -1.
     999901    1    3    3    0    0  0.79474013587E-01  0.98449862554E-01 -0.31655242645E-01  0.88961258347E+00  0.88000000000E+00 0.  1.
        -11    1    4    4    0    0 -0.26409772409E-01 -0.29394890275E-01 -0.39466361833E-02  0.39716151766E-01  0.51100000000E-03 0. -1.
         11    1    4    4    0    0 -0.67047740504E-01 -0.56940268681E-01  0.19559862767E-01  0.90113500967E-01  0.51100000000E-03 0.  1.
</event>
<event>
 8    1  0.1094134E+005  0.1043930E+01  0.7957747E-01            NaN
         13   -1    0    0    0    0  0.00000000000E+00  0.00000000000E+00  0.74505805969E-08  0.10566000000E+00  0.10566000000E+00 0.  1.
     999900   -1    0    0    0    0 -0.00000000000E+00 -0.00000000000E+00 -0.74505805969E-08  0.93827000000E+00  0.93827000000E+00 0.  1.
     999902    2    1    2    0    0 -0.81134439548E-02  0.14914008338E-01 -0.17007403735E-01  0.10198986164E+01  0.10196154571E+01 0.  0.
     999903    2    3    3    0    0 -0.27727519781E-01 -0.87913032620E-01  0.86080678146E-01  0.12771855329E+00  0.20115393291E-01 0.  0.
         14    1    1    2    0    0  0.81134439548E-02 -0.14914008338E-01  0.17007403735E-01  0.24031383633E-01  0.00000000000E+00 0.  1.
     999901    1    3    3    0    0  0.19614075826E-01  0.10282704096E+00 -0.10308808188E+00  0.89218006308E+00  0.88000000000E+00 0.  1.
        -11    1    4    4    0    0 -0.97622853523E-02 -0.61597854723E-01  0.59927180955E-01  0.86493502993E-01  0.51100000000E-03 0. -1.
         11    1    4    4    0    0 -0.17965234429E-01 -0.26315177897E-01  0.26153497190E-01  0.41225050299E-01  0.51100000000E-03 0.  1.
</event>
<event>
 8    1  0.1094134E+005  0.1043930E+01  0.7957747E-01            NaN
         13   -1    0    0    0    0  0.00000000000E+00  0.00000000000E+00  0.74505805969E-08  0.10566000000E+00  0.10566000000E+00 0.  1.
     999900   -1    0    0    0    0 -0.00000000000E+00 -0.00000000000E+00 -0.74505805969E-08  0.93827000000E+00  0.93827000000E+00 0. -1.
     999902    2    1    2    0    0 -0.53628503237E-02 -0.20483284313E-01 -0.92113847484E-02  0.10208394238E+01  0.10205782452E+01 0.  0.
     999903    2    3    3    0    0  0.10224919016E+00  0.47644998761E-01 -0.61417346108E-01  0.13013898224E+00  0.20955226097E-01 0.  0.
         14    1    1    2    0    0  0.53628503237E-02  0.20483284313E-01  0.92113847484E-02  0.23090576191E-01  0.00000000000E+00 0. -1.
     999901    1    3    3    0    0 -0.10761204048E+00 -0.68128283074E-01  0.52205961360E-01  0.89070044157E+00  0.88000000000E+00 0.  1.
        -11    1    4    4    0    0  0.75748841330E-01  0.25120527466E-01 -0.45743912459E-01  0.91987469316E-01  0.51100000000E-03 0.  1.
         11    1    4    4    0    0  0.26500348826E-01  0.22524471295E-01 -0.15673433649E-01  0.38151512924E-01  0.51100000000E-03 0. -1.
</event>
<event>
 8    1  0.1094134E+005  0.1043930E+01  0.7957747E-01            NaN
         13   -1    0    0    0    0  0.00000000000E+00  0.00000000000E+00  0.74505805969E-08  0.10566000000E+00  0.10566000000E+00 0.  1.
     999900   -1    0    0    0    0 -0.00000000000E+00 -0.00000000000E+00 -0.74505805969E-08  0.93827000000E+00  0.93827000000E+00 0. -1.
     999902    2    1    2    0    0  0.12767203816E-01  0.12960883975E-01 -0.14280641952E-01  0.10208016031E+01  0.10205395584E+01 0.  0.
     999903    2    3    3    0    0 -0.96629059987E-01  0.85336576974E-01 -0.14389142454E-01  0.13107928958E+00  0.18847443686E-01 0.  0.
         14    1    1    2    0    0 -0.12767203816E-01 -0.12960883975E-01  0.14280641952E-01  0.23128396859E-01  0.00000000000E+00 0.  1.
     999901    1    3    3    0    0  0.10939626380E+00 -0.72375692999E-01  0.10850050247E-03  0.88972231356E+00  0.88000000000E+00 0.  1.
        -11    1    4    4    0    0 -0.92568073181E-01  0.84705577553E-01 -0.16278682360E-01  0.12652722893E+00  0.51100000000E-03 0. -1.
         11    1    4    4    0    0 -0.40609868056E-02  0.63099942034E-03  0.18895399059E-02  0.45520606498E-02  0.51100000000E-03 0.  1.
</event>
<event>
 8    1  0.1094134E+005  0.1043930E+01  0.7957747E-01            NaN
         13   -1    0    0    0    0  0.00000000000E+00  0.00000000000E+00  0.74505805969E-08  0.10566000000E+00  0.10566000000E+00 0.  1.
     999900   -1    0    0    0    0 -0.00000000000E+00 -0.00000000000E+00 -0.74505805969E-08  0.93827000000E+00  0.93827000000E+00 0. -1.
     999902    2    1    2    0    0  0.15522475421E-01 -0.11252804374E-01 -0.14595751801E-01  0.10198341742E+01  0.10195494760E+01 0.  0.
     999903    2    3    3    0    0  0.12998493264E-02 -0.12949687145E+00  0.93688127553E-02  0.13148838409E+00  0.20743460956E-01 0.  0.
         14    1    1    2    0    0 -0.15522475421E-01  0.11252804374E-01  0.14595751801E-01  0.24095825782E-01  0.00000000000E+00 0.  1.
     999901    1    3    3    0    0  0.14222626094E-01  0.11824406708E+00 -0.23964564556E-01  0.88834579013E+00  0.88000000000E+00 0. -1.
        -11    1    4    4    0    0  0.63292599628E-02 -0.17586314593E-01 -0.23837450747E-02  0.18848908569E-01  0.51100000000E-03 0.  1.
         11    1    4    4    0    0 -0.50294106365E-02 -0.11191055686E+00  0.11752557830E-01  0.11263947552E+00  0.51100000000E-03 0. -1.
</event>
<event>
 8    1  0.1094134E+005  0.1043930E+01  0.7957747E-01            NaN
         13   -1    0    0    0    0  0.00000000000E+00  0.00000000000E+00  0.74505805969E-08  0.10566000000E+00  0.10566000000E+00 0.  1.
     999900   -1    0    0    0    0 -0.00000000000E+00 -0.00000000000E+00 -0.74505805969E-08  0.93827000000E+00  0.93827000000E+00 0. -1.
     999902    2    1    2    0    0  0.39565815762E-03  0.24088392186E-01 -0.27747875856E-02  0.10196790901E+01  0.10193906710E+01 0.  0.
     999903    2    3    3    0    0 -0.10404612264E+00  0.60584694149E-01  0.48312416784E-01  0.13128167451E+00  0.20116849744E-01 0.  0.
         14    1    1    2    0    0 -0.39565815762E-03 -0.24088392186E-01  0.27747875856E-02  0.24250909872E-01  0.00000000000E+00 0. -1.
     999901    1    3    3    0    0  0.10444178080E+00 -0.36496301963E-01 -0.51087204370E-01  0.88839741562E+00  0.88000000000E+00 0.  1.
        -11    1    4    4    0    0 -0.29918679135E-01  0.28243537202E-01  0.14618179184E-01  0.43666658202E-01  0.51100000000E-03 0. -1.
         11    1    4    4    0    0 -0.74127443506E-01  0.32341156947E-01  0.33694237600E-01  0.87615016304E-01  0.51100000000E-03 0.  1.
</event>
<event>
 8    1  0.1094134E+005  0.1043930E+01  0.7957747E-01            NaN
         13   -1    0    0    0    0  0.00000000000E+00  0.00000000000E+00  0.74505805969E-08  0.10566000000E+00  0.10566000000E+00 0.  1.
     999900   -1    0    0    0    0 -0.00000000000E+00 -0.00000000000E+00 -0.74505805969E-08  0.93827000000E+00  0.93827000000E+00 0.  1.
     999902    2    1    2    0    0 -0.23451531002E-02  0.38115459521E-02  0.23324784526E-01  0.10201797748E+01  0.10199032796E+01 0.  0.
     999903    2    3    3    0    0 -0.40354532992E-02 -0.93234805024E-01 -0.85532783276E-01  0.12817595111E+00  0.20104817226E-01 0.  0.
         14    1    1    2    0    0  0.23451531002E-02 -0.38115459521E-02 -0.23324784526E-01  0.23750225237E-01  0.00000000000E+00 0. -1.
     999901    1    3    3    0    0  0.16903001990E-02  0.97046350976E-01  0.10885756780E+00  0.89200382366E+00  0.88000000000E+00 0. -1.
        -11    1    4    4    0    0 -0.50412749656E-02 -0.67238913837E-01 -0.49129452320E-01  0.83429312556E-01  0.51100000000E-03 0. -1.
         11    1    4    4    0    0  0.10058216664E-02 -0.25995891187E-01 -0.36403330956E-01  0.44746638550E-01  0.51100000000E-03 0.  1.
</event>
<event>
 8    1  0.1094134E+005  0.1043930E+01  0.7957747E-01            NaN
         13   -1    0    0    0    0  0.00000000000E+00  0.00000000000E+00  0.74505805969E-08  0.10566000000E+00  0.10566000000E+00 0.  1.
     999900   -1    0    0    0    0 -0.00000000000E+00 -0.00000000000E+00 -0.74505805969E-08  0.93827000000E+00  0.93827000000E+00 0. -1.
     999902    2    1    2    0    0 -0.21476623487E-01  0.11986350847E-01  0.22966703744E-02  0.10192279220E+01  0.10189285374E+01 0.  0.
     999903    2    3    3    0    0 -0.32864637324E-01  0.12383106273E+00 -0.22590763604E-01  0.13172676098E+00  0.20673182453E-01 0.  0.
         14    1    1    2    0    0  0.21476623487E-01 -0.11986350847E-01 -0.22966703744E-02  0.24702078006E-01  0.00000000000E+00 0.  1.
     999901    1    3    3    0    0  0.11388013838E-01 -0.11184471189E+00  0.24887433979E-01  0.88750116102E+00  0.88000000000E+00 0. -1.
        -11    1    4    4    0    0 -0.27734222268E-01  0.10038436130E+00 -0.10018623942E-01  0.10462715243E+00  0.51100000000E-03 0.  1.
         11    1    4    4    0    0 -0.51304150561E-02  0.23446701434E-01 -0.12572139663E-01  0.27099608549E-01  0.51100000000E-03 0. -1.
</event>
<event>
 8    1  0.1094134E+005  0.1043930E+01  0.7957747E-01            NaN
         13   -1    0    0    0    0  0.00000000000E+00  0.00000000000E+00  0.74505805969E-08  0.10566000000E+00  0.10566000000E+00 0.  1.
     999900   -1    0    0    0    0 -0.00000000000E+00 -0.00000000000E+00 -0.74505805969E-08  0.93827000000E+00  0.93827000000E+00 0. -1.
     999902    2    1    2    0    0  0.69701345385E-02  0.65257659518E-02 -0.20935588972E-01  0.10209198439E+01  0.10206605021E+01 0.  0.
     999903    2    3    3    0    0 -0.89685449275E-02  0.17865157263E-01 -0.13082752544E+00  0.13386919092E+00  0.20137532684E-01 0.  0.
         14    1    1    2    0    0 -0.69701345385E-02 -0.65257659518E-02  0.20935588972E-01  0.23010156069E-01  0.00000000000E+00 0.  1.
     999901    1    3    3    0    0  0.15938679466E-01 -0.11339391312E-01  0.10989193647E+00  0.88705065301E+00  0.88000000000E+00 0.  1.
        -11    1    4    4    0    0  0.10857882945E-02 -0.17134799839E-02 -0.51527143678E-01  0.51569589939E-01  0.51100000000E-03 0. -1.
         11    1    4    4    0    0 -0.10054333222E-01  0.19578637247E-01 -0.79300381766E-01  0.82299600985E-01  0.51100000000E-03 0.  1.
</event>
<event>
 8    1  0.1094134E+005  0.1043930E+01  0.7957747E-01            NaN
         13   -1    0    0    0    0  0.00000000000E+00  0.00000000000E+00  0.74505805969E-08  0.10566000000E+00  0.10566000000E+00 0.  1.
     999900   -1    0    0    0    0 -0.00000000000E+00 -0.00000000000E+00 -0.74505805969E-08  0.93827000000E+00  0.93827000000E+00 0. -1.
     999902    2    1    2    0    0 -0.15796563983E-01  0.17402763592E-01  0.61057085053E-02  0.10196469341E+01  0.10193577404E+01 0.  0.
     999903    2    3    3    0    0  0.12540136100E+00  0.17235893617E-01 -0.55840705077E-02  0.12831448611E+00  0.20269389088E-01 0.  0.
         14    1    1    2    0    0  0.15796563983E-01 -0.17402763592E-01 -0.61057085053E-02  0.24283065924E-01  0.00000000000E+00 0. -1.
     999901    1    3    3    0    0 -0.14119792498E+00  0.16686997541E-03  0.11689779013E-01  0.89133244797E+00  0.88000000000E+00 0. -1.
        -11    1    4    4    0    0  0.41024347019E-01  0.12710691386E-01  0.46273219516E-02  0.43199906867E-01  0.51100000000E-03 0. -1.
         11    1    4    4    0    0  0.84377013976E-01  0.45252022302E-02 -0.10211392459E-01  0.85114579243E-01  0.51100000000E-03 0.  1.
</event>
<event>
 8    1  0.1094134E+005  0.1043930E+01  0.7957747E-01            NaN
         13   -1    0    0    0    0  0.00000000000E+00  0.00000000000E+00  0.74505805969E-08  0.10566000000E+00  0.10566000000E+00 0.  1.
     999900   -1    0    0    0    0 -0.00000000000E+00 -0.00000000000E+00 -0.74505805969E-08  0.93827000000E+00  0.93827000000E+00 0.  1.
     999902    2    1    2    0    0  0.31225158189E-03 -0.51350352295E-02  0.22310313293E-01  0.10210342326E+01  0.10207774919E+01 0.  0.
     999903    2    3    3    0    0  0.96889006233E-01 -0.71951859767E-03  0.89467221704E-01  0.13319606223E+00  0.18676455737E-01 0.  0.
         14    1    1    2    0    0 -0.31225158189E-03  0.51350352295E-02 -0.22310313293E-01  0.22895767450E-01  0.00000000000E+00 0. -1.
     999901    1    3    3    0    0 -0.96576754651E-01 -0.44155166318E-02 -0.67156908411E-01  0.88783817032E+00  0.88000000000E+00 0. -1.
        -11    1    4    4    0    0  0.53295734435E-01  0.48180027350E-02  0.38656140915E-01  0.66016716147E-01  0.51100000000E-03 0.  1.
         11    1    4    4    0    0  0.43593271798E-01 -0.55375213327E-02  0.50811080789E-01  0.67179346086E-01  0.51100000000E-03 0. -1.
</event>
<event>
 8    1  0.1094134E+005  0.1043930E+01  0.7957747E-01            NaN
         13   -1    0    0    0    0  0.00000000000E+00  0.00000000000E+00  0.74505805969E-08  0.10566000000E+00  0.10566000000E+00 0. -1.
     999900   -1    0    0    0    0 -0.00000000000E+00 -0.00000000000E+00 -0.74505805969E-08  0.93827000000E+00  0.93827000000E+00 0.  1.
     999902    2    1    2    0    0 -0.36571449341E-02  0.11976559764E-02  0.20654685415E-01  0.10229198806E+01  0.10227040906E+01 0.  0.
     999903    2    3    3    0    0 -0.78434269846E-01 -0.47279869720E-01  0.97261011264E-01  0.13510784074E+00  0.20176807226E-01 0.  0.
         14    1    1    2    0    0  0.36571449341E-02 -0.11976559764E-02 -0.20654685415E-01  0.21010119431E-01  0.00000000000E+00 0.  1.
     999901    1    3    3    0    0  0.74777124912E-01  0.48477525696E-01 -0.76606325849E-01  0.88781203983E+00  0.88000000000E+00 0.  1.
        -11    1    4    4    0    0 -0.59999266941E-01 -0.45397083865E-01  0.78222979795E-01  0.10853526130E+00  0.51100000000E-03 0.  1.
         11    1    4    4    0    0 -0.18435002905E-01 -0.18827858554E-02  0.19038031469E-01  0.26572579436E-01  0.51100000000E-03 0. -1.
</event>
<event>
 8    1  0.1094134E+005  0.1043930E+01  0.7957747E-01            NaN
         13   -1    0    0    0    0  0.00000000000E+00  0.00000000000E+00  0.74505805969E-08  0.10566000000E+00  0.10566000000E+00 0. -1.
     999900   -1    0    0    0    0 -0.00000000000E+00 -0.00000000000E+00 -0.74505805969E-08  0.93827000000E+00  0.93827000000E+00 0. -1.
     999902    2    1    2    0    0 -0.26164377310E-01 -0.11148014159E-01 -0.21700362966E-02  0.10154069932E+01  0.10150063054E+01 0.  0.
     999903    2    3    3    0    0  0.15656246869E-01  0.10262914224E+00  0.65872900525E-01  0.12449507433E+00  0.19542917030E-01 0.  0.
         14    1    1    2    0    0  0.26164377310E-01  0.11148014159E-01  0.21700362966E-02  0.28523006806E-01  0.00000000000E+00 0. -1.
     999901    1    3    3    0    0 -0.41820624179E-01 -0.11377715640E+00 -0.68042936821E-01  0.89091191887E+00  0.88000000000E+00 0. -1.
        -11    1    4    4    0    0  0.17010225335E-01  0.79198380471E-01  0.42966710127E-01  0.91695858878E-01  0.51100000000E-03 0.  1.
         11    1    4    4    0    0 -0.13539784666E-02  0.23430761767E-01  0.22906190397E-01  0.32799215451E-01  0.51100000000E-03 0. -1.
</event>
<event>
 8    1  0.1094134E+005  0.1043930E+01  0.7957747E-01            NaN
         13   -1    0    0    0    0  0.00000000000E+00  0.00000000000E+00  0.74505805969E-08  0.10566000000E+00  0.10566000000E+00 0. -1.
     999900   -1    0    0    0    0 -0.00000000000E+00 -0.00000000000E+00 -0.74505805969E-08  0.93827000000E+00  0.93827000000E+00 0. -1.
     999902    2    1    2    0    0 -0.27241702049E-01 -0.74310181737E-04  0.71727709071E-02  0.10157597232E+01  0.10153690220E+01 0.  0.
     999903    2    3    3    0    0 -0.11484938157E+00  0.34608635006E-01 -0.43352353417E-01  0.12928874207E+00  0.21166346261E-01 0.  0.
         14    1    1    2    0    0  0.27241702049E-01  0.74310181737E-04 -0.71727709071E-02  0.28170276800E-01  0.00000000000E+00 0. -1.
     999901    1    3    3    0    0  0.87607679526E-01 -0.34682945187E-01  0.50525124324E-01  0.88647098113E+00  0.88000000000E+00 0. -1.
        -11    1    4    4    0    0 -0.43642194110E-01  0.15602088549E-01 -0.62335124239E-02  0.46767339800E-01  0.51100000000E-03 0. -1.
         11    1    4    4    0    0 -0.71207187465E-01  0.19006546457E-01 -0.37118840993E-01  0.82521402269E-01  0.51100000000E-03 0.  1.
</event>
<event>
 8    1  0.1094134E+005  0.1043930E+01  0.7957747E-01            NaN
         13   -1    0    0    0    0  0.00000000000E+00  0.00000000000E+00  0.74505805969E-08  0.10566000000E+00  0.10566000000E+00 0.  1.
     999900   -1    0    0    0    0 -0.00000000000E+00 -0.00000000000E+00 -0.74505805969E-08  0.93827000000E+00  0.93827000000E+00 0.  1.
     999902    2    1    2    0    0 -0.15081476092E-01 -0.18345155492E-01  0.29735951120E-02  0.10199959673E+01  0.10197151247E+01 0.  0.
     999903    2    3    3    0    0  0.72255466302E-01 -0.10097732878E+00 -0.36725731158E-01  0.13093362191E+00  0.19430920693E-01 0.  0.
         14    1    1    2    0    0  0.15081476092E-01  0.18345155492E-01 -0.29735951120E-02  0.23934032653E-01  0.00000000000E+00 0. -1.
     999901    1    3    3    0    0 -0.87336942394E-01  0.82632173289E-01  0.39699326270E-01  0.88906234544E+00  0.88000000000E+00 0. -1.
        -11    1    4    4    0    0  0.24684029263E-01 -0.32062981254E-01 -0.27419512203E-02  0.40560023238E-01  0.51100000000E-03 0.  1.
         11    1    4    4    0    0  0.47571437039E-01 -0.68914347527E-01 -0.33983779938E-01  0.90373598672E-01  0.51100000000E-03 0. -1.
</event>
<event>
 8    1  0.1094134E+005  0.1043930E+01  0.7957747E-01            NaN
         13   -1    0    0    0    0  0.00000000000E+00  0.00000000000E+00  0.74505805969E-08  0.10566000000E+00  0.10566000000E+00 0.  1.
     999900   -1    0    0    0    0 -0.00000000000E+00 -0.00000000000E+00 -0.74505805969E-08  0.93827000000E+00  0.93827000000E+00 0. -1.
     999902    2    1    2    0    0 -0.48587879529E-02 -0.11650804140E-01  0.22212837632E-01  0.10183808471E+01  0.10180603079E+01 0.  0.
     999903    2    3    3    0    0 -0.58075475164E-01 -0.13903584545E-01  0.11550354849E+00  0.13184813618E+00  0.21835540367E-01 0.  0.
         14    1    1    2    0    0  0.48587879529E-02  0.11650804140E-01 -0.22212837632E-01  0.25549152885E-01  0.00000000000E+00 0. -1.
     999901    1    3    3    0    0  0.53216687211E-01  0.22527804045E-02 -0.93290710857E-01  0.88653271093E+00  0.88000000000E+00 0. -1.
        -11    1    4    4    0    0 -0.53998190972E-01 -0.15347515106E-01  0.11427926620E+00  0.12732384950E+00  0.51100000000E-03 0.  1.
         11    1    4    4    0    0 -0.40772841918E-02  0.14439305607E-02  0.12242822879E-02  0.45242866803E-02  0.51100000000E-03 0. -1.
</event>
<event>
 8    1  0.1094134E+005  0.1043930E+01  0.7957747E-01            NaN
         13   -1    0    0    0    0  0.00000000000E+00  0.00000000000E+00  0.74505805969E-08  0.10566000000E+00  0.10566000000E+00 0.  1.
     999900   -1    0    0    0    0 -0.00000000000E+00 -0.00000000000E+00 -0.74505805969E-08  0.93827000000E+00  0.93827000000E+00 0.  1.
     999902    2    1    2    0    0  0.16639880471E-01  0.16597602255E-01 -0.17588446218E-02  0.10203618105E+01  0.10200895866E+01 0.  0.
     999903    2    3    3    0    0 -0.79888109031E-01 -0.87008071750E-02  0.98976033047E-01  0.12901161115E+00  0.19746561298E-01 0.  0.
         14    1    1    2    0    0 -0.16639880471E-01 -0.16597602255E-01  0.17588446218E-02  0.23568189516E-01  0.00000000000E+00 0.  1.
     999901    1    3    3    0    0  0.96527989502E-01  0.25298409430E-01 -0.10073487767E+00  0.89135019934E+00  0.88000000000E+00 0.  1.
        -11    1    4    4    0    0 -0.11630235269E-01 -0.50755225257E-02  0.26498693214E-01  0.29384777767E-01  0.51100000000E-03 0.  1.
         11    1    4    4    0    0 -0.68257873762E-01 -0.36252846493E-02  0.72477339833E-01  0.99626833381E-01  0.51100000000E-03 0. -1.
</event>
<event>
 8    1  0.1094134E+005  0.1043930E+01  0.7957747E-01            NaN
         13   -1    0    0    0    0  0.00000000000E+00  0.00000000000E+00  0.74505805969E-08  0.10566000000E+00  0.10566000000E+00 0. -1.
     999900   -1    0    0    0    0 -0.00000000000E+00 -0.00000000000E+00 -0.74505805969E-08  0.93827000000E+00  0.93827000000E+00 0.  1.
     999902    2    1    2    0    0  0.14146798897E-01 -0.12728483466E-01  0.11436057431E-01  0.10217279816E+01  0.10214867296E+01 0.  0.
     999903    2    3    3    0    0 -0.50488437649E-03 -0.13044087030E+00 -0.18753171148E-01  0.13325610961E+00  0.19759396911E-01 0.  0.
         14    1    1    2    0    0 -0.14146798897E-01  0.12728483466E-01 -0.11436057431E-01  0.22202018375E-01  0.00000000000E+00 0.  1.
     999901    1    3    3    0    0  0.14651683273E-01  0.11771238684E+00  0.30189228579E-01  0.88847187201E+00  0.88000000000E+00 0. -1.
        -11    1    4    4    0    0  0.94758053383E-02 -0.57674447050E-01 -0.68868920285E-02  0.58854253305E-01  0.51100000000E-03 0.  1.
         11    1    4    4    0    0 -0.99806897148E-02 -0.72766423255E-01 -0.11866279120E-01  0.74401856305E-01  0.51100000000E-03 0. -1.
</event>
<event>
 8    1  0.1094134E+005  0.1043930E+01  0.7957747E-01            NaN
         13   -1    0    0    0    0  0.00000000000E+00  0.00000000000E+00  0.74505805969E-08  0.10566000000E+00  0.10566000000E+00 0. -1.
     999900   -1    0    0    0    0 -0.00000000000E+00 -0.00000000000E+00 -0.74505805969E-08  0.93827000000E+00  0.93827000000E+00 0. -1.
     999902    2    1    2    0    0  0.11656284519E-02 -0.97500010142E-02 -0.21782159430E-01  0.10200368278E+01  0.10197569545E+01 0.  0.
     999903    2    3    3    0    0  0.76832850539E-01  0.85643781297E-01 -0.59040471193E-01  0.13087222884E+00  0.20090267462E-01 0.  0.
         14    1    1    2    0    0 -0.11656284519E-02  0.97500010142E-02  0.21782159430E-01  0.23893172223E-01  0.00000000000E+00 0. -1.
     999901    1    3    3    0    0 -0.75667222087E-01 -0.95393782311E-01  0.37258311764E-01  0.88916459893E+00  0.88000000000E+00 0.  1.
        -11    1    4    4    0    0  0.72553476528E-01  0.71703366348E-01 -0.54105950486E-01  0.11546902052E+00  0.51100000000E-03 0.  1.
         11    1    4    4    0    0  0.42793740115E-02  0.13940414949E-01 -0.49345207077E-02  0.15403208318E-01  0.51100000000E-03 0. -1.
</event>
<event>
 8    1  0.1094134E+005  0.1043930E+01  0.7957747E-01            NaN
         13   -1    0    0    0    0  0.00000000000E+00  0.00000000000E+00  0.74505805969E-08  0.10566000000E+00  0.10566000000E+00 0.  1.
     999900   -1    0    0    0    0 -0.00000000000E+00 -0.00000000000E+00 -0.74505805969E-08  0.93827000000E+00  0.93827000000E+00 0.  1.
     999902    2    1    2    0    0 -0.21487336529E-01 -0.36639988375E-02  0.14368317708E-01  0.10178229306E+01  0.10174880535E+01 0.  0.
     999903    2    3    3    0    0  0.47900707781E-01  0.65259100182E-01 -0.94247814890E-01  0.12576768650E+00  0.19535413845E-01 0.  0.
         14    1    1    2    0    0  0.21487336529E-01  0.36639988375E-02 -0.14368317708E-01  0.26107069395E-01  0.00000000000E+00 0. -1.
     999901    1    3    3    0    0 -0.69388044311E-01 -0.68923099019E-01  0.10861613260E+00  0.89205524410E+00  0.88000000000E+00 0.  1.
        -11    1    4    4    0    0  0.36431338687E-01  0.34000111362E-01 -0.60041074664E-01  0.78028467747E-01  0.51100000000E-03 0.  1.
         11    1    4    4    0    0  0.11469369094E-01  0.31258988819E-01 -0.34206740226E-01  0.47739218755E-01  0.51100000000E-03 0. -1.
</event>
<event>
 8    1  0.1094134E+005  0.1043930E+01  0.7957747E-01            NaN
         13   -1    0    0    0    0  0.00000000000E+00  0.00000000000E+00  0.74505805969E-08  0.10566000000E+00  0.10566000000E+00 0. -1.
     999900   -1    0    0    0    0 -0.00000000000E+00 -0.00000000000E+00 -0.74505805969E-08  0.93827000000E+00  0.93827000000E+00 0.  1.
     999902    2    1    2    0    0 -0.10119165199E-01 -0.16213464467E-01  0.13503047162E-01  0.10205290125E+01  0.10202606819E+01 0.  0.
     999903    2    3    3    0    0 -0.10798740134E+00  0.16935052279E-01 -0.68695583049E-01  0.13067867078E+00  0.20242455955E-01 0.  0.
         14    1    1    2    0    0  0.10119165199E-01  0.16213464467E-01 -0.13503047162E-01  0.23400987522E-01  0.00000000000E+00 0.  1.
     999901    1    3    3    0    0  0.97868236140E-01 -0.33148516746E-01  0.82198630211E-01  0.88985034170E+00  0.88000000000E+00 0. -1.
        -11    1    4    4    0    0 -0.51722870898E-01  0.80599110673E-02 -0.21074050086E-01  0.56432209316E-01  0.51100000000E-03 0.  1.
         11    1    4    4    0    0 -0.56264530442E-01  0.88751412116E-02 -0.47621532963E-01  0.74246461466E-01  0.51100000000E-03 0. -1.
</event>
<event>
 8    1  0.1094134E+005  0.1043930E+01  0.7957747E-01            NaN
         13   -1    0    0    0    0  0.00000000000E+00  0.00000000000E+00  0.74505805969E-08  0.10566000000E+00  0.10566000000E+00 0.  1.
     999900   -1    0    0    0    0 -0.00000000000E+00 -0.00000000000E+00 -0.74505805969E-08  0.93827000000E+00  0.93827000000E+00 0.  1.
     999902    2    1    2    0    0  0.90745335101E-02  0.85068493699E-02 -0.19636452612E-01  0.10206855616E+01  0.10204208503E+01 0.  0.
     999903    2    3    3    0    0 -0.10170825750E+00  0.63888505492E-01  0.44643543078E-01  0.12969068370E+00  0.20007916532E-01 0.  0.
         14    1    1    2    0    0 -0.90745335101E-02 -0.85068493699E-02  0.19636452612E-01  0.23244438385E-01  0.00000000000E+00 0.  1.
     999901    1    3    3    0    0  0.11078279101E+00 -0.55381656123E-01 -0.64279995690E-01  0.89099487791E+00  0.88000000000E+00 0. -1.
        -11    1    4    4    0    0 -0.19638189533E-01  0.14827010684E-01  0.17805979039E-01  0.30377833110E-01  0.51100000000E-03 0.  1.
         11    1    4    4    0    0 -0.82070067964E-01  0.49061494809E-01  0.26837564039E-01  0.99312850594E-01  0.51100000000E-03 0. -1.
</event>
<event>
 8    1  0.1094134E+005  0.1043930E+01  0.7957747E-01            NaN
         13   -1    0    0    0    0  0.00000000000E+00  0.00000000000E+00  0.74505805969E-08  0.10566000000E+00  0.10566000000E+00 0. -1.
     999900   -1    0    0    0    0 -0.00000000000E+00 -0.00000000000E+00 -0.74505805969E-08  0.93827000000E+00  0.93827000000E+00 0. -1.
     999902    2    1    2    0    0  0.10583489477E-01 -0.14404690043E-01  0.16511098858E-01  0.10195964485E+01  0.10193060365E+01 0.  0.
     999903    2    3    3    0    0 -0.93157758393E-01 -0.65515263879E-01 -0.57176170413E-01  0.12897624270E+00  0.19878102724E-01 0.  0.
         14    1    1    2    0    0 -0.10583489477E-01  0.14404690043E-01 -0.16511098858E-01  0.24333551534E-01  0.00000000000E+00 0. -1.
     999901    1    3    3    0    0  0.10374124787E+00  0.51110573836E-01  0.73687269271E-01  0.89062020577E+00  0.88000000000E+00 0. -1.
        -11    1    4    4    0    0 -0.18117308550E-01 -0.14249414306E-01 -0.20911582725E-01  0.31126164078E-01  0.51100000000E-03 0. -1.
         11    1    4    4    0    0 -0.75040449842E-01 -0.51265849573E-01 -0.36264587688E-01  0.97850078621E-01  0.51100000000E-03 0.  1.
</event>
<event>
 8    1  0.1094134E+005  0.1043930E+01  0.7957747E-01            NaN
         13   -1    0    0    0    0  0.00000000000E+00  0.00000000000E+00  0.74505805969E-08  0.10566000000E+00  0.10566000000E+00 0. -1.
     999900   -1    0    0    0    0 -0.00000000000E+00 -0.00000000000E+00 -0.74505805969E-08  0.93827000000E+00  0.93827000000E+00 0. -1.
     999902    2    1    2    0    0 -0.53935562159E-03  0.24473794796E-01 -0.46775859512E-02  0.10190073728E+01  0.10187025515E+01 0.  0.
     999903    2    3    3    0    0  0.95243374043E-01  0.57654149769E-01  0.65104721668E-01  0.13044401675E+00  0.19537539192E-01 0.  0.
         14    1    1    2    0    0  0.53935562159E-03 -0.24473794796E-01  0.46775859512E-02  0.24922627200E-01  0.00000000000E+00 0. -1.
     999901    1    3    3    0    0 -0.95782729665E-01 -0.33180354972E-01 -0.69782307619E-01  0.88856335605E+00  0.88000000000E+00 0.  1.
        -11    1    4    4    0    0  0.12228194341E-01  0.15216820349E-01  0.14810692187E-01  0.24509142834E-01  0.51100000000E-03 0. -1.
         11    1    4    4    0    0  0.83015179702E-01  0.42437329420E-01  0.50294029480E-01  0.10593487392E+00  0.51100000000E-03 0.  1.
</event>
<event>
 8    1  0.1094134E+005  0.1043930E+01  0.7957747E-01            NaN
         13   -1    0    0    0    0  0.00000000000E+00  0.00000000000E+00  0.74505805969E-08  0.10566000000E+00  0.10566000000E+00 0.  1.
     999900   -1    0    0    0    0 -0.00000000000E+00 -0.00000000000E+00 -0.74505805969E-08  0.93827000000E+00  0.93827000000E+00 0. -1.
     999902    2    1    2    0    0  0.14722903432E-02  0.13656464639E-01 -0.23974268621E-01  0.10162997227E+01  0.10159240593E+01 0.  0.
     999903    2    3    3    0    0 -0.23522803859E-01 -0.12129365157E+00 -0.67571268316E-02  0.12549518831E+00  0.20926330634E-01 0.  0.
         14    1    1    2    0    0 -0.14722903432E-02 -0.13656464639E-01  0.23974268621E-01  0.27630277255E-01  0.00000000000E+00 0.  1.
     999901    1    3    3    0    0  0.24995094202E-01  0.13495011621E+00 -0.17217141789E-01  0.89080453443E+00  0.88000000000E+00 0. -1.
        -11    1    4    4    0    0 -0.14055804921E-01 -0.99786621475E-01  0.89485724048E-03  0.10077696844E+00  0.51100000000E-03 0. -1.
         11    1    4    4    0    0 -0.94669989385E-02 -0.21507030094E-01 -0.76519840721E-02  0.24718219871E-01  0.51100000000E-03 0.  1.
</event>
<event>
 8    1  0.1094134E+005  0.1043930E+01  0.7957747E-01            NaN
         13   -1    0    0    0    0  0.00000000000E+00  0.00000000000E+00  0.74505805969E-08  0.10566000000E+00  0.10566000000E+00 0.  1.
     999900   -1    0    0    0    0 -0.00000000000E+00 -0.00000000000E+00 -0.74505805969E-08  0.93827000000E+00  0.93827000000E+00 0.  1.
     999902    2    1    2    0    0  0.14715233782E-01  0.12577523747E-02  0.14584182955E-01  0.10231738337E+01  0.10229632816E+01 0.  0.
     999903    2    3    3    0    0  0.31058256371E-01 -0.15907254403E-01  0.12926816205E+00  0.13541590111E+00  0.20237404043E-01 0.  0.
         14    1    1    2    0    0 -0.14715233782E-01 -0.12577523747E-02 -0.14584182955E-01  0.20756166282E-01  0.00000000000E+00 0. -1.
     999901    1    3    3    0    0 -0.16343022589E-01  0.17165006777E-01 -0.11468397910E+00  0.88775793261E+00  0.88000000000E+00 0.  1.
        -11    1    4    4    0    0  0.18752822653E-01 -0.15254630173E-02  0.40628692812E-01  0.44776636714E-01  0.51100000000E-03 0.  1.
         11    1    4    4    0    0  0.12305433718E-01 -0.14381791385E-01  0.88639469239E-01  0.90639264397E-01  0.51100000000E-03 0. -1.
</event>
<event>
 8    1  0.1094134E+005  0.1043930E+01  0.7957747E-01            NaN
         13   -1    0    0    0    0  0.00000000000E+00  0.00000000000E+00  0.74505805969E-08  0.10566000000E+00  0.10566000000E+00 0.  1.
     999900   -1    0    0    0    0 -0.00000000000E+00 -0.00000000000E+00 -0.74505805969E-08  0.93827000000E+00  0.93827000000E+00 0.  1.
     999902    2    1    2    0    0  0.18292405794E-01  0.24975840739E-02  0.14511915027E-01  0.10204471187E+01  0.10201768848E+01 0.  0.
     999903    2    3    3    0    0 -0.12171166558E+00  0.18102924674E-01 -0.29835428595E-01  0.12814035893E+00  0.19706683340E-01 0.  0.
         14    1    1    2    0    0 -0.18292405794E-01 -0.24975840739E-02 -0.14511915027E-01  0.23482881290E-01  0.00000000000E+00 0. -1.
     999901    1    3    3    0    0  0.14000407137E+00 -0.15605340600E-01  0.44347343622E-01  0.89230675978E+00  0.88000000000E+00 0.  1.
        -11    1    4    4    0    0 -0.31798818610E-01  0.17686929405E-02 -0.16225214828E-01  0.35746494330E-01  0.51100000000E-03 0.  1.
         11    1    4    4    0    0 -0.89912846970E-01  0.16334231733E-01 -0.13610213767E-01  0.92393864604E-01  0.51100000000E-03 0. -1.
</event>
<event>
 8    1  0.1498977E+005  0.1043930E+01  0.7957747E-01            NaN
         13   -1    0    0    0    0  0.00000000000E+00  0.00000000000E+00  0.74505805969E-08  0.10566000000E+00  0.10566000000E+00 0.  1.
     999900   -1    0    0    0    0 -0.00000000000E+00 -0.00000000000E+00 -0.74505805969E-08  0.93827000000E+00  0.93827000000E+00 0.  1.
     999902    2    1    2    0    0 -0.18458124553E-02 -0.11929707441E-01 -0.20201881344E-01  0.10203961743E+01  0.10201247529E+01 0.  0.
     999903    2    3    3    0    0 -0.49416097936E-02 -0.26255582024E-01 -0.12931693877E+00  0.13353603288E+00  0.19880300054E-01 0.  0.
         14    1    1    2    0    0  0.18458124553E-02  0.11929707441E-01  0.20201881344E-01  0.23533825722E-01  0.00000000000E+00 0.  1.
     999901    1    3    3    0    0  0.30957973383E-02  0.14325874583E-01  0.10911505742E+00  0.88686014140E+00  0.88000000000E+00 0. -1.
        -11    1    4    4    0    0 -0.11454419944E-01 -0.19818092338E-01 -0.73910061058E-01  0.77375181852E-01  0.51100000000E-03 0.  1.
         11    1    4    4    0    0  0.65128101507E-02 -0.64374896867E-02 -0.55406877711E-01  0.56160851028E-01  0.51100000000E-03 0. -1.
</event>
<event>
 8    1  0.1094134E+005  0.1043930E+01  0.7957747E-01            NaN
         13   -1    0    0    0    0  0.00000000000E+00  0.00000000000E+00  0.74505805969E-08  0.10566000000E+00  0.10566000000E+00 0.  1.
     999900   -1    0    0    0    0 -0.00000000000E+00 -0.00000000000E+00 -0.74505805969E-08  0.93827000000E+00  0.93827000000E+00 0.  1.
     999902    2    1    2    0    0 -0.99115273406E-02  0.59501274044E-02 -0.20024912645E-01  0.10208077268E+01  0.10205458224E+01 0.  0.
     999903    2    3    3    0    0  0.99085274575E-01  0.68942257838E-01  0.43587255021E-01  0.12957553531E+00  0.17861802710E-01 0.  0.
         14    1    1    2    0    0  0.99115273406E-02 -0.59501274044E-02  0.20024912645E-01  0.23122273175E-01  0.00000000000E+00 0.  1.
     999901    1    3    3    0    0 -0.10899680192E+00 -0.62992130433E-01 -0.63612167666E-01  0.89123219152E+00  0.88000000000E+00 0.  1.
        -11    1    4    4    0    0  0.82756938987E-01  0.57571876620E-01  0.29011651161E-01  0.10490552394E+00  0.51100000000E-03 0. -1.
         11    1    4    4    0    0  0.16328335588E-01  0.11370381218E-01  0.14575603861E-01  0.24670011371E-01  0.51100000000E-03 0.  1.
</event>
<event>
 8    1  0.1094134E+005  0.1043930E+01  0.7957747E-01            NaN
         13   -1    0    0    0    0  0.00000000000E+00  0.00000000000E+00  0.74505805969E-08  0.10566000000E+00  0.10566000000E+00 0.  1.
     999900   -1    0    0    0    0 -0.00000000000E+00 -0.00000000000E+00 -0.74505805969E-08  0.93827000000E+00  0.93827000000E+00 0.  1.
     999902    2    1    2    0    0 -0.17796860616E-02  0.50367594740E-03  0.22949704087E-01  0.10209058846E+01  0.10206462244E+01 0.  0.
     999903    2    3    3    0    0  0.11320324600E+00 -0.47077689798E-01 -0.38874515041E-01  0.13000336744E+00  0.18930500335E-01 0.  0.
         14    1    1    2    0    0  0.17796860616E-02 -0.50367594740E-03 -0.22949704087E-01  0.23024115392E-01  0.00000000000E+00 0. -1.
     999901    1    3    3    0    0 -0.11498293206E+00  0.47581365746E-01  0.61824219127E-01  0.89090251717E+00  0.88000000000E+00 0. -1.
        -11    1    4    4    0    0  0.56530354478E-01 -0.31620117186E-01 -0.26400476159E-01  0.69948259812E-01  0.51100000000E-03 0.  1.
         11    1    4    4    0    0  0.56672891523E-01 -0.15457572612E-01 -0.12474038882E-01  0.60055107624E-01  0.51100000000E-03 0. -1.
</event>
<event>
 8    1  0.1094134E+005  0.1043930E+01  0.7957747E-01            NaN
         13   -1    0    0    0    0  0.00000000000E+00  0.00000000000E+00  0.74505805969E-08  0.10566000000E+00  0.10566000000E+00 0. -1.
     999900   -1    0    0    0    0 -0.00000000000E+00 -0.00000000000E+00 -0.74505805969E-08  0.93827000000E+00  0.93827000000E+00 0.  1.
     999902    2    1    2    0    0  0.11102853506E-01  0.18271239871E-03 -0.20595750290E-01  0.10205314601E+01  0.10202631863E+01 0.  0.
     999903    2    3    3    0    0  0.75727207547E-01  0.10289890047E+00  0.22165497086E-01  0.13117470001E+00  0.19816633925E-01 0.  0.
         14    1    1    2    0    0 -0.11102853506E-01 -0.18271239871E-03  0.20595750290E-01  0.23398539908E-01  0.00000000000E+00 0.  1.
     999901    1    3    3    0    0 -0.64624354041E-01 -0.10271618807E+00 -0.42761247376E-01  0.88935676008E+00  0.88000000000E+00 0. -1.
        -11    1    4    4    0    0  0.68595883150E-01  0.82243685111E-01  0.21914189365E-01  0.10931565186E+00  0.51100000000E-03 0. -1.
         11    1    4    4    0    0  0.71313243976E-02  0.20655215361E-01  0.25130772126E-03  0.21859048146E-01  0.51100000000E-03 0.  1.
</event>
<event>
 8    1  0.1094134E+005  0.1043930E+01  0.7957747E-01            NaN
         13   -1    0    0    0    0  0.00000000000E+00  0.00000000000E+00  0.74505805969E-08  0.10566000000E+00  0.10566000000E+00 0. -1.
     999900   -1    0    0    0    0 -0.00000000000E+00 -0.00000000000E+00 -0.74505805969E-08  0.93827000000E+00  0.93827000000E+00 0.  1.
     999902    2    1    2    0    0  0.16027984306E-01  0.16517109351E-01 -0.36238107857E-03  0.10209116920E+01  0.10206521643E+01 0.  0.
     999903    2    3    3    0    0 -0.10878944388E+00 -0.27027636994E-01 -0.60787398876E-01  0.12898864708E+00  0.19424905453E-01 0.  0.
         14    1    1    2    0    0 -0.16027984306E-01 -0.16517109351E-01  0.36238107857E-03  0.23018307980E-01  0.00000000000E+00 0. -1.
     999901    1    3    3    0    0  0.12481742819E+00  0.43544746345E-01  0.60425017797E-01  0.89192304494E+00  0.88000000000E+00 0. -1.
        -11    1    4    4    0    0 -0.99855573748E-01 -0.19199873684E-01 -0.52042391407E-01  0.11422977888E+00  0.51100000000E-03 0.  1.
         11    1    4    4    0    0 -0.89338701363E-02 -0.78277633104E-02 -0.87450074688E-02  0.14758868205E-01  0.51100000000E-03 0. -1.
</event>
<event>
 8    1  0.1094134E+005  0.1043930E+01  0.7957747E-01            NaN
         13   -1    0    0    0    0  0.00000000000E+00  0.00000000000E+00  0.74505805969E-08  0.10566000000E+00  0.10566000000E+00 0. -1.
     999900   -1    0    0    0    0 -0.00000000000E+00 -0.00000000000E+00 -0.74505805969E-08  0.93827000000E+00  0.93827000000E+00 0.  1.
     999902    2    1    2    0    0 -0.13774893950E-01  0.16315584249E-01 -0.99785509764E-02  0.10203605818E+01  0.10200883293E+01 0.  0.
     999903    2    3    3    0    0 -0.99370890670E-01 -0.18169153956E-01 -0.83361219504E-01  0.13249747986E+00  0.20044879239E-01 0.  0.
         14    1    1    2    0    0  0.13774893950E-01 -0.16315584249E-01  0.99785509764E-02  0.23569418158E-01  0.00000000000E+00 0. -1.
     999901    1    3    3    0    0  0.85595996721E-01  0.34484738205E-01  0.73382668527E-01  0.88786310198E+00  0.88000000000E+00 0. -1.
        -11    1    4    4    0    0 -0.74065423837E-01 -0.66512160468E-02 -0.67791072417E-01  0.10062711515E+00  0.51100000000E-03 0.  1.
         11    1    4    4    0    0 -0.25305466833E-01 -0.11517937910E-01 -0.15570147086E-01  0.31870364708E-01  0.51100000000E-03 0. -1.
</event>
<event>
 8    1  0.1094134E+005  0.1043930E+01  0.7957747E-01            NaN
         13   -1    0    0    0    0  0.00000000000E+00  0.00000000000E+00  0.74505805969E-08  0.10566000000E+00  0.10566000000E+00 0.  1.
     999900   -1    0    0    0    0 -0.00000000000E+00 -0.00000000000E+00 -0.74505805969E-08  0.93827000000E+00  0.93827000000E+00 0. -1.
     999902    2    1    2    0    0 -0.18409842323E-02  0.68500582315E-02  0.22399082744E-01  0.10204346509E+01  0.10201641267E+01 0.  0.
     999903    2    3    3    0    0  0.74927549658E-01 -0.10222491719E+00 -0.18453047346E-01  0.12944662934E+00  0.18757491805E-01 0.  0.
         14    1    1    2    0    0  0.18409842323E-02 -0.68500582315E-02 -0.22399082744E-01  0.23495349082E-01  0.00000000000E+00 0. -1.
     999901    1    3    3    0    0 -0.76768533890E-01  0.10907497542E+00  0.40852130089E-01  0.89098802158E+00  0.88000000000E+00 0.  1.
        -11    1    4    4    0    0  0.61415117616E-01 -0.73978355841E-01 -0.82210803247E-02  0.96501093711E-01  0.51100000000E-03 0.  1.
         11    1    4    4    0    0  0.13512432042E-01 -0.28246561352E-01 -0.10231967021E-01  0.32945535631E-01  0.51100000000E-03 0. -1.
</event>
<event>
 8    1  0.1094134E+005  0.1043930E+01  0.7957747E-01            NaN
         13   -1    0    0    0    0  0.00000000000E+00  0.00000000000E+00  0.74505805969E-08  0.10566000000E+00  0.10566000000E+00 0.  1.
     999900   -1    0    0    0    0 -0.00000000000E+00 -0.00000000000E+00 -0.74505805969E-08  0.93827000000E+00  0.93827000000E+00 0.  1.
     999902    2    1    2    0    0  0.18109778854E-01  0.10853519562E-01 -0.92395098621E-02  0.10208837092E+01  0.10206235428E+01 0.  0.
     999903    2    3    3    0    0 -0.23000513710E-01  0.11539785236E+00  0.55858373992E-01  0.13135725757E+00  0.16996564645E-01 0.  0.
         14    1    1    2    0    0 -0.18109778854E-01 -0.10853519562E-01  0.92395098621E-02  0.23046290798E-01  0.00000000000E+00 0.  1.
     999901    1    3    3    0    0  0.41110292564E-01 -0.10454433280E+00 -0.65097883854E-01  0.88952645163E+00  0.88000000000E+00 0. -1.
        -11    1    4    4    0    0 -0.78707318674E-02  0.60297637301E-01  0.37004106077E-01  0.71185100068E-01  0.51100000000E-03 0.  1.
         11    1    4    4    0    0 -0.15129781842E-01  0.55100215062E-01  0.18854267915E-01  0.60172157499E-01  0.51100000000E-03 0. -1.
</event>
<event>
 8    1  0.1094134E+005  0.1043930E+01  0.7957747E-01            NaN
         13   -1    0    0    0    0  0.00000000000E+00  0.00000000000E+00  0.74505805969E-08  0.10566000000E+00  0.10566000000E+00 0. -1.
     999900   -1    0    0    0    0 -0.00000000000E+00 -0.00000000000E+00 -0.74505805969E-08  0.93827000000E+00  0.93827000000E+00 0. -1.
     999902    2    1    2    0    0  0.19256671447E-01 -0.16538164546E-02  0.10117760757E-01  0.10221143270E+01  0.10218814872E+01 0.  0.
     999903    2    3    3    0    0  0.36277376948E-01  0.38122254134E-01 -0.11902108076E+00  0.13163766783E+00  0.19826840091E-01 0.  0.
         14    1    1    2    0    0 -0.19256671447E-01  0.16538164546E-02 -0.10117760757E-01  0.21815672963E-01  0.00000000000E+00 0.  1.
     999901    1    3    3    0    0 -0.17020705501E-01 -0.39776070589E-01  0.12913884152E+00  0.89047665921E+00  0.88000000000E+00 0.  1.
        -11    1    4    4    0    0  0.11346668470E-01  0.47987846272E-02 -0.13920535948E-01  0.18596173298E-01  0.51100000000E-03 0.  1.
         11    1    4    4    0    0  0.24930708478E-01  0.33323469507E-01 -0.10510054481E+00  0.11304149453E+00  0.51100000000E-03 0. -1.
</event>
<event>
 8    1  0.1094134E+005  0.1043930E+01  0.7957747E-01            NaN
         13   -1    0    0    0    0  0.00000000000E+00  0.00000000000E+00  0.74505805969E-08  0.10566000000E+00  0.10566000000E+00 0. -1.
     999900   -1    0    0    0    0 -0.00000000000E+00 -0.00000000000E+00 -0.74505805969E-08  0.93827000000E+00  0.93827000000E+00 0. -1.
     999902    2    1    2    0    0  0.72636969969E-02  0.22558045063E-01 -0.49131416333E-04  0.10202312847E+01  0.10199560016E+01 0.  0.
     999903    2    3    3    0    0  0.28098401135E-01 -0.12243670261E+00 -0.14955982119E-01  0.12799825691E+00  0.19483482196E-01 0.  0.
         14    1    1    2    0    0 -0.72636969969E-02 -0.22558045063E-01  0.49131416333E-04  0.23698715261E-01  0.00000000000E+00 0. -1.
     999901    1    3    3    0    0 -0.20834704139E-01  0.14499474767E+00  0.14906850703E-01  0.89223302783E+00  0.88000000000E+00 0.  1.
        -11    1    4    4    0    0  0.81107152995E-02 -0.77599215717E-01 -0.86607170794E-02  0.78502809656E-01  0.51100000000E-03 0. -1.
         11    1    4    4    0    0  0.19987685836E-01 -0.44837486894E-01 -0.62952650399E-02  0.49495447255E-01  0.51100000000E-03 0.  1.
</event>
<event>
 8    1  0.1094134E+005  0.1043930E+01  0.7957747E-01            NaN
         13   -1    0    0    0    0  0.00000000000E+00  0.00000000000E+00  0.74505805969E-08  0.10566000000E+00  0.10566000000E+00 0.  1.
     999900   -1    0    0    0    0 -0.00000000000E+00 -0.00000000000E+00 -0.74505805969E-08  0.93827000000E+00  0.93827000000E+00 0. -1.
     999902    2    1    2    0    0 -0.96002433792E-02 -0.99703563044E-02 -0.18534338551E-01  0.10207978928E+01  0.10205357630E+01 0.  0.
     999903    2    3    3    0    0 -0.33295995632E-01 -0.11891346704E+00  0.39970149695E-01  0.13183621467E+00  0.23111440050E-01 0.  0.
         14    1    1    2    0    0  0.96002433792E-02  0.99703563044E-02  0.18534338551E-01  0.23132107196E-01  0.00000000000E+00 0.  1.
     999901    1    3    3    0    0  0.23695752253E-01  0.10894311074E+00 -0.58504488247E-01  0.88896167814E+00  0.88000000000E+00 0.  1.
        -11    1    4    4    0    0 -0.26138662282E-01 -0.84462881679E-01  0.17639073332E-01  0.90158782580E-01  0.51100000000E-03 0.  1.
         11    1    4    4    0    0 -0.71573333502E-02 -0.34450585366E-01  0.22331076363E-01  0.41677432086E-01  0.51100000000E-03 0. -1.
</event>
<event>
 8    1  0.1094134E+005  0.1043930E+01  0.7957747E-01            NaN
         13   -1    0    0    0    0  0.00000000000E+00  0.00000000000E+00  0.74505805969E-08  0.10566000000E+00  0.10566000000E+00 0.  1.
     999900   -1    0    0    0    0 -0.00000000000E+00 -0.00000000000E+00 -0.74505805969E-08  0.93827000000E+00  0.93827000000E+00 0.  1.
     999902    2    1    2    0    0  0.54545376054E-03  0.21610388772E-01  0.10686020709E-01  0.10198157415E+01  0.10195306024E+01 0.  0.
     999903    2    3    3    0    0  0.73288751701E-01  0.10355652400E+00 -0.30626289715E-01  0.13205819385E+00  0.20154457434E-01 0.  0.
         14    1    1    2    0    0 -0.54545376054E-03 -0.21610388772E-01 -0.10686020709E-01  0.24114258464E-01  0.00000000000E+00 0. -1.
     999901    1    3    3    0    0 -0.72743297940E-01 -0.81946135224E-01  0.41312310423E-01  0.88775754768E+00  0.88000000000E+00 0.  1.
        -11    1    4    4    0    0  0.45633501382E-01  0.49767179028E-01 -0.10637940208E-01  0.68356531873E-01  0.51100000000E-03 0.  1.
         11    1    4    4    0    0  0.27655250319E-01  0.53789344968E-01 -0.19988349506E-01  0.63701661982E-01  0.51100000000E-03 0. -1.
</event>
<event>
 8    1  0.1094134E+005  0.1043930E+01  0.7957747E-01            NaN
         13   -1    0    0    0    0  0.00000000000E+00  0.00000000000E+00  0.74505805969E-08  0.10566000000E+00  0.10566000000E+00 0. -1.
     999900   -1    0    0    0    0 -0.00000000000E+00 -0.00000000000E+00 -0.74505805969E-08  0.93827000000E+00  0.93827000000E+00 0.  1.
     999902    2    1    2    0    0  0.16549079210E-01 -0.15318952287E-01  0.72674022025E-02  0.10202370167E+01  0.10199618683E+01 0.  0.
     999903    2    3    3    0    0  0.96786608442E-01 -0.74886296292E-01  0.51260245144E-01  0.13348919473E+00  0.14701953360E-01 0.  0.
         14    1    1    2    0    0 -0.16549079210E-01  0.15318952287E-01 -0.72674022025E-02  0.23692983279E-01  0.00000000000E+00 0. -1.
     999901    1    3    3    0    0 -0.80237529232E-01  0.59567344005E-01 -0.43992842941E-01  0.88674782199E+00  0.88000000000E+00 0.  1.
        -11    1    4    4    0    0  0.23489721341E-01 -0.17455728198E-01  0.56875407499E-02  0.29817422699E-01  0.51100000000E-03 0.  1.
         11    1    4    4    0    0  0.73296887101E-01 -0.57430568094E-01  0.45572704394E-01  0.10367177204E+00  0.51100000000E-03 0. -1.
</event>
<event>
 8    1  0.1094134E+005  0.1043930E+01  0.7957747E-01            NaN
         13   -1    0    0    0    0  0.00000000000E+00  0.00000000000E+00  0.74505805969E-08  0.10566000000E+00  0.10566000000E+00 0. -1.
     999900   -1    0    0    0    0 -0.00000000000E+00 -0.00000000000E+00 -0.74505805969E-08  0.93827000000E+00  0.93827000000E+00 0. -1.
     999902    2    1    2    0    0 -0.14052504789E-01 -0.56827384438E-02  0.18031497658E-01  0.10203736566E+01  0.10201017095E+01 0.  0.
     999903    2    3    3    0    0 -0.82251795909E-01 -0.10055960876E+00 -0.13788008768E-01  0.13208021137E+00  0.19428849837E-01 0.  0.
         14    1    1    2    0    0  0.14052504789E-01  0.56827384438E-02 -0.18031497658E-01  0.23556343410E-01  0.00000000000E+00 0.  1.
     999901    1    3    3    0    0  0.68199291120E-01  0.94876870316E-01  0.31819506426E-01  0.88829344522E+00  0.88000000000E+00 0. -1.
        -11    1    4    4    0    0 -0.42161473908E-01 -0.51871927326E-01  0.26580170251E-02  0.66900021690E-01  0.51100000000E-03 0.  1.
         11    1    4    4    0    0 -0.40090322000E-01 -0.48687681433E-01 -0.16446025793E-01  0.65180189681E-01  0.51100000000E-03 0. -1.
</event>
<event>
 8    1  0.1094134E+005  0.1043930E+01  0.7957747E-01            NaN
         13   -1    0    0    0    0  0.00000000000E+00  0.00000000000E+00  0.74505805969E-08  0.10566000000E+00  0.10566000000E+00 0.  1.
     999900   -1    0    0    0    0 -0.00000000000E+00 -0.00000000000E+00 -0.74505805969E-08  0.93827000000E+00  0.93827000000E+00 0.  1.
     999902    2    1    2    0    0  0.15256578481E-02 -0.19217349644E-01 -0.12748749835E-01  0.10208179949E+01  0.10205563257E+01 0.  0.
     999903    2    3    3    0    0 -0.38601360482E-01  0.22422188117E-01 -0.12260311365E+00  0.13210431208E+00  0.20668968161E-01 0.  0.
         14    1    1    2    0    0 -0.15256578481E-02  0.19217349644E-01  0.12748749835E-01  0.23112005139E-01  0.00000000000E+00 0.  1.
     999901    1    3    3    0    0  0.40127018330E-01 -0.41639537760E-01  0.10985436381E+00  0.88871368278E+00  0.88000000000E+00 0. -1.
        -11    1    4    4    0    0 -0.13943109977E-02  0.27261678350E-02 -0.32524842014E-01  0.32672657732E-01  0.51100000000E-03 0.  1.
         11    1    4    4    0    0 -0.37207049484E-01  0.19696020282E-01 -0.90078271631E-01  0.99431654353E-01  0.51100000000E-03 0. -1.
</event>
<event>
 8    1  0.1094134E+005  0.1043930E+01  0.7957747E-01            NaN
         13   -1    0    0    0    0  0.00000000000E+00  0.00000000000E+00  0.74505805969E-08  0.10566000000E+00  0.10566000000E+00 0.  1.
     999900   -1    0    0    0    0 -0.00000000000E+00 -0.00000000000E+00 -0.74505805969E-08  0.93827000000E+00  0.93827000000E+00 0. -1.
     999902    2    1    2    0    0 -0.34950145820E-02  0.27103548285E-02 -0.19037842951E-01  0.10243851640E+01  0.10241986934E+01 0.  0.
     999903    2    3    3    0    0 -0.12125141686E+00  0.51480325521E-01 -0.22835357979E-01  0.13519480111E+00  0.20101011604E-01 0.  0.
         14    1    1    2    0    0  0.34950145820E-02 -0.27103548285E-02  0.19037842951E-01  0.19544836005E-01  0.00000000000E+00 0.  1.
     999901    1    3    3    0    0  0.11775640228E+00 -0.48769970692E-01  0.37975150284E-02  0.88919036288E+00  0.88000000000E+00 0.  1.
        -11    1    4    4    0    0 -0.49238536638E-01  0.28484994531E-01 -0.17002332315E-01  0.59373132213E-01  0.51100000000E-03 0.  1.
         11    1    4    4    0    0 -0.72012880225E-01  0.22995330990E-01 -0.58330256642E-02  0.75821668902E-01  0.51100000000E-03 0. -1.
</event>
<event>
 8    1  0.1094134E+005  0.1043930E+01  0.7957747E-01            NaN
         13   -1    0    0    0    0  0.00000000000E+00  0.00000000000E+00  0.74505805969E-08  0.10566000000E+00  0.10566000000E+00 0. -1.
     999900   -1    0    0    0    0 -0.00000000000E+00 -0.00000000000E+00 -0.74505805969E-08  0.93827000000E+00  0.93827000000E+00 0. -1.
     999902    2    1    2    0    0  0.13224946579E-01  0.19682690837E-01  0.47863242631E-03  0.10202121456E+01  0.10199364124E+01 0.  0.
     999903    2    3    3    0    0  0.26076867716E-01 -0.10156173610E+00 -0.71958100217E-01  0.12885785955E+00  0.20774756584E-01 0.  0.
         14    1    1    2    0    0 -0.13224946579E-01 -0.19682690837E-01 -0.47863242631E-03  0.23717854448E-01  0.00000000000E+00 0.  1.
     999901    1    3    3    0    0 -0.12851921137E-01  0.12124442694E+00  0.72436732643E-01  0.89135428600E+00  0.88000000000E+00 0.  1.
        -11    1    4    4    0    0  0.39344397163E-02 -0.56651309989E-01 -0.39743781446E-01  0.69315799237E-01  0.51100000000E-03 0.  1.
         11    1    4    4    0    0  0.22142428000E-01 -0.44910426112E-01 -0.32214318771E-01  0.59542060312E-01  0.51100000000E-03 0. -1.
</event>
<event>
 8    1  0.1094134E+005  0.1043930E+01  0.7957747E-01            NaN
         13   -1    0    0    0    0  0.00000000000E+00  0.00000000000E+00  0.74505805969E-08  0.10566000000E+00  0.10566000000E+00 0.  1.
     999900   -1    0    0    0    0 -0.00000000000E+00 -0.00000000000E+00 -0.74505805969E-08  0.93827000000E+00  0.93827000000E+00 0. -1.
     999902    2    1    2    0    0  0.18531714551E-01 -0.29573992351E-02  0.15056649664E-01  0.10198702129E+01  0.10195863759E+01 0.  0.
     999903    2    3    3    0    0  0.13962661810E-01  0.23666104105E-01  0.12783360625E+00  0.13226200595E+00  0.19919009073E-01 0.  0.
         14    1    1    2    0    0 -0.18531714551E-01  0.29573992351E-02 -0.15056649664E-01  0.24059787063E-01  0.00000000000E+00 0. -1.
     999901    1    3    3    0    0  0.45690527402E-02 -0.26623503340E-01 -0.11277695659E+00  0.88760820699E+00  0.88000000000E+00 0. -1.
        -11    1    4    4    0    0 -0.80870882505E-03  0.64115069064E-02  0.80147617124E-02  0.10308198537E-01  0.51100000000E-03 0. -1.
         11    1    4    4    0    0  0.14771370635E-01  0.17254597198E-01  0.11981884454E+00  0.12195380741E+00  0.51100000000E-03 0.  1.
</event>
<event>
 8    1  0.1094134E+005  0.1043930E+01  0.7957747E-01            NaN
         13   -1    0    0    0    0  0.00000000000E+00  0.00000000000E+00  0.74505805969E-08  0.10566000000E+00  0.10566000000E+00 0.  1.
     999900   -1    0    0    0    0 -0.00000000000E+00 -0.00000000000E+00 -0.74505805969E-08  0.93827000000E+00  0.93827000000E+00 0. -1.
     999902    2    1    2    0    0  0.11630949309E-02 -0.28755122819E-02 -0.22830689476E-01  0.10208895629E+01  0.10206295302E+01 0.  0.
     999903    2    3    3    0    0 -0.25145362851E-01  0.91794137445E-01 -0.90461284337E-01  0.13284205577E+00  0.20132433388E-01 0.  0.
         14    1    1    2    0    0 -0.11630949309E-02  0.28755122819E-02  0.22830689476E-01  0.23040437119E-01  0.00000000000E+00 0.  1.
     999901    1    3    3    0    0  0.26308457782E-01 -0.94669649727E-01  0.67630594861E-01  0.88804750711E+00  0.88000000000E+00 0.  1.
        -11    1    4    4    0    0 -0.78951737892E-02  0.18897070180E-01 -0.31196368239E-01  0.37321676582E-01  0.51100000000E-03 0. -1.
         11    1    4    4    0    0 -0.17250189062E-01  0.72897067265E-01 -0.59264916098E-01  0.95520379184E-01  0.51100000000E-03 0.  1.
</event>
<event>
 8    1  0.1094134E+005  0.1043930E+01  0.7957747E-01            NaN
         13   -1    0    0    0    0  0.00000000000E+00  0.00000000000E+00  0.74505805969E-08  0.10566000000E+00  0.10566000000E+00 0.  1.
     999900   -1    0    0    0    0 -0.00000000000E+00 -0.00000000000E+00 -0.74505805969E-08  0.93827000000E+00  0.93827000000E+00 0.  1.
     999902    2    1    2    0    0 -0.19437668366E-01 -0.47705783069E-02 -0.92848252810E-02  0.10218666968E+01  0.10216284827E+01 0.  0.
     999903    2    3    3    0    0  0.52494951032E-01  0.52561163265E-02 -0.11943304943E+00  0.13203105598E+00  0.19611216297E-01 0.  0.
         14    1    1    2    0    0  0.19437668366E-01  0.47705783069E-02  0.92848252810E-02  0.22063303229E-01  0.00000000000E+00 0.  1.
     999901    1    3    3    0    0 -0.71932619398E-01 -0.10026694633E-01  0.11014822415E+00  0.88983564079E+00  0.88000000000E+00 0. -1.
        -11    1    4    4    0    0  0.40425478168E-01 -0.34550924438E-02 -0.76611059359E-01  0.86692978297E-01  0.51100000000E-03 0.  1.
         11    1    4    4    0    0  0.12069472864E-01  0.87112087703E-02 -0.42821990070E-01  0.45338077683E-01  0.51100000000E-03 0. -1.
</event>
<event>
 8    1  0.1094134E+005  0.1043930E+01  0.7957747E-01            NaN
         13   -1    0    0    0    0  0.00000000000E+00  0.00000000000E+00  0.74505805969E-08  0.10566000000E+00  0.10566000000E+00 0. -1.
     999900   -1    0    0    0    0 -0.00000000000E+00 -0.00000000000E+00 -0.74505805969E-08  0.93827000000E+00  0.93827000000E+00 0.  1.
     999902    2    1    2    0    0 -0.20981790339E-01 -0.52472517191E-02  0.97966471853E-02  0.10201867173E+01  0.10199103856E+01 0.  0.
     999903    2    3    3    0    0  0.12131414924E+00  0.29641282285E-01  0.19945588259E-01  0.12801613653E+00  0.19863944705E-01 0.  0.
         14    1    1    2    0    0  0.20981790339E-01  0.52472517191E-02 -0.97966471853E-02  0.23743282682E-01  0.00000000000E+00 0. -1.
     999901    1    3    3    0    0 -0.14229593958E+00 -0.34888534004E-01 -0.10148941074E-01  0.89217058079E+00  0.88000000000E+00 0.  1.
        -11    1    4    4    0    0  0.23600811186E-01  0.99987755995E-02  0.11159848404E-01  0.27960277887E-01  0.51100000000E-03 0. -1.
         11    1    4    4    0    0  0.97713338053E-01  0.19642506686E-01  0.87857398548E-02  0.10005585864E+00  0.51100000000E-03 0.  1.
</event>
<event>
 8    1  0.1094134E+005  0.1043930E+01  0.7957747E-01            NaN
         13   -1    0    0    0    0  0.00000000000E+00  0.00000000000E+00  0.74505805969E-08  0.10566000000E+00  0.10566000000E+00 0.  1.
     999900   -1    0    0    0    0 -0.00000000000E+00 -0.00000000000E+00 -0.74505805969E-08  0.93827000000E+00  0.93827000000E+00 0. -1.
     999902    2    1    2    0    0  0.31832929046E-02 -0.44058569156E-02 -0.23185653820E-01  0.10201157297E+01  0.10198377236E+01 0.  0.
     999903    2    3    3    0    0  0.10073923521E+00  0.84486850831E-02  0.76620668491E-01  0.12902443069E+00  0.23596675265E-01 0.  0.
         14    1    1    2    0    0 -0.31832929046E-02  0.44058569156E-02  0.23185653820E-01  0.23814270343E-01  0.00000000000E+00 0.  1.
     999901    1    3    3    0    0 -0.97555942306E-01 -0.12854541999E-01 -0.99806322311E-01  0.89109129897E+00  0.88000000000E+00 0. -1.
        -11    1    4    4    0    0  0.10899152056E-02  0.37721726131E-02  0.40234545854E-02  0.56450428855E-02  0.51100000000E-03 0. -1.
         11    1    4    4    0    0  0.99649320005E-01  0.46765124700E-02  0.72597213905E-01  0.12337938780E+00  0.51100000000E-03 0.  1.
</event>
<event>
 8    1  0.1094134E+005  0.1043930E+01  0.7957747E-01            NaN
         13   -1    0    0    0    0  0.00000000000E+00  0.00000000000E+00  0.74505805969E-08  0.10566000000E+00  0.10566000000E+00 0.  1.
     999900   -1    0    0    0    0 -0.00000000000E+00 -0.00000000000E+00 -0.74505805969E-08  0.93827000000E+00  0.93827000000E+00 0. -1.
     999902    2    1    2    0    0 -0.13102488356E-01 -0.19378553955E-01  0.13514041689E-02  0.10204986140E+01  0.10202295778E+01 0.  0.
     999903    2    3    3    0    0 -0.11220418149E+00 -0.66368525869E-01 -0.19067651324E-01  0.13345513097E+00  0.21263515343E-01 0.  0.
         14    1    1    2    0    0  0.13102488356E-01  0.19378553955E-01 -0.13514041689E-02  0.23431385954E-01  0.00000000000E+00 0. -1.
     999901    1    3    3    0    0  0.99101693135E-01  0.46989971914E-01  0.20419055493E-01  0.88704348308E+00  0.88000000000E+00 0.  1.
        -11    1    4    4    0    0 -0.73520052322E-01 -0.43142515578E-01 -0.22609047265E-01  0.88192430985E-01  0.51100000000E-03 0. -1.
         11    1    4    4    0    0 -0.38684129169E-01 -0.23226010291E-01  0.35413959402E-02  0.45262699983E-01  0.51100000000E-03 0.  1.
</event>
<event>
 8    1  0.1094134E+005  0.1043930E+01  0.7957747E-01            NaN
         13   -1    0    0    0    0  0.00000000000E+00  0.00000000000E+00  0.74505805969E-08  0.10566000000E+00  0.10566000000E+00 0.  1.
     999900   -1    0    0    0    0 -0.00000000000E+00 -0.00000000000E+00 -0.74505805969E-08  0.93827000000E+00  0.93827000000E+00 0. -1.
     999902    2    1    2    0    0  0.10355290662E-01 -0.21362602850E-01 -0.36952656629E-02  0.10199040175E+01  0.10196209870E+01 0.  0.
     999903    2    3    3    0    0  0.41753310437E-01 -0.10376114656E+00  0.68173456516E-01  0.13258194022E+00  0.20509418144E-01 0.  0.
         14    1    1    2    0    0 -0.10355290662E-01  0.21362602850E-01  0.36952656629E-02  0.24025982467E-01  0.00000000000E+00 0. -1.
     999901    1    3    3    0    0 -0.31398019776E-01  0.82398543709E-01 -0.71868722179E-01  0.88732207731E+00  0.88000000000E+00 0. -1.
        -11    1    4    4    0    0  0.40524632189E-01 -0.79427461697E-01  0.56476968255E-01  0.10555035078E+00  0.51100000000E-03 0. -1.
         11    1    4    4    0    0  0.12286782479E-02 -0.24333684862E-01  0.11696488261E-01  0.27031589443E-01  0.51100000000E-03 0.  1.
</event>
<event>
 8    1  0.1094134E+005  0.1043930E+01  0.7957747E-01            NaN
         13   -1    0    0    0    0  0.00000000000E+00  0.00000000000E+00  0.74505805969E-08  0.10566000000E+00  0.10566000000E+00 0. -1.
     999900   -1    0    0    0    0 -0.00000000000E+00 -0.00000000000E+00 -0.74505805969E-08  0.93827000000E+00  0.93827000000E+00 0. -1.
     999902    2    1    2    0    0  0.20664194651E-01 -0.15673915730E-02 -0.13192875368E-01  0.10193634044E+01  0.10190673347E+01 0.  0.
     999903    2    3    3    0    0 -0.10821517230E+00 -0.62845510629E-01 -0.16969666882E-01  0.12785952713E+00  0.20000184034E-01 0.  0.
         14    1    1    2    0    0 -0.20664194651E-01  0.15673915730E-02  0.13192875368E-01  0.24566595560E-01  0.00000000000E+00 0. -1.
     999901    1    3    3    0    0  0.12887936695E+00  0.61278119056E-01  0.37767915138E-02  0.89150387731E+00  0.88000000000E+00 0.  1.
        -11    1    4    4    0    0 -0.17786612313E-01 -0.23987444057E-02 -0.22044654061E-02  0.18089730264E-01  0.51100000000E-03 0. -1.
         11    1    4    4    0    0 -0.90428559991E-01 -0.60446766223E-01 -0.14765201476E-01  0.10976979687E+00  0.51100000000E-03 0.  1.
</event>
<event>
 8    1  0.1094134E+005  0.1043930E+01  0.7957747E-01            NaN
         13   -1    0    0    0    0  0.00000000000E+00  0.00000000000E+00  0.74505805969E-08  0.10566000000E+00  0.10566000000E+00 0. -1.
     999900   -1    0    0    0    0 -0.00000000000E+00 -0.00000000000E+00 -0.74505805969E-08  0.93827000000E+00  0.93827000000E+00 0. -1.
     999902    2    1    2    0    0  0.12800871397E-01  0.78778457033E-02  0.19480163398E-01  0.10193251320E+01  0.10190281278E+01 0.  0.
     999903    2    3    3    0    0 -0.31962494975E-01  0.60595877754E-01  0.11089692254E+00  0.13189064222E+00  0.20088618391E-01 0.  0.
         14    1    1    2    0    0 -0.12800871397E-01 -0.78778457033E-02 -0.19480163398E-01  0.24604867963E-01  0.00000000000E+00 0.  1.
     999901    1    3    3    0    0  0.44763366371E-01 -0.52718032050E-01 -0.91416759145E-01  0.88743448982E+00  0.88000000000E+00 0. -1.
        -11    1    4    4    0    0 -0.22760372335E-01  0.52185777437E-01  0.76948784260E-01  0.95722340316E-01  0.51100000000E-03 0.  1.
         11    1    4    4    0    0 -0.92021226398E-02  0.84101003164E-02  0.33948138283E-01  0.36168301899E-01  0.51100000000E-03 0. -1.
</event>
<event>
 8    1  0.1094134E+005  0.1043930E+01  0.7957747E-01            NaN
         13   -1    0    0    0    0  0.00000000000E+00  0.00000000000E+00  0.74505805969E-08  0.10566000000E+00  0.10566000000E+00 0.  1.
     999900   -1    0    0    0    0 -0.00000000000E+00 -0.00000000000E+00 -0.74505805969E-08  0.93827000000E+00  0.93827000000E+00 0. -1.
     999902    2    1    2    0    0 -0.38828589396E-02 -0.17707696552E-01  0.16864325734E-01  0.10191702627E+01  0.10188694616E+01 0.  0.
     999903    2    3    3    0    0 -0.66161831551E-01 -0.17588796483E-01 -0.10666862816E+00  0.12836216028E+00  0.20295177799E-01 0.  0.
         14    1    1    2    0    0  0.38828589396E-02  0.17707696552E-01 -0.16864325734E-01  0.24759737341E-01  0.00000000000E+00 0. -1.
     999901    1    3    3    0    0  0.62278972611E-01 -0.11890006912E-03  0.12353295390E+00  0.89080810238E+00  0.88000000000E+00 0.  1.
        -11    1    4    4    0    0 -0.66736654465E-01 -0.15348566950E-01 -0.99312671589E-01  0.12063427132E+00  0.51100000000E-03 0.  1.
         11    1    4    4    0    0  0.57482291464E-03 -0.22402295333E-02 -0.73559565724E-02  0.77278889640E-02  0.51100000000E-03 0. -1.
</event>
<event>
 8    1  0.1094134E+005  0.1043930E+01  0.7957747E-01            NaN
         13   -1    0    0    0    0  0.00000000000E+00  0.00000000000E+00  0.74505805969E-08  0.10566000000E+00  0.10566000000E+00 0. -1.
     999900   -1    0    0    0    0 -0.00000000000E+00 -0.00000000000E+00 -0.74505805969E-08  0.93827000000E+00  0.93827000000E+00 0.  1.
     999902    2    1    2    0    0  0.15563433468E-01 -0.15655881872E-01  0.92335606298E-02  0.10200012361E+01  0.10197205186E+01 0.  0.
     999903    2    3    3    0    0  0.94747427863E-01  0.74619995258E-01  0.47214784035E-01  0.13103418821E+00  0.19887279068E-01 0.  0.
         14    1    1    2    0    0 -0.15563433468E-01  0.15655881872E-01 -0.92335606298E-02  0.23928763871E-01  0.00000000000E+00 0.  1.
     999901    1    3    3    0    0 -0.79183994395E-01 -0.90275877129E-01 -0.37981223405E-01  0.88896704792E+00  0.88000000000E+00 0.  1.
        -11    1    4    4    0    0  0.43250461713E-01  0.34318604046E-01  0.11061106597E-01  0.56311439532E-01  0.51100000000E-03 0.  1.
         11    1    4    4    0    0  0.51496966150E-01  0.40301391212E-01  0.36153677438E-01  0.74722748675E-01  0.51100000000E-03 0. -1.
</event>
<event>
 8    1  0.1094134E+005  0.1043930E+01  0.7957747E-01            NaN
         13   -1    0    0    0    0  0.00000000000E+00  0.00000000000E+00  0.74505805969E-08  0.10566000000E+00  0.10566000000E+00 0. -1.
     999900   -1    0    0    0    0 -0.00000000000E+00 -0.00000000000E+00 -0.74505805969E-08  0.93827000000E+00  0.93827000000E+00 0.  1.
     999902    2    1    2    0    0  0.12733602123E-01  0.12724653673E-01  0.14576062470E-01  0.10207670332E+01  0.10205041955E+01 0.  0.
     999903    2    3    3    0    0 -0.67372996390E-01  0.82668525404E-03 -0.10789565943E+00  0.12860227742E+00  0.18901544492E-01 0.  0.
         14    1    1    2    0    0 -0.12733602123E-01 -0.12724653673E-01 -0.14576062470E-01  0.23162966806E-01  0.00000000000E+00 0.  1.
     999901    1    3    3    0    0  0.80106598513E-01  0.11897968419E-01  0.12247172190E+00  0.89216475577E+00  0.88000000000E+00 0. -1.
        -11    1    4    4    0    0 -0.29626268668E-01  0.81504442582E-02 -0.57660551886E-01  0.65338701408E-01  0.51100000000E-03 0.  1.
         11    1    4    4    0    0 -0.37746727721E-01 -0.73237590041E-02 -0.50235107539E-01  0.63263576014E-01  0.51100000000E-03 0. -1.
</event>
<event>
 8    1  0.1094134E+005  0.1043930E+01  0.7957747E-01            NaN
         13   -1    0    0    0    0  0.00000000000E+00  0.00000000000E+00  0.74505805969E-08  0.10566000000E+00  0.10566000000E+00 0.  1.
     999900   -1    0    0    0    0 -0.00000000000E+00 -0.00000000000E+00 -0.74505805969E-08  0.93827000000E+00  0.93827000000E+00 0.  1.
     999902    2    1    2    0    0 -0.96185757030E-02 -0.64853478931E-02  0.20234898053E-01  0.10206055957E+01  0.10203390388E+01 0.  0.
     999903    2    3    3    0    0  0.95653731029E-01 -0.86156697977E-01 -0.31682175226E-02  0.13044971701E+00  0.20844140628E-01 0.  0.
         14    1    1    2    0    0  0.96185757030E-02  0.64853478931E-02 -0.20234898053E-01  0.23324404281E-01  0.00000000000E+00 0. -1.
     999901    1    3    3    0    0 -0.10527230673E+00  0.79671350084E-01  0.23403115576E-01  0.89015587871E+00  0.88000000000E+00 0. -1.
        -11    1    4    4    0    0  0.59744875804E-01 -0.49330530946E-01  0.77455853568E-02  0.77866595417E-01  0.51100000000E-03 0. -1.
         11    1    4    4    0    0  0.35908855225E-01 -0.36826167031E-01 -0.10913802879E-01  0.52583121589E-01  0.51100000000E-03 0.  1.
</event>
<event>
 8    1  0.1094134E+005  0.1043930E+01  0.7957747E-01            NaN
         13   -1    0    0    0    0  0.00000000000E+00  0.00000000000E+00  0.74505805969E-08  0.10566000000E+00  0.10566000000E+00 0.  1.
     999900   -1    0    0    0    0 -0.00000000000E+00 -0.00000000000E+00 -0.74505805969E-08  0.93827000000E+00  0.93827000000E+00 0. -1.
     999902    2    1    2    0    0  0.41345151467E-02 -0.19225873851E-02  0.20845784412E-01  0.10225913664E+01  0.10223687032E+01 0.  0.
     999903    2    3    3    0    0  0.11489283139E+00  0.16008910201E-01 -0.59416627259E-01  0.13184392856E+00  0.19895677722E-01 0.  0.
         14    1    1    2    0    0 -0.41345151467E-02  0.19225873851E-02 -0.20845784412E-01  0.21338633637E-01  0.00000000000E+00 0. -1.
     999901    1    3    3    0    0 -0.11075831625E+00 -0.17931497586E-01  0.80262411670E-01  0.89074743780E+00  0.88000000000E+00 0.  1.
        -11    1    4    4    0    0  0.70828884989E-01  0.40697375097E-02 -0.44788465071E-01  0.83902094352E-01  0.51100000000E-03 0.  1.
         11    1    4    4    0    0  0.44063946405E-01  0.11939172692E-01 -0.14628162187E-01  0.47941834209E-01  0.51100000000E-03 0. -1.
</event>
<event>
 8    1  0.1094134E+005  0.1043930E+01  0.7957747E-01            NaN
         13   -1    0    0    0    0  0.00000000000E+00  0.00000000000E+00  0.74505805969E-08  0.10566000000E+00  0.10566000000E+00 0. -1.
     999900   -1    0    0    0    0 -0.00000000000E+00 -0.00000000000E+00 -0.74505805969E-08  0.93827000000E+00  0.93827000000E+00 0. -1.
     999902    2    1    2    0    0  0.51743303385E-02 -0.69320319607E-02 -0.27540354086E-01  0.10150631009E+01  0.10146525518E+01 0.  0.
     999903    2    3    3    0    0  0.10733593490E+00  0.24839438386E-04 -0.66675082787E-01  0.12826159068E+00  0.22010575672E-01 0.  0.
         14    1    1    2    0    0 -0.51743303385E-02  0.69320319607E-02  0.27540354086E-01  0.28866899119E-01  0.00000000000E+00 0. -1.
     999901    1    3    3    0    0 -0.10216160456E+00 -0.69568713991E-02  0.39134728702E-01  0.88680151020E+00  0.88000000000E+00 0.  1.
        -11    1    4    4    0    0  0.68433451754E-01  0.10117987086E-01 -0.45842808714E-01  0.82989970560E-01  0.51100000000E-03 0.  1.
         11    1    4    4    0    0  0.38902483144E-01 -0.10093147648E-01 -0.20832274073E-01  0.45271620120E-01  0.51100000000E-03 0. -1.
</event>
<event>
 8    1  0.1094134E+005  0.1043930E+01  0.7957747E-01            NaN
         13   -1    0    0    0    0  0.00000000000E+00  0.00000000000E+00  0.74505805969E-08  0.10566000000E+00  0.10566000000E+00 0. -1.
     999900   -1    0    0    0    0 -0.00000000000E+00 -0.00000000000E+00 -0.74505805969E-08  0.93827000000E+00  0.93827000000E+00 0.  1.
     999902    2    1    2    0    0 -0.19659312668E-01 -0.20999463804E-02  0.11573365807E-01  0.10210205883E+01  0.10207635380E+01 0.  0.
     999903    2    3    3    0    0  0.75495865644E-01 -0.10384835811E+00 -0.38474591253E-02  0.12992853406E+00  0.19557960283E-01 0.  0.
         14    1    1    2    0    0  0.19659312668E-01  0.20999463804E-02 -0.11573365807E-01  0.22909411722E-01  0.00000000000E+00 0.  1.
     999901    1    3    3    0    0 -0.95155178312E-01  0.10174841173E+00  0.15420824932E-01  0.89109205422E+00  0.88000000000E+00 0. -1.
        -11    1    4    4    0    0  0.69644884972E-01 -0.87448330042E-01 -0.78002093636E-02  0.11206571651E+00  0.51100000000E-03 0. -1.
         11    1    4    4    0    0  0.58509806717E-02 -0.16400028065E-01  0.39527502383E-02  0.17862817550E-01  0.51100000000E-03 0.  1.
</event>
<event>
 8    1  0.1094134E+005  0.1043930E+01  0.7957747E-01            NaN
         13   -1    0    0    0    0  0.00000000000E+00  0.00000000000E+00  0.74505805969E-08  0.10566000000E+00  0.10566000000E+00 0.  1.
     999900   -1    0    0    0    0 -0.00000000000E+00 -0.00000000000E+00 -0.74505805969E-08  0.93827000000E+00  0.93827000000E+00 0. -1.
     999902    2    1    2    0    0  0.42964658498E-02  0.28073773635E-01  0.89666877085E-02  0.10141474905E+01  0.10137100841E+01 0.  0.
     999903    2    3    3    0    0  0.91366283458E-01 -0.43762295805E-01  0.70148199878E-01  0.12483047645E+00  0.19973522911E-01 0.  0.
         14    1    1    2    0    0 -0.42964658498E-02 -0.28073773635E-01 -0.89666877085E-02  0.29782509521E-01  0.00000000000E+00 0.  1.
     999901    1    3    3    0    0 -0.87069817608E-01  0.71836069440E-01 -0.61181512169E-01  0.88931701403E+00  0.88000000000E+00 0.  1.
        -11    1    4    4    0    0  0.28373722316E-01 -0.24183082452E-01  0.24774390603E-01  0.44765177824E-01  0.51100000000E-03 0. -1.
         11    1    4    4    0    0  0.62992561143E-01 -0.19579213353E-01  0.45373809275E-01  0.80065298625E-01  0.51100000000E-03 0.  1.
</event>
<event>
 8    1  0.1094134E+005  0.1043930E+01  0.7957747E-01            NaN
         13   -1    0    0    0    0  0.00000000000E+00  0.00000000000E+00  0.74505805969E-08  0.10566000000E+00  0.10566000000E+00 0.  1.
     999900   -1    0    0    0    0 -0.00000000000E+00 -0.00000000000E+00 -0.74505805969E-08  0.93827000000E+00  0.93827000000E+00 0. -1.
     999902    2    1    2    0    0  0.33356875383E-02  0.21083457466E-01  0.10472329906E-01  0.10201537790E+01  0.10198766711E+01 0.  0.
     999903    2    3    3    0    0 -0.88864132004E-01  0.20880038559E-01  0.92571482970E-01  0.13153624654E+00  0.19987364224E-01 0.  0.
         14    1    1    2    0    0 -0.33356875383E-02 -0.21083457466E-01 -0.10472329906E-01  0.23776220973E-01  0.00000000000E+00 0.  1.
     999901    1    3    3    0    0  0.92199819543E-01  0.20341890692E-03 -0.82099153064E-01  0.88861753248E+00  0.88000000000E+00 0. -1.
        -11    1    4    4    0    0 -0.59744222079E-01  0.18840201707E-01  0.73901143863E-01  0.96881192486E-01  0.51100000000E-03 0.  1.
         11    1    4    4    0    0 -0.29119909925E-01  0.20398368523E-02  0.18670339107E-01  0.34655054059E-01  0.51100000000E-03 0. -1.
</event>
<event>
 8    1  0.1094134E+005  0.1043930E+01  0.7957747E-01            NaN
         13   -1    0    0    0    0  0.00000000000E+00  0.00000000000E+00  0.74505805969E-08  0.10566000000E+00  0.10566000000E+00 0.  1.
     999900   -1    0    0    0    0 -0.00000000000E+00 -0.00000000000E+00 -0.74505805969E-08  0.93827000000E+00  0.93827000000E+00 0. -1.
     999902    2    1    2    0    0 -0.88799315218E-02 -0.13193519965E-01  0.10776320042E-01  0.10247192940E+01  0.10245392038E+01 0.  0.
     999903    2    3    3    0    0 -0.65842462453E-01 -0.11655372320E+00 -0.17467820651E-01  0.13639176820E+00  0.19431660220E-01 0.  0.
         14    1    1    2    0    0  0.88799315218E-02  0.13193519965E-01 -0.10776320042E-01  0.19210706040E-01  0.00000000000E+00 0.  1.
     999901    1    3    3    0    0  0.56962530932E-01  0.10336020324E+00  0.28244140693E-01  0.88832752576E+00  0.88000000000E+00 0.  1.
        -11    1    4    4    0    0 -0.14164014895E-01 -0.12433914906E-01 -0.48526540077E-02  0.19468716695E-01  0.51100000000E-03 0. -1.
         11    1    4    4    0    0 -0.51678447558E-01 -0.10411980830E+00 -0.12615166643E-01  0.11692305150E+00  0.51100000000E-03 0.  1.
</event>
<event>
 8    1  0.1094134E+005  0.1043930E+01  0.7957747E-01            NaN
         13   -1    0    0    0    0  0.00000000000E+00  0.00000000000E+00  0.74505805969E-08  0.10566000000E+00  0.10566000000E+00 0.  1.
     999900   -1    0    0    0    0 -0.00000000000E+00 -0.00000000000E+00 -0.74505805969E-08  0.93827000000E+00  0.93827000000E+00 0.  1.
     999902    2    1    2    0    0 -0.21116835176E-02 -0.16319094268E-01 -0.18403007557E-01  0.10192431061E+01  0.10189440939E+01 0.  0.
     999903    2    3    3    0    0  0.65625847456E-01  0.35316999777E-01  0.10097921309E+00  0.12710703241E+00  0.20133402194E-01 0.  0.
         14    1    1    2    0    0  0.21116835176E-02  0.16319094268E-01  0.18403007557E-01  0.24686893935E-01  0.00000000000E+00 0. -1.
     999901    1    3    3    0    0 -0.67737530973E-01 -0.51636094045E-01 -0.11938222065E+00  0.89213607366E+00  0.88000000000E+00 0.  1.
        -11    1    4    4    0    0  0.30659499915E-01  0.27829153319E-01  0.55797657046E-01  0.69484576435E-01  0.51100000000E-03 0.  1.
         11    1    4    4    0    0  0.34966347541E-01  0.74878464582E-02  0.45181556045E-01  0.57622455974E-01  0.51100000000E-03 0. -1.
</event>
<event>
 8    1  0.1094134E+005  0.1043930E+01  0.7957747E-01            NaN
         13   -1    0    0    0    0  0.00000000000E+00  0.00000000000E+00  0.74505805969E-08  0.10566000000E+00  0.10566000000E+00 0. -1.
     999900   -1    0    0    0    0 -0.00000000000E+00 -0.00000000000E+00 -0.74505805969E-08  0.93827000000E+00  0.93827000000E+00 0. -1.
     999902    2    1    2    0    0 -0.18441275815E-01  0.24979787098E-02  0.15004156165E-01  0.10200250789E+01  0.10197449271E+01 0.  0.
     999903    2    3    3    0    0 -0.65459419172E-01 -0.80306960643E-01 -0.76747572481E-01  0.13014545585E+00  0.17706109401E-01 0.  0.
         14    1    1    2    0    0  0.18441275815E-01 -0.24979787098E-02 -0.15004156165E-01  0.23904921116E-01  0.00000000000E+00 0. -1.
     999901    1    3    3    0    0  0.47018143358E-01  0.82804939352E-01  0.91751728646E-01  0.88987962304E+00  0.88000000000E+00 0.  1.
        -11    1    4    4    0    0 -0.10014796214E-01 -0.98062065509E-02 -0.18434341806E-01  0.23163417471E-01  0.51100000000E-03 0. -1.
         11    1    4    4    0    0 -0.55444622959E-01 -0.70500754092E-01 -0.58313230675E-01  0.10698203838E+00  0.51100000000E-03 0.  1.
</event>
<event>
 8    1  0.1094134E+005  0.1043930E+01  0.7957747E-01            NaN
         13   -1    0    0    0    0  0.00000000000E+00  0.00000000000E+00  0.74505805969E-08  0.10566000000E+00  0.10566000000E+00 0.  1.
     999900   -1    0    0    0    0 -0.00000000000E+00 -0.00000000000E+00 -0.74505805969E-08  0.93827000000E+00  0.93827000000E+00 0. -1.
     999902    2    1    2    0    0  0.46907882685E-02 -0.85743816203E-02  0.18874990807E-01  0.10226746761E+01  0.10224537664E+01 0.  0.
     999903    2    3    3    0    0  0.12912713175E-01 -0.79528188603E-02 -0.12811222548E+00  0.13044531765E+00  0.19319759075E-01 0.  0.
         14    1    1    2    0    0 -0.46907882685E-02  0.85743816203E-02 -0.18874990807E-01  0.21255323867E-01  0.00000000000E+00 0. -1.
     999901    1    3    3    0    0 -0.82219249062E-02 -0.62156276002E-03  0.14698721628E+00  0.89222935848E+00  0.88000000000E+00 0.  1.
        -11    1    4    4    0    0  0.18036839181E-01 -0.59798077717E-02 -0.10219606807E+00  0.10394894477E+00  0.51100000000E-03 0.  1.
         11    1    4    4    0    0 -0.51241260066E-02 -0.19730110885E-02 -0.25916157406E-01  0.26496372879E-01  0.51100000000E-03 0. -1.
</event>
<event>
 8    1  0.1094134E+005  0.1043930E+01  0.7957747E-01            NaN
         13   -1    0    0    0    0  0.00000000000E+00  0.00000000000E+00  0.74505805969E-08  0.10566000000E+00  0.10566000000E+00 0.  1.
     999900   -1    0    0    0    0 -0.00000000000E+00 -0.00000000000E+00 -0.74505805969E-08  0.93827000000E+00  0.93827000000E+00 0. -1.
     999902    2    1    2    0    0  0.20034898023E-02 -0.10617862375E-01  0.16405157081E-01  0.10242861167E+01  0.10240977330E+01 0.  0.
     999903    2    3    3    0    0  0.85531638586E-01  0.96439702455E-01  0.22088140805E-01  0.13385331735E+00  0.28505213433E-01 0.  0.
         14    1    1    2    0    0 -0.20034898023E-02  0.10617862375E-01 -0.16405157081E-01  0.19643883314E-01  0.00000000000E+00 0. -1.
     999901    1    3    3    0    0 -0.83528148784E-01 -0.10705756483E+00 -0.56829837234E-02  0.89043279933E+00  0.88000000000E+00 0. -1.
        -11    1    4    4    0    0  0.69755672596E-01  0.68204906782E-01  0.60484575190E-02  0.97747675818E-01  0.51100000000E-03 0.  1.
         11    1    4    4    0    0  0.15775965990E-01  0.28234795673E-01  0.16039683286E-01  0.36105641533E-01  0.51100000000E-03 0. -1.
</event>
<event>
 8    1  0.1094134E+005  0.1043930E+01  0.7957747E-01            NaN
         13   -1    0    0    0    0  0.00000000000E+00  0.00000000000E+00  0.74505805969E-08  0.10566000000E+00  0.10566000000E+00 0. -1.
     999900   -1    0    0    0    0 -0.00000000000E+00 -0.00000000000E+00 -0.74505805969E-08  0.93827000000E+00  0.93827000000E+00 0.  1.
     999902    2    1    2    0    0 -0.21303912227E-01 -0.21366525198E-02 -0.10007419199E-01  0.10202959060E+01  0.10200221397E+01 0.  0.
     999903    2    3    3    0    0  0.10663186544E+00  0.67723127398E-01 -0.10377602424E-01  0.12830482472E+00  0.19941331490E-01 0.  0.
         14    1    1    2    0    0  0.21303912227E-01  0.21366525198E-02  0.10007419199E-01  0.23634093999E-01  0.00000000000E+00 0. -1.
     999901    1    3    3    0    0 -0.12793577767E+00 -0.69859779918E-01  0.37018322520E-03  0.89199108129E+00  0.88000000000E+00 0.  1.
        -11    1    4    4    0    0  0.10524747214E+00  0.62559725956E-01 -0.90426782695E-02  0.12277125419E+00  0.51100000000E-03 0. -1.
         11    1    4    4    0    0  0.13843932950E-02  0.51634014420E-02 -0.13349241545E-02  0.55335705241E-02  0.51100000000E-03 0.  1.
</event>
<event>
 8    1  0.1094134E+005  0.1043930E+01  0.7957747E-01            NaN
         13   -1    0    0    0    0  0.00000000000E+00  0.00000000000E+00  0.74505805969E-08  0.10566000000E+00  0.10566000000E+00 0. -1.
     999900   -1    0    0    0    0 -0.00000000000E+00 -0.00000000000E+00 -0.74505805969E-08  0.93827000000E+00  0.93827000000E+00 0. -1.
     999902    2    1    2    0    0  0.15886926150E-01  0.29775696194E-03  0.17696709186E-01  0.10201464637E+01  0.10198691832E+01 0.  0.
     999903    2    3    3    0    0 -0.11418274712E+00  0.96963517988E-02 -0.52922209222E-01  0.12773765319E+00  0.19606856800E-01 0.  0.
         14    1    1    2    0    0 -0.15886926150E-01 -0.29775696194E-03 -0.17696709186E-01  0.23783536275E-01  0.00000000000E+00 0.  1.
     999901    1    3    3    0    0  0.13006967327E+00 -0.93985948368E-02  0.70618918408E-01  0.89240881054E+00  0.88000000000E+00 0.  1.
        -11    1    4    4    0    0 -0.75617849269E-01  0.13051687757E-01 -0.27954664219E-01  0.81670864168E-01  0.51100000000E-03 0.  1.
         11    1    4    4    0    0 -0.38564897855E-01 -0.33553359583E-02 -0.24967545003E-01  0.46066789018E-01  0.51100000000E-03 0. -1.
</event>
<event>
 8    1  0.1094134E+005  0.1043930E+01  0.7957747E-01            NaN
         13   -1    0    0    0    0  0.00000000000E+00  0.00000000000E+00  0.74505805969E-08  0.10566000000E+00  0.10566000000E+00 0.  1.
     999900   -1    0    0    0    0 -0.00000000000E+00 -0.00000000000E+00 -0.74505805969E-08  0.93827000000E+00  0.93827000000E+00 0.  1.
     999902    2    1    2    0    0 -0.13529142451E-01 -0.17855495658E-01  0.30603597412E-02  0.10213197762E+01  0.10210694702E+01 0.  0.
     999903    2    3    3    0    0 -0.54860896315E-01  0.11064055810E+00 -0.36004809593E-01  0.13017128282E+00  0.19929011935E-01 0.  0.
         14    1    1    2    0    0  0.13529142451E-01  0.17855495658E-01 -0.30603597412E-02  0.22610223846E-01  0.00000000000E+00 0. -1.
     999901    1    3    3    0    0  0.41331753864E-01 -0.12849605376E+00  0.39065169334E-01  0.89114849333E+00  0.88000000000E+00 0. -1.
        -11    1    4    4    0    0 -0.24201983143E-01  0.34585441778E-01 -0.19596145795E-01  0.46542011367E-01  0.51100000000E-03 0.  1.
         11    1    4    4    0    0 -0.30658913172E-01  0.76055116323E-01 -0.16408663798E-01  0.83629271457E-01  0.51100000000E-03 0. -1.
</event>
<event>
 8    1  0.1094134E+005  0.1043930E+01  0.7957747E-01            NaN
         13   -1    0    0    0    0  0.00000000000E+00  0.00000000000E+00  0.74505805969E-08  0.10566000000E+00  0.10566000000E+00 0.  1.
     999900   -1    0    0    0    0 -0.00000000000E+00 -0.00000000000E+00 -0.74505805969E-08  0.93827000000E+00  0.93827000000E+00 0.  1.
     999902    2    1    2    0    0  0.13607037622E-01 -0.71364264359E-02 -0.16905497712E-01  0.10210853965E+01  0.10208298149E+01 0.  0.
     999903    2    3    3    0    0  0.12356273357E+00  0.43743006987E-01  0.35060900442E-02  0.13254974460E+00  0.19389232552E-01 0.  0.
         14    1    1    2    0    0 -0.13607037622E-01  0.71364264359E-02  0.16905497712E-01  0.22844603477E-01  0.00000000000E+00 0.  1.
     999901    1    3    3    0    0 -0.10995569595E+00 -0.50879433423E-01 -0.20411587756E-01  0.88853565192E+00  0.88000000000E+00 0.  1.
        -11    1    4    4    0    0  0.47222037315E-01  0.69037285289E-02  0.20636045109E-02  0.47771349786E-01  0.51100000000E-03 0. -1.
         11    1    4    4    0    0  0.76340696257E-01  0.36839278458E-01  0.14424855333E-02  0.84778394818E-01  0.51100000000E-03 0.  1.
</event>
<event>
 8    1  0.1094134E+005  0.1043930E+01  0.7957747E-01            NaN
         13   -1    0    0    0    0  0.00000000000E+00  0.00000000000E+00  0.74505805969E-08  0.10566000000E+00  0.10566000000E+00 0.  1.
     999900   -1    0    0    0    0 -0.00000000000E+00 -0.00000000000E+00 -0.74505805969E-08  0.93827000000E+00  0.93827000000E+00 0.  1.
     999902    2    1    2    0    0 -0.15390732835E-01  0.10438574191E-01 -0.15181380220E-01  0.10199234843E+01  0.10196409177E+01 0.  0.
     999903    2    3    3    0    0 -0.12199524994E+00 -0.10751721869E-01  0.43017751780E-01  0.13132870005E+00  0.19956451542E-01 0.  0.
         14    1    1    2    0    0  0.15390732835E-01 -0.10438574191E-01  0.15181380220E-01  0.24006515651E-01  0.00000000000E+00 0.  1.
     999901    1    3    3    0    0  0.10660451710E+00  0.21190296060E-01 -0.58199132001E-01  0.88859478430E+00  0.88000000000E+00 0.  1.
        -11    1    4    4    0    0 -0.66533174904E-01  0.61380552247E-03  0.31208178487E-01  0.73493208159E-01  0.51100000000E-03 0.  1.
         11    1    4    4    0    0 -0.55462075035E-01 -0.11365527392E-01  0.11809573294E-01  0.57835491893E-01  0.51100000000E-03 0. -1.
</event>
<event>
 8    1  0.1094134E+005  0.1043930E+01  0.7957747E-01            NaN
         13   -1    0    0    0    0  0.00000000000E+00  0.00000000000E+00  0.74505805969E-08  0.10566000000E+00  0.10566000000E+00 0. -1.
     999900   -1    0    0    0    0 -0.00000000000E+00 -0.00000000000E+00 -0.74505805969E-08  0.93827000000E+00  0.93827000000E+00 0. -1.
     999902    2    1    2    0    0  0.26455332489E-06 -0.11575925636E-01  0.17083630867E-01  0.10232938061E+01  0.10230857057E+01 0.  0.
     999903    2    3    3    0    0  0.21303218964E-01  0.86257954594E-01 -0.93684862652E-01  0.13071611026E+00  0.20385929513E-01 0.  0.
         14    1    1    2    0    0 -0.26455332489E-06  0.11575925636E-01 -0.17083630867E-01  0.20636193883E-01  0.00000000000E+00 0.  1.
     999901    1    3    3    0    0 -0.21302954411E-01 -0.97833880230E-01  0.11076849352E+00  0.89257769586E+00  0.88000000000E+00 0.  1.
        -11    1    4    4    0    0  0.14519211178E-01  0.51044975611E-01 -0.41384690076E-01  0.67300451128E-01  0.51100000000E-03 0. -1.
         11    1    4    4    0    0  0.67840077860E-02  0.35212978983E-01 -0.52300172576E-01  0.63415659131E-01  0.51100000000E-03 0.  1.
</event>
<event>
 8    1  0.1094134E+005  0.1043930E+01  0.7957747E-01            NaN
         13   -1    0    0    0    0  0.00000000000E+00  0.00000000000E+00  0.74505805969E-08  0.10566000000E+00  0.10566000000E+00 0.  1.
     999900   -1    0    0    0    0 -0.00000000000E+00 -0.00000000000E+00 -0.74505805969E-08  0.93827000000E+00  0.93827000000E+00 0. -1.
     999902    2    1    2    0    0  0.10968856397E-01  0.20124949382E-01  0.11387648571E-01  0.10183368771E+01  0.10180152196E+01 0.  0.
     999903    2    3    3    0    0 -0.87231831918E-01  0.16364530868E-01 -0.90612544406E-01  0.12701114806E+00  0.66338644718E-02 0.  0.
         14    1    1    2    0    0 -0.10968856397E-01 -0.20124949382E-01 -0.11387648571E-01  0.25593122870E-01  0.00000000000E+00 0. -1.
     999901    1    3    3    0    0  0.98200688314E-01  0.37604185138E-02  0.10200019298E+00  0.89132572907E+00  0.88000000000E+00 0.  1.
        -11    1    4    4    0    0 -0.45543936592E-01  0.11368148221E-01 -0.50299072975E-01  0.68802200672E-01  0.51100000000E-03 0.  1.
         11    1    4    4    0    0 -0.41687895326E-01  0.49963826468E-02 -0.40313471432E-01  0.58208947389E-01  0.51100000000E-03 0. -1.
</event>
<event>
 8    1  0.1094134E+005  0.1043930E+01  0.7957747E-01            NaN
         13   -1    0    0    0    0  0.00000000000E+00  0.00000000000E+00  0.74505805969E-08  0.10566000000E+00  0.10566000000E+00 0.  1.
     999900   -1    0    0    0    0 -0.00000000000E+00 -0.00000000000E+00 -0.74505805969E-08  0.93827000000E+00  0.93827000000E+00 0. -1.
     999902    2    1    2    0    0  0.16396693753E-01  0.15189760732E-01 -0.12732918012E-01  0.10182063222E+01  0.10178813325E+01 0.  0.
     999903    2    3    3    0    0 -0.10362660920E+00 -0.66377918613E-01  0.17676108370E-01  0.12580305663E+00  0.19221395283E-01 0.  0.
         14    1    1    2    0    0 -0.16396693753E-01 -0.15189760732E-01  0.12732918012E-01  0.25723677774E-01  0.00000000000E+00 0.  1.
     999901    1    3    3    0    0  0.12002330295E+00  0.81567679345E-01 -0.30409026382E-01  0.89240326560E+00  0.88000000000E+00 0.  1.
        -11    1    4    4    0    0 -0.35543064515E-01 -0.21932792671E-01  0.15228641589E-01  0.44458176696E-01  0.51100000000E-03 0.  1.
         11    1    4    4    0    0 -0.68083544682E-01 -0.44445125942E-01  0.24474667818E-02  0.81344879932E-01  0.51100000000E-03 0. -1.
</event>
<event>
 8    1  0.1094134E+005  0.1043930E+01  0.7957747E-01            NaN
         13   -1    0    0    0    0  0.00000000000E+00  0.00000000000E+00  0.74505805969E-08  0.10566000000E+00  0.10566000000E+00 0.  1.
     999900   -1    0    0    0    0 -0.00000000000E+00 -0.00000000000E+00 -0.74505805969E-08  0.93827000000E+00  0.93827000000E+00 0.  1.
     999902    2    1    2    0    0  0.12136024206E-01 -0.19160311746E-01  0.53164410105E-02  0.10206348251E+01  0.10203689436E+01 0.  0.
     999903    2    3    3    0    0  0.66402270814E-01  0.36733907054E-01  0.10560478877E+00  0.13151911724E+00  0.19653633039E-01 0.  0.
         14    1    1    2    0    0 -0.12136024206E-01  0.19160311746E-01 -0.53164410105E-02  0.23295174924E-01  0.00000000000E+00 0.  1.
     999901    1    3    3    0    0 -0.54266246609E-01 -0.55894218801E-01 -0.10028834776E+00  0.88911570783E+00  0.88000000000E+00 0.  1.
        -11    1    4    4    0    0  0.16641660430E-01  0.72495784021E-02  0.12995547794E-01  0.22330397048E-01  0.51100000000E-03 0.  1.
         11    1    4    4    0    0  0.49760610385E-01  0.29484328652E-01  0.92609240980E-01  0.10918872020E+00  0.51100000000E-03 0. -1.
</event>
<event>
 8    1  0.1094134E+005  0.1043930E+01  0.7957747E-01            NaN
         13   -1    0    0    0    0  0.00000000000E+00  0.00000000000E+00  0.74505805969E-08  0.10566000000E+00  0.10566000000E+00 0.  1.
     999900   -1    0    0    0    0 -0.00000000000E+00 -0.00000000000E+00 -0.74505805969E-08  0.93827000000E+00  0.93827000000E+00 0.  1.
     999902    2    1    2    0    0  0.28360742795E-04  0.21387334421E-01 -0.29983163648E-03  0.10225405452E+01  0.10223168089E+01 0.  0.
     999903    2    3    3    0    0  0.95397021332E-01 -0.87164750120E-01 -0.17954734970E-02  0.13075527203E+00  0.19885474514E-01 0.  0.
         14    1    1    2    0    0 -0.28360742795E-04 -0.21387334421E-01  0.29983163648E-03  0.21389454808E-01  0.00000000000E+00 0.  1.
     999901    1    3    3    0    0 -0.95368660589E-01  0.10855208454E+00  0.14956418606E-02  0.89178527316E+00  0.88000000000E+00 0.  1.
        -11    1    4    4    0    0  0.69080889950E-01 -0.71261856444E-01 -0.72821035654E-02  0.99517393924E-01  0.51100000000E-03 0.  1.
         11    1    4    4    0    0  0.26316131382E-01 -0.15902893676E-01  0.54866300684E-02  0.31237878108E-01  0.51100000000E-03 0. -1.
</event>
<event>
 8    1  0.1126872E+005  0.1043930E+01  0.7957747E-01            NaN
         13   -1    0    0    0    0  0.00000000000E+00  0.00000000000E+00  0.74505805969E-08  0.10566000000E+00  0.10566000000E+00 0. -1.
     999900   -1    0    0    0    0 -0.00000000000E+00 -0.00000000000E+00 -0.74505805969E-08  0.93827000000E+00  0.93827000000E+00 0. -1.
     999902    2    1    2    0    0  0.11270402080E-01  0.18678958266E-01  0.10013517806E-01  0.10199259174E+01  0.10196434087E+01 0.  0.
     999903    2    3    3    0    0  0.26437670539E-01 -0.32549747218E-01  0.12259429530E+00  0.13114649716E+00  0.20288075519E-01 0.  0.
         14    1    1    2    0    0 -0.11270402080E-01 -0.18678958266E-01 -0.10013517806E-01  0.24004082649E-01  0.00000000000E+00 0.  1.
     999901    1    3    3    0    0 -0.15167268460E-01  0.51228705484E-01 -0.11258077750E+00  0.88877942019E+00  0.88000000000E+00 0. -1.
        -11    1    4    4    0    0  0.33211898143E-02 -0.19891987748E-01  0.50159326547E-01  0.54064226980E-01  0.51100000000E-03 0. -1.
         11    1    4    4    0    0  0.23116480725E-01 -0.12657759470E-01  0.72434968757E-01  0.77082270177E-01  0.51100000000E-03 0.  1.
</event>
<event>
 8    1  0.1094134E+005  0.1043930E+01  0.7957747E-01            NaN
         13   -1    0    0    0    0  0.00000000000E+00  0.00000000000E+00  0.74505805969E-08  0.10566000000E+00  0.10566000000E+00 0. -1.
     999900   -1    0    0    0    0 -0.00000000000E+00 -0.00000000000E+00 -0.74505805969E-08  0.93827000000E+00  0.93827000000E+00 0. -1.
     999902    2    1    2    0    0  0.19792292702E-02 -0.23774629400E-01  0.26969090908E-02  0.10199211752E+01  0.10196385535E+01 0.  0.
     999903    2    3    3    0    0 -0.12807026465E-01 -0.13028334651E+00  0.14212976577E-01  0.13330098591E+00  0.20721337668E-01 0.  0.
         14    1    1    2    0    0 -0.19792292702E-02  0.23774629400E-01 -0.26969090908E-02  0.24008824841E-01  0.00000000000E+00 0.  1.
     999901    1    3    3    0    0  0.14786255736E-01  0.10650871711E+00 -0.11516067487E-01  0.88662018925E+00  0.88000000000E+00 0. -1.
        -11    1    4    4    0    0 -0.48023556630E-02 -0.79323994242E-01  0.18306406613E-01  0.81552095782E-01  0.51100000000E-03 0. -1.
         11    1    4    4    0    0 -0.80046708025E-02 -0.50959352272E-01 -0.40934300358E-02  0.51748890124E-01  0.51100000000E-03 0.  1.
</event>
<event>
 8    1  0.1094134E+005  0.1043930E+01  0.7957747E-01            NaN
         13   -1    0    0    0    0  0.00000000000E+00  0.00000000000E+00  0.74505805969E-08  0.10566000000E+00  0.10566000000E+00 0.  1.
     999900   -1    0    0    0    0 -0.00000000000E+00 -0.00000000000E+00 -0.74505805969E-08  0.93827000000E+00  0.93827000000E+00 0.  1.
     999902    2    1    2    0    0 -0.21813553433E-01 -0.41530406683E-02 -0.87364363162E-02  0.10200678086E+01  0.10197886692E+01 0.  0.
     999903    2    3    3    0    0  0.36802275568E-01  0.10849572580E+00  0.55077872579E-01  0.12866564007E+00  0.19888310210E-01 0.  0.
         14    1    1    2    0    0  0.21813553433E-01  0.41530406683E-02  0.87364363162E-02  0.23862191426E-01  0.00000000000E+00 0.  1.
     999901    1    3    3    0    0 -0.58615829000E-01 -0.11264876647E+00 -0.63814308895E-01  0.89140216851E+00  0.88000000000E+00 0.  1.
        -11    1    4    4    0    0  0.23952759356E-01  0.65572599371E-01  0.43956182035E-01  0.82497924393E-01  0.51100000000E-03 0.  1.
         11    1    4    4    0    0  0.12849516212E-01  0.42923126428E-01  0.11121690544E-01  0.46167715676E-01  0.51100000000E-03 0. -1.
</event>
<event>
 7    1  0.1094134E+005  0.1043930E+01  0.7957747E-01            NaN
         13   -1    0    0    0    0  0.00000000000E+00  0.00000000000E+00  0.74505805969E-08  0.10566000000E+00  0.10566000000E+00 0.  1.
     999900   -1    0    0    0    0 -0.00000000000E+00 -0.00000000000E+00 -0.74505805969E-08  0.93827000000E+00  0.93827000000E+00 0.  1.
     999903    2    1    2    0    0 -0.13719588080E-01 -0.64211453158E-01 -0.78625926401E-01  0.10432237456E+00  0.19742940956E-01 0.  0.
         14    1    1    2    0    0 -0.11774168764E-01 -0.24688178006E-01 -0.38305478938E-01  0.47068534076E-01  0.00000000000E+00 0. -1.
     999901    1    1    2    0    0  0.25493756844E-01  0.88899631164E-01  0.11693140534E+00  0.89253909136E+00  0.88000000000E+00 0.  1.
        -11    1    3    3    0    0  0.13761002113E-02 -0.16980940327E-01 -0.10353868109E-01  0.19942660103E-01  0.51100000000E-03 0.  1.
         11    1    3    3    0    0 -0.15095688291E-01 -0.47230512831E-01 -0.68272058293E-01  0.84379714456E-01  0.51100000000E-03 0. -1.
</event>
<event>
 8    1  0.1094134E+005  0.1043930E+01  0.7957747E-01            NaN
         13   -1    0    0    0    0  0.00000000000E+00  0.00000000000E+00  0.74505805969E-08  0.10566000000E+00  0.10566000000E+00 0. -1.
     999900   -1    0    0    0    0 -0.00000000000E+00 -0.00000000000E+00 -0.74505805969E-08  0.93827000000E+00  0.93827000000E+00 0. -1.
     999902    2    1    2    0    0 -0.23100888705E-01 -0.50009165935E-02 -0.86705033316E-03  0.10202781079E+01  0.10200039242E+01 0.  0.
     999903    2    3    3    0    0  0.15314753647E-02  0.53386243806E-01 -0.11733639906E+00  0.13034500753E+00  0.19223787347E-01 0.  0.
         14    1    1    2    0    0  0.23100888705E-01  0.50009165935E-02  0.86705033316E-03  0.23651892144E-01  0.00000000000E+00 0.  1.
     999901    1    3    3    0    0 -0.24632364070E-01 -0.58387160400E-01  0.11646934873E+00  0.88993310032E+00  0.88000000000E+00 0.  1.
        -11    1    4    4    0    0  0.51513539786E-02  0.34707927945E-01 -0.93330076686E-01  0.99709282643E-01  0.51100000000E-03 0. -1.
         11    1    4    4    0    0 -0.36198786139E-02  0.18678315861E-01 -0.24006322373E-01  0.30635724889E-01  0.51100000000E-03 0.  1.
</event>
<event>
 8    1  0.1094134E+005  0.1043930E+01  0.7957747E-01            NaN
         13   -1    0    0    0    0  0.00000000000E+00  0.00000000000E+00  0.74505805969E-08  0.10566000000E+00  0.10566000000E+00 0.  1.
     999900   -1    0    0    0    0 -0.00000000000E+00 -0.00000000000E+00 -0.74505805969E-08  0.93827000000E+00  0.93827000000E+00 0. -1.
     999902    2    1    2    0    0  0.77758885124E-02  0.19880169861E-01 -0.11223876330E-01  0.10198123509E+01  0.10195271307E+01 0.  0.
     999903    2    3    3    0    0  0.78207245534E-01 -0.10037509450E+00 -0.30768617878E-02  0.12880826650E+00  0.19762833593E-01 0.  0.
         14    1    1    2    0    0 -0.77758885124E-02 -0.19880169861E-01  0.11223876330E-01  0.24117649051E-01  0.00000000000E+00 0.  1.
     999901    1    3    3    0    0 -0.70431357021E-01  0.12025526436E+00 -0.81470145419E-02  0.89100408445E+00  0.88000000000E+00 0.  1.
        -11    1    4    4    0    0  0.39936734037E-01 -0.61766380581E-01 -0.90803582647E-02  0.74113038818E-01  0.51100000000E-03 0.  1.
         11    1    4    4    0    0  0.38270511497E-01 -0.38608713914E-01  0.60034964768E-02  0.54695227683E-01  0.51100000000E-03 0. -1.
</event>
<event>
 8    1  0.1094134E+005  0.1043930E+01  0.7957747E-01            NaN
         13   -1    0    0    0    0  0.00000000000E+00  0.00000000000E+00  0.74505805969E-08  0.10566000000E+00  0.10566000000E+00 0.  1.
     999900   -1    0    0    0    0 -0.00000000000E+00 -0.00000000000E+00 -0.74505805969E-08  0.93827000000E+00  0.93827000000E+00 0.  1.
     999902    2    1    2    0    0 -0.22446038314E-01  0.96464276079E-03 -0.43642636629E-02  0.10210432796E+01  0.10207867441E+01 0.  0.
     999903    2    3    3    0    0 -0.12202907495E+00 -0.39983642241E-01  0.29955987935E-01  0.13381646371E+00  0.22796885008E-01 0.  0.
         14    1    1    2    0    0  0.22446038314E-01 -0.96464276079E-03  0.43642636629E-02  0.22886720363E-01  0.00000000000E+00 0.  1.
     999901    1    3    3    0    0  0.99583036639E-01  0.40948285002E-01 -0.34320251598E-01  0.88722681593E+00  0.88000000000E+00 0.  1.
        -11    1    4    4    0    0 -0.10793989571E+00 -0.38384276731E-01  0.33170030758E-01  0.11926812586E+00  0.51100000000E-03 0. -1.
         11    1    4    4    0    0 -0.14089179246E-01 -0.15993655101E-02 -0.32140428224E-02  0.14548337848E-01  0.51100000000E-03 0.  1.
</event>
<event>
 8    1  0.1094134E+005  0.1043930E+01  0.7957747E-01            NaN
         13   -1    0    0    0    0  0.00000000000E+00  0.00000000000E+00  0.74505805969E-08  0.10566000000E+00  0.10566000000E+00 0.  1.
     999900   -1    0    0    0    0 -0.00000000000E+00 -0.00000000000E+00 -0.74505805969E-08  0.93827000000E+00  0.93827000000E+00 0.  1.
     999902    2    1    2    0    0  0.17563385664E-01  0.95605594045E-02 -0.91136127169E-02  0.10219542236E+01  0.10217179162E+01 0.  0.
     999903    2    3    3    0    0  0.24514426924E-02 -0.12870910227E+00 -0.15142803578E-01  0.13100909548E+00  0.19027244106E-01 0.  0.
         14    1    1    2    0    0 -0.17563385664E-01 -0.95605594045E-02  0.91136127169E-02  0.21975776411E-01  0.00000000000E+00 0. -1.
     999901    1    3    3    0    0  0.15111942972E-01  0.13826966168E+00  0.60291908612E-02  0.89094512811E+00  0.88000000000E+00 0.  1.
        -11    1    4    4    0    0 -0.72908739512E-02 -0.71409522782E-01 -0.45416707977E-02  0.71926105703E-01  0.51100000000E-03 0. -1.
         11    1    4    4    0    0  0.97423166436E-02 -0.57299579492E-01 -0.10601132780E-01  0.59082989776E-01  0.51100000000E-03 0.  1.
</event>
<event>
 8    1  0.1094134E+005  0.1043930E+01  0.7957747E-01            NaN
         13   -1    0    0    0    0  0.00000000000E+00  0.00000000000E+00  0.74505805969E-08  0.10566000000E+00  0.10566000000E+00 0.  1.
     999900   -1    0    0    0    0 -0.00000000000E+00 -0.00000000000E+00 -0.74505805969E-08  0.93827000000E+00  0.93827000000E+00 0. -1.
     999902    2    1    2    0    0 -0.15839248174E-01  0.10371796768E-01  0.14230601927E-01  0.10202452796E+01  0.10199703253E+01 0.  0.
     999903    2    3    3    0    0 -0.55079870767E-01  0.12649011130E-01 -0.11522517360E+00  0.12990612509E+00  0.20123892716E-01 0.  0.
         14    1    1    2    0    0  0.15839248174E-01 -0.10371796768E-01 -0.14230601927E-01  0.23684720436E-01  0.00000000000E+00 0.  1.
     999901    1    3    3    0    0  0.39240622593E-01 -0.22772143627E-02  0.12945577553E+00  0.89033915447E+00  0.88000000000E+00 0.  1.
        -11    1    4    4    0    0 -0.43363028261E-01  0.17210468552E-01 -0.81501875599E-01  0.93911497139E-01  0.51100000000E-03 0. -1.
         11    1    4    4    0    0 -0.11716842506E-01 -0.45614574222E-02 -0.33723298006E-01  0.35994627954E-01  0.51100000000E-03 0.  1.
</event>
<event>
 8    1  0.1094134E+005  0.1043930E+01  0.7957747E-01            NaN
         13   -1    0    0    0    0  0.00000000000E+00  0.00000000000E+00  0.74505805969E-08  0.10566000000E+00  0.10566000000E+00 0. -1.
     999900   -1    0    0    0    0 -0.00000000000E+00 -0.00000000000E+00 -0.74505805969E-08  0.93827000000E+00  0.93827000000E+00 0.  1.
     999902    2    1    2    0    0  0.20318506408E-01  0.16670048130E-01 -0.83380504228E-02  0.10163572727E+01  0.10159831940E+01 0.  0.
     999903    2    3    3    0    0 -0.10058732739E+00  0.73143906112E-01  0.74871174688E-02  0.12615619807E+00  0.19786054479E-01 0.  0.
         14    1    1    2    0    0 -0.20318506408E-01 -0.16670048130E-01  0.83380504228E-02  0.27572727326E-01  0.00000000000E+00 0. -1.
     999901    1    3    3    0    0  0.12090583380E+00 -0.56473857982E-01 -0.15825167892E-01  0.89020107460E+00  0.88000000000E+00 0. -1.
        -11    1    4    4    0    0 -0.90375210791E-01  0.64793115705E-01  0.12776188926E-01  0.11193443926E+00  0.51100000000E-03 0.  1.
         11    1    4    4    0    0 -0.10212116597E-01  0.83507904072E-02 -0.52890714575E-02  0.14221758812E-01  0.51100000000E-03 0. -1.
</event>
<event>
 8    1  0.1094134E+005  0.1043930E+01  0.7957747E-01            NaN
         13   -1    0    0    0    0  0.00000000000E+00  0.00000000000E+00  0.74505805969E-08  0.10566000000E+00  0.10566000000E+00 0. -1.
     999900   -1    0    0    0    0 -0.00000000000E+00 -0.00000000000E+00 -0.74505805969E-08  0.93827000000E+00  0.93827000000E+00 0. -1.
     999902    2    1    2    0    0  0.39548994284E-02  0.25362655436E-01  0.23730267176E-02  0.10181513892E+01  0.10178249921E+01 0.  0.
     999903    2    3    3    0    0  0.46410473185E-01 -0.10379393309E+00 -0.52037297635E-01  0.12605028308E+00  0.15927364894E-01 0.  0.
         14    1    1    2    0    0 -0.39548994284E-02 -0.25362655436E-01 -0.23730267176E-02  0.25778610825E-01  0.00000000000E+00 0.  1.
     999901    1    3    3    0    0 -0.42455573756E-01  0.12915658852E+00  0.54410324352E-01  0.89210110610E+00  0.88000000000E+00 0.  1.
        -11    1    4    4    0    0  0.64249844281E-02 -0.21079069050E-01 -0.16536473782E-01  0.27555828114E-01  0.51100000000E-03 0. -1.
         11    1    4    4    0    0  0.39985488756E-01 -0.82714864037E-01 -0.35500823853E-01  0.98494454965E-01  0.51100000000E-03 0.  1.
</event>
<event>
 8    1  0.1094134E+005  0.1043930E+01  0.7957747E-01            NaN
         13   -1    0    0    0    0  0.00000000000E+00  0.00000000000E+00  0.74505805969E-08  0.10566000000E+00  0.10566000000E+00 0. -1.
     999900   -1    0    0    0    0 -0.00000000000E+00 -0.00000000000E+00 -0.74505805969E-08  0.93827000000E+00  0.93827000000E+00 0. -1.
     999902    2    1    2    0    0  0.13202807826E-01 -0.12697432495E-01  0.12352127280E-01  0.10218366984E+01  0.10215978290E+01 0.  0.
     999903    2    3    3    0    0 -0.11210882382E+00  0.20329983741E-01 -0.58856071607E-01  0.12950020200E+00  0.18015785750E-01 0.  0.
         14    1    1    2    0    0 -0.13202807826E-01  0.12697432495E-01 -0.12352127280E-01  0.22093301582E-01  0.00000000000E+00 0.  1.
     999901    1    3    3    0    0  0.12531163165E+00 -0.33027416237E-01  0.71208198887E-01  0.89233649642E+00  0.88000000000E+00 0. -1.
        -11    1    4    4    0    0 -0.49047750439E-01  0.59113804365E-02 -0.16122361342E-01  0.51969393859E-01  0.51100000000E-03 0. -1.
         11    1    4    4    0    0 -0.63061073379E-01  0.14418603305E-01 -0.42733710266E-01  0.77530808142E-01  0.51100000000E-03 0.  1.
</event>
<event>
 8    1  0.1094134E+005  0.1043930E+01  0.7957747E-01            NaN
         13   -1    0    0    0    0  0.00000000000E+00  0.00000000000E+00  0.74505805969E-08  0.10566000000E+00  0.10566000000E+00 0. -1.
     999900   -1    0    0    0    0 -0.00000000000E+00 -0.00000000000E+00 -0.74505805969E-08  0.93827000000E+00  0.93827000000E+00 0.  1.
     999902    2    1    2    0    0 -0.75843451630E-02  0.22686399517E-01  0.58396337378E-03  0.10200022749E+01  0.10197215820E+01 0.  0.
     999903    2    3    3    0    0  0.37726414355E-01  0.10469880295E+00 -0.69476128489E-01  0.13225934156E+00  0.16747516850E-01 0.  0.
         14    1    1    2    0    0  0.75843451630E-02 -0.22686399517E-01 -0.58396337378E-03  0.23927725087E-01  0.00000000000E+00 0.  1.
     999901    1    3    3    0    0 -0.45310759518E-01 -0.82012403434E-01  0.70060091863E-01  0.88774293335E+00  0.88000000000E+00 0. -1.
        -11    1    4    4    0    0  0.12661932918E-01  0.26216729572E-01 -0.10568307362E-01  0.30977277094E-01  0.51100000000E-03 0.  1.
         11    1    4    4    0    0  0.25064481437E-01  0.78482073379E-01 -0.58907821127E-01  0.10128206447E+00  0.51100000000E-03 0. -1.
</event>
<event>
 8    1  0.1094134E+005  0.1043930E+01  0.7957747E-01            NaN
         13   -1    0    0    0    0  0.00000000000E+00  0.00000000000E+00  0.74505805969E-08  0.10566000000E+00  0.10566000000E+00 0.  1.
     999900   -1    0    0    0    0 -0.00000000000E+00 -0.00000000000E+00 -0.74505805969E-08  0.93827000000E+00  0.93827000000E+00 0. -1.
     999902    2    1    2    0    0 -0.10287067285E-01 -0.16543249144E-01  0.13125299881E-01  0.10204400800E+01  0.10201696822E+01 0.  0.
     999903    2    3    3    0    0  0.84975084873E-01  0.47259740214E-01  0.84111657650E-01  0.13016778339E+00  0.20362533885E-01 0.  0.
         14    1    1    2    0    0  0.10287067285E-01  0.16543249144E-01 -0.13125299881E-01  0.23489920019E-01  0.00000000000E+00 0.  1.
     999901    1    3    3    0    0 -0.95262152157E-01 -0.63802989358E-01 -0.70986357769E-01  0.89027229659E+00  0.88000000000E+00 0. -1.
        -11    1    4    4    0    0  0.44465538176E-01  0.31392579653E-01  0.57437689562E-01  0.79132973189E-01  0.51100000000E-03 0.  1.
         11    1    4    4    0    0  0.40509546696E-01  0.15867160561E-01  0.26673968088E-01  0.51034810202E-01  0.51100000000E-03 0. -1.
</event>
<event>
 8    1  0.1094134E+005  0.1043930E+01  0.7957747E-01            NaN
         13   -1    0    0    0    0  0.00000000000E+00  0.00000000000E+00  0.74505805969E-08  0.10566000000E+00  0.10566000000E+00 0.  1.
     999900   -1    0    0    0    0 -0.00000000000E+00 -0.00000000000E+00 -0.74505805969E-08  0.93827000000E+00  0.93827000000E+00 0. -1.
     999902    2    1    2    0    0 -0.10455980786E-02  0.20506203788E-01 -0.13222482964E-01  0.10195080483E+01  0.10192154968E+01 0.  0.
     999903    2    3    3    0    0  0.12239803074E+00 -0.25218965463E-01 -0.27742547486E-01  0.12959796696E+00  0.20216576121E-01 0.  0.
         14    1    1    2    0    0  0.10455980786E-02 -0.20506203788E-01  0.13222482964E-01  0.24421951701E-01  0.00000000000E+00 0.  1.
     999901    1    3    3    0    0 -0.12344362882E+00  0.45725169251E-01  0.14520064523E-01  0.88991008134E+00  0.88000000000E+00 0. -1.
        -11    1    4    4    0    0  0.36840534535E-01  0.17454421905E-02 -0.83094610364E-02  0.37809784673E-01  0.51100000000E-03 0.  1.
         11    1    4    4    0    0  0.85557496206E-01 -0.26964407653E-01 -0.19433086450E-01  0.91788182285E-01  0.51100000000E-03 0. -1.
</event>
<event>
 8    1  0.1094134E+005  0.1043930E+01  0.7957747E-01            NaN
         13   -1    0    0    0    0  0.00000000000E+00  0.00000000000E+00  0.74505805969E-08  0.10566000000E+00  0.10566000000E+00 0.  1.
     999900   -1    0    0    0    0 -0.00000000000E+00 -0.00000000000E+00 -0.74505805969E-08  0.93827000000E+00  0.93827000000E+00 0. -1.
     999902    2    1    2    0    0  0.19765808230E-01 -0.17713478195E-03 -0.10520744961E-01  0.10215379339E+01  0.10212924878E+01 0.  0.
     999903    2    3    3    0    0 -0.28084770098E-01  0.12485911338E+00  0.20797879504E-01  0.13086145082E+00  0.17709178732E-01 0.  0.
         14    1    1    2    0    0 -0.19765808230E-01  0.17713478195E-03  0.10520744961E-01  0.22392066145E-01  0.00000000000E+00 0.  1.
     999901    1    3    3    0    0  0.47850578328E-01 -0.12503624817E+00 -0.31318624464E-01  0.89067648304E+00  0.88000000000E+00 0. -1.
        -11    1    4    4    0    0 -0.13235748134E-01  0.25605945912E-01  0.39608283685E-02  0.29099807165E-01  0.51100000000E-03 0.  1.
         11    1    4    4    0    0 -0.14849021964E-01  0.99253167472E-01  0.16837051135E-01  0.10176164365E+00  0.51100000000E-03 0. -1.
</event>
<event>
 8    1  0.1094134E+005  0.1043930E+01  0.7957747E-01            NaN
         13   -1    0    0    0    0  0.00000000000E+00  0.00000000000E+00  0.74505805969E-08  0.10566000000E+00  0.10566000000E+00 0.  1.
     999900   -1    0    0    0    0 -0.00000000000E+00 -0.00000000000E+00 -0.74505805969E-08  0.93827000000E+00  0.93827000000E+00 0. -1.
     999902    2    1    2    0    0 -0.23113850878E-01 -0.23141633869E-02  0.74356322092E-02  0.10195395494E+01  0.10192477612E+01 0.  0.
     999903    2    3    3    0    0 -0.41143891595E-01  0.62459020310E-01  0.10640491873E+00  0.13144295140E+00  0.19007727559E-01 0.  0.
         14    1    1    2    0    0  0.23113850878E-01  0.23141633869E-02 -0.74356322092E-02  0.24390450610E-01  0.00000000000E+00 0.  1.
     999901    1    3    3    0    0  0.18030040717E-01 -0.64773183697E-01 -0.98969286525E-01  0.88809659799E+00  0.88000000000E+00 0. -1.
        -11    1    4    4    0    0 -0.17196837047E-02  0.67151129370E-02  0.20877678619E-01  0.22004286839E-01  0.51100000000E-03 0.  1.
         11    1    4    4    0    0 -0.39424207890E-01  0.55743907373E-01  0.85527240116E-01  0.10943866456E+00  0.51100000000E-03 0. -1.
</event>
<event>
 8    1  0.1094134E+005  0.1043930E+01  0.7957747E-01            NaN
         13   -1    0    0    0    0  0.00000000000E+00  0.00000000000E+00  0.74505805969E-08  0.10566000000E+00  0.10566000000E+00 0. -1.
     999900   -1    0    0    0    0 -0.00000000000E+00 -0.00000000000E+00 -0.74505805969E-08  0.93827000000E+00  0.93827000000E+00 0. -1.
     999902    2    1    2    0    0 -0.13114612994E-01  0.26035107356E-02  0.20054825647E-01  0.10198267352E+01  0.10195418591E+01 0.  0.
     999903    2    3    3    0    0 -0.48417900203E-01  0.92661367213E-01  0.79052089533E-01  0.13256272898E+00  0.19829831570E-01 0.  0.
         14    1    1    2    0    0  0.13114612994E-01 -0.26035107356E-02 -0.20054825647E-01  0.24103264797E-01  0.00000000000E+00 0.  1.
     999901    1    3    3    0    0  0.35303287209E-01 -0.90057856478E-01 -0.58997263886E-01  0.88726400623E+00  0.88000000000E+00 0. -1.
        -11    1    4    4    0    0 -0.40983021982E-01  0.58427481413E-01  0.53746459998E-01  0.89343840069E-01  0.51100000000E-03 0. -1.
         11    1    4    4    0    0 -0.74348782213E-02  0.34233885800E-01  0.25305629535E-01  0.43218888906E-01  0.51100000000E-03 0.  1.
</event>
<event>
 8    1  0.1094134E+005  0.1043930E+01  0.7957747E-01            NaN
         13   -1    0    0    0    0  0.00000000000E+00  0.00000000000E+00  0.74505805969E-08  0.10566000000E+00  0.10566000000E+00 0.  1.
     999900   -1    0    0    0    0 -0.00000000000E+00 -0.00000000000E+00 -0.74505805969E-08  0.93827000000E+00  0.93827000000E+00 0. -1.
     999902    2    1    2    0    0  0.12906546053E-01  0.18502431974E-01 -0.47842611393E-02  0.10208690357E+01  0.10206085341E+01 0.  0.
     999903    2    3    3    0    0  0.24260484882E-01  0.12874367660E+00  0.17215487027E-01  0.13364525735E+00  0.20029389083E-01 0.  0.
         14    1    1    2    0    0 -0.12906546053E-01 -0.18502431974E-01  0.47842611393E-02  0.23060964304E-01  0.00000000000E+00 0.  1.
     999901    1    3    3    0    0 -0.11353938829E-01 -0.11024124463E+00 -0.21999748167E-01  0.88722377835E+00  0.88000000000E+00 0.  1.
        -11    1    4    4    0    0  0.20901933404E-01  0.62034982621E-01  0.42347403589E-02  0.65600488075E-01  0.51100000000E-03 0.  1.
         11    1    4    4    0    0  0.33585514784E-02  0.66708693980E-01  0.12980746669E-01  0.68044769275E-01  0.51100000000E-03 0. -1.
</event>
<event>
 8    1  0.1094134E+005  0.1043930E+01  0.7957747E-01            NaN
         13   -1    0    0    0    0  0.00000000000E+00  0.00000000000E+00  0.74505805969E-08  0.10566000000E+00  0.10566000000E+00 0.  1.
     999900   -1    0    0    0    0 -0.00000000000E+00 -0.00000000000E+00 -0.74505805969E-08  0.93827000000E+00  0.93827000000E+00 0.  1.
     999902    2    1    2    0    0 -0.21029961735E-01 -0.35136760100E-02  0.91372896248E-02  0.10207331194E+01  0.10204695026E+01 0.  0.
     999903    2    3    3    0    0 -0.68956932651E-01 -0.16711792146E-01  0.11121100609E+00  0.13343935267E+00  0.20095532083E-01 0.  0.
         14    1    1    2    0    0  0.21029961735E-01  0.35136760100E-02 -0.91372896248E-02  0.23196880639E-01  0.00000000000E+00 0. -1.
     999901    1    3    3    0    0  0.47926970916E-01  0.13198116136E-01 -0.10207371646E+00  0.88729376669E+00  0.88000000000E+00 0.  1.
        -11    1    4    4    0    0 -0.25793491733E-01 -0.68177805592E-02  0.25229302338E-01  0.36722815320E-01  0.51100000000E-03 0. -1.
         11    1    4    4    0    0 -0.43163440918E-01 -0.98940115867E-02  0.85981703749E-01  0.96716537354E-01  0.51100000000E-03 0.  1.
</event>
<event>
 8    1  0.1094134E+005  0.1043930E+01  0.7957747E-01            NaN
         13   -1    0    0    0    0  0.00000000000E+00  0.00000000000E+00  0.74505805969E-08  0.10566000000E+00  0.10566000000E+00 0. -1.
     999900   -1    0    0    0    0 -0.00000000000E+00 -0.00000000000E+00 -0.74505805969E-08  0.93827000000E+00  0.93827000000E+00 0.  1.
     999902    2    1    2    0    0 -0.15086723434E-01 -0.18089772061E-01 -0.14422665787E-01  0.10163100368E+01  0.10159346576E+01 0.  0.
     999903    2    3    3    0    0  0.20652036163E-01  0.11376822983E+00  0.40406945142E-01  0.12408244376E+00  0.19849809012E-01 0.  0.
         14    1    1    2    0    0  0.15086723434E-01  0.18089772061E-01  0.14422665787E-01  0.27619963172E-01  0.00000000000E+00 0. -1.
     999901    1    3    3    0    0 -0.35738759597E-01 -0.13185800189E+00 -0.54829610929E-01  0.89222759307E+00  0.88000000000E+00 0.  1.
        -11    1    4    4    0    0  0.14490688837E-01  0.98075104398E-01  0.27620815271E-01  0.10291684373E+00  0.51100000000E-03 0.  1.
         11    1    4    4    0    0  0.61613473259E-02  0.15693125430E-01  0.12786129871E-01  0.21165600032E-01  0.51100000000E-03 0. -1.
</event>
<event>
 8    1  0.1094134E+005  0.1043930E+01  0.7957747E-01            NaN
         13   -1    0    0    0    0  0.00000000000E+00  0.00000000000E+00  0.74505805969E-08  0.10566000000E+00  0.10566000000E+00 0.  1.
     999900   -1    0    0    0    0 -0.00000000000E+00 -0.00000000000E+00 -0.74505805969E-08  0.93827000000E+00  0.93827000000E+00 0.  1.
     999902    2    1    2    0    0 -0.14141454983E-01  0.11288957172E-01 -0.15121921926E-01  0.10203483583E+01  0.10200758199E+01 0.  0.
     999903    2    3    3    0    0 -0.47204924517E-01  0.50451927356E-01 -0.11256272934E+00  0.13348780431E+00  0.19362954070E-01 0.  0.
         14    1    1    2    0    0  0.14141454983E-01 -0.11288957172E-01  0.15121921926E-01  0.23581641712E-01  0.00000000000E+00 0.  1.
     999901    1    3    3    0    0  0.33063469534E-01 -0.39162970184E-01  0.97440807416E-01  0.88686055398E+00  0.88000000000E+00 0. -1.
        -11    1    4    4    0    0 -0.43834172143E-01  0.50072094839E-01 -0.97552908260E-01  0.11809098340E+00  0.51100000000E-03 0. -1.
         11    1    4    4    0    0 -0.33707523744E-02  0.37983251692E-03 -0.15009821082E-01  0.15396820913E-01  0.51100000000E-03 0.  1.
</event>
<event>
 8    1  0.1094134E+005  0.1043930E+01  0.7957747E-01            NaN
         13   -1    0    0    0    0  0.00000000000E+00  0.00000000000E+00  0.74505805969E-08  0.10566000000E+00  0.10566000000E+00 0. -1.
     999900   -1    0    0    0    0 -0.00000000000E+00 -0.00000000000E+00 -0.74505805969E-08  0.93827000000E+00  0.93827000000E+00 0.  1.
     999902    2    1    2    0    0 -0.10373724641E-01 -0.53383919127E-02  0.20162516698E-01  0.10206353725E+01  0.10203695036E+01 0.  0.
     999903    2    3    3    0    0 -0.42272047204E-01 -0.10665422736E+00 -0.60011729290E-01  0.13062957969E+00  0.17338663427E-01 0.  0.
         14    1    1    2    0    0  0.10373724641E-01  0.53383919127E-02 -0.20162516698E-01  0.23294627508E-01  0.00000000000E+00 0.  1.
     999901    1    3    3    0    0  0.31898322563E-01  0.10131583545E+00  0.80174245988E-01  0.89000579280E+00  0.88000000000E+00 0.  1.
        -11    1    4    4    0    0 -0.73501686955E-02 -0.39151397061E-01 -0.17143723714E-01  0.43370788043E-01  0.51100000000E-03 0.  1.
         11    1    4    4    0    0 -0.34921878508E-01 -0.67502830301E-01 -0.42868005576E-01  0.87258791650E-01  0.51100000000E-03 0. -1.
</event>
<event>
 8    1  0.1094134E+005  0.1043930E+01  0.7957747E-01            NaN
         13   -1    0    0    0    0  0.00000000000E+00  0.00000000000E+00  0.74505805969E-08  0.10566000000E+00  0.10566000000E+00 0. -1.
     999900   -1    0    0    0    0 -0.00000000000E+00 -0.00000000000E+00 -0.74505805969E-08  0.93827000000E+00  0.93827000000E+00 0.  1.
     999902    2    1    2    0    0  0.22047535337E-01 -0.21276736646E-02 -0.95121231884E-02  0.10198239572E+01  0.10195390147E+01 0.  0.
     999903    2    3    3    0    0 -0.88847248727E-01  0.85989271892E-01  0.25662519081E-01  0.12780405574E+00  0.19680530766E-01 0.  0.
         14    1    1    2    0    0 -0.22047535337E-01  0.21276736646E-02  0.95121231884E-02  0.24106042753E-01  0.00000000000E+00 0. -1.
     999901    1    3    3    0    0  0.11089478406E+00 -0.88116945556E-01 -0.35174642269E-01  0.89201990151E+00  0.88000000000E+00 0.  1.
        -11    1    4    4    0    0 -0.13565426625E-01  0.24436077643E-01  0.61231421277E-02  0.28616370849E-01  0.51100000000E-03 0. -1.
         11    1    4    4    0    0 -0.75281822102E-01  0.61553194249E-01  0.19539376953E-01  0.99187684891E-01  0.51100000000E-03 0.  1.
</event>
<event>
 8    1  0.1094134E+005  0.1043930E+01  0.7957747E-01            NaN
         13   -1    0    0    0    0  0.00000000000E+00  0.00000000000E+00  0.74505805969E-08  0.10566000000E+00  0.10566000000E+00 0. -1.
     999900   -1    0    0    0    0 -0.00000000000E+00 -0.00000000000E+00 -0.74505805969E-08  0.93827000000E+00  0.93827000000E+00 0.  1.
     999902    2    1    2    0    0 -0.21391077243E-01  0.34991587100E-02 -0.87649665274E-02  0.10205495181E+01  0.10202816630E+01 0.  0.
     999903    2    3    3    0    0  0.70634510338E-01 -0.10543323401E+00 -0.12434257540E-01  0.12906287282E+00  0.19930215626E-01 0.  0.
         14    1    1    2    0    0  0.21391077243E-01 -0.34991587100E-02  0.87649665274E-02  0.23380481935E-01  0.00000000000E+00 0. -1.
     999901    1    3    3    0    0 -0.92025587581E-01  0.10893239272E+00  0.36692910124E-02  0.89148664525E+00  0.88000000000E+00 0.  1.
        -11    1    4    4    0    0  0.49217420978E-01 -0.56547702044E-01 -0.10015391030E-01  0.75634425447E-01  0.51100000000E-03 0.  1.
         11    1    4    4    0    0  0.21417089360E-01 -0.48885531968E-01 -0.24188665101E-02  0.53428447373E-01  0.51100000000E-03 0. -1.
</event>
<event>
 8    1  0.1094134E+005  0.1043930E+01  0.7957747E-01            NaN
         13   -1    0    0    0    0  0.00000000000E+00  0.00000000000E+00  0.74505805969E-08  0.10566000000E+00  0.10566000000E+00 0. -1.
     999900   -1    0    0    0    0 -0.00000000000E+00 -0.00000000000E+00 -0.74505805969E-08  0.93827000000E+00  0.93827000000E+00 0.  1.
     999902    2    1    2    0    0 -0.44693267488E-02 -0.11909022404E-01  0.21251214380E-01  0.10191628078E+01  0.10188618233E+01 0.  0.
     999903    2    3    3    0    0  0.12210213153E-01  0.65033288743E-01 -0.10594671921E+00  0.12653878808E+00  0.20222255748E-01 0.  0.
         14    1    1    2    0    0  0.44693267488E-02  0.11909022404E-01 -0.21251214380E-01  0.24767192187E-01  0.00000000000E+00 0.  1.
     999901    1    3    3    0    0 -0.16679539902E-01 -0.76942311147E-01  0.12719793359E+00  0.89262401973E+00  0.88000000000E+00 0. -1.
        -11    1    4    4    0    0  0.14122462253E-02  0.18916129088E-01 -0.15748067491E-01  0.24659219975E-01  0.51100000000E-03 0.  1.
         11    1    4    4    0    0  0.10797966928E-01  0.46117159655E-01 -0.90198651718E-01  0.10187956810E+00  0.51100000000E-03 0. -1.
</event>
<event>
 8    1  0.1094134E+005  0.1043930E+01  0.7957747E-01            NaN
         13   -1    0    0    0    0  0.00000000000E+00  0.00000000000E+00  0.74505805969E-08  0.10566000000E+00  0.10566000000E+00 0. -1.
     999900   -1    0    0    0    0 -0.00000000000E+00 -0.00000000000E+00 -0.74505805969E-08  0.93827000000E+00  0.93827000000E+00 0. -1.
     999902    2    1    2    0    0 -0.13234747597E-01 -0.17681078483E-01 -0.11026427271E-01  0.10192447579E+01  0.10189457862E+01 0.  0.
     999903    2    3    3    0    0  0.35817221863E-01 -0.12364667693E+00  0.14542234910E-01  0.13116336507E+00  0.20517739739E-01 0.  0.
         14    1    1    2    0    0  0.13234747597E-01  0.17681078483E-01  0.11026427271E-01  0.24685242122E-01  0.00000000000E+00 0. -1.
     999901    1    3    3    0    0 -0.49051969459E-01  0.10596559844E+00 -0.25568662181E-01  0.88808139281E+00  0.88000000000E+00 0. -1.
        -11    1    4    4    0    0  0.17262886036E-01 -0.73110785066E-01 -0.99453585816E-03  0.75129517167E-01  0.51100000000E-03 0. -1.
         11    1    4    4    0    0  0.18554335827E-01 -0.50535891861E-01  0.15536770768E-01  0.56033847906E-01  0.51100000000E-03 0.  1.
</event>
<event>
 8    1  0.1094134E+005  0.1043930E+01  0.7957747E-01            NaN
         13   -1    0    0    0    0  0.00000000000E+00  0.00000000000E+00  0.74505805969E-08  0.10566000000E+00  0.10566000000E+00 0. -1.
     999900   -1    0    0    0    0 -0.00000000000E+00 -0.00000000000E+00 -0.74505805969E-08  0.93827000000E+00  0.93827000000E+00 0.  1.
     999902    2    1    2    0    0 -0.11520464154E-01  0.18896820512E-01 -0.89465769095E-02  0.10200584236E+01  0.10197790621E+01 0.  0.
     999903    2    3    3    0    0 -0.12055322371E+00  0.43018624353E-01  0.25775677286E-01  0.13232217958E+00  0.21473050114E-01 0.  0.
         14    1    1    2    0    0  0.11520464154E-01 -0.18896820512E-01  0.89465769095E-02  0.23871576366E-01  0.00000000000E+00 0. -1.
     999901    1    3    3    0    0  0.10903275955E+00 -0.24121803841E-01 -0.34722254195E-01  0.88773624406E+00  0.88000000000E+00 0.  1.
        -11    1    4    4    0    0 -0.15269285176E-01 -0.15167173936E-02  0.12484112935E-02  0.15403608447E-01  0.51100000000E-03 0. -1.
         11    1    4    4    0    0 -0.10528393853E+00  0.44535341746E-01  0.24527265992E-01  0.11691857113E+00  0.51100000000E-03 0.  1.
</event>
<event>
 8    1  0.1094134E+005  0.1043930E+01  0.7957747E-01            NaN
         13   -1    0    0    0    0  0.00000000000E+00  0.00000000000E+00  0.74505805969E-08  0.10566000000E+00  0.10566000000E+00 0. -1.
     999900   -1    0    0    0    0 -0.00000000000E+00 -0.00000000000E+00 -0.74505805969E-08  0.93827000000E+00  0.93827000000E+00 0.  1.
     999902    2    1    2    0    0 -0.20142400727E-01  0.13433142038E-01 -0.17971709318E-02  0.10196525324E+01  0.10193634736E+01 0.  0.
     999903    2    3    3    0    0  0.79288208905E-01  0.97074385836E-01  0.26539515772E-01  0.12966080677E+00  0.19937965226E-01 0.  0.
         14    1    1    2    0    0  0.20142400727E-01 -0.13433142038E-01  0.17971709318E-02  0.24277467648E-01  0.00000000000E+00 0.  1.
     999901    1    3    3    0    0 -0.99430609632E-01 -0.83641243798E-01 -0.28336686704E-01  0.88999172558E+00  0.88000000000E+00 0. -1.
        -11    1    4    4    0    0  0.11862079429E-01  0.17071448934E-01 -0.28370992628E-02  0.20986985260E-01  0.51100000000E-03 0. -1.
         11    1    4    4    0    0  0.67426129476E-01  0.80002936902E-01  0.29376615035E-01  0.10867382151E+00  0.51100000000E-03 0.  1.
</event>
<event>
 8    1  0.1094134E+005  0.1043930E+01  0.7957747E-01            NaN
         13   -1    0    0    0    0  0.00000000000E+00  0.00000000000E+00  0.74505805969E-08  0.10566000000E+00  0.10566000000E+00 0. -1.
     999900   -1    0    0    0    0 -0.00000000000E+00 -0.00000000000E+00 -0.74505805969E-08  0.93827000000E+00  0.93827000000E+00 0.  1.
     999902    2    1    2    0    0 -0.92347242556E-02 -0.20617484309E-01  0.63822930424E-02  0.10204545989E+01  0.10201845392E+01 0.  0.
     999903    2    3    3    0    0 -0.80353781163E-01  0.44946994586E-01  0.91294781795E-01  0.13109148304E+00  0.19320384896E-01 0.  0.
         14    1    1    2    0    0  0.92347242556E-02  0.20617484309E-01 -0.63822930424E-02  0.23475401078E-01  0.00000000000E+00 0. -1.
     999901    1    3    3    0    0  0.71119056907E-01 -0.65564478896E-01 -0.84912488753E-01  0.88936311588E+00  0.88000000000E+00 0. -1.
        -11    1    4    4    0    0 -0.63073258622E-01  0.26572669722E-01  0.71907943859E-01  0.99274146888E-01  0.51100000000E-03 0. -1.
         11    1    4    4    0    0 -0.17280522541E-01  0.18374324864E-01  0.19386837936E-01  0.31817336150E-01  0.51100000000E-03 0.  1.
</event>
<event>
 8    1  0.1094134E+005  0.1043930E+01  0.7957747E-01            NaN
         13   -1    0    0    0    0  0.00000000000E+00  0.00000000000E+00  0.74505805969E-08  0.10566000000E+00  0.10566000000E+00 0. -1.
     999900   -1    0    0    0    0 -0.00000000000E+00 -0.00000000000E+00 -0.74505805969E-08  0.93827000000E+00  0.93827000000E+00 0. -1.
     999902    2    1    2    0    0  0.21770461049E-02 -0.14541890475E-01 -0.18009483781E-01  0.10206803201E+01  0.10204154881E+01 0.  0.
     999903    2    3    3    0    0  0.94166425784E-01  0.78865198054E-01 -0.39122996650E-01  0.13071812397E+00  0.21669883652E-01 0.  0.
         14    1    1    2    0    0 -0.21770461049E-02  0.14541890475E-01  0.18009483781E-01  0.23249679877E-01  0.00000000000E+00 0. -1.
     999901    1    3    3    0    0 -0.91989379679E-01 -0.93407088529E-01  0.21113512869E-01  0.88996219616E+00  0.88000000000E+00 0. -1.
        -11    1    4    4    0    0  0.74370933272E-01  0.71617172081E-01 -0.28518954472E-01  0.10711511069E+00  0.51100000000E-03 0.  1.
         11    1    4    4    0    0  0.19795492512E-01  0.72480259728E-02 -0.10604042179E-01  0.23603013278E-01  0.51100000000E-03 0. -1.
</event>
<event>
 8    1  0.1094134E+005  0.1043930E+01  0.7957747E-01            NaN
         13   -1    0    0    0    0  0.00000000000E+00  0.00000000000E+00  0.74505805969E-08  0.10566000000E+00  0.10566000000E+00 0.  1.
     999900   -1    0    0    0    0 -0.00000000000E+00 -0.00000000000E+00 -0.74505805969E-08  0.93827000000E+00  0.93827000000E+00 0. -1.
     999902    2    1    2    0    0 -0.11614066720E-01  0.20024103167E-01  0.74836587488E-02  0.10196019010E+01  0.10193116207E+01 0.  0.
     999903    2    3    3    0    0 -0.89815310560E-01 -0.60122159210E-01 -0.68072340989E-01  0.12929433222E+00  0.20042871461E-01 0.  0.
         14    1    1    2    0    0  0.11614066720E-01 -0.20024103167E-01 -0.74836587488E-02  0.24328099015E-01  0.00000000000E+00 0. -1.
     999901    1    3    3    0    0  0.78201243840E-01  0.80146262377E-01  0.75555999738E-01  0.89030756877E+00  0.88000000000E+00 0. -1.
        -11    1    4    4    0    0 -0.32948296993E-01 -0.16934081601E-01 -0.13546099064E-01  0.39447576798E-01  0.51100000000E-03 0.  1.
         11    1    4    4    0    0 -0.56867013567E-01 -0.43188077609E-01 -0.54526241926E-01  0.89846755418E-01  0.51100000000E-03 0. -1.
</event>
<event>
 8    1  0.1094134E+005  0.1043930E+01  0.7957747E-01            NaN
         13   -1    0    0    0    0  0.00000000000E+00  0.00000000000E+00  0.74505805969E-08  0.10566000000E+00  0.10566000000E+00 0. -1.
     999900   -1    0    0    0    0 -0.00000000000E+00 -0.00000000000E+00 -0.74505805969E-08  0.93827000000E+00  0.93827000000E+00 0.  1.
     999902    2    1    2    0    0 -0.73757365499E-02 -0.18713306112E-01  0.13241297015E-01  0.10198484456E+01  0.10195640886E+01 0.  0.
     999903    2    3    3    0    0 -0.11595781914E+00 -0.31734265141E-02 -0.56146856282E-01  0.13032819720E+00  0.19408324463E-01 0.  0.
         14    1    1    2    0    0  0.73757365499E-02  0.18713306112E-01 -0.13241297015E-01  0.24081554391E-01  0.00000000000E+00 0. -1.
     999901    1    3    3    0    0  0.10858208259E+00 -0.15539879598E-01  0.69388153297E-01  0.88952024841E+00  0.88000000000E+00 0. -1.
        -11    1    4    4    0    0 -0.61257784241E-01 -0.59352504429E-02 -0.20046092739E-01  0.64729052852E-01  0.51100000000E-03 0. -1.
         11    1    4    4    0    0 -0.54700034899E-01  0.27618239288E-02 -0.36100763543E-01  0.65599144345E-01  0.51100000000E-03 0.  1.
</event>
<event>
 8    1  0.1094134E+005  0.1043930E+01  0.7957747E-01            NaN
         13   -1    0    0    0    0  0.00000000000E+00  0.00000000000E+00  0.74505805969E-08  0.10566000000E+00  0.10566000000E+00 0.  1.
     999900   -1    0    0    0    0 -0.00000000000E+00 -0.00000000000E+00 -0.74505805969E-08  0.93827000000E+00  0.93827000000E+00 0. -1.
     999902    2    1    2    0    0 -0.19406796463E-01 -0.17140648873E-03 -0.10814438415E-01  0.10217127723E+01  0.10214711860E+01 0.  0.
     999903    2    3    3    0    0  0.61467854766E-01 -0.74885797058E-01 -0.86976580515E-01  0.13158715123E+00  0.19080698099E-01 0.  0.
         14    1    1    2    0    0  0.19406796463E-01  0.17140648873E-03  0.10814438415E-01  0.22217227716E-01  0.00000000000E+00 0.  1.
     999901    1    3    3    0    0 -0.80874651229E-01  0.74714390569E-01  0.76162142100E-01  0.89012562106E+00  0.88000000000E+00 0.  1.
        -11    1    4    4    0    0  0.19997117436E-01 -0.17136114103E-01 -0.14535863398E-01  0.30084606662E-01  0.51100000000E-03 0.  1.
         11    1    4    4    0    0  0.41470737330E-01 -0.57749682955E-01 -0.72440717117E-01  0.10150254457E+00  0.51100000000E-03 0. -1.
</event>
<event>
 8    1  0.1094134E+005  0.1043930E+01  0.7957747E-01            NaN
         13   -1    0    0    0    0  0.00000000000E+00  0.00000000000E+00  0.74505805969E-08  0.10566000000E+00  0.10566000000E+00 0. -1.
     999900   -1    0    0    0    0 -0.00000000000E+00 -0.00000000000E+00 -0.74505805969E-08  0.93827000000E+00  0.93827000000E+00 0. -1.
     999902    2    1    2    0    0  0.24528301486E-03 -0.14435447151E-01  0.18339102911E-01  0.10205897988E+01  0.10203228765E+01 0.  0.
     999903    2    3    3    0    0 -0.11332636062E+00  0.52251192082E-01  0.32868522645E-01  0.13067029110E+00  0.20526424657E-01 0.  0.
         14    1    1    2    0    0 -0.24528301486E-03  0.14435447151E-01 -0.18339102911E-01  0.23340201237E-01  0.00000000000E+00 0. -1.
     999901    1    3    3    0    0  0.11357164363E+00 -0.66686639233E-01 -0.14529419734E-01  0.88991950767E+00  0.88000000000E+00 0. -1.
        -11    1    4    4    0    0 -0.87280518840E-01  0.30335779626E-01  0.22928243194E-01  0.95205640334E-01  0.51100000000E-03 0.  1.
         11    1    4    4    0    0 -0.26045841777E-01  0.21915412456E-01  0.99402794513E-02  0.35464650761E-01  0.51100000000E-03 0. -1.
</event>
<event>
 8    1  0.1094134E+005  0.1043930E+01  0.7957747E-01            NaN
         13   -1    0    0    0    0  0.00000000000E+00  0.00000000000E+00  0.74505805969E-08  0.10566000000E+00  0.10566000000E+00 0. -1.
     999900   -1    0    0    0    0 -0.00000000000E+00 -0.00000000000E+00 -0.74505805969E-08  0.93827000000E+00  0.93827000000E+00 0.  1.
     999902    2    1    2    0    0 -0.11594340044E-01 -0.65889894068E-02 -0.20078537947E-01  0.10198262412E+01  0.10195413533E+01 0.  0.
     999903    2    3    3    0    0  0.68377496172E-02 -0.12488068301E+00 -0.35512418205E-01  0.13158591822E+00  0.20292417701E-01 0.  0.
         14    1    1    2    0    0  0.11594340044E-01  0.65889894068E-02  0.20078537947E-01  0.24103758805E-01  0.00000000000E+00 0.  1.
     999901    1    3    3    0    0 -0.18432089661E-01  0.11829169361E+00  0.15433880259E-01  0.88824032298E+00  0.88000000000E+00 0. -1.
        -11    1    4    4    0    0  0.60633522216E-02 -0.14277979787E-01 -0.86336323276E-02  0.17760227339E-01  0.51100000000E-03 0.  1.
         11    1    4    4    0    0  0.77439739560E-03 -0.11060270323E+00 -0.26878785878E-01  0.11382569088E+00  0.51100000000E-03 0. -1.
</event>
<event>
 8    1  0.1094134E+005  0.1043930E+01  0.7957747E-01            NaN
         13   -1    0    0    0    0  0.00000000000E+00  0.00000000000E+00  0.74505805969E-08  0.10566000000E+00  0.10566000000E+00 0. -1.
     999900   -1    0    0    0    0 -0.00000000000E+00 -0.00000000000E+00 -0.74505805969E-08  0.93827000000E+00  0.93827000000E+00 0.  1.
     999902    2    1    2    0    0 -0.80602996061E-02 -0.21840899255E-01 -0.69051052681E-02  0.10196468003E+01  0.10193576034E+01 0.  0.
     999903    2    3    3    0    0  0.11253934754E+00 -0.20045825131E-01  0.56738950217E-01  0.12914241344E+00  0.19786728568E-01 0.  0.
         14    1    1    2    0    0  0.80602996061E-02  0.21840899255E-01  0.69051052681E-02  0.24283199723E-01  0.00000000000E+00 0.  1.
     999901    1    3    3    0    0 -0.12059964714E+00 -0.17950741240E-02 -0.63644055485E-01  0.89050438684E+00  0.88000000000E+00 0.  1.
        -11    1    4    4    0    0  0.84129059162E-01 -0.22822704135E-01  0.38738223093E-01  0.95391223228E-01  0.51100000000E-03 0. -1.
         11    1    4    4    0    0  0.28410288375E-01  0.27768790037E-02  0.18000727124E-01  0.33751190210E-01  0.51100000000E-03 0.  1.
</event>
<event>
 8    1  0.1094134E+005  0.1043930E+01  0.7957747E-01            NaN
         13   -1    0    0    0    0  0.00000000000E+00  0.00000000000E+00  0.74505805969E-08  0.10566000000E+00  0.10566000000E+00 0.  1.
     999900   -1    0    0    0    0 -0.00000000000E+00 -0.00000000000E+00 -0.74505805969E-08  0.93827000000E+00  0.93827000000E+00 0. -1.
     999902    2    1    2    0    0 -0.21096500616E-01 -0.92332338197E-02  0.59347979043E-02  0.10201489830E+01  0.10198717619E+01 0.  0.
     999903    2    3    3    0    0  0.49329756575E-01  0.10417857065E+00 -0.52376208743E-01  0.12817237532E+00  0.19957231418E-01 0.  0.
         14    1    1    2    0    0  0.21096500616E-01  0.92332338197E-02 -0.59347979043E-02  0.23781017034E-01  0.00000000000E+00 0. -1.
     999901    1    3    3    0    0 -0.70426257191E-01 -0.11341180447E+00  0.58311006648E-01  0.89197660765E+00  0.88000000000E+00 0.  1.
        -11    1    4    4    0    0  0.19479174480E-02  0.19561274893E-01 -0.12574153724E-01  0.23341129379E-01  0.51100000000E-03 0.  1.
         11    1    4    4    0    0  0.47381839127E-01  0.84617295756E-01 -0.39802055020E-01  0.10483124594E+00  0.51100000000E-03 0. -1.
</event>
<event>
 8    1  0.1094134E+005  0.1043930E+01  0.7957747E-01            NaN
         13   -1    0    0    0    0  0.00000000000E+00  0.00000000000E+00  0.74505805969E-08  0.10566000000E+00  0.10566000000E+00 0.  1.
     999900   -1    0    0    0    0 -0.00000000000E+00 -0.00000000000E+00 -0.74505805969E-08  0.93827000000E+00  0.93827000000E+00 0. -1.
     999902    2    1    2    0    0  0.55279322112E-02  0.23137319867E-01 -0.57912366441E-02  0.10194466990E+01  0.10191526579E+01 0.  0.
     999903    2    3    3    0    0 -0.11515931872E+00 -0.56432795536E-02  0.53626544002E-01  0.12875920719E+00  0.20238871576E-01 0.  0.
         14    1    1    2    0    0 -0.55279322112E-02 -0.23137319867E-01  0.57912366441E-02  0.24483300983E-01  0.00000000000E+00 0. -1.
     999901    1    3    3    0    0  0.12068725093E+00  0.28780599420E-01 -0.59417780646E-01  0.89068749183E+00  0.88000000000E+00 0. -1.
        -11    1    4    4    0    0 -0.64923140363E-01 -0.12194059132E-01  0.25498190966E-01  0.70810508375E-01  0.51100000000E-03 0. -1.
         11    1    4    4    0    0 -0.50236178356E-01  0.65507795786E-02  0.28128353036E-01  0.57948698816E-01  0.51100000000E-03 0.  1.
</event>
<event>
 8    1  0.1094134E+005  0.1043930E+01  0.7957747E-01            NaN
         13   -1    0    0    0    0  0.00000000000E+00  0.00000000000E+00  0.74505805969E-08  0.10566000000E+00  0.10566000000E+00 0. -1.
     999900   -1    0    0    0    0 -0.00000000000E+00 -0.00000000000E+00 -0.74505805969E-08  0.93827000000E+00  0.93827000000E+00 0.  1.
     999902    2    1    2    0    0 -0.97601263380E-02 -0.15154182437E-01 -0.13894128461E-01  0.10211713507E+01  0.10209177104E+01 0.  0.
     999903    2    3    3    0    0 -0.10462361514E-01 -0.13129449100E+00  0.13613677892E-01  0.13311406438E+00  0.13649818156E-01 0.  0.
         14    1    1    2    0    0  0.97601263380E-02  0.15154182437E-01  0.13894128461E-01  0.22758649282E-01  0.00000000000E+00 0. -1.
     999901    1    3    3    0    0  0.70223517584E-03  0.11614030856E+00 -0.27507806353E-01  0.88805728634E+00  0.88000000000E+00 0. -1.
        -11    1    4    4    0    0 -0.43363706999E-02 -0.11122041906E+00  0.13480272432E-01  0.11211942112E+00  0.51100000000E-03 0.  1.
         11    1    4    4    0    0 -0.61259908139E-02 -0.20074071932E-01  0.13340546007E-03  0.20994643255E-01  0.51100000000E-03 0. -1.
</event>
<event>
 8    1  0.1094134E+005  0.1043930E+01  0.7957747E-01            NaN
         13   -1    0    0    0    0  0.00000000000E+00  0.00000000000E+00  0.74505805969E-08  0.10566000000E+00  0.10566000000E+00 0.  1.
     999900   -1    0    0    0    0 -0.00000000000E+00 -0.00000000000E+00 -0.74505805969E-08  0.93827000000E+00  0.93827000000E+00 0.  1.
     999902    2    1    2    0    0  0.19977301864E-01 -0.11791248337E-01  0.25849420547E-02  0.10205888764E+01  0.10203219328E+01 0.  0.
     999903    2    3    3    0    0 -0.49609903154E-01 -0.85522906474E-01  0.83637670208E-01  0.13106749874E+00  0.20201963394E-01 0.  0.
         14    1    1    2    0    0 -0.19977301864E-01  0.11791248337E-01 -0.25849420547E-02  0.23341123635E-01  0.00000000000E+00 0. -1.
     999901    1    3    3    0    0  0.69587205018E-01  0.73731658137E-01 -0.81052728154E-01  0.88952137763E+00  0.88000000000E+00 0.  1.
        -11    1    4    4    0    0 -0.43779619187E-02 -0.18839449769E-01  0.23958477274E-01  0.30795473246E-01  0.51100000000E-03 0. -1.
         11    1    4    4    0    0 -0.45231941236E-01 -0.66683456705E-01  0.59679192934E-01  0.10027202549E+00  0.51100000000E-03 0.  1.
</event>
<event>
 8    1  0.1094134E+005  0.1043930E+01  0.7957747E-01            NaN
         13   -1    0    0    0    0  0.00000000000E+00  0.00000000000E+00  0.74505805969E-08  0.10566000000E+00  0.10566000000E+00 0. -1.
     999900   -1    0    0    0    0 -0.00000000000E+00 -0.00000000000E+00 -0.74505805969E-08  0.93827000000E+00  0.93827000000E+00 0. -1.
     999902    2    1    2    0    0  0.11970907100E-01 -0.18854943617E-01  0.65213781794E-02  0.10206632880E+01  0.10203980633E+01 0.  0.
     999903    2    3    3    0    0 -0.14375491421E-01  0.10029425497E+00 -0.76518576726E-01  0.12837056786E+00  0.18929283526E-01 0.  0.
         14    1    1    2    0    0 -0.11970907100E-01  0.18854943617E-01 -0.65213781794E-02  0.23266712036E-01  0.00000000000E+00 0. -1.
     999901    1    3    3    0    0  0.26346398522E-01 -0.11914919859E+00  0.83039954905E-01  0.89229272010E+00  0.88000000000E+00 0.  1.
        -11    1    4    4    0    0 -0.16737809749E-01  0.52886414665E-01 -0.38029666056E-01  0.67258038573E-01  0.51100000000E-03 0.  1.
         11    1    4    4    0    0  0.23623183279E-02  0.47407840306E-01 -0.38488910670E-01  0.61112529287E-01  0.51100000000E-03 0. -1.
</event>
<event>
 7    1  0.1094134E+005  0.1043930E+01  0.7957747E-01            NaN
         13   -1    0    0    0    0  0.00000000000E+00  0.00000000000E+00  0.74505805969E-08  0.10566000000E+00  0.10566000000E+00 0. -1.
     999900   -1    0    0    0    0 -0.00000000000E+00 -0.00000000000E+00 -0.74505805969E-08  0.93827000000E+00  0.93827000000E+00 0.  1.
     999903    2    1    2    0    0 -0.24806347522E-02 -0.36995511708E-01 -0.88370248320E-02  0.42862658248E-01  0.19603393301E-01 0.  0.
         14    1    1    2    0    0  0.67567500962E-01 -0.39500755620E-01  0.80729964041E-01  0.11244111337E+00  0.00000000000E+00 0. -1.
     999901    1    1    2    0    0 -0.65086866210E-01  0.76496267328E-01 -0.71892939209E-01  0.88862622839E+00  0.88000000000E+00 0.  1.
        -11    1    3    3    0    0 -0.67742825917E-02 -0.30016351612E-01 -0.13290276099E-01  0.33522601757E-01  0.51100000000E-03 0. -1.
         11    1    3    3    0    0  0.42936478395E-02 -0.69791600953E-02  0.44532512673E-02  0.93400564910E-02  0.51100000000E-03 0.  1.
</event>
<event>
 8    1  0.1094134E+005  0.1043930E+01  0.7957747E-01            NaN
         13   -1    0    0    0    0  0.00000000000E+00  0.00000000000E+00  0.74505805969E-08  0.10566000000E+00  0.10566000000E+00 0. -1.
     999900   -1    0    0    0    0 -0.00000000000E+00 -0.00000000000E+00 -0.74505805969E-08  0.93827000000E+00  0.93827000000E+00 0. -1.
     999902    2    1    2    0    0  0.23978671276E-02  0.19502566575E-01 -0.12267345399E-01  0.10207656387E+01  0.10205027690E+01 0.  0.
     999903    2    3    3    0    0 -0.11346786438E+00 -0.56204614474E-01 -0.23437906187E-01  0.12987775217E+00  0.16881354376E-01 0.  0.
         14    1    1    2    0    0 -0.23978671276E-02 -0.19502566575E-01  0.12267345399E-01  0.23164361267E-01  0.00000000000E+00 0.  1.
     999901    1    3    3    0    0  0.11586573151E+00  0.75707181049E-01  0.11170560788E-01  0.89088788657E+00  0.88000000000E+00 0. -1.
        -11    1    4    4    0    0 -0.11781493914E-01 -0.11915306452E-01 -0.45097027828E-02  0.17360203538E-01  0.51100000000E-03 0.  1.
         11    1    4    4    0    0 -0.10168637047E+00 -0.44289308022E-01 -0.18928203405E-01  0.11251754863E+00  0.51100000000E-03 0. -1.
</event>
<event>
 8    1  0.1094134E+005  0.1043930E+01  0.7957747E-01            NaN
         13   -1    0    0    0    0  0.00000000000E+00  0.00000000000E+00  0.74505805969E-08  0.10566000000E+00  0.10566000000E+00 0.  1.
     999900   -1    0    0    0    0 -0.00000000000E+00 -0.00000000000E+00 -0.74505805969E-08  0.93827000000E+00  0.93827000000E+00 0.  1.
     999902    2    1    2    0    0 -0.11802418207E-01  0.29200550148E-03  0.20283950496E-01  0.10204604242E+01  0.10201905000E+01 0.  0.
     999903    2    3    3    0    0 -0.80292376801E-01 -0.58896251232E-01  0.84893642219E-01  0.13346068547E+00  0.26252426451E-01 0.  0.
         14    1    1    2    0    0  0.11802418207E-01 -0.29200550148E-03 -0.20283950496E-01  0.23469575848E-01  0.00000000000E+00 0. -1.
     999901    1    3    3    0    0  0.68489958594E-01  0.59188256734E-01 -0.64609691723E-01  0.88699973869E+00  0.88000000000E+00 0. -1.
        -11    1    4    4    0    0 -0.31373099855E-01 -0.30608605498E-01  0.22472385459E-01  0.49258779464E-01  0.51100000000E-03 0.  1.
         11    1    4    4    0    0 -0.48919276946E-01 -0.28287645735E-01  0.62421256760E-01  0.84201906003E-01  0.51100000000E-03 0. -1.
</event>
<event>
 8    1  0.1094134E+005  0.1043930E+01  0.7957747E-01            NaN
         13   -1    0    0    0    0  0.00000000000E+00  0.00000000000E+00  0.74505805969E-08  0.10566000000E+00  0.10566000000E+00 0.  1.
     999900   -1    0    0    0    0 -0.00000000000E+00 -0.00000000000E+00 -0.74505805969E-08  0.93827000000E+00  0.93827000000E+00 0.  1.
     999902    2    1    2    0    0 -0.11998141013E-01  0.94693206690E-02 -0.17707845735E-01  0.10205378812E+01  0.10202697564E+01 0.  0.
     999903    2    3    3    0    0 -0.99771717705E-01 -0.55668158616E-02  0.81440023735E-01  0.13050384466E+00  0.20332016929E-01 0.  0.
         14    1    1    2    0    0  0.11998141013E-01 -0.94693206690E-02  0.17707845735E-01  0.23392118807E-01  0.00000000000E+00 0.  1.
     999901    1    3    3    0    0  0.87773576692E-01  0.15036136531E-01 -0.99147869470E-01  0.89003403653E+00  0.88000000000E+00 0.  1.
        -11    1    4    4    0    0 -0.21237629772E-01 -0.73361557105E-02  0.11135432012E-01  0.25082166295E-01  0.51100000000E-03 0.  1.
         11    1    4    4    0    0 -0.78534087933E-01  0.17693398489E-02  0.70304591724E-01  0.10542167837E+00  0.51100000000E-03 0. -1.
</event>
<event>
 8    1  0.1094134E+005  0.1043930E+01  0.7957747E-01            NaN
         13   -1    0    0    0    0  0.00000000000E+00  0.00000000000E+00  0.74505805969E-08  0.10566000000E+00  0.10566000000E+00 0. -1.
     999900   -1    0    0    0    0 -0.00000000000E+00 -0.00000000000E+00 -0.74505805969E-08  0.93827000000E+00  0.93827000000E+00 0. -1.
     999902    2    1    2    0    0  0.99162372515E-02  0.36855069565E-02 -0.21056641843E-01  0.10203652618E+01  0.10200931185E+01 0.  0.
     999903    2    3    3    0    0  0.41771388558E-01 -0.12004211781E+00  0.19996463929E-01  0.13019188916E+00  0.19877386211E-01 0.  0.
         14    1    1    2    0    0 -0.99162372515E-02 -0.36855069565E-02  0.21056641843E-01  0.23564738243E-01  0.00000000000E+00 0. -1.
     999901    1    3    3    0    0 -0.31855151307E-01  0.12372762476E+00 -0.41053105772E-01  0.89017337260E+00  0.88000000000E+00 0. -1.
        -11    1    4    4    0    0  0.28715940585E-01 -0.82219411487E-01  0.42675209244E-02  0.87195812542E-01  0.51100000000E-03 0. -1.
         11    1    4    4    0    0  0.13055447974E-01 -0.37822706320E-01  0.15728943005E-01  0.42996076614E-01  0.51100000000E-03 0.  1.
</event>
<event>
 8    1  0.1094134E+005  0.1043930E+01  0.7957747E-01            NaN
         13   -1    0    0    0    0  0.00000000000E+00  0.00000000000E+00  0.74505805969E-08  0.10566000000E+00  0.10566000000E+00 0. -1.
     999900   -1    0    0    0    0 -0.00000000000E+00 -0.00000000000E+00 -0.74505805969E-08  0.93827000000E+00  0.93827000000E+00 0. -1.
     999902    2    1    2    0    0  0.87841611787E-02 -0.15199721185E-02  0.22845900306E-01  0.10194063999E+01  0.10191113782E+01 0.  0.
     999903    2    3    3    0    0 -0.12068025928E+00 -0.20340925283E-01  0.37259074027E-01  0.12961822056E+00  0.20860639561E-01 0.  0.
         14    1    1    2    0    0 -0.87841611787E-02  0.15199721185E-02 -0.22845900306E-01  0.24523600136E-01  0.00000000000E+00 0.  1.
     999901    1    3    3    0    0  0.12946442046E+00  0.18820953165E-01 -0.14413173721E-01  0.88978817930E+00  0.88000000000E+00 0. -1.
        -11    1    4    4    0    0 -0.80656175549E-01 -0.18277812342E-01  0.15955669443E-01  0.84227914533E-01  0.51100000000E-03 0.  1.
         11    1    4    4    0    0 -0.40024083734E-01 -0.20631129416E-02  0.21303404583E-01  0.45390306031E-01  0.51100000000E-03 0. -1.
</event>
<event>
 8    1  0.1094134E+005  0.1043930E+01  0.7957747E-01            NaN
         13   -1    0    0    0    0  0.00000000000E+00  0.00000000000E+00  0.74505805969E-08  0.10566000000E+00  0.10566000000E+00 0.  1.
     999900   -1    0    0    0    0 -0.00000000000E+00 -0.00000000000E+00 -0.74505805969E-08  0.93827000000E+00  0.93827000000E+00 0. -1.
     999902    2    1    2    0    0 -0.72123238623E-02 -0.17680096720E-01 -0.15949796387E-01  0.10190503006E+01  0.10187465415E+01 0.  0.
     999903    2    3    3    0    0 -0.26445701820E-01 -0.12712977821E+00  0.95232756843E-02  0.13169578693E+00  0.19792217190E-01 0.  0.
         14    1    1    2    0    0  0.72123238623E-02  0.17680096720E-01  0.15949796387E-01  0.24879699362E-01  0.00000000000E+00 0.  1.
     999901    1    3    3    0    0  0.19233377957E-01  0.10944968149E+00 -0.25473072072E-01  0.88735451371E+00  0.88000000000E+00 0.  1.
        -11    1    4    4    0    0 -0.10838129378E-01 -0.31515068480E-01  0.10050235928E-01  0.34812827419E-01  0.51100000000E-03 0.  1.
         11    1    4    4    0    0 -0.15607572442E-01 -0.95614709731E-01 -0.52696024421E-03  0.96882959506E-01  0.51100000000E-03 0. -1.
</event>
<event>
 8    1  0.1094134E+005  0.1043930E+01  0.7957747E-01            NaN
         13   -1    0    0    0    0  0.00000000000E+00  0.00000000000E+00  0.74505805969E-08  0.10566000000E+00  0.10566000000E+00 0.  1.
     999900   -1    0    0    0    0 -0.00000000000E+00 -0.00000000000E+00 -0.74505805969E-08  0.93827000000E+00  0.93827000000E+00 0.  1.
     999902    2    1    2    0    0  0.97612291228E-02  0.90368473802E-02 -0.73176306624E-02  0.10287479737E+01  0.10286359412E+01 0.  0.
     999903    2    3    3    0    0 -0.20746364936E-01 -0.56528954945E-01 -0.12375193069E+00  0.13813777053E+00  0.11898272709E-01 0.  0.
         14    1    1    2    0    0 -0.97612291228E-02 -0.90368473802E-02  0.73176306624E-02  0.15182026316E-01  0.00000000000E+00 0.  1.
     999901    1    3    3    0    0  0.30507594059E-01  0.65565802326E-01  0.11643430003E+00  0.89061020315E+00  0.88000000000E+00 0. -1.
        -11    1    4    4    0    0 -0.69297044513E-02 -0.35582369622E-01 -0.75142661358E-01  0.83431447960E-01  0.51100000000E-03 0.  1.
         11    1    4    4    0    0 -0.13816660484E-01 -0.20946585324E-01 -0.48609269332E-01  0.54706322575E-01  0.51100000000E-03 0. -1.
</event>
<event>
 8    1  0.1094134E+005  0.1043930E+01  0.7957747E-01            NaN
         13   -1    0    0    0    0  0.00000000000E+00  0.00000000000E+00  0.74505805969E-08  0.10566000000E+00  0.10566000000E+00 0.  1.
     999900   -1    0    0    0    0 -0.00000000000E+00 -0.00000000000E+00 -0.74505805969E-08  0.93827000000E+00  0.93827000000E+00 0. -1.
     999902    2    1    2    0    0 -0.19939800152E-01 -0.11164870900E-01 -0.46628600243E-02  0.10206063589E+01  0.10203398196E+01 0.  0.
     999903    2    3    3    0    0  0.90591257508E-01 -0.59904160194E-01 -0.68127025911E-01  0.13008946774E+00  0.22061133497E-01 0.  0.
         14    1    1    2    0    0  0.19939800152E-01  0.11164870900E-01  0.46628600243E-02  0.23323641138E-01  0.00000000000E+00 0.  1.
     999901    1    3    3    0    0 -0.11053105766E+00  0.48739289294E-01  0.63464165887E-01  0.89051689113E+00  0.88000000000E+00 0.  1.
        -11    1    4    4    0    0  0.56063681918E-01 -0.24080700258E-01 -0.35606160325E-01  0.70647550058E-01  0.51100000000E-03 0. -1.
         11    1    4    4    0    0  0.34527575590E-01 -0.35823459935E-01 -0.32520865586E-01  0.59441917679E-01  0.51100000000E-03 0.  1.
</event>
<event>
 8    1  0.1094134E+005  0.1043930E+01  0.7957747E-01            NaN
         13   -1    0    0    0    0  0.00000000000E+00  0.00000000000E+00  0.74505805969E-08  0.10566000000E+00  0.10566000000E+00 0.  1.
     999900   -1    0    0    0    0 -0.00000000000E+00 -0.00000000000E+00 -0.74505805969E-08  0.93827000000E+00  0.93827000000E+00 0. -1.
     999902    2    1    2    0    0 -0.10940787760E-01 -0.12742978208E-01  0.16980742623E-01  0.10200463246E+01  0.10197666764E+01 0.  0.
     999903    2    3    3    0    0  0.12724739452E+00 -0.99485066124E-02  0.66648113949E-02  0.12919830096E+00  0.18892037060E-01 0.  0.
         14    1    1    2    0    0  0.10940787760E-01  0.12742978208E-01 -0.16980742623E-01  0.23883675396E-01  0.00000000000E+00 0. -1.
     999901    1    3    3    0    0 -0.13818818228E+00 -0.27944715959E-02  0.10315931228E-01  0.89084802364E+00  0.88000000000E+00 0.  1.
        -11    1    4    4    0    0  0.55416400387E-01 -0.13714786220E-01  0.24297737160E-02  0.57142258567E-01  0.51100000000E-03 0.  1.
         11    1    4    4    0    0  0.71830994132E-01  0.37662796072E-02  0.42350376789E-02  0.72056042392E-01  0.51100000000E-03 0. -1.
</event>
<event>
 8    1  0.1094134E+005  0.1043930E+01  0.7957747E-01            NaN
         13   -1    0    0    0    0  0.00000000000E+00  0.00000000000E+00  0.74505805969E-08  0.10566000000E+00  0.10566000000E+00 0. -1.
     999900   -1    0    0    0    0 -0.00000000000E+00 -0.00000000000E+00 -0.74505805969E-08  0.93827000000E+00  0.93827000000E+00 0. -1.
     999902    2    1    2    0    0  0.53625043420E-02  0.45381858578E-02  0.22411524378E-01  0.10204432376E+01  0.10201729133E+01 0.  0.
     999903    2    3    3    0    0 -0.81780555615E-01 -0.90002155523E-01  0.43847989963E-01  0.13084146651E+00  0.20208806473E-01 0.  0.
         14    1    1    2    0    0 -0.53625043420E-02 -0.45381858578E-02 -0.22411524378E-01  0.23486762413E-01  0.00000000000E+00 0.  1.
     999901    1    3    3    0    0  0.87143059957E-01  0.94540341381E-01 -0.21436465585E-01  0.88960177108E+00  0.88000000000E+00 0. -1.
        -11    1    4    4    0    0 -0.39659258667E-01 -0.30815994625E-01  0.12756412682E-01  0.51821515881E-01  0.51100000000E-03 0.  1.
         11    1    4    4    0    0 -0.42121296949E-01 -0.59186160898E-01  0.31091577281E-01  0.79019950628E-01  0.51100000000E-03 0. -1.
</event>
<event>
 8    1  0.1094134E+005  0.1043930E+01  0.7957747E-01            NaN
         13   -1    0    0    0    0  0.00000000000E+00  0.00000000000E+00  0.74505805969E-08  0.10566000000E+00  0.10566000000E+00 0. -1.
     999900   -1    0    0    0    0 -0.00000000000E+00 -0.00000000000E+00 -0.74505805969E-08  0.93827000000E+00  0.93827000000E+00 0.  1.
     999902    2    1    2    0    0 -0.19966092520E-01  0.97590364773E-02  0.82143290343E-02  0.10202369874E+01  0.10199618383E+01 0.  0.
     999903    2    3    3    0    0  0.34468940732E-01 -0.12237009670E+00  0.92193002100E-02  0.12870892244E+00  0.17844965070E-01 0.  0.
         14    1    1    2    0    0  0.19966092520E-01 -0.97590364773E-02 -0.82143290343E-02  0.23693012577E-01  0.00000000000E+00 0. -1.
     999901    1    3    3    0    0 -0.54435033252E-01  0.13212913318E+00 -0.10049711758E-02  0.89152806498E+00  0.88000000000E+00 0.  1.
        -11    1    4    4    0    0  0.10122598327E-03 -0.26079210015E-01  0.33555043184E-02  0.26299353071E-01  0.51100000000E-03 0.  1.
         11    1    4    4    0    0  0.34367714748E-01 -0.96290886686E-01  0.58637958916E-02  0.10240956937E+00  0.51100000000E-03 0. -1.
</event>
<event>
 8    1  0.1094134E+005  0.1043930E+01  0.7957747E-01            NaN
         13   -1    0    0    0    0  0.00000000000E+00  0.00000000000E+00  0.74505805969E-08  0.10566000000E+00  0.10566000000E+00 0. -1.
     999900   -1    0    0    0    0 -0.00000000000E+00 -0.00000000000E+00 -0.74505805969E-08  0.93827000000E+00  0.93827000000E+00 0.  1.
     999902    2    1    2    0    0  0.22927895430E-01  0.15981674158E-02 -0.20510641963E-01  0.10131253094E+01  0.10126568835E+01 0.  0.
     999903    2    3    3    0    0 -0.54906345069E-01 -0.29963168095E-01 -0.10623132384E+00  0.12497986965E+00  0.20551775630E-01 0.  0.
         14    1    1    2    0    0 -0.22927895430E-01 -0.15981674158E-02  0.20510641963E-01  0.30804690579E-01  0.00000000000E+00 0. -1.
     999901    1    3    3    0    0  0.77834240499E-01  0.31561335511E-01  0.85720681873E-01  0.88814543978E+00  0.88000000000E+00 0. -1.
        -11    1    4    4    0    0 -0.33084469089E-01 -0.11521025672E-01 -0.42113252597E-01  0.54782326463E-01  0.51100000000E-03 0.  1.
         11    1    4    4    0    0 -0.21821875980E-01 -0.18442142423E-01 -0.64118071239E-01  0.70197543182E-01  0.51100000000E-03 0. -1.
</event>
<event>
 8    1  0.1094134E+005  0.1043930E+01  0.7957747E-01            NaN
         13   -1    0    0    0    0  0.00000000000E+00  0.00000000000E+00  0.74505805969E-08  0.10566000000E+00  0.10566000000E+00 0.  1.
     999900   -1    0    0    0    0 -0.00000000000E+00 -0.00000000000E+00 -0.74505805969E-08  0.93827000000E+00  0.93827000000E+00 0.  1.
     999902    2    1    2    0    0 -0.51523825938E-02 -0.12028580913E-01 -0.20100204826E-01  0.10199455876E+01  0.10196635472E+01 0.  0.
     999903    2    3    3    0    0  0.33212599733E-01 -0.11895685889E+00  0.37844292843E-01  0.13075320496E+00  0.20258308113E-01 0.  0.
         14    1    1    2    0    0  0.51523825938E-02  0.12028580913E-01  0.20100204826E-01  0.23984412422E-01  0.00000000000E+00 0.  1.
     999901    1    3    3    0    0 -0.38364982326E-01  0.10692827798E+00 -0.57944497669E-01  0.88919238262E+00  0.88000000000E+00 0.  1.
        -11    1    4    4    0    0  0.65921229512E-02 -0.45636760821E-01  0.22268409828E-01  0.51208526834E-01  0.51100000000E-03 0.  1.
         11    1    4    4    0    0  0.26620476781E-01 -0.73320098070E-01  0.15575883015E-01  0.79544678123E-01  0.51100000000E-03 0. -1.
</event>
<event>
 8    1  0.1094134E+005  0.1043930E+01  0.7957747E-01            NaN
         13   -1    0    0    0    0  0.00000000000E+00  0.00000000000E+00  0.74505805969E-08  0.10566000000E+00  0.10566000000E+00 0.  1.
     999900   -1    0    0    0    0 -0.00000000000E+00 -0.00000000000E+00 -0.74505805969E-08  0.93827000000E+00  0.93827000000E+00 0. -1.
     999902    2    1    2    0    0  0.79263174707E-02  0.15974543828E-01  0.13472120697E-01  0.10215802663E+01  0.10213357577E+01 0.  0.
     999903    2    3    3    0    0  0.76865796669E-01 -0.44558213043E-01 -0.93091045527E-01  0.13041665910E+00  0.21184361385E-01 0.  0.
         14    1    1    2    0    0 -0.79263174707E-02 -0.15974543828E-01 -0.13472120697E-01  0.22349733672E-01  0.00000000000E+00 0. -1.
     999901    1    3    3    0    0 -0.68939479198E-01  0.60532756871E-01  0.10656316622E+00  0.89116360722E+00  0.88000000000E+00 0.  1.
        -11    1    4    4    0    0  0.54269319895E-01 -0.34910214831E-01 -0.79293262528E-01  0.10223289483E+00  0.51100000000E-03 0.  1.
         11    1    4    4    0    0  0.22596476774E-01 -0.96479982115E-02 -0.13797782999E-01  0.28183764276E-01  0.51100000000E-03 0. -1.
</event>
<event>
 8    1  0.1094134E+005  0.1043930E+01  0.7957747E-01            NaN
         13   -1    0    0    0    0  0.00000000000E+00  0.00000000000E+00  0.74505805969E-08  0.10566000000E+00  0.10566000000E+00 0. -1.
     999900   -1    0    0    0    0 -0.00000000000E+00 -0.00000000000E+00 -0.74505805969E-08  0.93827000000E+00  0.93827000000E+00 0.  1.
     999902    2    1    2    0    0  0.86832359556E-02 -0.10237193767E-01  0.19289428546E-01  0.10204293452E+01  0.10201586973E+01 0.  0.
     999903    2    3    3    0    0  0.36541172638E-01 -0.38756932995E-01  0.12117906241E+00  0.13365376047E+00  0.18482569346E-01 0.  0.
         14    1    1    2    0    0 -0.86832359556E-02  0.10237193767E-01 -0.19289428546E-01  0.23500654811E-01  0.00000000000E+00 0.  1.
     999901    1    3    3    0    0 -0.27857936682E-01  0.28519739228E-01 -0.10188963386E+00  0.88677558472E+00  0.88000000000E+00 0.  1.
        -11    1    4    4    0    0  0.24301331530E-01 -0.28186836290E-01  0.62106378567E-01  0.72405219659E-01  0.51100000000E-03 0.  1.
         11    1    4    4    0    0  0.12239841108E-01 -0.10570096705E-01  0.59072683840E-01  0.61248540814E-01  0.51100000000E-03 0. -1.
</event>
<event>
 8    1  0.1094134E+005  0.1043930E+01  0.7957747E-01            NaN
         13   -1    0    0    0    0  0.00000000000E+00  0.00000000000E+00  0.74505805969E-08  0.10566000000E+00  0.10566000000E+00 0. -1.
     999900   -1    0    0    0    0 -0.00000000000E+00 -0.00000000000E+00 -0.74505805969E-08  0.93827000000E+00  0.93827000000E+00 0.  1.
     999902    2    1    2    0    0  0.21839222921E-03  0.13074899375E-01 -0.19842295293E-01  0.10201662172E+01  0.10198894025E+01 0.  0.
     999903    2    3    3    0    0  0.31639112908E-01 -0.11249129891E+00 -0.53211359854E-01  0.13007205013E+00  0.20783734311E-01 0.  0.
         14    1    1    2    0    0 -0.21839222921E-03 -0.13074899375E-01  0.19842295293E-01  0.23763782766E-01  0.00000000000E+00 0. -1.
     999901    1    3    3    0    0 -0.31420720679E-01  0.12556619829E+00  0.33369064560E-01  0.89009416710E+00  0.88000000000E+00 0. -1.
        -11    1    4    4    0    0  0.12677431444E-01 -0.70803151947E-01 -0.24370942221E-01  0.75947399820E-01  0.51100000000E-03 0. -1.
         11    1    4    4    0    0  0.18961681464E-01 -0.41688146963E-01 -0.28840417633E-01  0.54124650312E-01  0.51100000000E-03 0.  1.
</event>
<event>
 8    1  0.1094134E+005  0.1043930E+01  0.7957747E-01            NaN
         13   -1    0    0    0    0  0.00000000000E+00  0.00000000000E+00  0.74505805969E-08  0.10566000000E+00  0.10566000000E+00 0.  1.
     999900   -1    0    0    0    0 -0.00000000000E+00 -0.00000000000E+00 -0.74505805969E-08  0.93827000000E+00  0.93827000000E+00 0. -1.
     999902    2    1    2    0    0  0.96032459764E-02  0.14484853052E-01  0.16026955540E-01  0.10202890058E+01  0.10200150777E+01 0.  0.
     999903    2    3    3    0    0 -0.10053039498E+00  0.41178628511E-01  0.70631325399E-01  0.13134378046E+00  0.21456112773E-01 0.  0.
         14    1    1    2    0    0 -0.96032459764E-02 -0.14484853052E-01 -0.16026955540E-01  0.23640994164E-01  0.00000000000E+00 0. -1.
     999901    1    3    3    0    0  0.11013364096E+00 -0.26693775460E-01 -0.54604369859E-01  0.88894522538E+00  0.88000000000E+00 0. -1.
        -11    1    4    4    0    0 -0.58885512427E-01  0.31403734632E-01  0.52355860473E-01  0.84823908006E-01  0.51100000000E-03 0.  1.
         11    1    4    4    0    0 -0.41644882556E-01  0.97748938793E-02  0.18275464926E-01  0.46519872449E-01  0.51100000000E-03 0. -1.
</event>
<event>
 8    1  0.1094134E+005  0.1043930E+01  0.7957747E-01            NaN
         13   -1    0    0    0    0  0.00000000000E+00  0.00000000000E+00  0.74505805969E-08  0.10566000000E+00  0.10566000000E+00 0. -1.
     999900   -1    0    0    0    0 -0.00000000000E+00 -0.00000000000E+00 -0.74505805969E-08  0.93827000000E+00  0.93827000000E+00 0. -1.
     999902    2    1    2    0    0 -0.31861558042E-02 -0.13893820805E-01  0.18752642442E-01  0.10203747152E+01  0.10201027928E+01 0.  0.
     999903    2    3    3    0    0  0.68640309851E-03  0.11588575003E+00  0.56029755058E-01  0.13006728688E+00  0.18659781805E-01 0.  0.
         14    1    1    2    0    0  0.31861558042E-02  0.13893820805E-01 -0.18752642442E-01  0.23555284840E-01  0.00000000000E+00 0.  1.
     999901    1    3    3    0    0 -0.38725589027E-02 -0.12977957083E+00 -0.37277112616E-01  0.89030742828E+00  0.88000000000E+00 0.  1.
        -11    1    4    4    0    0 -0.76264818558E-02  0.34451649660E-01  0.20674932666E-01  0.40899796473E-01  0.51100000000E-03 0. -1.
         11    1    4    4    0    0  0.83128849543E-02  0.81434100367E-01  0.35354822392E-01  0.89167490411E-01  0.51100000000E-03 0.  1.
</event>
<event>
 8    1  0.1094134E+005  0.1043930E+01  0.7957747E-01            NaN
         13   -1    0    0    0    0  0.00000000000E+00  0.00000000000E+00  0.74505805969E-08  0.10566000000E+00  0.10566000000E+00 0.  1.
     999900   -1    0    0    0    0 -0.00000000000E+00 -0.00000000000E+00 -0.74505805969E-08  0.93827000000E+00  0.93827000000E+00 0. -1.
     999902    2    1    2    0    0 -0.39214639979E-03  0.15741590771E-01 -0.14170597544E-01  0.10227461077E+01  0.10225266957E+01 0.  0.
     999903    2    3    3    0    0 -0.97455579888E-01 -0.15481055771E-01 -0.88068461176E-01  0.13378207128E+00  0.20108097934E-01 0.  0.
         14    1    1    2    0    0  0.39214639979E-03 -0.15741590771E-01  0.14170597544E-01  0.21183892314E-01  0.00000000000E+00 0.  1.
     999901    1    3    3    0    0  0.97063433489E-01  0.31222646542E-01  0.73897863632E-01  0.88896403641E+00  0.88000000000E+00 0.  1.
        -11    1    4    4    0    0 -0.66171176987E-01 -0.81839942369E-02 -0.46708876829E-01  0.81409966964E-01  0.51100000000E-03 0. -1.
         11    1    4    4    0    0 -0.31284402901E-01 -0.72970615340E-02 -0.41359584347E-01  0.52372104314E-01  0.51100000000E-03 0.  1.
</event>
<event>
 8    1  0.1094134E+005  0.1043930E+01  0.7957747E-01            NaN
         13   -1    0    0    0    0  0.00000000000E+00  0.00000000000E+00  0.74505805969E-08  0.10566000000E+00  0.10566000000E+00 0.  1.
     999900   -1    0    0    0    0 -0.00000000000E+00 -0.00000000000E+00 -0.74505805969E-08  0.93827000000E+00  0.93827000000E+00 0. -1.
     999902    2    1    2    0    0  0.10023656980E-01  0.16985552435E-01  0.15230980944E-01  0.10190108212E+01  0.10187060853E+01 0.  0.
     999903    2    3    3    0    0 -0.78197355581E-02 -0.77577267470E-01  0.10213506654E+00  0.12950936891E+00  0.16177890004E-01 0.  0.
         14    1    1    2    0    0 -0.10023656980E-01 -0.16985552435E-01 -0.15230980944E-01  0.24919178784E-01  0.00000000000E+00 0. -1.
     999901    1    3    3    0    0  0.17843392538E-01  0.94562819904E-01 -0.86904085597E-01  0.88950145231E+00  0.88000000000E+00 0. -1.
        -11    1    4    4    0    0 -0.12064396379E-02 -0.89054730185E-02  0.21980911027E-01  0.23752568637E-01  0.51100000000E-03 0. -1.
         11    1    4    4    0    0 -0.66132959202E-02 -0.68671794451E-01  0.80154155514E-01  0.10575680027E+00  0.51100000000E-03 0.  1.
</event>
<event>
 8    1  0.1094134E+005  0.1043930E+01  0.7957747E-01            NaN
         13   -1    0    0    0    0  0.00000000000E+00  0.00000000000E+00  0.74505805969E-08  0.10566000000E+00  0.10566000000E+00 0. -1.
     999900   -1    0    0    0    0 -0.00000000000E+00 -0.00000000000E+00 -0.74505805969E-08  0.93827000000E+00  0.93827000000E+00 0.  1.
     999902    2    1    2    0    0  0.92298899552E-02 -0.21150787214E-01  0.10742854507E-03  0.10208527773E+01  0.10205919041E+01 0.  0.
     999903    2    3    3    0    0 -0.85805758347E-01  0.36267617348E-01 -0.87556043081E-01  0.12955398792E+00  0.20981107500E-01 0.  0.
         14    1    1    2    0    0 -0.92298899552E-02  0.21150787214E-01 -0.10742854507E-03  0.23077222737E-01  0.00000000000E+00 0.  1.
     999901    1    3    3    0    0  0.95035648302E-01 -0.57418404562E-01  0.87663471626E-01  0.89129878935E+00  0.88000000000E+00 0. -1.
        -11    1    4    4    0    0 -0.59228040999E-01  0.14156503652E-01 -0.54774576242E-01  0.81907769837E-01  0.51100000000E-03 0. -1.
         11    1    4    4    0    0 -0.26577717348E-01  0.22111113696E-01 -0.32781466839E-01  0.47646218081E-01  0.51100000000E-03 0.  1.
</event>
<event>
 8    1  0.1094134E+005  0.1043930E+01  0.7957747E-01            NaN
         13   -1    0    0    0    0  0.00000000000E+00  0.00000000000E+00  0.74505805969E-08  0.10566000000E+00  0.10566000000E+00 0.  1.
     999900   -1    0    0    0    0 -0.00000000000E+00 -0.00000000000E+00 -0.74505805969E-08  0.93827000000E+00  0.93827000000E+00 0.  1.
     999902    2    1    2    0    0 -0.43767151546E-02 -0.25478002576E-01  0.26197052158E-02  0.10179464070E+01  0.10176147308E+01 0.  0.
     999903    2    3    3    0    0 -0.68278873020E-01 -0.44619483691E-01  0.99325178164E-01  0.13013909085E+00  0.20439890499E-01 0.  0.
         14    1    1    2    0    0  0.43767151546E-02  0.25478002576E-01 -0.26197052158E-02  0.25983593020E-01  0.00000000000E+00 0. -1.
     999901    1    3    3    0    0  0.63902157865E-01  0.19141481115E-01 -0.96705472949E-01  0.88780731613E+00  0.88000000000E+00 0.  1.
        -11    1    4    4    0    0 -0.62447355110E-01 -0.35613027533E-01  0.76878268288E-01  0.10525440203E+00  0.51100000000E-03 0.  1.
         11    1    4    4    0    0 -0.58315179097E-02 -0.90064561580E-02  0.22446909876E-01  0.24884688820E-01  0.51100000000E-03 0. -1.
</event>
<event>
 8    1  0.1094134E+005  0.1043930E+01  0.7957747E-01            NaN
         13   -1    0    0    0    0  0.00000000000E+00  0.00000000000E+00  0.74505805969E-08  0.10566000000E+00  0.10566000000E+00 0. -1.
     999900   -1    0    0    0    0 -0.00000000000E+00 -0.00000000000E+00 -0.74505805969E-08  0.93827000000E+00  0.93827000000E+00 0.  1.
     999902    2    1    2    0    0 -0.12958721114E-01 -0.12722633401E-01 -0.18490392552E-01  0.10180130467E+01  0.10176830915E+01 0.  0.
     999903    2    3    3    0    0 -0.90560740629E-01 -0.73065372515E-01 -0.58332543127E-01  0.13164364480E+00  0.19686727116E-01 0.  0.
         14    1    1    2    0    0  0.12958721114E-01  0.12722633401E-01  0.18490392552E-01  0.25916953337E-01  0.00000000000E+00 0. -1.
     999901    1    3    3    0    0  0.77602019515E-01  0.60342739114E-01  0.39842150575E-01  0.88636940186E+00  0.88000000000E+00 0.  1.
        -11    1    4    4    0    0 -0.31362426227E-01 -0.14770691631E-01 -0.13247120327E-01  0.37114989263E-01  0.51100000000E-03 0.  1.
         11    1    4    4    0    0 -0.59198314402E-01 -0.58294680885E-01 -0.45085422800E-01  0.94528655536E-01  0.51100000000E-03 0. -1.
</event>
<event>
 8    1  0.1094134E+005  0.1043930E+01  0.7957747E-01            NaN
         13   -1    0    0    0    0  0.00000000000E+00  0.00000000000E+00  0.74505805969E-08  0.10566000000E+00  0.10566000000E+00 0.  1.
     999900   -1    0    0    0    0 -0.00000000000E+00 -0.00000000000E+00 -0.74505805969E-08  0.93827000000E+00  0.93827000000E+00 0. -1.
     999902    2    1    2    0    0 -0.41441833001E-02  0.26171587438E-01  0.30301541229E-02  0.10172596405E+01  0.10169099606E+01 0.  0.
     999903    2    3    3    0    0 -0.96426884988E-01 -0.70214559761E-01  0.37503848146E-01  0.12653250941E+00  0.19383208211E-01 0.  0.
         14    1    1    2    0    0  0.41441833001E-02 -0.26171587438E-01 -0.30301541229E-02  0.26670359545E-01  0.00000000000E+00 0. -1.
     999901    1    3    3    0    0  0.92282701688E-01  0.96386147199E-01 -0.34473694023E-01  0.89072713105E+00  0.88000000000E+00 0. -1.
        -11    1    4    4    0    0 -0.31123674014E-01 -0.33846667996E-01  0.16958026271E-01  0.49011384337E-01  0.51100000000E-03 0.  1.
         11    1    4    4    0    0 -0.65303210974E-01 -0.36367891765E-01  0.20545821875E-01  0.77521125072E-01  0.51100000000E-03 0. -1.
</event>
<event>
 8    1  0.1094134E+005  0.1043930E+01  0.7957747E-01            NaN
         13   -1    0    0    0    0  0.00000000000E+00  0.00000000000E+00  0.74505805969E-08  0.10566000000E+00  0.10566000000E+00 0. -1.
     999900   -1    0    0    0    0 -0.00000000000E+00 -0.00000000000E+00 -0.74505805969E-08  0.93827000000E+00  0.93827000000E+00 0.  1.
     999902    2    1    2    0    0  0.21704083808E-01  0.95506898265E-02 -0.21930136726E-02  0.10201163014E+01  0.10198383089E+01 0.  0.
     999903    2    3    3    0    0  0.10133267230E+00  0.60568167647E-01 -0.58674317861E-01  0.13324898731E+00  0.19385655397E-01 0.  0.
         14    1    1    2    0    0 -0.21704083808E-01 -0.95506898265E-02  0.21930136726E-02  0.23813698559E-01  0.00000000000E+00 0. -1.
     999901    1    3    3    0    0 -0.79628588493E-01 -0.51017477821E-01  0.56481304189E-01  0.88686731413E+00  0.88000000000E+00 0. -1.
        -11    1    4    4    0    0  0.51261225117E-01  0.34124999587E-01 -0.40781119143E-01  0.73861963127E-01  0.51100000000E-03 0.  1.
         11    1    4    4    0    0  0.50071447184E-01  0.26443168061E-01 -0.17893198718E-01  0.59387024184E-01  0.51100000000E-03 0. -1.
</event>
<event>
 8    1  0.1094134E+005  0.1043930E+01  0.7957747E-01            NaN
         13   -1    0    0    0    0  0.00000000000E+00  0.00000000000E+00  0.74505805969E-08  0.10566000000E+00  0.10566000000E+00 0.  1.
     999900   -1    0    0    0    0 -0.00000000000E+00 -0.00000000000E+00 -0.74505805969E-08  0.93827000000E+00  0.93827000000E+00 0.  1.
     999902    2    1    2    0    0 -0.15451533085E-01  0.55591632554E-02  0.16726323508E-01  0.10204902033E+01  0.10202209716E+01 0.  0.
     999903    2    3    3    0    0  0.70379662911E-01  0.19267171630E-01 -0.10343910969E+00  0.12808074850E+00  0.19506610895E-01 0.  0.
         14    1    1    2    0    0  0.15451533085E-01 -0.55591632554E-02 -0.16726323508E-01  0.23439796690E-01  0.00000000000E+00 0. -1.
     999901    1    3    3    0    0 -0.85831195996E-01 -0.13708008375E-01  0.12016543320E+00  0.89240945481E+00  0.88000000000E+00 0. -1.
        -11    1    4    4    0    0  0.55400251730E-01  0.85844924174E-02 -0.67864986807E-01  0.88027262579E-01  0.51100000000E-03 0. -1.
         11    1    4    4    0    0  0.14979411181E-01  0.10682679213E-01 -0.35574122883E-01  0.40053485920E-01  0.51100000000E-03 0.  1.
</event>
<event>
 8    1  0.1094134E+005  0.1043930E+01  0.7957747E-01            NaN
         13   -1    0    0    0    0  0.00000000000E+00  0.00000000000E+00  0.74505805969E-08  0.10566000000E+00  0.10566000000E+00 0. -1.
     999900   -1    0    0    0    0 -0.00000000000E+00 -0.00000000000E+00 -0.74505805969E-08  0.93827000000E+00  0.93827000000E+00 0.  1.
     999902    2    1    2    0    0  0.49514743958E-02  0.50724802178E-02  0.22397270526E-01  0.10204377698E+01  0.10201673182E+01 0.  0.
     999903    2    3    3    0    0  0.11298016828E+00 -0.35259608324E-01 -0.49979777773E-01  0.12996861635E+00  0.19649545690E-01 0.  0.
         14    1    1    2    0    0 -0.49514743958E-02 -0.50724802178E-02 -0.22397270526E-01  0.23492230232E-01  0.00000000000E+00 0.  1.
     999901    1    3    3    0    0 -0.10802869388E+00  0.40332088542E-01  0.72377048300E-01  0.89046915342E+00  0.88000000000E+00 0. -1.
        -11    1    4    4    0    0  0.81583973220E-02 -0.57675341906E-02  0.34308892276E-03  0.10010131293E-01  0.51100000000E-03 0. -1.
         11    1    4    4    0    0  0.10482177096E+00 -0.29492074133E-01 -0.50322866696E-01  0.11995848506E+00  0.51100000000E-03 0.  1.
</event>
<event>
 8    1  0.1094134E+005  0.1043930E+01  0.7957747E-01            NaN
         13   -1    0    0    0    0  0.00000000000E+00  0.00000000000E+00  0.74505805969E-08  0.10566000000E+00  0.10566000000E+00 0.  1.
     999900   -1    0    0    0    0 -0.00000000000E+00 -0.00000000000E+00 -0.74505805969E-08  0.93827000000E+00  0.93827000000E+00 0. -1.
     999902    2    1    2    0    0 -0.88585361865E-02  0.12140404698E-01  0.13474005849E-01  0.10237455524E+01  0.10235465521E+01 0.  0.
     999903    2    3    3    0    0  0.12687877632E+00  0.27563487420E-01 -0.20400985564E-01  0.13256094501E+00  0.17269458903E-01 0.  0.
         14    1    1    2    0    0  0.88585361865E-02 -0.12140404698E-01 -0.13474005849E-01  0.20184447558E-01  0.00000000000E+00 0. -1.
     999901    1    3    3    0    0 -0.13573731250E+00 -0.15423082722E-01  0.33874991413E-01  0.89118460744E+00  0.88000000000E+00 0.  1.
        -11    1    4    4    0    0  0.59882100166E-01  0.89060942561E-02 -0.18050982739E-02  0.60569826944E-01  0.51100000000E-03 0. -1.
         11    1    4    4    0    0  0.66996676150E-01  0.18657393164E-01 -0.18595887291E-01  0.71991118063E-01  0.51100000000E-03 0.  1.
</event>
<event>
 8    1  0.1094134E+005  0.1043930E+01  0.7957747E-01            NaN
         13   -1    0    0    0    0  0.00000000000E+00  0.00000000000E+00  0.74505805969E-08  0.10566000000E+00  0.10566000000E+00 0. -1.
     999900   -1    0    0    0    0 -0.00000000000E+00 -0.00000000000E+00 -0.74505805969E-08  0.93827000000E+00  0.93827000000E+00 0. -1.
     999902    2    1    2    0    0 -0.31792810273E-02 -0.22245593370E-01  0.19794969406E-02  0.10213713507E+01  0.10211221980E+01 0.  0.
     999903    2    3    3    0    0 -0.72931600695E-01  0.98964673407E-01 -0.36246973741E-01  0.12950892969E+00  0.18592869618E-01 0.  0.
         14    1    1    2    0    0  0.31792810273E-02  0.22245593370E-01 -0.19794969406E-02  0.22558649348E-01  0.00000000000E+00 0.  1.
     999901    1    3    3    0    0  0.69752319668E-01 -0.12121026678E+00  0.38226470682E-01  0.89186242097E+00  0.88000000000E+00 0.  1.
        -11    1    4    4    0    0 -0.59163943805E-01  0.89190887468E-01 -0.27599646156E-01  0.11053229502E+00  0.51100000000E-03 0.  1.
         11    1    4    4    0    0 -0.13767656890E-01  0.97737859390E-02 -0.86473275846E-02  0.18976634664E-01  0.51100000000E-03 0. -1.
</event>
<event>
 7    1  0.1094134E+005  0.1043930E+01  0.7957747E-01            NaN
         13   -1    0    0    0    0  0.00000000000E+00  0.00000000000E+00  0.74505805969E-08  0.10566000000E+00  0.10566000000E+00 0.  1.
     999900   -1    0    0    0    0 -0.00000000000E+00 -0.00000000000E+00 -0.74505805969E-08  0.93827000000E+00  0.93827000000E+00 0.  1.
     999903    2    1    2    0    0 -0.11007540614E+00  0.79490355078E-02 -0.36618675465E-01  0.11798237934E+00  0.19978294199E-01 0.  0.
         14    1    1    2    0    0  0.13011219204E-02  0.24430391162E-01  0.29900694802E-01  0.38634032668E-01  0.00000000000E+00 0. -1.
     999901    1    1    2    0    0  0.10877428422E+00 -0.32379426670E-01  0.67179806632E-02  0.88731358800E+00  0.88000000000E+00 0. -1.
        -11    1    3    3    0    0 -0.87825585064E-01  0.72031832828E-02 -0.20451049004E-01  0.90463947336E-01  0.51100000000E-03 0. -1.
         11    1    3    3    0    0 -0.22249821073E-01  0.74585222497E-03 -0.16167626461E-01  0.27518432000E-01  0.51100000000E-03 0.  1.
</event>
<event>
 8    1  0.1094134E+005  0.1043930E+01  0.7957747E-01            NaN
         13   -1    0    0    0    0  0.00000000000E+00  0.00000000000E+00  0.74505805969E-08  0.10566000000E+00  0.10566000000E+00 0.  1.
     999900   -1    0    0    0    0 -0.00000000000E+00 -0.00000000000E+00 -0.74505805969E-08  0.93827000000E+00  0.93827000000E+00 0. -1.
     999902    2    1    2    0    0 -0.54768813101E-03 -0.22014330441E-01 -0.81861760018E-02  0.10204365076E+01  0.10201660266E+01 0.  0.
     999903    2    3    3    0    0  0.11687279113E+00  0.28165880160E-02 -0.55643222504E-01  0.13102304092E+00  0.20091952804E-01 0.  0.
         14    1    1    2    0    0  0.54768813101E-03  0.22014330441E-01  0.81861760018E-02  0.23493492388E-01  0.00000000000E+00 0. -1.
     999901    1    3    3    0    0 -0.11742047926E+00 -0.24830918457E-01  0.47457046503E-01  0.88941346669E+00  0.88000000000E+00 0.  1.
        -11    1    4    4    0    0  0.35966765693E-01 -0.83472937825E-02 -0.16207337060E-01  0.40326473234E-01  0.51100000000E-03 0.  1.
         11    1    4    4    0    0  0.80906025439E-01  0.11163881798E-01 -0.39435885445E-01  0.90696567691E-01  0.51100000000E-03 0. -1.
</event>
<event>
 8    1  0.1094134E+005  0.1043930E+01  0.7957747E-01            NaN
         13   -1    0    0    0    0  0.00000000000E+00  0.00000000000E+00  0.74505805969E-08  0.10566000000E+00  0.10566000000E+00 0. -1.
     999900   -1    0    0    0    0 -0.00000000000E+00 -0.00000000000E+00 -0.74505805969E-08  0.93827000000E+00  0.93827000000E+00 0.  1.
     999902    2    1    2    0    0 -0.10000346961E-01 -0.15019053226E-01  0.16443911977E-01  0.10195172750E+01  0.10192249472E+01 0.  0.
     999903    2    3    3    0    0 -0.38179563925E-01  0.10246006236E+00  0.67086782354E-01  0.12982063506E+00  0.19925296476E-01 0.  0.
         14    1    1    2    0    0  0.10000346961E-01  0.15019053226E-01 -0.16443911977E-01  0.24412724966E-01  0.00000000000E+00 0. -1.
     999901    1    3    3    0    0  0.28179216964E-01 -0.11747911559E+00 -0.50642870378E-01  0.88969663998E+00  0.88000000000E+00 0.  1.
        -11    1    4    4    0    0 -0.31569564869E-01  0.57992078346E-01  0.36546978820E-01  0.75469605529E-01  0.51100000000E-03 0. -1.
         11    1    4    4    0    0 -0.66099990557E-02  0.44467984013E-01  0.30539803535E-01  0.54351029527E-01  0.51100000000E-03 0.  1.
</event>
<event>
 8    1  0.1094134E+005  0.1043930E+01  0.7957747E-01            NaN
         13   -1    0    0    0    0  0.00000000000E+00  0.00000000000E+00  0.74505805969E-08  0.10566000000E+00  0.10566000000E+00 0.  1.
     999900   -1    0    0    0    0 -0.00000000000E+00 -0.00000000000E+00 -0.74505805969E-08  0.93827000000E+00  0.93827000000E+00 0.  1.
     999902    2    1    2    0    0 -0.10917254923E-01 -0.15029217053E-01  0.14112004668E-01  0.10206016375E+01  0.10203349891E+01 0.  0.
     999903    2    3    3    0    0  0.20220519850E-01 -0.65052111568E-01  0.11223428454E+00  0.13318976426E+00  0.22412764999E-01 0.  0.
         14    1    1    2    0    0  0.10917254923E-01  0.15029217053E-01 -0.14112004668E-01  0.23328362480E-01  0.00000000000E+00 0. -1.
     999901    1    3    3    0    0 -0.31137774773E-01  0.50022894515E-01 -0.98122279873E-01  0.88741187326E+00  0.88000000000E+00 0.  1.
        -11    1    4    4    0    0  0.10220024569E-01 -0.47929815317E-01  0.60997525251E-01  0.78247525879E-01  0.51100000000E-03 0. -1.
         11    1    4    4    0    0  0.10000495281E-01 -0.17122296251E-01  0.51236759291E-01  0.54942238382E-01  0.51100000000E-03 0.  1.
</event>
<event>
 8    1  0.1094134E+005  0.1043930E+01  0.7957747E-01            NaN
         13   -1    0    0    0    0  0.00000000000E+00  0.00000000000E+00  0.74505805969E-08  0.10566000000E+00  0.10566000000E+00 0.  1.
     999900   -1    0    0    0    0 -0.00000000000E+00 -0.00000000000E+00 -0.74505805969E-08  0.93827000000E+00  0.93827000000E+00 0.  1.
     999902    2    1    2    0    0 -0.15436860710E-01  0.17664680006E-01 -0.37410539779E-02  0.10201743044E+01  0.10198976803E+01 0.  0.
     999903    2    3    3    0    0  0.37848320454E-01  0.10809486297E+00 -0.62375816083E-01  0.13199922941E+00  0.20397533438E-01 0.  0.
         14    1    1    2    0    0  0.15436860710E-01 -0.17664680006E-01  0.37410539779E-02  0.23755695594E-01  0.00000000000E+00 0.  1.
     999901    1    3    3    0    0 -0.53285181164E-01 -0.90430182964E-01  0.58634762105E-01  0.88817507500E+00  0.88000000000E+00 0. -1.
        -11    1    4    4    0    0  0.10208681482E-01  0.53094945705E-01 -0.21951428864E-01  0.58355949030E-01  0.51100000000E-03 0.  1.
         11    1    4    4    0    0  0.27639638972E-01  0.54999917264E-01 -0.40424387219E-01  0.73643280377E-01  0.51100000000E-03 0. -1.
</event>
<event>
 8    1  0.1094134E+005  0.1043930E+01  0.7957747E-01            NaN
         13   -1    0    0    0    0  0.00000000000E+00  0.00000000000E+00  0.74505805969E-08  0.10566000000E+00  0.10566000000E+00 0.  1.
     999900   -1    0    0    0    0 -0.00000000000E+00 -0.00000000000E+00 -0.74505805969E-08  0.93827000000E+00  0.93827000000E+00 0. -1.
     999902    2    1    2    0    0  0.70483148430E-02 -0.74667944667E-02  0.21145889547E-01  0.10204229711E+01  0.10201521747E+01 0.  0.
     999903    2    3    3    0    0  0.55508741175E-02  0.31246153066E-01 -0.12228538577E+00  0.12796935027E+00  0.20379027229E-01 0.  0.
         14    1    1    2    0    0 -0.70483148430E-02  0.74667944667E-02 -0.21145889547E-01  0.23507028874E-01  0.00000000000E+00 0. -1.
     999901    1    3    3    0    0  0.14974407254E-02 -0.38712947533E-01  0.14343127532E+00  0.89245362085E+00  0.88000000000E+00 0.  1.
        -11    1    4    4    0    0  0.10821302364E-01  0.24193840257E-01 -0.68217415547E-01  0.73186879945E-01  0.51100000000E-03 0. -1.
         11    1    4    4    0    0 -0.52704282463E-02  0.70523128094E-02 -0.54067970225E-01  0.54782470327E-01  0.51100000000E-03 0.  1.
</event>
<event>
 8    1  0.1094134E+005  0.1043930E+01  0.7957747E-01            NaN
         13   -1    0    0    0    0  0.00000000000E+00  0.00000000000E+00  0.74505805969E-08  0.10566000000E+00  0.10566000000E+00 0. -1.
     999900   -1    0    0    0    0 -0.00000000000E+00 -0.00000000000E+00 -0.74505805969E-08  0.93827000000E+00  0.93827000000E+00 0.  1.
     999902    2    1    2    0    0  0.43227177834E-02  0.21744264672E-01  0.71032388552E-02  0.10206500744E+01  0.10203845449E+01 0.  0.
     999903    2    3    3    0    0  0.40415654073E-01 -0.10189817789E+00  0.65576882633E-01  0.12935364743E+00  0.20380746204E-01 0.  0.
         14    1    1    2    0    0 -0.43227177834E-02 -0.21744264672E-01 -0.71032388552E-02  0.23279925631E-01  0.00000000000E+00 0.  1.
     999901    1    3    3    0    0 -0.36092936289E-01  0.12364244257E+00 -0.58473643778E-01  0.89129642694E+00  0.88000000000E+00 0. -1.
        -11    1    4    4    0    0  0.11286922855E-01 -0.47130010838E-01  0.20259531944E-01  0.52529442265E-01  0.51100000000E-03 0.  1.
         11    1    4    4    0    0  0.29128731217E-01 -0.54768167057E-01  0.45317350689E-01  0.76824205167E-01  0.51100000000E-03 0. -1.
</event>
<event>
 8    1  0.1094134E+005  0.1043930E+01  0.7957747E-01            NaN
         13   -1    0    0    0    0  0.00000000000E+00  0.00000000000E+00  0.74505805969E-08  0.10566000000E+00  0.10566000000E+00 0. -1.
     999900   -1    0    0    0    0 -0.00000000000E+00 -0.00000000000E+00 -0.74505805969E-08  0.93827000000E+00  0.93827000000E+00 0.  1.
     999902    2    1    2    0    0  0.93160195286E-02 -0.11091801210E-04  0.21105516171E-01  0.10208598644E+01  0.10205991533E+01 0.  0.
     999903    2    3    3    0    0  0.11981725013E+00 -0.28483388498E-01 -0.41010842297E-01  0.13132086267E+00  0.19894796749E-01 0.  0.
         14    1    1    2    0    0 -0.93160195286E-02  0.11091801210E-04 -0.21105516171E-01  0.23070135581E-01  0.00000000000E+00 0.  1.
     999901    1    3    3    0    0 -0.11050123060E+00  0.28472296697E-01  0.62116358468E-01  0.88953900175E+00  0.88000000000E+00 0. -1.
        -11    1    4    4    0    0  0.49258077601E-01 -0.80632181975E-02 -0.26244052862E-01  0.56394903389E-01  0.51100000000E-03 0. -1.
         11    1    4    4    0    0  0.70559172528E-01 -0.20420170301E-01 -0.14766789435E-01  0.74925959280E-01  0.51100000000E-03 0.  1.
</event>
<event>
 8    1  0.1094134E+005  0.1043930E+01  0.7957747E-01            NaN
         13   -1    0    0    0    0  0.00000000000E+00  0.00000000000E+00  0.74505805969E-08  0.10566000000E+00  0.10566000000E+00 0. -1.
     999900   -1    0    0    0    0 -0.00000000000E+00 -0.00000000000E+00 -0.74505805969E-08  0.93827000000E+00  0.93827000000E+00 0.  1.
     999902    2    1    2    0    0  0.75038776473E-02  0.19901875595E-01 -0.87933617660E-02  0.10209144391E+01  0.10206549740E+01 0.  0.
     999903    2    3    3    0    0  0.44127833869E-01  0.12434971439E+00  0.66723026276E-02  0.13384631773E+00  0.21452271581E-01 0.  0.
         14    1    1    2    0    0 -0.75038776473E-02 -0.19901875595E-01  0.87933617660E-02  0.23015560890E-01  0.00000000000E+00 0. -1.
     999901    1    3    3    0    0 -0.36623956221E-01 -0.10444783880E+00 -0.15465664394E-01  0.88706812138E+00  0.88000000000E+00 0. -1.
        -11    1    4    4    0    0  0.38677301278E-01  0.11972459973E+00  0.31418352707E-02  0.12585724319E+00  0.51100000000E-03 0. -1.
         11    1    4    4    0    0  0.54505325911E-02  0.46251146616E-02  0.35304673569E-02  0.79890745345E-02  0.51100000000E-03 0.  1.
</event>
<event>
 8    1  0.1094134E+005  0.1043930E+01  0.7957747E-01            NaN
         13   -1    0    0    0    0  0.00000000000E+00  0.00000000000E+00  0.74505805969E-08  0.10566000000E+00  0.10566000000E+00 0. -1.
     999900   -1    0    0    0    0 -0.00000000000E+00 -0.00000000000E+00 -0.74505805969E-08  0.93827000000E+00  0.93827000000E+00 0. -1.
     999902    2    1    2    0    0  0.86018985413E-02  0.14183087561E-01 -0.17646929797E-01  0.10197108596E+01  0.10194232048E+01 0.  0.
     999903    2    3    3    0    0 -0.98890042684E-01  0.48854215608E-02  0.78863106716E-01  0.12788399793E+00  0.18215911703E-01 0.  0.
         14    1    1    2    0    0 -0.86018985413E-02 -0.14183087561E-01  0.17646929797E-01  0.24219140417E-01  0.00000000000E+00 0. -1.
     999901    1    3    3    0    0  0.10749194123E+00  0.92976660004E-02 -0.96510036513E-01  0.89182686165E+00  0.88000000000E+00 0. -1.
        -11    1    4    4    0    0 -0.31050042261E-01  0.11286431271E-02  0.14492900719E-01  0.34288252390E-01  0.51100000000E-03 0.  1.
         11    1    4    4    0    0 -0.67840000423E-01  0.37567784337E-02  0.64370205997E-01  0.93595745537E-01  0.51100000000E-03 0. -1.
</event>
<event>
 8    1  0.1094134E+005  0.1043930E+01  0.7957747E-01            NaN
         13   -1    0    0    0    0  0.00000000000E+00  0.00000000000E+00  0.74505805969E-08  0.10566000000E+00  0.10566000000E+00 0. -1.
     999900   -1    0    0    0    0 -0.00000000000E+00 -0.00000000000E+00 -0.74505805969E-08  0.93827000000E+00  0.93827000000E+00 0.  1.
     999902    2    1    2    0    0 -0.17224600198E-01 -0.49160689897E-02 -0.14556960347E-01  0.10208484125E+01  0.10205874395E+01 0.  0.
     999903    2    3    3    0    0 -0.11496252243E+00 -0.27334892487E-01  0.56368996735E-01  0.13231827995E+00  0.19159475613E-01 0.  0.
         14    1    1    2    0    0  0.17224600198E-01  0.49160689897E-02  0.14556960347E-01  0.23081587486E-01  0.00000000000E+00 0. -1.
     999901    1    3    3    0    0  0.97737922229E-01  0.22418823497E-01 -0.70925957082E-01  0.88853013257E+00  0.88000000000E+00 0.  1.
        -11    1    4    4    0    0 -0.36456539407E-01 -0.80598098161E-02  0.82474183829E-02  0.38240303749E-01  0.51100000000E-03 0.  1.
         11    1    4    4    0    0 -0.78505983020E-01 -0.19275082671E-01  0.48121578352E-01  0.94077976200E-01  0.51100000000E-03 0. -1.
</event>
<event>
 8    1  0.1094134E+005  0.1043930E+01  0.7957747E-01            NaN
         13   -1    0    0    0    0  0.00000000000E+00  0.00000000000E+00  0.74505805969E-08  0.10566000000E+00  0.10566000000E+00 0.  1.
     999900   -1    0    0    0    0 -0.00000000000E+00 -0.00000000000E+00 -0.74505805969E-08  0.93827000000E+00  0.93827000000E+00 0.  1.
     999902    2    1    2    0    0  0.21798215102E-01 -0.44404594008E-02  0.90352568173E-02  0.10199192581E+01  0.10196365908E+01 0.  0.
     999903    2    3    3    0    0  0.12983235169E+00 -0.11200741464E-01  0.20422036478E-01  0.13321370672E+00  0.18626216167E-01 0.  0.
         14    1    1    2    0    0 -0.21798215102E-01  0.44404594008E-02 -0.90352568173E-02  0.24010741910E-01  0.00000000000E+00 0. -1.
     999901    1    3    3    0    0 -0.10803413659E+00  0.67602820635E-02 -0.11386779660E-01  0.88670555137E+00  0.88000000000E+00 0.  1.
        -11    1    4    4    0    0  0.72290282105E-01 -0.50460907024E-02  0.20572367740E-02  0.72497181065E-01  0.51100000000E-03 0. -1.
         11    1    4    4    0    0  0.57542069587E-01 -0.61546507619E-02  0.18364799704E-01  0.60716525654E-01  0.51100000000E-03 0.  1.
</event>
<event>
 8    1  0.1094134E+005  0.1043930E+01  0.7957747E-01            NaN
         13   -1    0    0    0    0  0.00000000000E+00  0.00000000000E+00  0.74505805969E-08  0.10566000000E+00  0.10566000000E+00 0.  1.
     999900   -1    0    0    0    0 -0.00000000000E+00 -0.00000000000E+00 -0.74505805969E-08  0.93827000000E+00  0.93827000000E+00 0.  1.
     999902    2    1    2    0    0 -0.21662116630E-01 -0.89767155037E-03 -0.83586435546E-02  0.10206938206E+01  0.10204292995E+01 0.  0.
     999903    2    3    3    0    0 -0.74075478494E-01  0.19152838713E-01  0.10515620016E+00  0.13162981660E+00  0.20361101180E-01 0.  0.
         14    1    1    2    0    0  0.21662116630E-01  0.89767155037E-03  0.83586435546E-02  0.23236179401E-01  0.00000000000E+00 0.  1.
     999901    1    3    3    0    0  0.52413361864E-01 -0.20050510263E-01 -0.11351484371E+00  0.88906400400E+00  0.88000000000E+00 0.  1.
        -11    1    4    4    0    0 -0.53808060044E-01  0.11707135767E-01  0.88992885525E-01  0.10465351952E+00  0.51100000000E-03 0.  1.
         11    1    4    4    0    0 -0.20267418450E-01  0.74457029461E-02  0.16163314634E-01  0.26976297076E-01  0.51100000000E-03 0. -1.
</event>
<event>
 8    1  0.1094134E+005  0.1043930E+01  0.7957747E-01            NaN
         13   -1    0    0    0    0  0.00000000000E+00  0.00000000000E+00  0.74505805969E-08  0.10566000000E+00  0.10566000000E+00 0.  1.
     999900   -1    0    0    0    0 -0.00000000000E+00 -0.00000000000E+00 -0.74505805969E-08  0.93827000000E+00  0.93827000000E+00 0.  1.
     999902    2    1    2    0    0  0.15518306293E-01 -0.11715876118E-01 -0.13157693447E-01  0.10204522556E+01  0.10201821414E+01 0.  0.
     999903    2    3    3    0    0 -0.93298106424E-01  0.75267894656E-01 -0.46281805180E-01  0.12887814496E+00  0.98882824305E-02 0.  0.
         14    1    1    2    0    0 -0.15518306293E-01  0.11715876118E-01  0.13157693447E-01  0.23477744361E-01  0.00000000000E+00 0.  1.
     999901    1    3    3    0    0  0.10881641272E+00 -0.86983770774E-01  0.33124111733E-01  0.89157411068E+00  0.88000000000E+00 0. -1.
        -11    1    4    4    0    0 -0.97316468582E-02  0.11330391491E-01 -0.76487677617E-02  0.16788314126E-01  0.51100000000E-03 0.  1.
         11    1    4    4    0    0 -0.83566459566E-01  0.63937503165E-01 -0.38633037418E-01  0.11208983083E+00  0.51100000000E-03 0. -1.
</event>
<event>
 8    1  0.1094134E+005  0.1043930E+01  0.7957747E-01            NaN
         13   -1    0    0    0    0  0.00000000000E+00  0.00000000000E+00  0.74505805969E-08  0.10566000000E+00  0.10566000000E+00 0. -1.
     999900   -1    0    0    0    0 -0.00000000000E+00 -0.00000000000E+00 -0.74505805969E-08  0.93827000000E+00  0.93827000000E+00 0. -1.
     999902    2    1    2    0    0 -0.94230339561E-02  0.19355241914E-01  0.27121561542E-02  0.10222326557E+01  0.10220023619E+01 0.  0.
     999903    2    3    3    0    0  0.14487146070E-01 -0.67508705179E-01  0.10992493859E+00  0.13115935752E+00  0.18761190382E-01 0.  0.
         14    1    1    2    0    0  0.94230339561E-02 -0.19355241914E-01 -0.27121561542E-02  0.21697344296E-01  0.00000000000E+00 0.  1.
     999901    1    3    3    0    0 -0.23910180026E-01  0.86863947093E-01 -0.10721278244E+00  0.89107329818E+00  0.88000000000E+00 0. -1.
        -11    1    4    4    0    0  0.10639020049E-01 -0.41025230492E-01  0.50130870257E-01  0.65647723176E-01  0.51100000000E-03 0. -1.
         11    1    4    4    0    0  0.38481260209E-02 -0.26483474687E-01  0.59794068338E-01  0.65511634347E-01  0.51100000000E-03 0.  1.
</event>
<event>
 8    1  0.1094134E+005  0.1043930E+01  0.7957747E-01            NaN
         13   -1    0    0    0    0  0.00000000000E+00  0.00000000000E+00  0.74505805969E-08  0.10566000000E+00  0.10566000000E+00 0. -1.
     999900   -1    0    0    0    0 -0.00000000000E+00 -0.00000000000E+00 -0.74505805969E-08  0.93827000000E+00  0.93827000000E+00 0. -1.
     999902    2    1    2    0    0 -0.52562467339E-02  0.64642975281E-02  0.22881300458E-01  0.10195790414E+01  0.10192882088E+01 0.  0.
     999903    2    3    3    0    0 -0.28414984716E-01  0.10910763775E+00  0.66190189003E-01  0.13225292198E+00  0.19945081607E-01 0.  0.
         14    1    1    2    0    0  0.52562467339E-02 -0.64642975281E-02 -0.22881300458E-01  0.24350958562E-01  0.00000000000E+00 0.  1.
     999901    1    3    3    0    0  0.23158737982E-01 -0.10264334023E+00 -0.43308888545E-01  0.88732611945E+00  0.88000000000E+00 0. -1.
        -11    1    4    4    0    0 -0.70740158855E-02  0.29482924615E-01  0.28477773057E-01  0.41599630093E-01  0.51100000000E-03 0. -1.
         11    1    4    4    0    0 -0.21340968831E-01  0.79624713139E-01  0.37712415946E-01  0.90653291890E-01  0.51100000000E-03 0.  1.
</event>
<event>
 8    1  0.1094134E+005  0.1043930E+01  0.7957747E-01            NaN
         13   -1    0    0    0    0  0.00000000000E+00  0.00000000000E+00  0.74505805969E-08  0.10566000000E+00  0.10566000000E+00 0. -1.
     999900   -1    0    0    0    0 -0.00000000000E+00 -0.00000000000E+00 -0.74505805969E-08  0.93827000000E+00  0.93827000000E+00 0.  1.
     999902    2    1    2    0    0 -0.22768659286E-02 -0.57499009780E-02  0.24481459747E-01  0.10186795079E+01  0.10183665119E+01 0.  0.
     999903    2    3    3    0    0  0.10932564422E+00  0.12325351111E-03 -0.62195218409E-01  0.12738692926E+00  0.20176047112E-01 0.  0.
         14    1    1    2    0    0  0.22768659286E-02  0.57499009780E-02 -0.24481459747E-01  0.25250492095E-01  0.00000000000E+00 0.  1.
     999901    1    3    3    0    0 -0.11160251015E+00 -0.58731544891E-02  0.86676678155E-01  0.89129257865E+00  0.88000000000E+00 0.  1.
        -11    1    4    4    0    0  0.76568105093E-01 -0.62179693368E-02 -0.35376193939E-01  0.84575848082E-01  0.51100000000E-03 0.  1.
         11    1    4    4    0    0  0.32757539128E-01  0.63412228479E-02 -0.26819024469E-01  0.42811081176E-01  0.51100000000E-03 0. -1.
</event>
<event>
 8    1  0.1094134E+005  0.1043930E+01  0.7957747E-01            NaN
         13   -1    0    0    0    0  0.00000000000E+00  0.00000000000E+00  0.74505805969E-08  0.10566000000E+00  0.10566000000E+00 0. -1.
     999900   -1    0    0    0    0 -0.00000000000E+00 -0.00000000000E+00 -0.74505805969E-08  0.93827000000E+00  0.93827000000E+00 0.  1.
     999902    2    1    2    0    0 -0.22435032295E-01  0.12289288235E-01 -0.33538019619E-02  0.10181306731E+01  0.10178037445E+01 0.  0.
     999903    2    3    3    0    0 -0.85545264463E-01  0.59010989712E-01 -0.78028181199E-01  0.13148413605E+00  0.19984789058E-01 0.  0.
         14    1    1    2    0    0  0.22435032295E-01 -0.12289288235E-01  0.33538019619E-02  0.25799326871E-01  0.00000000000E+00 0. -1.
     999901    1    3    3    0    0  0.63110232168E-01 -0.46721701477E-01  0.74674379237E-01  0.88664653708E+00  0.88000000000E+00 0. -1.
        -11    1    4    4    0    0 -0.45959607285E-01  0.36761724351E-01 -0.32740357973E-01  0.67349105713E-01  0.51100000000E-03 0.  1.
         11    1    4    4    0    0 -0.39585657177E-01  0.22249265361E-01 -0.45287823226E-01  0.64135030341E-01  0.51100000000E-03 0. -1.
</event>
<event>
 8    1  0.1094134E+005  0.1043930E+01  0.7957747E-01            NaN
         13   -1    0    0    0    0  0.00000000000E+00  0.00000000000E+00  0.74505805969E-08  0.10566000000E+00  0.10566000000E+00 0. -1.
     999900   -1    0    0    0    0 -0.00000000000E+00 -0.00000000000E+00 -0.74505805969E-08  0.93827000000E+00  0.93827000000E+00 0. -1.
     999902    2    1    2    0    0  0.14522191032E-02  0.64632249195E-02  0.21856174140E-01  0.10210919930E+01  0.10208365607E+01 0.  0.
     999903    2    3    3    0    0 -0.89006874812E-01 -0.92951964408E-01 -0.59516970808E-02  0.13045205156E+00  0.20494477502E-01 0.  0.
         14    1    1    2    0    0 -0.14522191032E-02 -0.64632249195E-02 -0.21856174140E-01  0.22838007021E-01  0.00000000000E+00 0.  1.
     999901    1    3    3    0    0  0.90459093915E-01  0.99415189328E-01  0.27807871221E-01  0.89063994141E+00  0.88000000000E+00 0.  1.
        -11    1    4    4    0    0 -0.67908133466E-02 -0.13470972606E-01 -0.55916885125E-02  0.16096904991E-01  0.51100000000E-03 0.  1.
         11    1    4    4    0    0 -0.82216061465E-01 -0.79480991802E-01 -0.36000856835E-03  0.11435514657E+00  0.51100000000E-03 0. -1.
</event>
<event>
 8    1  0.1094134E+005  0.1043930E+01  0.7957747E-01            NaN
         13   -1    0    0    0    0  0.00000000000E+00  0.00000000000E+00  0.74505805969E-08  0.10566000000E+00  0.10566000000E+00 0.  1.
     999900   -1    0    0    0    0 -0.00000000000E+00 -0.00000000000E+00 -0.74505805969E-08  0.93827000000E+00  0.93827000000E+00 0. -1.
     999902    2    1    2    0    0 -0.19176315233E-01  0.11847870904E-03  0.64653258107E-02  0.10236927684E+01  0.10234927155E+01 0.  0.
     999903    2    3    3    0    0  0.11122863921E+00  0.66453246837E-01 -0.99448514541E-02  0.13146239039E+00  0.19890093523E-01 0.  0.
         14    1    1    2    0    0  0.19176315233E-01 -0.11847870904E-03 -0.64653258107E-02  0.20237231553E-01  0.00000000000E+00 0. -1.
     999901    1    3    3    0    0 -0.13040495445E+00 -0.66334768128E-01  0.16410177265E-01  0.89223037806E+00  0.88000000000E+00 0.  1.
        -11    1    4    4    0    0  0.54963870796E-01  0.31652966583E-01  0.50358507240E-02  0.63628282233E-01  0.51100000000E-03 0. -1.
         11    1    4    4    0    0  0.56264768418E-01  0.34800280254E-01 -0.14980702178E-01  0.67834108158E-01  0.51100000000E-03 0.  1.
</event>
<event>
 8    1  0.1094134E+005  0.1043930E+01  0.7957747E-01            NaN
         13   -1    0    0    0    0  0.00000000000E+00  0.00000000000E+00  0.74505805969E-08  0.10566000000E+00  0.10566000000E+00 0.  1.
     999900   -1    0    0    0    0 -0.00000000000E+00 -0.00000000000E+00 -0.74505805969E-08  0.93827000000E+00  0.93827000000E+00 0.  1.
     999902    2    1    2    0    0  0.16967281356E-01 -0.17582575403E-01 -0.78831803136E-02  0.10182554966E+01  0.10179317640E+01 0.  0.
     999903    2    3    3    0    0 -0.24337687211E-01 -0.35833566874E-01 -0.12082822850E+00  0.12988857743E+00  0.19879995253E-01 0.  0.
         14    1    1    2    0    0 -0.16967281356E-01  0.17582575403E-01  0.78831803136E-02  0.25674503428E-01  0.00000000000E+00 0.  1.
     999901    1    3    3    0    0  0.41304968567E-01  0.18250991472E-01  0.11294504818E+00  0.88836691914E+00  0.88000000000E+00 0. -1.
        -11    1    4    4    0    0 -0.37055175748E-02 -0.13573324236E-01 -0.63254706543E-01  0.64802662077E-01  0.51100000000E-03 0.  1.
         11    1    4    4    0    0 -0.20632169636E-01 -0.22260242639E-01 -0.57573521953E-01  0.65085915353E-01  0.51100000000E-03 0. -1.
</event>
<event>
 8    1  0.1094134E+005  0.1043930E+01  0.7957747E-01            NaN
         13   -1    0    0    0    0  0.00000000000E+00  0.00000000000E+00  0.74505805969E-08  0.10566000000E+00  0.10566000000E+00 0. -1.
     999900   -1    0    0    0    0 -0.00000000000E+00 -0.00000000000E+00 -0.74505805969E-08  0.93827000000E+00  0.93827000000E+00 0. -1.
     999902    2    1    2    0    0  0.20493470196E-01 -0.51356217611E-02 -0.26658482324E-02  0.10226353134E+01  0.10224135760E+01 0.  0.
     999903    2    3    3    0    0  0.10306013508E+00 -0.49721567066E-01 -0.69055461769E-01  0.13515982557E+00  0.20146860176E-01 0.  0.
         14    1    1    2    0    0 -0.20493470196E-01  0.51356217611E-02  0.26658482324E-02  0.21294686622E-01  0.00000000000E+00 0.  1.
     999901    1    3    3    0    0 -0.82566664883E-01  0.44585945305E-01  0.66389613536E-01  0.88747548780E+00  0.88000000000E+00 0. -1.
        -11    1    4    4    0    0  0.59177543608E-01 -0.20273677050E-01 -0.45189711094E-01  0.77171074622E-01  0.51100000000E-03 0. -1.
         11    1    4    4    0    0  0.43882591471E-01 -0.29447890016E-01 -0.23865750674E-01  0.57988750951E-01  0.51100000000E-03 0.  1.
</event>
<event>
 8    1  0.1094134E+005  0.1043930E+01  0.7957747E-01            NaN
         13   -1    0    0    0    0  0.00000000000E+00  0.00000000000E+00  0.74505805969E-08  0.10566000000E+00  0.10566000000E+00 0.  1.
     999900   -1    0    0    0    0 -0.00000000000E+00 -0.00000000000E+00 -0.74505805969E-08  0.93827000000E+00  0.93827000000E+00 0. -1.
     999902    2    1    2    0    0  0.21582916051E-01 -0.60447874062E-02 -0.15295338363E-01  0.10167949840E+01  0.10164328459E+01 0.  0.
     999903    2    3    3    0    0 -0.10604811756E+00 -0.51703581572E-01  0.36005931010E-01  0.12493948755E+00  0.19849052760E-01 0.  0.
         14    1    1    2    0    0 -0.21582916051E-01  0.60447874062E-02  0.15295338363E-01  0.27135016044E-01  0.00000000000E+00 0.  1.
     999901    1    3    3    0    0  0.12763103362E+00  0.45658794166E-01 -0.51301269373E-01  0.89185549640E+00  0.88000000000E+00 0. -1.
        -11    1    4    4    0    0 -0.29109384770E-01 -0.21472257391E-01  0.17685113152E-01  0.40267089134E-01  0.51100000000E-03 0. -1.
         11    1    4    4    0    0 -0.76938732795E-01 -0.30231324181E-01  0.18320817858E-01  0.84672398418E-01  0.51100000000E-03 0.  1.
</event>
<event>
 8    1  0.1094134E+005  0.1043930E+01  0.7957747E-01            NaN
         13   -1    0    0    0    0  0.00000000000E+00  0.00000000000E+00  0.74505805969E-08  0.10566000000E+00  0.10566000000E+00 0. -1.
     999900   -1    0    0    0    0 -0.00000000000E+00 -0.00000000000E+00 -0.74505805969E-08  0.93827000000E+00  0.93827000000E+00 0.  1.
     999902    2    1    2    0    0  0.71148993064E-03  0.24730541311E-01  0.43706083650E-02  0.10188061446E+01  0.10184963192E+01 0.  0.
     999903    2    3    3    0    0 -0.93166825267E-01  0.47332116447E-01  0.75718185605E-01  0.13065387950E+00  0.20415827683E-01 0.  0.
         14    1    1    2    0    0 -0.71148993064E-03 -0.24730541311E-01 -0.43706083650E-02  0.25123855376E-01  0.00000000000E+00 0. -1.
     999901    1    3    3    0    0  0.93878315198E-01 -0.22601575136E-01 -0.71347577240E-01  0.88815226512E+00  0.88000000000E+00 0. -1.
        -11    1    4    4    0    0 -0.53560725158E-02 -0.62026007815E-04 -0.19215831382E-04  0.53807852837E-02  0.51100000000E-03 0.  1.
         11    1    4    4    0    0 -0.87810752752E-01  0.47394142455E-01  0.75737401436E-01  0.12527309422E+00  0.51100000000E-03 0. -1.
</event>
<event>
 8    1  0.1094134E+005  0.1043930E+01  0.7957747E-01            NaN
         13   -1    0    0    0    0  0.00000000000E+00  0.00000000000E+00  0.74505805969E-08  0.10566000000E+00  0.10566000000E+00 0.  1.
     999900   -1    0    0    0    0 -0.00000000000E+00 -0.00000000000E+00 -0.74505805969E-08  0.93827000000E+00  0.93827000000E+00 0. -1.
     999902    2    1    2    0    0  0.68631187815E-02 -0.78542835560E-02  0.12807471926E-01  0.10274126302E+01  0.10272798495E+01 0.  0.
     999903    2    3    3    0    0 -0.11027970564E+00  0.39161677862E-01 -0.64383788402E-01  0.13506099956E+00  0.20023758546E-01 0.  0.
         14    1    1    2    0    0 -0.68631187815E-02  0.78542835560E-02 -0.12807471926E-01  0.16517369848E-01  0.00000000000E+00 0. -1.
     999901    1    3    3    0    0  0.11714282442E+00 -0.47015961418E-01  0.77191260328E-01  0.89235163059E+00  0.88000000000E+00 0.  1.
        -11    1    4    4    0    0 -0.66499888066E-01  0.15635165928E-01 -0.29930756888E-01  0.74584213177E-01  0.51100000000E-03 0.  1.
         11    1    4    4    0    0 -0.43779817570E-01  0.23526511934E-01 -0.34453031514E-01  0.60476786387E-01  0.51100000000E-03 0. -1.
</event>
<event>
 8    1  0.1094134E+005  0.1043930E+01  0.7957747E-01            NaN
         13   -1    0    0    0    0  0.00000000000E+00  0.00000000000E+00  0.74505805969E-08  0.10566000000E+00  0.10566000000E+00 0.  1.
     999900   -1    0    0    0    0 -0.00000000000E+00 -0.00000000000E+00 -0.74505805969E-08  0.93827000000E+00  0.93827000000E+00 0. -1.
     999902    2    1    2    0    0  0.68988950857E-02  0.46889209301E-02  0.21041981938E-01  0.10212949445E+01  0.10210440823E+01 0.  0.
     999903    2    3    3    0    0 -0.56729417009E-01  0.11703800121E+00 -0.27913414510E-02  0.13155402422E+00  0.19558865509E-01 0.  0.
         14    1    1    2    0    0 -0.68988950857E-02 -0.46889209301E-02 -0.21041981938E-01  0.22635055484E-01  0.00000000000E+00 0. -1.
     999901    1    3    3    0    0  0.63628312095E-01 -0.11234908028E+00  0.23833323389E-01  0.88974092029E+00  0.88000000000E+00 0. -1.
        -11    1    4    4    0    0 -0.40694372761E-01  0.87938217340E-01 -0.10428112482E-01  0.97458548596E-01  0.51100000000E-03 0. -1.
         11    1    4    4    0    0 -0.16035044248E-01  0.29099783872E-01  0.76367710310E-02  0.34095475627E-01  0.51100000000E-03 0.  1.
</event>
<event>
 8    1  0.1469022E+005  0.1043930E+01  0.7957747E-01            NaN
         13   -1    0    0    0    0  0.00000000000E+00  0.00000000000E+00  0.74505805969E-08  0.10566000000E+00  0.10566000000E+00 0. -1.
     999900   -1    0    0    0    0 -0.00000000000E+00 -0.00000000000E+00 -0.74505805969E-08  0.93827000000E+00  0.93827000000E+00 0.  1.
     999902    2    1    2    0    0 -0.17333112505E-01  0.28503449003E-02  0.16007143428E-01  0.10201646913E+01  0.10198878407E+01 0.  0.
     999903    2    3    3    0    0 -0.10999128749E+00  0.45945518879E-01  0.56355583554E-01  0.13333284254E+00  0.19814668148E-01 0.  0.
         14    1    1    2    0    0  0.17333112505E-01 -0.28503449003E-02 -0.16007143428E-01  0.23765308663E-01  0.00000000000E+00 0.  1.
     999901    1    3    3    0    0  0.92658174988E-01 -0.43095173978E-01 -0.40348440126E-01  0.88683184879E+00  0.88000000000E+00 0.  1.
        -11    1    4    4    0    0 -0.77681065704E-01  0.22379383325E-01  0.37490683611E-01  0.89112273260E-01  0.51100000000E-03 0. -1.
         11    1    4    4    0    0 -0.32310221789E-01  0.23566135553E-01  0.18864899942E-01  0.44220569284E-01  0.51100000000E-03 0.  1.
</event>
<event>
 8    1  0.1094134E+005  0.1043930E+01  0.7957747E-01            NaN
         13   -1    0    0    0    0  0.00000000000E+00  0.00000000000E+00  0.74505805969E-08  0.10566000000E+00  0.10566000000E+00 0.  1.
     999900   -1    0    0    0    0 -0.00000000000E+00 -0.00000000000E+00 -0.74505805969E-08  0.93827000000E+00  0.93827000000E+00 0.  1.
     999902    2    1    2    0    0 -0.29015201092E-02 -0.24031799233E-01 -0.14731357413E-02  0.10196788903E+01  0.10193904664E+01 0.  0.
     999903    2    3    3    0    0 -0.16384025994E-01 -0.12718427822E+00  0.29005047159E-01  0.13302724983E+00  0.20265228912E-01 0.  0.
         14    1    1    2    0    0  0.29015201092E-02  0.24031799233E-01  0.14731357413E-02  0.24251109712E-01  0.00000000000E+00 0. -1.
     999901    1    3    3    0    0  0.13482505885E-01  0.10315247899E+00 -0.30478182900E-01  0.88665164045E+00  0.88000000000E+00 0.  1.
        -11    1    4    4    0    0  0.13928277571E-02 -0.34117675439E-01  0.76764776740E-03  0.34158544328E-01  0.51100000000E-03 0.  1.
         11    1    4    4    0    0 -0.17776853751E-01 -0.93066602784E-01  0.28237399391E-01  0.98868705506E-01  0.51100000000E-03 0. -1.
</event>
<event>
 8    1  0.1094134E+005  0.1043930E+01  0.7957747E-01            NaN
         13   -1    0    0    0    0  0.00000000000E+00  0.00000000000E+00  0.74505805969E-08  0.10566000000E+00  0.10566000000E+00 0. -1.
     999900   -1    0    0    0    0 -0.00000000000E+00 -0.00000000000E+00 -0.74505805969E-08  0.93827000000E+00  0.93827000000E+00 0. -1.
     999902    2    1    2    0    0 -0.48534324216E-02  0.22927108930E-01 -0.27967088798E-02  0.10203285231E+01  0.10200555207E+01 0.  0.
     999903    2    3    3    0    0  0.21473788343E-01  0.87487920368E-01 -0.95503658644E-01  0.13271610801E+00  0.19425671558E-01 0.  0.
         14    1    1    2    0    0  0.48534324216E-02 -0.22927108930E-01  0.27967088798E-02  0.23601476876E-01  0.00000000000E+00 0. -1.
     999901    1    3    3    0    0 -0.26327220765E-01 -0.64560811438E-01  0.92706949764E-01  0.88761241511E+00  0.88000000000E+00 0.  1.
        -11    1    4    4    0    0  0.15951193237E-01  0.36565216488E-01 -0.32105009321E-01  0.51209846387E-01  0.51100000000E-03 0. -1.
         11    1    4    4    0    0  0.55225951062E-02  0.50922703880E-01 -0.63398649323E-01  0.81506261625E-01  0.51100000000E-03 0.  1.
</event>
<event>
 8    1  0.1094134E+005  0.1043930E+01  0.7957747E-01            NaN
         13   -1    0    0    0    0  0.00000000000E+00  0.00000000000E+00  0.74505805969E-08  0.10566000000E+00  0.10566000000E+00 0. -1.
     999900   -1    0    0    0    0 -0.00000000000E+00 -0.00000000000E+00 -0.74505805969E-08  0.93827000000E+00  0.93827000000E+00 0. -1.
     999902    2    1    2    0    0 -0.20312957276E-01 -0.88910029598E-02  0.10595590530E-01  0.10193549577E+01  0.10190586818E+01 0.  0.
     999903    2    3    3    0    0 -0.50699721868E-01 -0.85186248301E-01 -0.82944673348E-01  0.13059509084E+00  0.18657444009E-01 0.  0.
         14    1    1    2    0    0  0.20312957276E-01  0.88910029598E-02 -0.10595590530E-01  0.24575042331E-01  0.00000000000E+00 0.  1.
     999901    1    3    3    0    0  0.30386764592E-01  0.76295245341E-01  0.93540263878E-01  0.88875986683E+00  0.88000000000E+00 0.  1.
        -11    1    4    4    0    0 -0.36632515252E-01 -0.43517744012E-01 -0.47404007743E-01  0.74048202468E-01  0.51100000000E-03 0.  1.
         11    1    4    4    0    0 -0.14067206615E-01 -0.41668504289E-01 -0.35540665605E-01  0.56546888369E-01  0.51100000000E-03 0. -1.
</event>
<event>
 8    1  0.1094134E+005  0.1043930E+01  0.7957747E-01            NaN
         13   -1    0    0    0    0  0.00000000000E+00  0.00000000000E+00  0.74505805969E-08  0.10566000000E+00  0.10566000000E+00 0. -1.
     999900   -1    0    0    0    0 -0.00000000000E+00 -0.00000000000E+00 -0.74505805969E-08  0.93827000000E+00  0.93827000000E+00 0.  1.
     999902    2    1    2    0    0  0.18917662315E-03  0.24456391362E-01  0.15027857800E-01  0.10152248197E+01  0.10148189233E+01 0.  0.
     999903    2    3    3    0    0 -0.23331366287E-01  0.61091687724E-01 -0.10581220916E+00  0.12590053539E+00  0.19446702562E-01 0.  0.
         14    1    1    2    0    0 -0.18917662315E-03 -0.24456391362E-01 -0.15027857800E-01  0.28705180304E-01  0.00000000000E+00 0. -1.
     999901    1    3    3    0    0  0.23520542911E-01 -0.36635296361E-01  0.12084006696E+00  0.88932428431E+00  0.88000000000E+00 0. -1.
        -11    1    4    4    0    0 -0.23233359346E-01  0.34584526094E-01 -0.62390618091E-01  0.75024854405E-01  0.51100000000E-03 0. -1.
         11    1    4    4    0    0 -0.98006941679E-04  0.26507161629E-01 -0.43421591073E-01  0.50875680982E-01  0.51100000000E-03 0.  1.
</event>
<event>
 8    1  0.1094134E+005  0.1043930E+01  0.7957747E-01            NaN
         13   -1    0    0    0    0  0.00000000000E+00  0.00000000000E+00  0.74505805969E-08  0.10566000000E+00  0.10566000000E+00 0. -1.
     999900   -1    0    0    0    0 -0.00000000000E+00 -0.00000000000E+00 -0.74505805969E-08  0.93827000000E+00  0.93827000000E+00 0.  1.
     999902    2    1    2    0    0  0.53447319453E-02  0.18041937997E-01  0.13857005864E-01  0.10205613394E+01  0.10202937583E+01 0.  0.
     999903    2    3    3    0    0  0.10052826856E-01  0.12002392906E+00  0.54207952382E-01  0.13374078736E+00  0.21006980398E-01 0.  0.
         14    1    1    2    0    0 -0.53447319453E-02 -0.18041937997E-01 -0.13857005864E-01  0.23368660590E-01  0.00000000000E+00 0.  1.
     999901    1    3    3    0    0 -0.47080949109E-02 -0.10198199107E+00 -0.40350946518E-01  0.88682055205E+00  0.88000000000E+00 0. -1.
        -11    1    4    4    0    0  0.53232164426E-02  0.78597185539E-01  0.46051395512E-01  0.91251555371E-01  0.51100000000E-03 0.  1.
         11    1    4    4    0    0  0.47296104136E-02  0.41426743525E-01  0.81565568697E-02  0.42489231986E-01  0.51100000000E-03 0. -1.
</event>
<event>
 8    1  0.1094134E+005  0.1043930E+01  0.7957747E-01            NaN
         13   -1    0    0    0    0  0.00000000000E+00  0.00000000000E+00  0.74505805969E-08  0.10566000000E+00  0.10566000000E+00 0.  1.
     999900   -1    0    0    0    0 -0.00000000000E+00 -0.00000000000E+00 -0.74505805969E-08  0.93827000000E+00  0.93827000000E+00 0.  1.
     999902    2    1    2    0    0 -0.40962400511E-02 -0.19668248053E-01  0.12463746633E-01  0.10202875774E+01  0.10200136159E+01 0.  0.
     999903    2    3    3    0    0  0.43868960319E-01 -0.11825201099E+00  0.37728553894E-01  0.13312483632E+00  0.19767510780E-01 0.  0.
         14    1    1    2    0    0  0.40962400511E-02  0.19668248053E-01 -0.12463746633E-01  0.23642422553E-01  0.00000000000E+00 0.  1.
     999901    1    3    3    0    0 -0.47965200370E-01  0.98583762940E-01 -0.25264807261E-01  0.88716274113E+00  0.88000000000E+00 0.  1.
        -11    1    4    4    0    0  0.22541634928E-01 -0.36326004653E-01  0.87214282248E-02  0.43635173319E-01  0.51100000000E-03 0.  1.
         11    1    4    4    0    0  0.21327325391E-01 -0.81926006340E-01  0.29007125669E-01  0.89489662999E-01  0.51100000000E-03 0. -1.
</event>
<event>
 8    1  0.1094134E+005  0.1043930E+01  0.7957747E-01            NaN
         13   -1    0    0    0    0  0.00000000000E+00  0.00000000000E+00  0.74505805969E-08  0.10566000000E+00  0.10566000000E+00 0.  1.
     999900   -1    0    0    0    0 -0.00000000000E+00 -0.00000000000E+00 -0.74505805969E-08  0.93827000000E+00  0.93827000000E+00 0. -1.
     999902    2    1    2    0    0 -0.68310768688E-02 -0.37934133778E-02  0.22031299402E-01  0.10205541203E+01  0.10202863720E+01 0.  0.
     999903    2    3    3    0    0  0.10946595504E+00  0.65127884144E-01  0.18758124839E-01  0.13022504716E+00  0.19551446388E-01 0.  0.
         14    1    1    2    0    0  0.68310768688E-02  0.37934133778E-02 -0.22031299402E-01  0.23375879653E-01  0.00000000000E+00 0. -1.
     999901    1    3    3    0    0 -0.11629703191E+00 -0.68921297522E-01  0.32731745622E-02  0.89032907318E+00  0.88000000000E+00 0.  1.
        -11    1    4    4    0    0  0.76043208881E-01  0.37625135154E-01  0.18965765888E-01  0.86937804257E-01  0.51100000000E-03 0. -1.
         11    1    4    4    0    0  0.33422746157E-01  0.27502748990E-01 -0.20764104865E-03  0.43287242907E-01  0.51100000000E-03 0.  1.
</event>
<event>
 8    1  0.1094134E+005  0.1043930E+01  0.7957747E-01            NaN
         13   -1    0    0    0    0  0.00000000000E+00  0.00000000000E+00  0.74505805969E-08  0.10566000000E+00  0.10566000000E+00 0.  1.
     999900   -1    0    0    0    0 -0.00000000000E+00 -0.00000000000E+00 -0.74505805969E-08  0.93827000000E+00  0.93827000000E+00 0. -1.
     999902    2    1    2    0    0 -0.11865198829E-02  0.23005577172E-01 -0.47217018104E-02  0.10204149223E+01  0.10201439383E+01 0.  0.
     999903    2    3    3    0    0  0.70828017109E-01 -0.10392708623E+00  0.14554988178E-01  0.12818760523E+00  0.20069060631E-01 0.  0.
         14    1    1    2    0    0  0.11865198829E-02 -0.23005577172E-01  0.47217018104E-02  0.23515077683E-01  0.00000000000E+00 0. -1.
     999901    1    3    3    0    0 -0.72014536992E-01  0.12693266340E+00 -0.19276689988E-01  0.89222731709E+00  0.88000000000E+00 0. -1.
        -11    1    4    4    0    0  0.23121194589E-01 -0.34533290845E-01 -0.46257675423E-02  0.41818616215E-01  0.51100000000E-03 0.  1.
         11    1    4    4    0    0  0.47706822519E-01 -0.69393795384E-01  0.19180755720E-01  0.86368989016E-01  0.51100000000E-03 0. -1.
</event>
<event>
 8    1  0.1094134E+005  0.1043930E+01  0.7957747E-01            NaN
         13   -1    0    0    0    0  0.00000000000E+00  0.00000000000E+00  0.74505805969E-08  0.10566000000E+00  0.10566000000E+00 0. -1.
     999900   -1    0    0    0    0 -0.00000000000E+00 -0.00000000000E+00 -0.74505805969E-08  0.93827000000E+00  0.93827000000E+00 0.  1.
     999902    2    1    2    0    0  0.52348584742E-02 -0.16819700874E-01 -0.13304075782E-01  0.10218550252E+01  0.10216165562E+01 0.  0.
     999903    2    3    3    0    0 -0.11452309693E+00 -0.40957571606E-01  0.45654698860E-01  0.13146143705E+00  0.20117045047E-01 0.  0.
         14    1    1    2    0    0 -0.52348584742E-02  0.16819700874E-01  0.13304075782E-01  0.22074974816E-01  0.00000000000E+00 0. -1.
     999901    1    3    3    0    0  0.11975795540E+00  0.24137870733E-01 -0.58958774641E-01  0.89039358814E+00  0.88000000000E+00 0.  1.
        -11    1    4    4    0    0 -0.86717940319E-01 -0.23177090755E-01  0.28002245653E-01  0.94029599551E-01  0.51100000000E-03 0. -1.
         11    1    4    4    0    0 -0.27805156607E-01 -0.17780480851E-01  0.17652453207E-01  0.37431837498E-01  0.51100000000E-03 0.  1.
</event>
<event>
 8    1  0.1094134E+005  0.1043930E+01  0.7957747E-01            NaN
         13   -1    0    0    0    0  0.00000000000E+00  0.00000000000E+00  0.74505805969E-08  0.10566000000E+00  0.10566000000E+00 0. -1.
     999900   -1    0    0    0    0 -0.00000000000E+00 -0.00000000000E+00 -0.74505805969E-08  0.93827000000E+00  0.93827000000E+00 0.  1.
     999902    2    1    2    0    0 -0.21167716731E-01  0.69189744869E-02  0.19016639739E-02  0.10215791440E+01  0.10213346105E+01 0.  0.
     999903    2    3    3    0    0  0.95277881509E-01  0.60329285802E-01  0.62276409862E-01  0.13025577467E+00  0.19254043225E-01 0.  0.
         14    1    1    2    0    0  0.21167716731E-01 -0.69189744869E-02 -0.19016639739E-02  0.22350856034E-01  0.00000000000E+00 0. -1.
     999901    1    3    3    0    0 -0.11644559824E+00 -0.53410311315E-01 -0.60374745889E-01  0.89132336929E+00  0.88000000000E+00 0.  1.
        -11    1    4    4    0    0  0.15846501662E-01  0.43345015426E-02  0.14694247373E-01  0.22047257095E-01  0.51100000000E-03 0.  1.
         11    1    4    4    0    0  0.79431379847E-01  0.55994784260E-01  0.47582162490E-01  0.10820851758E+00  0.51100000000E-03 0. -1.
</event>
<event>
 8    1  0.1094134E+005  0.1043930E+01  0.7957747E-01            NaN
         13   -1    0    0    0    0  0.00000000000E+00  0.00000000000E+00  0.74505805969E-08  0.10566000000E+00  0.10566000000E+00 0.  1.
     999900   -1    0    0    0    0 -0.00000000000E+00 -0.00000000000E+00 -0.74505805969E-08  0.93827000000E+00  0.93827000000E+00 0.  1.
     999902    2    1    2    0    0  0.17873868826E-01 -0.59803392604E-02 -0.50237783652E-02  0.10244241549E+01  0.10242384347E+01 0.  0.
     999903    2    3    3    0    0  0.11455317872E+00  0.62320717687E-01 -0.32800541841E-01  0.13606416483E+00  0.20767253023E-01 0.  0.
         14    1    1    2    0    0 -0.17873868826E-01  0.59803392604E-02  0.50237783652E-02  0.19505845112E-01  0.00000000000E+00 0.  1.
     999901    1    3    3    0    0 -0.96679309897E-01 -0.68301056947E-01  0.27776763476E-01  0.88835999006E+00  0.88000000000E+00 0. -1.
        -11    1    4    4    0    0  0.84067990300E-01  0.49005857962E-01 -0.15408511360E-01  0.98522507332E-01  0.51100000000E-03 0. -1.
         11    1    4    4    0    0  0.30485188422E-01  0.13314859725E-01 -0.17392030481E-01  0.37541657500E-01  0.51100000000E-03 0.  1.
</event>
<event>
 8    1  0.1094134E+005  0.1043930E+01  0.7957747E-01            NaN
         13   -1    0    0    0    0  0.00000000000E+00  0.00000000000E+00  0.74505805969E-08  0.10566000000E+00  0.10566000000E+00 0.  1.
     999900   -1    0    0    0    0 -0.00000000000E+00 -0.00000000000E+00 -0.74505805969E-08  0.93827000000E+00  0.93827000000E+00 0.  1.
     999902    2    1    2    0    0 -0.81364365436E-03  0.24234283599E-01 -0.29974568852E-02  0.10194974957E+01  0.10192046882E+01 0.  0.
     999903    2    3    3    0    0 -0.49287417367E-01 -0.95674639662E-01  0.65183058253E-01  0.12743447146E+00  0.20194733152E-01 0.  0.
         14    1    1    2    0    0  0.81364365436E-03 -0.24234283599E-01  0.29974568852E-02  0.24432504279E-01  0.00000000000E+00 0. -1.
     999901    1    3    3    0    0  0.48473773713E-01  0.11990892326E+00 -0.68180515138E-01  0.89206302426E+00  0.88000000000E+00 0.  1.
        -11    1    4    4    0    0 -0.11422528729E-01 -0.16395578561E-01  0.40370449924E-02  0.20392351806E-01  0.51100000000E-03 0. -1.
         11    1    4    4    0    0 -0.37864888638E-01 -0.79279061101E-01  0.61146013260E-01  0.10704211965E+00  0.51100000000E-03 0.  1.
</event>
<event>
 8    1  0.1094134E+005  0.1043930E+01  0.7957747E-01            NaN
         13   -1    0    0    0    0  0.00000000000E+00  0.00000000000E+00  0.74505805969E-08  0.10566000000E+00  0.10566000000E+00 0. -1.
     999900   -1    0    0    0    0 -0.00000000000E+00 -0.00000000000E+00 -0.74505805969E-08  0.93827000000E+00  0.93827000000E+00 0. -1.
     999902    2    1    2    0    0  0.17899981082E-01 -0.14463337932E-01  0.74463538569E-02  0.10197422830E+01  0.10194553831E+01 0.  0.
     999903    2    3    3    0    0  0.10450798004E+00 -0.77902680116E-01  0.18877664976E-01  0.13314419454E+00  0.19500380590E-01 0.  0.
         14    1    1    2    0    0 -0.17899981082E-01  0.14463337932E-01 -0.74463538569E-02  0.24187716978E-01  0.00000000000E+00 0. -1.
     999901    1    3    3    0    0 -0.86607998963E-01  0.63439342184E-01 -0.11431311119E-01  0.88659808848E+00  0.88000000000E+00 0. -1.
        -11    1    4    4    0    0  0.64449817832E-01 -0.54568305633E-01  0.43580753240E-02  0.84562006479E-01  0.51100000000E-03 0.  1.
         11    1    4    4    0    0  0.40058162213E-01 -0.23334374483E-01  0.14519589652E-01  0.48582188063E-01  0.51100000000E-03 0. -1.
</event>
<event>
 8    1  0.1094134E+005  0.1043930E+01  0.7957747E-01            NaN
         13   -1    0    0    0    0  0.00000000000E+00  0.00000000000E+00  0.74505805969E-08  0.10566000000E+00  0.10566000000E+00 0. -1.
     999900   -1    0    0    0    0 -0.00000000000E+00 -0.00000000000E+00 -0.74505805969E-08  0.93827000000E+00  0.93827000000E+00 0. -1.
     999902    2    1    2    0    0 -0.20304930178E-01  0.51655569864E-02 -0.99895806282E-02  0.10207186905E+01  0.10204547419E+01 0.  0.
     999903    2    3    3    0    0 -0.12812127025E+00  0.32347125598E-01  0.75704974402E-03  0.13365686010E+00  0.20054593016E-01 0.  0.
         14    1    1    2    0    0  0.20304930178E-01 -0.51655569864E-02  0.99895806282E-02  0.23211309520E-01  0.00000000000E+00 0. -1.
     999901    1    3    3    0    0  0.10781634007E+00 -0.27181568612E-01 -0.10746630372E-01  0.88706183038E+00  0.88000000000E+00 0. -1.
        -11    1    4    4    0    0 -0.18726277888E-01 -0.58810051107E-03  0.47699897369E-02  0.19339939732E-01  0.51100000000E-03 0. -1.
         11    1    4    4    0    0 -0.10939499236E+00  0.32935226109E-01 -0.40129399929E-02  0.11431692036E+00  0.51100000000E-03 0.  1.
</event>
<event>
 8    1  0.1094134E+005  0.1043930E+01  0.7957747E-01            NaN
         13   -1    0    0    0    0  0.00000000000E+00  0.00000000000E+00  0.74505805969E-08  0.10566000000E+00  0.10566000000E+00 0.  1.
     999900   -1    0    0    0    0 -0.00000000000E+00 -0.00000000000E+00 -0.74505805969E-08  0.93827000000E+00  0.93827000000E+00 0. -1.
     999902    2    1    2    0    0  0.90327938532E-02 -0.30454386515E-02 -0.20397231215E-01  0.10214152692E+01  0.10211670965E+01 0.  0.
     999903    2    3    3    0    0 -0.37773240096E-01 -0.12396166402E+00  0.94379389256E-02  0.13141432778E+00  0.19680930850E-01 0.  0.
         14    1    1    2    0    0 -0.90327938532E-02  0.30454386515E-02  0.20397231215E-01  0.22514730791E-01  0.00000000000E+00 0.  1.
     999901    1    3    3    0    0  0.46806033949E-01  0.12091622537E+00 -0.29835170140E-01  0.89000094143E+00  0.88000000000E+00 0. -1.
        -11    1    4    4    0    0 -0.12191067647E-01 -0.50986769630E-01 -0.52931479209E-02  0.52692991409E-01  0.51100000000E-03 0. -1.
         11    1    4    4    0    0 -0.25582172449E-01 -0.72974894393E-01  0.14731086847E-01  0.78721336368E-01  0.51100000000E-03 0.  1.
</event>
<event>
 8    1  0.1094134E+005  0.1043930E+01  0.7957747E-01            NaN
         13   -1    0    0    0    0  0.00000000000E+00  0.00000000000E+00  0.74505805969E-08  0.10566000000E+00  0.10566000000E+00 0. -1.
     999900   -1    0    0    0    0 -0.00000000000E+00 -0.00000000000E+00 -0.74505805969E-08  0.93827000000E+00  0.93827000000E+00 0.  1.
     999902    2    1    2    0    0 -0.15671388980E-01  0.11009656730E-01  0.13955193937E-01  0.10202329029E+01  0.10199576578E+01 0.  0.
     999903    2    3    3    0    0  0.78082023160E-01 -0.58895764653E-01  0.82888610007E-01  0.12982384741E+00  0.20449847231E-01 0.  0.
         14    1    1    2    0    0  0.15671388980E-01 -0.11009656730E-01 -0.13955193937E-01  0.23697097115E-01  0.00000000000E+00 0.  1.
     999901    1    3    3    0    0 -0.93753412140E-01  0.69905421382E-01 -0.68933416071E-01  0.89040905548E+00  0.88000000000E+00 0.  1.
        -11    1    4    4    0    0  0.58631566672E-01 -0.32326311165E-01  0.54008294076E-01  0.86022136419E-01  0.51100000000E-03 0.  1.
         11    1    4    4    0    0  0.19450456488E-01 -0.26569453488E-01  0.28880315931E-01  0.43801710988E-01  0.51100000000E-03 0. -1.
</event>
<event>
 8    1  0.1094134E+005  0.1043930E+01  0.7957747E-01            NaN
         13   -1    0    0    0    0  0.00000000000E+00  0.00000000000E+00  0.74505805969E-08  0.10566000000E+00  0.10566000000E+00 0.  1.
     999900   -1    0    0    0    0 -0.00000000000E+00 -0.00000000000E+00 -0.74505805969E-08  0.93827000000E+00  0.93827000000E+00 0. -1.
     999902    2    1    2    0    0  0.71211057161E-02 -0.20145525281E-01 -0.36443652355E-02  0.10222543516E+01  0.10220245230E+01 0.  0.
     999903    2    3    3    0    0  0.22320667948E-02  0.90282731988E-01  0.91587914683E-01  0.13024118475E+00  0.20456448149E-01 0.  0.
         14    1    1    2    0    0 -0.71211057161E-02  0.20145525281E-01  0.36443652355E-02  0.21675648398E-01  0.00000000000E+00 0.  1.
     999901    1    3    3    0    0  0.48890389213E-02 -0.11042825727E+00 -0.95232279919E-01  0.89201316686E+00  0.88000000000E+00 0. -1.
        -11    1    4    4    0    0  0.64159050369E-02  0.83329143978E-01  0.77526211519E-01  0.11399773975E+00  0.51100000000E-03 0. -1.
         11    1    4    4    0    0 -0.41838382422E-02  0.69535880103E-02  0.14061703164E-01  0.16243445002E-01  0.51100000000E-03 0.  1.
</event>
<event>
 8    1  0.1094134E+005  0.1043930E+01  0.7957747E-01            NaN
         13   -1    0    0    0    0  0.00000000000E+00  0.00000000000E+00  0.74505805969E-08  0.10566000000E+00  0.10566000000E+00 0. -1.
     999900   -1    0    0    0    0 -0.00000000000E+00 -0.00000000000E+00 -0.74505805969E-08  0.93827000000E+00  0.93827000000E+00 0.  1.
     999902    2    1    2    0    0 -0.15980725396E-01  0.15767810697E-01 -0.17263738174E-02  0.10214136103E+01  0.10211654007E+01 0.  0.
     999903    2    3    3    0    0 -0.30203063095E-02 -0.44320333082E-01  0.12148430217E+00  0.13070634742E+00  0.18769640559E-01 0.  0.
         14    1    1    2    0    0  0.15980725396E-01 -0.15767810697E-01  0.17263738174E-02  0.22516389696E-01  0.00000000000E+00 0. -1.
     999901    1    3    3    0    0 -0.12960419087E-01  0.60088143779E-01 -0.12321067599E+00  0.89070726289E+00  0.88000000000E+00 0.  1.
        -11    1    4    4    0    0  0.47245361220E-02 -0.81356510929E-02  0.41783651056E-01  0.42832752385E-01  0.51100000000E-03 0.  1.
         11    1    4    4    0    0 -0.77448424314E-02 -0.36184681989E-01  0.79700651112E-01  0.87873595031E-01  0.51100000000E-03 0. -1.
</event>
<event>
 8    1  0.1094134E+005  0.1043930E+01  0.7957747E-01            NaN
         13   -1    0    0    0    0  0.00000000000E+00  0.00000000000E+00  0.74505805969E-08  0.10566000000E+00  0.10566000000E+00 0. -1.
     999900   -1    0    0    0    0 -0.00000000000E+00 -0.00000000000E+00 -0.74505805969E-08  0.93827000000E+00  0.93827000000E+00 0.  1.
     999902    2    1    2    0    0  0.20403086097E-01 -0.10047246242E-01  0.23209890365E-02  0.10210691149E+01  0.10208131647E+01 0.  0.
     999903    2    3    3    0    0  0.12788135200E+00 -0.33425692570E-01 -0.93871866142E-02  0.13414453477E+00  0.20873902917E-01 0.  0.
         14    1    1    2    0    0 -0.20403086097E-01  0.10047246242E-01 -0.23209890365E-02  0.22860885141E-01  0.00000000000E+00 0.  1.
     999901    1    3    3    0    0 -0.10747826590E+00  0.23378446328E-01  0.11708175651E-01  0.88692458009E+00  0.88000000000E+00 0. -1.
        -11    1    4    4    0    0  0.91815833626E-01 -0.32840107984E-01 -0.10323985756E-01  0.98058481529E-01  0.51100000000E-03 0.  1.
         11    1    4    4    0    0  0.36065518371E-01 -0.58558458584E-03  0.93679914169E-03  0.36086053239E-01  0.51100000000E-03 0. -1.
</event>
<event>
 8    1  0.1094134E+005  0.1043930E+01  0.7957747E-01            NaN
         13   -1    0    0    0    0  0.00000000000E+00  0.00000000000E+00  0.74505805969E-08  0.10566000000E+00  0.10566000000E+00 0. -1.
     999900   -1    0    0    0    0 -0.00000000000E+00 -0.00000000000E+00 -0.74505805969E-08  0.93827000000E+00  0.93827000000E+00 0. -1.
     999902    2    1    2    0    0  0.12097035095E-01 -0.88104942304E-02  0.17210108945E-01  0.10211231827E+01  0.10208684554E+01 0.  0.
     999903    2    3    3    0    0 -0.11801644888E+00 -0.33850518675E-01 -0.36009065007E-01  0.12961389948E+00  0.20721253706E-01 0.  0.
         14    1    1    2    0    0 -0.12097035095E-01  0.88104942304E-02 -0.17210108945E-01  0.22806817327E-01  0.00000000000E+00 0.  1.
     999901    1    3    3    0    0  0.13011348398E+00  0.25040024444E-01  0.53219173952E-01  0.89150928319E+00  0.88000000000E+00 0.  1.
        -11    1    4    4    0    0 -0.44503954878E-01 -0.14059774921E-01 -0.24188232866E-01  0.52570058026E-01  0.51100000000E-03 0. -1.
         11    1    4    4    0    0 -0.73512494005E-01 -0.19790743754E-01 -0.11820832142E-01  0.77043841458E-01  0.51100000000E-03 0.  1.
</event>
<event>
 8    1  0.1094134E+005  0.1043930E+01  0.7957747E-01            NaN
         13   -1    0    0    0    0  0.00000000000E+00  0.00000000000E+00  0.74505805969E-08  0.10566000000E+00  0.10566000000E+00 0. -1.
     999900   -1    0    0    0    0 -0.00000000000E+00 -0.00000000000E+00 -0.74505805969E-08  0.93827000000E+00  0.93827000000E+00 0. -1.
     999902    2    1    2    0    0 -0.55230428819E-02 -0.20919199415E-01  0.10543650805E-01  0.10198616498E+01  0.10195776083E+01 0.  0.
     999903    2    3    3    0    0  0.20762110347E-01 -0.78679542103E-01 -0.10090595121E+00  0.13056519744E+00  0.15611669411E-01 0.  0.
         14    1    1    2    0    0  0.55230428819E-02  0.20919199415E-01 -0.10543650805E-01  0.24068350154E-01  0.00000000000E+00 0.  1.
     999901    1    3    3    0    0 -0.26285153229E-01  0.57760342688E-01  0.11144960202E+00  0.88929645240E+00  0.88000000000E+00 0.  1.
        -11    1    4    4    0    0  0.71118102745E-02 -0.37142333462E-01 -0.35377734662E-01  0.51787797899E-01  0.51100000000E-03 0. -1.
         11    1    4    4    0    0  0.13650300072E-01 -0.41537208640E-01 -0.65528216550E-01  0.78777399544E-01  0.51100000000E-03 0.  1.
</event>
<event>
 8    1  0.1094134E+005  0.1043930E+01  0.7957747E-01            NaN
         13   -1    0    0    0    0  0.00000000000E+00  0.00000000000E+00  0.74505805969E-08  0.10566000000E+00  0.10566000000E+00 0. -1.
     999900   -1    0    0    0    0 -0.00000000000E+00 -0.00000000000E+00 -0.74505805969E-08  0.93827000000E+00  0.93827000000E+00 0. -1.
     999902    2    1    2    0    0 -0.12600654647E-01  0.21460586745E-01  0.13980457553E-02  0.10190043543E+01  0.10186994583E+01 0.  0.
     999903    2    3    3    0    0  0.35731230322E-01  0.68916008131E-01  0.10310886546E+00  0.13056016419E+00  0.19707393018E-01 0.  0.
         14    1    1    2    0    0  0.12600654647E-01 -0.21460586745E-01 -0.13980457553E-02  0.24925645687E-01  0.00000000000E+00 0. -1.
     999901    1    3    3    0    0 -0.48331884970E-01 -0.47455421386E-01 -0.10171081970E+00  0.88844419013E+00  0.88000000000E+00 0. -1.
        -11    1    4    4    0    0  0.21468727648E-01  0.24334721229E-01  0.51606376826E-01  0.60963629930E-01  0.51100000000E-03 0.  1.
         11    1    4    4    0    0  0.14262502674E-01  0.44581286902E-01  0.51502488632E-01  0.69596534257E-01  0.51100000000E-03 0. -1.
</event>
<event>
 8    1  0.1094134E+005  0.1043930E+01  0.7957747E-01            NaN
         13   -1    0    0    0    0  0.00000000000E+00  0.00000000000E+00  0.74505805969E-08  0.10566000000E+00  0.10566000000E+00 0. -1.
     999900   -1    0    0    0    0 -0.00000000000E+00 -0.00000000000E+00 -0.74505805969E-08  0.93827000000E+00  0.93827000000E+00 0.  1.
     999902    2    1    2    0    0  0.12793362701E-01  0.19216930542E-01 -0.10214100981E-02  0.10208214772E+01  0.10205598877E+01 0.  0.
     999903    2    3    3    0    0 -0.69799550041E-01  0.98096049144E-01 -0.50177900122E-01  0.13208087098E+00  0.20801989673E-01 0.  0.
         14    1    1    2    0    0 -0.12793362701E-01 -0.19216930542E-01  0.10214100981E-02  0.23108522827E-01  0.00000000000E+00 0.  1.
     999901    1    3    3    0    0  0.82592912741E-01 -0.78879118602E-01  0.49156490024E-01  0.88874060619E+00  0.88000000000E+00 0. -1.
        -11    1    4    4    0    0 -0.43852161102E-01  0.63271491851E-01 -0.21131236954E-01  0.79831597820E-01  0.51100000000E-03 0.  1.
         11    1    4    4    0    0 -0.25947388939E-01  0.34824557294E-01 -0.29046663169E-01  0.52249273159E-01  0.51100000000E-03 0. -1.
</event>
<event>
 8    1  0.1094134E+005  0.1043930E+01  0.7957747E-01            NaN
         13   -1    0    0    0    0  0.00000000000E+00  0.00000000000E+00  0.74505805969E-08  0.10566000000E+00  0.10566000000E+00 0. -1.
     999900   -1    0    0    0    0 -0.00000000000E+00 -0.00000000000E+00 -0.74505805969E-08  0.93827000000E+00  0.93827000000E+00 0. -1.
     999902    2    1    2    0    0 -0.11623238796E-02  0.15572430397E-01 -0.17956467225E-01  0.10201332292E+01  0.10198556364E+01 0.  0.
     999903    2    3    3    0    0 -0.11261601250E+00  0.64122423513E-01  0.65282705200E-02  0.13143838342E+00  0.20961365679E-01 0.  0.
         14    1    1    2    0    0  0.11623238796E-02 -0.15572430397E-01  0.17956467225E-01  0.23796770800E-01  0.00000000000E+00 0.  1.
     999901    1    3    3    0    0  0.11145368862E+00 -0.48549993116E-01 -0.24484737745E-01  0.88869484578E+00  0.88000000000E+00 0.  1.
        -11    1    4    4    0    0 -0.37857464880E-01  0.24613584495E-01  0.11931346985E-01  0.46707968814E-01  0.51100000000E-03 0. -1.
         11    1    4    4    0    0 -0.74758547619E-01  0.39508839018E-01 -0.54030764654E-02  0.84730414604E-01  0.51100000000E-03 0.  1.
</event>
<event>
 8    1  0.1094134E+005  0.1043930E+01  0.7957747E-01            NaN
         13   -1    0    0    0    0  0.00000000000E+00  0.00000000000E+00  0.74505805969E-08  0.10566000000E+00  0.10566000000E+00 0. -1.
     999900   -1    0    0    0    0 -0.00000000000E+00 -0.00000000000E+00 -0.74505805969E-08  0.93827000000E+00  0.93827000000E+00 0.  1.
     999902    2    1    2    0    0  0.75338610827E-02  0.11233951019E-01  0.19408278470E-01  0.10202732464E+01  0.10199989487E+01 0.  0.
     999903    2    3    3    0    0 -0.12023297982E+00  0.39247855786E-01 -0.76866999971E-02  0.13019275432E+00  0.29911608153E-01 0.  0.
         14    1    1    2    0    0 -0.75338610827E-02 -0.11233951019E-01 -0.19408278470E-01  0.23656753613E-01  0.00000000000E+00 0. -1.
     999901    1    3    3    0    0  0.12776684090E+00 -0.28013904766E-01  0.27094978467E-01  0.89008049206E+00  0.88000000000E+00 0.  1.
        -11    1    4    4    0    0 -0.30412622369E-01  0.24248826129E-01 -0.24340342618E-02  0.38975874740E-01  0.51100000000E-03 0.  1.
         11    1    4    4    0    0 -0.89820357448E-01  0.14999029656E-01 -0.52526657352E-02  0.91216879584E-01  0.51100000000E-03 0. -1.
</event>
<event>
 8    1  0.1094134E+005  0.1043930E+01  0.7957747E-01            NaN
         13   -1    0    0    0    0  0.00000000000E+00  0.00000000000E+00  0.74505805969E-08  0.10566000000E+00  0.10566000000E+00 0.  1.
     999900   -1    0    0    0    0 -0.00000000000E+00 -0.00000000000E+00 -0.74505805969E-08  0.93827000000E+00  0.93827000000E+00 0.  1.
     999902    2    1    2    0    0  0.20879185019E-01 -0.10523979304E-01  0.82219101467E-02  0.10191450386E+01  0.10188436167E+01 0.  0.
     999903    2    3    3    0    0  0.12114008145E+00 -0.20474923180E-01  0.45683925142E-01  0.13260419279E+00  0.20067613593E-01 0.  0.
         14    1    1    2    0    0 -0.20879185019E-01  0.10523979304E-01 -0.82219101467E-02  0.24784961446E-01  0.00000000000E+00 0. -1.
     999901    1    3    3    0    0 -0.10026089644E+00  0.99509438766E-02 -0.37462014996E-01  0.88654084576E+00  0.88000000000E+00 0.  1.
        -11    1    4    4    0    0  0.58046176072E-01 -0.17170778252E-03  0.24639030061E-01  0.63061327004E-01  0.51100000000E-03 0. -1.
         11    1    4    4    0    0  0.63093905382E-01 -0.20303215398E-01  0.21044895081E-01  0.69542865787E-01  0.51100000000E-03 0.  1.
</event>
<event>
 8    1  0.1094134E+005  0.1043930E+01  0.7957747E-01            NaN
         13   -1    0    0    0    0  0.00000000000E+00  0.00000000000E+00  0.74505805969E-08  0.10566000000E+00  0.10566000000E+00 0. -1.
     999900   -1    0    0    0    0 -0.00000000000E+00 -0.00000000000E+00 -0.74505805969E-08  0.93827000000E+00  0.93827000000E+00 0. -1.
     999902    2    1    2    0    0  0.64693954276E-02 -0.88052113908E-02 -0.21128885477E-01  0.10201431417E+01  0.10198657828E+01 0.  0.
     999903    2    3    3    0    0  0.78333343753E-01 -0.88159868257E-01  0.52267219766E-01  0.13062159792E+00  0.20539339497E-01 0.  0.
         14    1    1    2    0    0 -0.64693954276E-02  0.88052113908E-02  0.21128885477E-01  0.23786858270E-01  0.00000000000E+00 0. -1.
     999901    1    3    3    0    0 -0.71863948325E-01  0.79354656866E-01 -0.73396105243E-01  0.88952154381E+00  0.88000000000E+00 0. -1.
        -11    1    4    4    0    0  0.49650981612E-01 -0.69431441087E-01  0.39571708822E-01  0.94085738805E-01  0.51100000000E-03 0.  1.
         11    1    4    4    0    0  0.28682362141E-01 -0.18728427170E-01  0.12695510943E-01  0.36535859116E-01  0.51100000000E-03 0. -1.
</event>
<event>
 8    1  0.1094134E+005  0.1043930E+01  0.7957747E-01            NaN
         13   -1    0    0    0    0  0.00000000000E+00  0.00000000000E+00  0.74505805969E-08  0.10566000000E+00  0.10566000000E+00 0. -1.
     999900   -1    0    0    0    0 -0.00000000000E+00 -0.00000000000E+00 -0.74505805969E-08  0.93827000000E+00  0.93827000000E+00 0.  1.
     999902    2    1    2    0    0  0.61600682036E-02 -0.18188865004E-01 -0.15584505388E-01  0.10191982783E+01  0.10188981659E+01 0.  0.
     999903    2    3    3    0    0 -0.41549656068E-02  0.11895675683E-01  0.12506708205E+00  0.12746157469E+00  0.21116514179E-01 0.  0.
         14    1    1    2    0    0 -0.61600682036E-02  0.18188865004E-01  0.15584505388E-01  0.24731721708E-01  0.00000000000E+00 0. -1.
     999901    1    3    3    0    0  0.10315033810E-01 -0.30084540687E-01 -0.14065158743E+00  0.89173670361E+00  0.88000000000E+00 0.  1.
        -11    1    4    4    0    0 -0.12111929620E-01  0.53064698291E-02  0.51598276227E-01  0.53268195875E-01  0.51100000000E-03 0. -1.
         11    1    4    4    0    0  0.79569640134E-02  0.65892058537E-02  0.73468805818E-01  0.74193378811E-01  0.51100000000E-03 0.  1.
</event>
<event>
 8    1  0.1094134E+005  0.1043930E+01  0.7957747E-01            NaN
         13   -1    0    0    0    0  0.00000000000E+00  0.00000000000E+00  0.74505805969E-08  0.10566000000E+00  0.10566000000E+00 0.  1.
     999900   -1    0    0    0    0 -0.00000000000E+00 -0.00000000000E+00 -0.74505805969E-08  0.93827000000E+00  0.93827000000E+00 0.  1.
     999902    2    1    2    0    0  0.21530148698E-01 -0.43156729386E-02  0.65367341176E-02  0.10210192770E+01  0.10207621970E+01 0.  0.
     999903    2    3    3    0    0 -0.96202611519E-02 -0.96287347894E-01  0.87595884364E-01  0.13197500202E+00  0.19507931982E-01 0.  0.
         14    1    1    2    0    0 -0.21530148698E-01  0.43156729386E-02 -0.65367341176E-02  0.22910723009E-01  0.00000000000E+00 0. -1.
     999901    1    3    3    0    0  0.31150409850E-01  0.91971674955E-01 -0.81059150247E-01  0.88904427498E+00  0.88000000000E+00 0.  1.
        -11    1    4    4    0    0  0.93403518223E-04 -0.74608552024E-01  0.70985919365E-01  0.10298401152E+00  0.51100000000E-03 0. -1.
         11    1    4    4    0    0 -0.97136646701E-02 -0.21678795870E-01  0.16609964999E-01  0.28990990497E-01  0.51100000000E-03 0.  1.
</event>
<event>
 8    1  0.1094134E+005  0.1043930E+01  0.7957747E-01            NaN
         13   -1    0    0    0    0  0.00000000000E+00  0.00000000000E+00  0.74505805969E-08  0.10566000000E+00  0.10566000000E+00 0.  1.
     999900   -1    0    0    0    0 -0.00000000000E+00 -0.00000000000E+00 -0.74505805969E-08  0.93827000000E+00  0.93827000000E+00 0.  1.
     999902    2    1    2    0    0 -0.13387648924E-01  0.26259811983E-01  0.11903385124E-01  0.10121416775E+01  0.10116423666E+01 0.  0.
     999903    2    3    3    0    0 -0.25365800999E-01 -0.54225234045E-01  0.10621444274E+00  0.12336955017E+00  0.18834494766E-01 0.  0.
         14    1    1    2    0    0  0.13387648924E-01 -0.26259811983E-01 -0.11903385124E-01  0.31788322486E-01  0.00000000000E+00 0. -1.
     999901    1    3    3    0    0  0.11978152075E-01  0.80485046028E-01 -0.94311057620E-01  0.88877212735E+00  0.88000000000E+00 0. -1.
        -11    1    4    4    0    0 -0.24994556670E-01 -0.38717303910E-01  0.68233463408E-01  0.82339687483E-01  0.51100000000E-03 0. -1.
         11    1    4    4    0    0 -0.37124432946E-03 -0.15507930135E-01  0.37980979336E-01  0.41029862683E-01  0.51100000000E-03 0.  1.
</event>
<event>
 8    1  0.1094134E+005  0.1043930E+01  0.7957747E-01            NaN
         13   -1    0    0    0    0  0.00000000000E+00  0.00000000000E+00  0.74505805969E-08  0.10566000000E+00  0.10566000000E+00 0.  1.
     999900   -1    0    0    0    0 -0.00000000000E+00 -0.00000000000E+00 -0.74505805969E-08  0.93827000000E+00  0.93827000000E+00 0. -1.
     999902    2    1    2    0    0 -0.86045998675E-02 -0.11835355633E-01  0.18992749105E-01  0.10199541934E+01  0.10196723579E+01 0.  0.
     999903    2    3    3    0    0 -0.48633917627E-01  0.11813228171E+00  0.17455250774E-02  0.12934125856E+00  0.20140019397E-01 0.  0.
         14    1    1    2    0    0  0.86045998675E-02  0.11835355633E-01 -0.18992749105E-01  0.23975806564E-01  0.00000000000E+00 0. -1.
     999901    1    3    3    0    0  0.40029317759E-01 -0.12996763734E+00  0.17247224027E-01  0.89061293488E+00  0.88000000000E+00 0.  1.
        -11    1    4    4    0    0 -0.19705193885E-01  0.73716439356E-01  0.74794694554E-04  0.76306453283E-01  0.51100000000E-03 0.  1.
         11    1    4    4    0    0 -0.28928723742E-01  0.44415842355E-01  0.16707303828E-02  0.53034805274E-01  0.51100000000E-03 0. -1.
</event>
<event>
 8    1  0.1094134E+005  0.1043930E+01  0.7957747E-01            NaN
         13   -1    0    0    0    0  0.00000000000E+00  0.00000000000E+00  0.74505805969E-08  0.10566000000E+00  0.10566000000E+00 0.  1.
     999900   -1    0    0    0    0 -0.00000000000E+00 -0.00000000000E+00 -0.74505805969E-08  0.93827000000E+00  0.93827000000E+00 0.  1.
     999902    2    1    2    0    0  0.38392413532E-02  0.21183941676E-01  0.14279212994E-01  0.10180960092E+01  0.10177681901E+01 0.  0.
     999903    2    3    3    0    0  0.44005430335E-01  0.89552341451E-01 -0.80165025021E-01  0.12949752001E+00  0.19674264745E-01 0.  0.
         14    1    1    2    0    0 -0.38392413532E-02 -0.21183941676E-01 -0.14279212994E-01  0.25833990842E-01  0.00000000000E+00 0. -1.
     999901    1    3    3    0    0 -0.40166188982E-01 -0.68368399775E-01  0.94444238015E-01  0.88859848915E+00  0.88000000000E+00 0. -1.
        -11    1    4    4    0    0  0.22022756474E-01  0.62464378420E-01 -0.58920140633E-01  0.88648995862E-01  0.51100000000E-03 0. -1.
         11    1    4    4    0    0  0.21982673861E-01  0.27087963031E-01 -0.21244884388E-01  0.40848524146E-01  0.51100000000E-03 0.  1.
</event>
<event>
 8    1  0.1094134E+005  0.1043930E+01  0.7957747E-01            NaN
         13   -1    0    0    0    0  0.00000000000E+00  0.00000000000E+00  0.74505805969E-08  0.10566000000E+00  0.10566000000E+00 0. -1.
     999900   -1    0    0    0    0 -0.00000000000E+00 -0.00000000000E+00 -0.74505805969E-08  0.93827000000E+00  0.93827000000E+00 0.  1.
     999902    2    1    2    0    0 -0.70346591802E-02  0.22412922651E-01  0.25418189344E-01  0.10093191653E+01  0.10087255660E+01 0.  0.
     999903    2    3    3    0    0  0.77644206221E-01 -0.86821000488E-01  0.50527742236E-02  0.11829878932E+00  0.20064001164E-01 0.  0.
         14    1    1    2    0    0  0.70346591802E-02 -0.22412922651E-01 -0.25418189344E-01  0.34610834735E-01  0.00000000000E+00 0.  1.
     999901    1    3    3    0    0 -0.84678865401E-01  0.10923392314E+00  0.20365415120E-01  0.89102037594E+00  0.88000000000E+00 0.  1.
        -11    1    4    4    0    0  0.63531702868E-01 -0.58232056000E-01  0.13062977551E-02  0.86192906611E-01  0.51100000000E-03 0.  1.
         11    1    4    4    0    0  0.14112503353E-01 -0.28588944487E-01  0.37464764685E-02  0.32105882712E-01  0.51100000000E-03 0. -1.
</event>
<event>
 8    1  0.1094134E+005  0.1043930E+01  0.7957747E-01            NaN
         13   -1    0    0    0    0  0.00000000000E+00  0.00000000000E+00  0.74505805969E-08  0.10566000000E+00  0.10566000000E+00 0.  1.
     999900   -1    0    0    0    0 -0.00000000000E+00 -0.00000000000E+00 -0.74505805969E-08  0.93827000000E+00  0.93827000000E+00 0. -1.
     999902    2    1    2    0    0 -0.44773802532E-02  0.23038937124E-02 -0.19772505741E-01  0.10235264012E+01  0.10233230121E+01 0.  0.
     999903    2    3    3    0    0 -0.92242188992E-01 -0.91621893552E-01 -0.27271617122E-01  0.13415530216E+00  0.18727284595E-01 0.  0.
         14    1    1    2    0    0  0.44773802532E-02 -0.23038937124E-02  0.19772505741E-01  0.20403598787E-01  0.00000000000E+00 0.  1.
     999901    1    3    3    0    0  0.87764808738E-01  0.93925787264E-01  0.74991113808E-02  0.88937109906E+00  0.88000000000E+00 0. -1.
        -11    1    4    4    0    0 -0.43925245463E-01 -0.51412987162E-01 -0.21824754469E-01  0.71058451056E-01  0.51100000000E-03 0.  1.
         11    1    4    4    0    0 -0.48316943529E-01 -0.40208906390E-01 -0.54468626530E-02  0.63096851100E-01  0.51100000000E-03 0. -1.
</event>
<event>
 8    1  0.1094134E+005  0.1043930E+01  0.7957747E-01            NaN
         13   -1    0    0    0    0  0.00000000000E+00  0.00000000000E+00  0.74505805969E-08  0.10566000000E+00  0.10566000000E+00 0. -1.
     999900   -1    0    0    0    0 -0.00000000000E+00 -0.00000000000E+00 -0.74505805969E-08  0.93827000000E+00  0.93827000000E+00 0.  1.
     999902    2    1    2    0    0 -0.24247978476E-01 -0.70317236089E-03  0.27453019367E-02  0.10195169790E+01  0.10192246440E+01 0.  0.
     999903    2    3    3    0    0  0.10144614770E+00 -0.32837915626E-01  0.67120616903E-01  0.12767852039E+00  0.20663440402E-01 0.  0.
         14    1    1    2    0    0  0.24247978476E-01  0.70317236089E-03 -0.27453019367E-02  0.24413020999E-01  0.00000000000E+00 0.  1.
     999901    1    3    3    0    0 -0.12569412618E+00  0.32134743265E-01 -0.64375314967E-01  0.89183845861E+00  0.88000000000E+00 0.  1.
        -11    1    4    4    0    0  0.26926492858E-01 -0.64733659585E-02  0.75830563929E-02  0.28717666161E-01  0.51100000000E-03 0. -1.
         11    1    4    4    0    0  0.74519654845E-01 -0.26364549667E-01  0.59537560511E-01  0.98960854230E-01  0.51100000000E-03 0.  1.
</event>
<event>
 7    1  0.1094134E+005  0.1043930E+01  0.7957747E-01            NaN
         13   -1    0    0    0    0  0.00000000000E+00  0.00000000000E+00  0.74505805969E-08  0.10566000000E+00  0.10566000000E+00 0. -1.
     999900   -1    0    0    0    0 -0.00000000000E+00 -0.00000000000E+00 -0.74505805969E-08  0.93827000000E+00  0.93827000000E+00 0.  1.
     999903    2    1    2    0    0  0.10607545133E-01  0.25874425544E-01  0.10639686134E+00  0.11176711720E+00  0.19738046338E-01 0.  0.
         14    1    1    2    0    0  0.13676525021E-01 -0.37589001116E-01 -0.26824090889E-01  0.48161314284E-01  0.00000000000E+00 0. -1.
     999901    1    1    2    0    0 -0.24284070154E-01  0.11714575572E-01 -0.79572770450E-01  0.88400156852E+00  0.88000000000E+00 0.  1.
        -11    1    3    3    0    0 -0.26084368305E-02 -0.78639847315E-03  0.24013121848E-01  0.24172577586E-01  0.51100000000E-03 0. -1.
         11    1    3    3    0    0  0.13215981964E-01  0.26660824017E-01  0.82383739491E-01  0.87594539613E-01  0.51100000000E-03 0.  1.
</event>
<event>
 8    1  0.1094134E+005  0.1043930E+01  0.7957747E-01            NaN
         13   -1    0    0    0    0  0.00000000000E+00  0.00000000000E+00  0.74505805969E-08  0.10566000000E+00  0.10566000000E+00 0.  1.
     999900   -1    0    0    0    0 -0.00000000000E+00 -0.00000000000E+00 -0.74505805969E-08  0.93827000000E+00  0.93827000000E+00 0. -1.
     999902    2    1    2    0    0  0.19590113743E-01 -0.18439430534E-01 -0.14415980787E-01  0.10134077842E+01  0.10129480398E+01 0.  0.
     999903    2    3    3    0    0 -0.10654315442E+00 -0.43750476367E-01  0.36996166827E-01  0.12256915724E+00  0.19721409904E-01 0.  0.
         14    1    1    2    0    0 -0.19590113743E-01  0.18439430534E-01  0.14415980787E-01  0.30522215794E-01  0.00000000000E+00 0.  1.
     999901    1    3    3    0    0  0.12613326817E+00  0.25311045833E-01 -0.51412147614E-01  0.89083862697E+00  0.88000000000E+00 0. -1.
        -11    1    4    4    0    0 -0.31570019680E-01 -0.35310463124E-02  0.10117170492E-01  0.33342955634E-01  0.51100000000E-03 0. -1.
         11    1    4    4    0    0 -0.74973134745E-01 -0.40219430055E-01  0.26878996335E-01  0.89226201602E-01  0.51100000000E-03 0.  1.
</event>
<event>
 8    1  0.1094134E+005  0.1043930E+01  0.7957747E-01            NaN
         13   -1    0    0    0    0  0.00000000000E+00  0.00000000000E+00  0.74505805969E-08  0.10566000000E+00  0.10566000000E+00 0.  1.
     999900   -1    0    0    0    0 -0.00000000000E+00 -0.00000000000E+00 -0.74505805969E-08  0.93827000000E+00  0.93827000000E+00 0.  1.
     999902    2    1    2    0    0  0.42080031200E-03  0.13865272326E-01  0.18531375890E-01  0.10207818955E+01  0.10205193989E+01 0.  0.
     999903    2    3    3    0    0 -0.12544136426E+00  0.33478099753E-01 -0.41097545011E-02  0.13132218969E+00  0.19295294552E-01 0.  0.
         14    1    1    2    0    0 -0.42080031200E-03 -0.13865272326E-01 -0.18531375890E-01  0.23148104501E-01  0.00000000000E+00 0. -1.
     999901    1    3    3    0    0  0.12586216458E+00 -0.19612827427E-01  0.22641130392E-01  0.88945970581E+00  0.88000000000E+00 0. -1.
        -11    1    4    4    0    0 -0.80463653693E-01  0.16244589528E-01 -0.10397698819E-01  0.82744543725E-01  0.51100000000E-03 0.  1.
         11    1    4    4    0    0 -0.44977710570E-01  0.17233510225E-01  0.62879443178E-02  0.48577645966E-01  0.51100000000E-03 0. -1.
</event>
<event>
 8    1  0.1094134E+005  0.1043930E+01  0.7957747E-01            NaN
         13   -1    0    0    0    0  0.00000000000E+00  0.00000000000E+00  0.74505805969E-08  0.10566000000E+00  0.10566000000E+00 0. -1.
     999900   -1    0    0    0    0 -0.00000000000E+00 -0.00000000000E+00 -0.74505805969E-08  0.93827000000E+00  0.93827000000E+00 0. -1.
     999902    2    1    2    0    0  0.10848541644E-01 -0.86788617629E-02 -0.18414806259E-01  0.10208623043E+01  0.10206016489E+01 0.  0.
     999903    2    3    3    0    0  0.11689975116E+00  0.44320460510E-01 -0.39641132627E-01  0.13265830509E+00  0.19923641052E-01 0.  0.
         14    1    1    2    0    0 -0.10848541644E-01  0.86788617629E-02  0.18414806259E-01  0.23067695742E-01  0.00000000000E+00 0. -1.
     999901    1    3    3    0    0 -0.10605120952E+00 -0.52999322273E-01  0.21226326368E-01  0.88820399916E+00  0.88000000000E+00 0. -1.
        -11    1    4    4    0    0  0.39730059025E-01  0.15809845456E-01 -0.38358932796E-02  0.42934880944E-01  0.51100000000E-03 0. -1.
         11    1    4    4    0    0  0.77169692136E-01  0.28510615054E-01 -0.35805239348E-01  0.89723424149E-01  0.51100000000E-03 0.  1.
</event>
<event>
 8    1  0.1094134E+005  0.1043930E+01  0.7957747E-01            NaN
         13   -1    0    0    0    0  0.00000000000E+00  0.00000000000E+00  0.74505805969E-08  0.10566000000E+00  0.10566000000E+00 0.  1.
     999900   -1    0    0    0    0 -0.00000000000E+00 -0.00000000000E+00 -0.74505805969E-08  0.93827000000E+00  0.93827000000E+00 0. -1.
     999902    2    1    2    0    0 -0.28037283172E-01  0.90686811652E-04  0.13697639392E-01  0.10127254683E+01  0.10122446105E+01 0.  0.
     999903    2    3    3    0    0  0.98303584056E-01 -0.60077911012E-01 -0.20026176593E-01  0.12103069395E+00  0.31215878957E-01 0.  0.
         14    1    1    2    0    0  0.28037283172E-01 -0.90686811652E-04 -0.13697639392E-01  0.31204531669E-01  0.00000000000E+00 0. -1.
     999901    1    3    3    0    0 -0.12634086723E+00  0.60168597823E-01  0.33723815985E-01  0.89169477438E+00  0.88000000000E+00 0.  1.
        -11    1    4    4    0    0  0.63482734573E-01 -0.51554781656E-01 -0.23281365970E-01  0.85030795732E-01  0.51100000000E-03 0.  1.
         11    1    4    4    0    0  0.34820849483E-01 -0.85231293558E-02  0.32551893769E-02  0.35999898217E-01  0.51100000000E-03 0. -1.
</event>
<event>
 8    1  0.1094134E+005  0.1043930E+01  0.7957747E-01            NaN
         13   -1    0    0    0    0  0.00000000000E+00  0.00000000000E+00  0.74505805969E-08  0.10566000000E+00  0.10566000000E+00 0. -1.
     999900   -1    0    0    0    0 -0.00000000000E+00 -0.00000000000E+00 -0.74505805969E-08  0.93827000000E+00  0.93827000000E+00 0.  1.
     999902    2    1    2    0    0  0.12946849409E-01  0.99933975479E-02  0.18591099633E-01  0.10191687825E+01  0.10188679450E+01 0.  0.
     999903    2    3    3    0    0  0.11064244761E+00  0.32659399521E-01 -0.57085154821E-01  0.13024523519E+00  0.19917801039E-01 0.  0.
         14    1    1    2    0    0 -0.12946849409E-01 -0.99933975479E-02 -0.18591099633E-01  0.24761217452E-01  0.00000000000E+00 0.  1.
     999901    1    3    3    0    0 -0.97695598206E-01 -0.22666001973E-01  0.75676254454E-01  0.88892354736E+00  0.88000000000E+00 0. -1.
        -11    1    4    4    0    0  0.69785034356E-01  0.10538639408E-01 -0.33064372953E-01  0.77939257248E-01  0.51100000000E-03 0. -1.
         11    1    4    4    0    0  0.40857413259E-01  0.22120760113E-01 -0.24020781868E-01  0.52305977944E-01  0.51100000000E-03 0.  1.
</event>
<event>
 8    1  0.1094134E+005  0.1043930E+01  0.7957747E-01            NaN
         13   -1    0    0    0    0  0.00000000000E+00  0.00000000000E+00  0.74505805969E-08  0.10566000000E+00  0.10566000000E+00 0. -1.
     999900   -1    0    0    0    0 -0.00000000000E+00 -0.00000000000E+00 -0.74505805969E-08  0.93827000000E+00  0.93827000000E+00 0. -1.
     999902    2    1    2    0    0  0.60031857004E-03 -0.61530762767E-02 -0.23056908688E-01  0.10200586413E+01  0.10197792849E+01 0.  0.
     999903    2    3    3    0    0  0.10213536844E+00  0.42649023046E-01  0.62298877925E-01  0.12878055807E+00  0.21276966294E-01 0.  0.
         14    1    1    2    0    0 -0.60031857004E-03  0.61530762767E-02  0.23056908688E-01  0.23871358744E-01  0.00000000000E+00 0. -1.
     999901    1    3    3    0    0 -0.10153504987E+00 -0.48802099322E-01 -0.85355786613E-01  0.89127808318E+00  0.88000000000E+00 0.  1.
        -11    1    4    4    0    0  0.42635238781E-01  0.27110293775E-01  0.21086926894E-01  0.54750810234E-01  0.51100000000E-03 0.  1.
         11    1    4    4    0    0  0.59500129657E-01  0.15538729270E-01  0.41211951031E-01  0.74029747840E-01  0.51100000000E-03 0. -1.
</event>
<event>
 8    1  0.1094134E+005  0.1043930E+01  0.7957747E-01            NaN
         13   -1    0    0    0    0  0.00000000000E+00  0.00000000000E+00  0.74505805969E-08  0.10566000000E+00  0.10566000000E+00 0.  1.
     999900   -1    0    0    0    0 -0.00000000000E+00 -0.00000000000E+00 -0.74505805969E-08  0.93827000000E+00  0.93827000000E+00 0.  1.
     999902    2    1    2    0    0 -0.13495237288E-01 -0.11735998920E-01  0.15014827177E-01  0.10205783376E+01  0.10203111501E+01 0.  0.
     999903    2    3    3    0    0  0.55565554305E-01  0.11480715282E+00 -0.16139846016E-02  0.12869321074E+00  0.17062367394E-01 0.  0.
         14    1    1    2    0    0  0.13495237288E-01  0.11735998920E-01 -0.15014827177E-01  0.23351662366E-01  0.00000000000E+00 0. -1.
     999901    1    3    3    0    0 -0.69060791593E-01 -0.12654315174E+00  0.16628811779E-01  0.89188512689E+00  0.88000000000E+00 0. -1.
        -11    1    4    4    0    0  0.97988182521E-02  0.99141618522E-02 -0.28770037778E-02  0.14242391516E-01  0.51100000000E-03 0. -1.
         11    1    4    4    0    0  0.45766736053E-01  0.10489299097E+00  0.12630191762E-02  0.11445081923E+00  0.51100000000E-03 0.  1.
</event>
<event>
 8    1  0.1094134E+005  0.1043930E+01  0.7957747E-01            NaN
         13   -1    0    0    0    0  0.00000000000E+00  0.00000000000E+00  0.74505805969E-08  0.10566000000E+00  0.10566000000E+00 0.  1.
     999900   -1    0    0    0    0 -0.00000000000E+00 -0.00000000000E+00 -0.74505805969E-08  0.93827000000E+00  0.93827000000E+00 0.  1.
     999902    2    1    2    0    0  0.13216301897E-01  0.62341087880E-02 -0.19331874906E-01  0.10196966318E+01  0.10194086348E+01 0.  0.
     999903    2    3    3    0    0  0.33125764443E-01 -0.11309858701E+00 -0.53695643396E-01  0.13075481840E+00  0.18027583360E-01 0.  0.
         14    1    1    2    0    0 -0.13216301897E-01 -0.62341087880E-02  0.19331874906E-01  0.24233368226E-01  0.00000000000E+00 0.  1.
     999901    1    3    3    0    0 -0.19909462546E-01  0.11933269579E+00  0.34363768490E-01  0.88894181338E+00  0.88000000000E+00 0. -1.
        -11    1    4    4    0    0  0.25193495540E-01 -0.67492851215E-01 -0.24844029542E-01  0.76206850792E-01  0.51100000000E-03 0. -1.
         11    1    4    4    0    0  0.79322689029E-02 -0.45605735790E-01 -0.28851613854E-01  0.54547967606E-01  0.51100000000E-03 0.  1.
</event>
<event>
 8    1  0.1094134E+005  0.1043930E+01  0.7957747E-01            NaN
         13   -1    0    0    0    0  0.00000000000E+00  0.00000000000E+00  0.74505805969E-08  0.10566000000E+00  0.10566000000E+00 0.  1.
     999900   -1    0    0    0    0 -0.00000000000E+00 -0.00000000000E+00 -0.74505805969E-08  0.93827000000E+00  0.93827000000E+00 0.  1.
     999902    2    1    2    0    0 -0.71880708581E-02 -0.12166176229E-01  0.16204519980E-01  0.10224295192E+01  0.10222034294E+01 0.  0.
     999903    2    3    3    0    0 -0.27185728991E-01  0.11856361957E+00  0.47260503204E-01  0.13200565388E+00  0.19888231353E-01 0.  0.
         14    1    1    2    0    0  0.71880708581E-02  0.12166176229E-01 -0.16204519980E-01  0.21500480796E-01  0.00000000000E+00 0. -1.
     999901    1    3    3    0    0  0.19997658133E-01 -0.13072979580E+00 -0.31055983224E-01  0.89042386532E+00  0.88000000000E+00 0.  1.
        -11    1    4    4    0    0 -0.13316417608E-01  0.49361670810E-01  0.30240920835E-01  0.59402659342E-01  0.51100000000E-03 0. -1.
         11    1    4    4    0    0 -0.13869311383E-01  0.69201948764E-01  0.17019582369E-01  0.72602994539E-01  0.51100000000E-03 0.  1.
</event>
<event>
 8    1  0.1094134E+005  0.1043930E+01  0.7957747E-01            NaN
         13   -1    0    0    0    0  0.00000000000E+00  0.00000000000E+00  0.74505805969E-08  0.10566000000E+00  0.10566000000E+00 0. -1.
     999900   -1    0    0    0    0 -0.00000000000E+00 -0.00000000000E+00 -0.74505805969E-08  0.93827000000E+00  0.93827000000E+00 0. -1.
     999902    2    1    2    0    0  0.22777285923E-01 -0.64910899036E-02  0.94394908786E-03  0.10202270457E+01  0.10199516630E+01 0.  0.
     999903    2    3    3    0    0  0.20454395740E-01 -0.56660073613E-01  0.11514394641E+00  0.13142787709E+00  0.19657371053E-01 0.  0.
         14    1    1    2    0    0 -0.22777285923E-01  0.64910899036E-02 -0.94394908786E-03  0.23702954289E-01  0.00000000000E+00 0.  1.
     999901    1    3    3    0    0  0.23228901832E-02  0.50168983710E-01 -0.11419999732E+00  0.88879916862E+00  0.88000000000E+00 0. -1.
        -11    1    4    4    0    0  0.86560550560E-02 -0.12915570727E-01  0.47735148270E-01  0.50206023122E-01  0.51100000000E-03 0. -1.
         11    1    4    4    0    0  0.11798340684E-01 -0.43744502886E-01  0.67408798136E-01  0.81221853973E-01  0.51100000000E-03 0.  1.
</event>
<event>
 8    1  0.1094134E+005  0.1043930E+01  0.7957747E-01            NaN
         13   -1    0    0    0    0  0.00000000000E+00  0.00000000000E+00  0.74505805969E-08  0.10566000000E+00  0.10566000000E+00 0. -1.
     999900   -1    0    0    0    0 -0.00000000000E+00 -0.00000000000E+00 -0.74505805969E-08  0.93827000000E+00  0.93827000000E+00 0.  1.
     999902    2    1    2    0    0  0.21113190359E-01 -0.93206651668E-02 -0.47081157873E-02  0.10203756382E+01  0.10201037374E+01 0.  0.
     999903    2    3    3    0    0  0.11798208508E+00 -0.56457967923E-01 -0.19090101522E-01  0.13368947635E+00  0.20029217891E-01 0.  0.
         14    1    1    2    0    0 -0.21113190359E-01  0.93206651668E-02  0.47081157873E-02  0.23554361815E-01  0.00000000000E+00 0. -1.
     999901    1    3    3    0    0 -0.96868894719E-01  0.47137302756E-01  0.14381985735E-01  0.88668616183E+00  0.88000000000E+00 0.  1.
        -11    1    4    4    0    0  0.92054066762E-01 -0.50355654540E-01 -0.20890114556E-01  0.10698738785E+00  0.51100000000E-03 0.  1.
         11    1    4    4    0    0  0.25928018316E-01 -0.61023133833E-02  0.18000130331E-02  0.26702088501E-01  0.51100000000E-03 0. -1.
</event>
<event>
 8    1  0.1094134E+005  0.1043930E+01  0.7957747E-01            NaN
         13   -1    0    0    0    0  0.00000000000E+00  0.00000000000E+00  0.74505805969E-08  0.10566000000E+00  0.10566000000E+00 0.  1.
     999900   -1    0    0    0    0 -0.00000000000E+00 -0.00000000000E+00 -0.74505805969E-08  0.93827000000E+00  0.93827000000E+00 0. -1.
     999902    2    1    2    0    0  0.17423210329E-01  0.39868738846E-02  0.14975155486E-01  0.10206122234E+01  0.10203458198E+01 0.  0.
     999903    2    3    3    0    0 -0.20561050201E-02 -0.19897732695E-01 -0.12571708013E+00  0.12890362569E+00  0.20278391096E-01 0.  0.
         14    1    1    2    0    0 -0.17423210329E-01 -0.39868738846E-02 -0.14975155486E-01  0.23317776553E-01  0.00000000000E+00 0.  1.
     999901    1    3    3    0    0  0.19479315349E-01  0.23884606579E-01  0.14069223561E+00  0.89170859776E+00  0.88000000000E+00 0.  1.
        -11    1    4    4    0    0 -0.49765605951E-02  0.26438044428E-02 -0.21186866472E-01  0.21929438871E-01  0.51100000000E-03 0. -1.
         11    1    4    4    0    0  0.29204555750E-02 -0.22541537138E-01 -0.10453021365E+00  0.10697418682E+00  0.51100000000E-03 0.  1.
</event>
<event>
 8    1  0.1094134E+005  0.1043930E+01  0.7957747E-01            NaN
         13   -1    0    0    0    0  0.00000000000E+00  0.00000000000E+00  0.74505805969E-08  0.10566000000E+00  0.10566000000E+00 0.  1.
     999900   -1    0    0    0    0 -0.00000000000E+00 -0.00000000000E+00 -0.74505805969E-08  0.93827000000E+00  0.93827000000E+00 0. -1.
     999902    2    1    2    0    0 -0.16350342189E-01  0.10593357650E-01 -0.12215901406E-01  0.10209347578E+01  0.10206757558E+01 0.  0.
     999903    2    3    3    0    0 -0.67060457040E-01 -0.16434704881E-02 -0.11380511438E+00  0.13355568216E+00  0.19639508245E-01 0.  0.
         14    1    1    2    0    0  0.16350342189E-01 -0.10593357650E-01  0.12215901406E-01  0.22995242185E-01  0.00000000000E+00 0.  1.
     999901    1    3    3    0    0  0.50710114851E-01  0.12236828138E-01  0.10158921298E+00  0.88737907565E+00  0.88000000000E+00 0.  1.
        -11    1    4    4    0    0 -0.13786208626E-01  0.77042865410E-02 -0.26385338850E-01  0.30754882647E-01  0.51100000000E-03 0.  1.
         11    1    4    4    0    0 -0.53274248414E-01 -0.93477570291E-02 -0.87419775535E-01  0.10280079952E+00  0.51100000000E-03 0. -1.
</event>
<event>
 8    1  0.1094134E+005  0.1043930E+01  0.7957747E-01            NaN
         13   -1    0    0    0    0  0.00000000000E+00  0.00000000000E+00  0.74505805969E-08  0.10566000000E+00  0.10566000000E+00 0.  1.
     999900   -1    0    0    0    0 -0.00000000000E+00 -0.00000000000E+00 -0.74505805969E-08  0.93827000000E+00  0.93827000000E+00 0. -1.
     999902    2    1    2    0    0 -0.19993389109E-01  0.11537079985E-01  0.50244498800E-02  0.10203061790E+01  0.10200326534E+01 0.  0.
     999903    2    3    3    0    0  0.93707308330E-01 -0.85024640034E-01 -0.56023301197E-02  0.12768927190E+00  0.16214654086E-01 0.  0.
         14    1    1    2    0    0  0.19993389109E-01 -0.11537079985E-01 -0.50244498800E-02  0.23623821013E-01  0.00000000000E+00 0. -1.
     999901    1    3    3    0    0 -0.11370069744E+00  0.96561720020E-01  0.10626780000E-01  0.89261690709E+00  0.88000000000E+00 0.  1.
        -11    1    4    4    0    0  0.17575846663E-01 -0.82421738127E-02 -0.73023565726E-04  0.19419327190E-01  0.51100000000E-03 0. -1.
         11    1    4    4    0    0  0.76131461668E-01 -0.76782466222E-01 -0.55293065540E-02  0.10826994471E+00  0.51100000000E-03 0.  1.
</event>
<event>
 8    1  0.1094134E+005  0.1043930E+01  0.7957747E-01            NaN
         13   -1    0    0    0    0  0.00000000000E+00  0.00000000000E+00  0.74505805969E-08  0.10566000000E+00  0.10566000000E+00 0. -1.
     999900   -1    0    0    0    0 -0.00000000000E+00 -0.00000000000E+00 -0.74505805969E-08  0.93827000000E+00  0.93827000000E+00 0. -1.
     999902    2    1    2    0    0  0.19662797556E-01 -0.14401400952E-02  0.12216964158E-01  0.10207361684E+01  0.10204726217E+01 0.  0.
     999903    2    3    3    0    0 -0.47841525218E-01 -0.11938861508E+00 -0.49467415061E-02  0.13013902651E+00  0.19215697286E-01 0.  0.
         14    1    1    2    0    0 -0.19662797556E-01  0.14401400952E-02 -0.12216964158E-01  0.23193831604E-01  0.00000000000E+00 0.  1.
     999901    1    3    3    0    0  0.67504322774E-01  0.11794847499E+00  0.17163705664E-01  0.89059714189E+00  0.88000000000E+00 0.  1.
        -11    1    4    4    0    0 -0.59361797259E-02 -0.37845090281E-02 -0.79376828189E-03  0.71029520206E-02  0.51100000000E-03 0.  1.
         11    1    4    4    0    0 -0.41905345492E-01 -0.11560410606E+00 -0.41529732242E-02  0.12303607449E+00  0.51100000000E-03 0. -1.
</event>
<event>
 8    1  0.1094134E+005  0.1043930E+01  0.7957747E-01            NaN
         13   -1    0    0    0    0  0.00000000000E+00  0.00000000000E+00  0.74505805969E-08  0.10566000000E+00  0.10566000000E+00 0.  1.
     999900   -1    0    0    0    0 -0.00000000000E+00 -0.00000000000E+00 -0.74505805969E-08  0.93827000000E+00  0.93827000000E+00 0.  1.
     999902    2    1    2    0    0  0.19658278845E-02  0.12158884155E-01  0.20247908959E-01  0.10202301949E+01  0.10199548862E+01 0.  0.
     999903    2    3    3    0    0 -0.10638735654E+00 -0.64241285282E-01  0.33071892532E-01  0.13020668231E+00  0.20367073307E-01 0.  0.
         14    1    1    2    0    0 -0.19658278845E-02 -0.12158884155E-01 -0.20247908959E-01  0.23699805070E-01  0.00000000000E+00 0. -1.
     999901    1    3    3    0    0  0.10835318443E+00  0.76400169436E-01 -0.12823983574E-01  0.89002351262E+00  0.88000000000E+00 0.  1.
        -11    1    4    4    0    0 -0.82404506275E-01 -0.50532048791E-01  0.16719643023E-01  0.98100959187E-01  0.51100000000E-03 0.  1.
         11    1    4    4    0    0 -0.23982850268E-01 -0.13709236490E-01  0.16352249509E-01  0.32105723121E-01  0.51100000000E-03 0. -1.
</event>
<event>
 8    1  0.1094134E+005  0.1043930E+01  0.7957747E-01            NaN
         13   -1    0    0    0    0  0.00000000000E+00  0.00000000000E+00  0.74505805969E-08  0.10566000000E+00  0.10566000000E+00 0. -1.
     999900   -1    0    0    0    0 -0.00000000000E+00 -0.00000000000E+00 -0.74505805969E-08  0.93827000000E+00  0.93827000000E+00 0.  1.
     999902    2    1    2    0    0 -0.12002398537E-02 -0.27409598850E-02 -0.22358846666E-01  0.10213718205E+01  0.10211226784E+01 0.  0.
     999903    2    3    3    0    0  0.57490039821E-01 -0.96526194771E-01 -0.68284492864E-01  0.13325618381E+00  0.21726196207E-01 0.  0.
         14    1    1    2    0    0  0.12002398537E-02  0.27409598850E-02  0.22358846666E-01  0.22558179471E-01  0.00000000000E+00 0. -1.
     999901    1    3    3    0    0 -0.58690279675E-01  0.93785234886E-01  0.45925646198E-01  0.88811563672E+00  0.88000000000E+00 0. -1.
        -11    1    4    4    0    0  0.27037872864E-01 -0.62694985834E-01 -0.47745373440E-01  0.83316202648E-01  0.51100000000E-03 0. -1.
         11    1    4    4    0    0  0.30452166957E-01 -0.33831208936E-01 -0.20539119424E-01  0.49939981159E-01  0.51100000000E-03 0.  1.
</event>
<event>
 7    1  0.1094134E+005  0.1043930E+01  0.7957747E-01            NaN
         13   -1    0    0    0    0  0.00000000000E+00  0.00000000000E+00  0.74505805969E-08  0.10566000000E+00  0.10566000000E+00 0.  1.
     999900   -1    0    0    0    0 -0.00000000000E+00 -0.00000000000E+00 -0.74505805969E-08  0.93827000000E+00  0.93827000000E+00 0.  1.
     999902    2    1    2    0    0 -0.65600701181E-02  0.11732145238E-01 -0.19629821358E-01  0.10201390850E+01  0.10198616303E+01 0.  0.
         14    1    1    2    0    0  0.65600701181E-02 -0.11732145238E-01  0.19629821358E-01  0.23790915039E-01  0.00000000000E+00 0.  1.
     999901    1    3    3    0    0  0.77643013778E-01  0.10255512213E+00 -0.14815911161E-01  0.88947484612E+00  0.88000000000E+00 0. -1.
        -11    1    3    3    0    0 -0.29627937899E-01 -0.68512228056E-02 -0.18631409589E-02  0.30471074371E-01  0.51100000000E-03 0. -1.
         11    1    3    3    0    0 -0.54575145997E-01 -0.83971754091E-01 -0.29507692384E-02  0.10019316447E+00  0.51100000000E-03 0.  1.
</event>
<event>
 8    1  0.1094134E+005  0.1043930E+01  0.7957747E-01            NaN
         13   -1    0    0    0    0  0.00000000000E+00  0.00000000000E+00  0.74505805969E-08  0.10566000000E+00  0.10566000000E+00 0.  1.
     999900   -1    0    0    0    0 -0.00000000000E+00 -0.00000000000E+00 -0.74505805969E-08  0.93827000000E+00  0.93827000000E+00 0. -1.
     999902    2    1    2    0    0 -0.17487538909E-01 -0.14911045496E-01  0.16156471047E-02  0.10208916925E+01  0.10206317085E+01 0.  0.
     999903    2    3    3    0    0 -0.90046643904E-02 -0.12888128903E+00  0.24884114756E-01  0.13319658883E+00  0.20751902708E-01 0.  0.
         14    1    1    2    0    0  0.17487538909E-01  0.14911045496E-01 -0.16156471047E-02  0.23038307456E-01  0.00000000000E+00 0.  1.
     999901    1    3    3    0    0 -0.84828745183E-02  0.11397024353E+00 -0.23268467651E-01  0.88769510371E+00  0.88000000000E+00 0. -1.
        -11    1    4    4    0    0  0.12102384184E-02 -0.54713894892E-01  0.19628616917E-01  0.58143088105E-01  0.51100000000E-03 0. -1.
         11    1    4    4    0    0 -0.10214902809E-01 -0.74167394137E-01  0.52554978387E-02  0.75053500725E-01  0.51100000000E-03 0.  1.
</event>
<event>
 8    1  0.1094134E+005  0.1043930E+01  0.7957747E-01            NaN
         13   -1    0    0    0    0  0.00000000000E+00  0.00000000000E+00  0.74505805969E-08  0.10566000000E+00  0.10566000000E+00 0. -1.
     999900   -1    0    0    0    0 -0.00000000000E+00 -0.00000000000E+00 -0.74505805969E-08  0.93827000000E+00  0.93827000000E+00 0. -1.
     999902    2    1    2    0    0  0.30599552724E-02 -0.12851018299E-01 -0.18048808647E-01  0.10215632503E+01  0.10213183651E+01 0.  0.
     999903    2    3    3    0    0 -0.88272880202E-01 -0.80461825640E-01  0.51142101740E-01  0.13156308730E+00  0.20666993111E-01 0.  0.
         14    1    1    2    0    0 -0.30599552724E-02  0.12851018299E-01  0.18048808647E-01  0.22366749678E-01  0.00000000000E+00 0. -1.
     999901    1    3    3    0    0  0.91332835474E-01  0.67610807341E-01 -0.69190910386E-01  0.89000016303E+00  0.88000000000E+00 0.  1.
        -11    1    4    4    0    0 -0.30288472198E-01 -0.17854047833E-01  0.21555559239E-01  0.41243930793E-01  0.51100000000E-03 0.  1.
         11    1    4    4    0    0 -0.57984408004E-01 -0.62607777807E-01  0.29586542500E-01  0.90319156504E-01  0.51100000000E-03 0. -1.
</event>
<event>
 8    1  0.1094134E+005  0.1043930E+01  0.7957747E-01            NaN
         13   -1    0    0    0    0  0.00000000000E+00  0.00000000000E+00  0.74505805969E-08  0.10566000000E+00  0.10566000000E+00 0.  1.
     999900   -1    0    0    0    0 -0.00000000000E+00 -0.00000000000E+00 -0.74505805969E-08  0.93827000000E+00  0.93827000000E+00 0. -1.
     999902    2    1    2    0    0  0.13971807478E-01  0.17330483152E-01  0.59541347972E-02  0.10208863724E+01  0.10206262669E+01 0.  0.
     999903    2    3    3    0    0  0.60568023665E-01 -0.56363760053E-01  0.10045125746E+00  0.13154293200E+00  0.19176258645E-01 0.  0.
         14    1    1    2    0    0 -0.13971807478E-01 -0.17330483152E-01 -0.59541347972E-02  0.23043627572E-01  0.00000000000E+00 0. -1.
     999901    1    3    3    0    0 -0.46596216187E-01  0.73694243206E-01 -0.94497122661E-01  0.88934344043E+00  0.88000000000E+00 0. -1.
        -11    1    4    4    0    0  0.15197305241E-01 -0.21905280087E-01  0.43238059544E-01  0.50799510789E-01  0.51100000000E-03 0.  1.
         11    1    4    4    0    0  0.45370718424E-01 -0.34458479966E-01  0.57213197914E-01  0.80743421209E-01  0.51100000000E-03 0. -1.
</event>
<event>
 8    1  0.1094134E+005  0.1043930E+01  0.7957747E-01            NaN
         13   -1    0    0    0    0  0.00000000000E+00  0.00000000000E+00  0.74505805969E-08  0.10566000000E+00  0.10566000000E+00 0. -1.
     999900   -1    0    0    0    0 -0.00000000000E+00 -0.00000000000E+00 -0.74505805969E-08  0.93827000000E+00  0.93827000000E+00 0.  1.
     999902    2    1    2    0    0  0.85974374207E-02 -0.44196820957E-02  0.19670610767E-01  0.10220123713E+01  0.10217773263E+01 0.  0.
     999903    2    3    3    0    0 -0.77614758768E-01  0.28555122035E-01  0.10260250659E+00  0.13330680711E+00  0.20099370372E-01 0.  0.
         14    1    1    2    0    0 -0.85974374207E-02  0.44196820957E-02 -0.19670610767E-01  0.21917628704E-01  0.00000000000E+00 0.  1.
     999901    1    3    3    0    0  0.86212196188E-01 -0.32974804130E-01 -0.82931895821E-01  0.88870556419E+00  0.88000000000E+00 0.  1.
        -11    1    4    4    0    0 -0.58486013811E-01  0.13613721673E-01  0.64504741468E-01  0.88130982192E-01  0.51100000000E-03 0.  1.
         11    1    4    4    0    0 -0.19128744957E-01  0.14941400362E-01  0.38097765121E-01  0.45175824914E-01  0.51100000000E-03 0. -1.
</event>
<event>
 8    1  0.1094134E+005  0.1043930E+01  0.7957747E-01            NaN
         13   -1    0    0    0    0  0.00000000000E+00  0.00000000000E+00  0.74505805969E-08  0.10566000000E+00  0.10566000000E+00 0. -1.
     999900   -1    0    0    0    0 -0.00000000000E+00 -0.00000000000E+00 -0.74505805969E-08  0.93827000000E+00  0.93827000000E+00 0. -1.
     999902    2    1    2    0    0  0.13505885104E-01 -0.13335964290E-01  0.14366255496E-01  0.10201256690E+01  0.10198478977E+01 0.  0.
     999903    2    3    3    0    0 -0.23000469290E-01  0.10998133183E+00  0.61498621340E-01  0.12952961618E+00  0.19259441914E-01 0.  0.
         14    1    1    2    0    0 -0.13505885104E-01  0.13335964290E-01 -0.14366255496E-01  0.23804330971E-01  0.00000000000E+00 0.  1.
     999901    1    3    3    0    0  0.36506354393E-01 -0.12331729612E+00 -0.47132365844E-01  0.89059605285E+00  0.88000000000E+00 0.  1.
        -11    1    4    4    0    0 -0.22561101670E-01  0.74889387660E-01  0.48873283422E-01  0.92229510711E-01  0.51100000000E-03 0.  1.
         11    1    4    4    0    0 -0.43936761999E-03  0.35091944172E-01  0.12625337918E-01  0.37300105472E-01  0.51100000000E-03 0. -1.
</event>
<event>
 8    1  0.1094134E+005  0.1043930E+01  0.7957747E-01            NaN
         13   -1    0    0    0    0  0.00000000000E+00  0.00000000000E+00  0.74505805969E-08  0.10566000000E+00  0.10566000000E+00 0. -1.
     999900   -1    0    0    0    0 -0.00000000000E+00 -0.00000000000E+00 -0.74505805969E-08  0.93827000000E+00  0.93827000000E+00 0.  1.
     999902    2    1    2    0    0 -0.15139090947E-01 -0.15503986390E-01 -0.74117720433E-02  0.10210280343E+01  0.10207711530E+01 0.  0.
     999903    2    3    3    0    0  0.10884441718E-01  0.39506645490E-01  0.12142773350E+00  0.12956686740E+00  0.19069151979E-01 0.  0.
         14    1    1    2    0    0  0.15139090947E-01  0.15503986390E-01  0.74117720433E-02  0.22901965713E-01  0.00000000000E+00 0. -1.
     999901    1    3    3    0    0 -0.26023532665E-01 -0.55010631881E-01 -0.12883950554E+00  0.89146116688E+00  0.88000000000E+00 0.  1.
        -11    1    4    4    0    0  0.13870420049E-01  0.20931760804E-01  0.83990005370E-01  0.87664755094E-01  0.51100000000E-03 0.  1.
         11    1    4    4    0    0 -0.29859783307E-02  0.18574884686E-01  0.37437728128E-01  0.41902112310E-01  0.51100000000E-03 0. -1.
</event>
<event>
 8    1  0.1094134E+005  0.1043930E+01  0.7957747E-01            NaN
         13   -1    0    0    0    0  0.00000000000E+00  0.00000000000E+00  0.74505805969E-08  0.10566000000E+00  0.10566000000E+00 0.  1.
     999900   -1    0    0    0    0 -0.00000000000E+00 -0.00000000000E+00 -0.74505805969E-08  0.93827000000E+00  0.93827000000E+00 0. -1.
     999902    2    1    2    0    0  0.12331201599E-01  0.51299429481E-02 -0.22570381061E-01  0.10177041168E+01  0.10173661447E+01 0.  0.
     999903    2    3    3    0    0  0.61036136518E-01  0.10936288690E+00 -0.28431027383E-01  0.13019579321E+00  0.21376862704E-01 0.  0.
         14    1    1    2    0    0 -0.12331201599E-01 -0.51299429481E-02  0.22570381061E-01  0.26225883183E-01  0.00000000000E+00 0.  1.
     999901    1    3    3    0    0 -0.48704934919E-01 -0.10423294396E+00  0.58606463220E-02  0.88750832360E+00  0.88000000000E+00 0. -1.
        -11    1    4    4    0    0  0.28428039920E-01  0.71779607884E-01 -0.19648499260E-01  0.79666744667E-01  0.51100000000E-03 0.  1.
         11    1    4    4    0    0  0.32608096598E-01  0.37583279020E-01 -0.87825281222E-02  0.50529048545E-01  0.51100000000E-03 0. -1.
</event>
<event>
 8    1  0.1094134E+005  0.1043930E+01  0.7957747E-01            NaN
         13   -1    0    0    0    0  0.00000000000E+00  0.00000000000E+00  0.74505805969E-08  0.10566000000E+00  0.10566000000E+00 0.  1.
     999900   -1    0    0    0    0 -0.00000000000E+00 -0.00000000000E+00 -0.74505805969E-08  0.93827000000E+00  0.93827000000E+00 0. -1.
     999902    2    1    2    0    0 -0.63613950116E-03  0.44419713541E-02 -0.24782372762E-01  0.10187446514E+01  0.10184332885E+01 0.  0.
     999903    2    3    3    0    0  0.20722863206E-01 -0.18414248809E-01 -0.12766114650E+00  0.13219930240E+00  0.20267353304E-01 0.  0.
         14    1    1    2    0    0  0.63613950116E-03 -0.44419713541E-02  0.24782372762E-01  0.25185348572E-01  0.00000000000E+00 0.  1.
     999901    1    3    3    0    0 -0.21359002707E-01  0.22856220163E-01  0.10287877374E+00  0.88654534903E+00  0.88000000000E+00 0.  1.
        -11    1    4    4    0    0  0.59603207641E-02  0.28913082370E-02 -0.12500972397E-01  0.14156995402E-01  0.51100000000E-03 0. -1.
         11    1    4    4    0    0  0.14762542442E-01 -0.21305557046E-01 -0.11516017411E+00  0.11804230700E+00  0.51100000000E-03 0.  1.
</event>
<event>
 8    1  0.1094134E+005  0.1043930E+01  0.7957747E-01            NaN
         13   -1    0    0    0    0  0.00000000000E+00  0.00000000000E+00  0.74505805969E-08  0.10566000000E+00  0.10566000000E+00 0.  1.
     999900   -1    0    0    0    0 -0.00000000000E+00 -0.00000000000E+00 -0.74505805969E-08  0.93827000000E+00  0.93827000000E+00 0.  1.
     999902    2    1    2    0    0  0.43797546745E-02 -0.22575982593E-01  0.47677778981E-03  0.10209281619E+01  0.10206690096E+01 0.  0.
     999903    2    3    3    0    0 -0.11979137245E+00 -0.24619194807E-01  0.43504920179E-01  0.13116748360E+00  0.18872016531E-01 0.  0.
         14    1    1    2    0    0 -0.43797546745E-02  0.22575982593E-01 -0.47677778981E-03  0.23001838146E-01  0.00000000000E+00 0. -1.
     999901    1    3    3    0    0  0.12417112712E+00  0.20432122136E-02 -0.43028142390E-01  0.88976067825E+00  0.88000000000E+00 0.  1.
        -11    1    4    4    0    0 -0.42650837321E-01 -0.10884538380E-01  0.64455624334E-02  0.44490150550E-01  0.51100000000E-03 0. -1.
         11    1    4    4    0    0 -0.77140535129E-01 -0.13734656426E-01  0.37059357746E-01  0.86677333050E-01  0.51100000000E-03 0.  1.
</event>
<event>
 8    1  0.1094134E+005  0.1043930E+01  0.7957747E-01            NaN
         13   -1    0    0    0    0  0.00000000000E+00  0.00000000000E+00  0.74505805969E-08  0.10566000000E+00  0.10566000000E+00 0.  1.
     999900   -1    0    0    0    0 -0.00000000000E+00 -0.00000000000E+00 -0.74505805969E-08  0.93827000000E+00  0.93827000000E+00 0. -1.
     999902    2    1    2    0    0  0.96763401847E-02  0.19489078231E-02 -0.21303952354E-01  0.10204504730E+01  0.10201803173E+01 0.  0.
     999903    2    3    3    0    0 -0.84903039863E-01 -0.53189536095E-01 -0.82637402137E-01  0.13154817289E+00  0.20936299343E-01 0.  0.
         14    1    1    2    0    0 -0.96763401847E-02 -0.19489078231E-02  0.21303952354E-01  0.23479526975E-01  0.00000000000E+00 0.  1.
     999901    1    3    3    0    0  0.94579380048E-01  0.55138443918E-01  0.61333449783E-01  0.88890230014E+00  0.88000000000E+00 0.  1.
        -11    1    4    4    0    0 -0.78652925174E-01 -0.46604463474E-01 -0.81323844639E-01  0.12236048170E+00  0.51100000000E-03 0.  1.
         11    1    4    4    0    0 -0.62501146888E-02 -0.65850726203E-02 -0.13135574975E-02  0.91876911864E-02  0.51100000000E-03 0. -1.
</event>
<event>
 8    1  0.1094134E+005  0.1043930E+01  0.7957747E-01            NaN
         13   -1    0    0    0    0  0.00000000000E+00  0.00000000000E+00  0.74505805969E-08  0.10566000000E+00  0.10566000000E+00 0.  1.
     999900   -1    0    0    0    0 -0.00000000000E+00 -0.00000000000E+00 -0.74505805969E-08  0.93827000000E+00  0.93827000000E+00 0. -1.
     999902    2    1    2    0    0  0.74507075745E-02 -0.22534202670E-01  0.42645407802E-02  0.10198159037E+01  0.10195307684E+01 0.  0.
     999903    2    3    3    0    0 -0.24960614743E-01  0.12264563240E+00  0.11859547922E-01  0.12729959433E+00  0.19988857022E-01 0.  0.
         14    1    1    2    0    0 -0.74507075745E-02  0.22534202670E-01 -0.42645407802E-02  0.24114096321E-01  0.00000000000E+00 0.  1.
     999901    1    3    3    0    0  0.32411322318E-01 -0.14517983507E+00 -0.75950071420E-02  0.89251630935E+00  0.88000000000E+00 0. -1.
        -11    1    4    4    0    0 -0.35674549676E-02  0.67439087835E-01  0.66549434334E-02  0.67862410037E-01  0.51100000000E-03 0.  1.
         11    1    4    4    0    0 -0.21393159776E-01  0.55206544561E-01  0.52046044888E-02  0.59437184291E-01  0.51100000000E-03 0. -1.
</event>
<event>
 8    1  0.1094134E+005  0.1043930E+01  0.7957747E-01            NaN
         13   -1    0    0    0    0  0.00000000000E+00  0.00000000000E+00  0.74505805969E-08  0.10566000000E+00  0.10566000000E+00 0. -1.
     999900   -1    0    0    0    0 -0.00000000000E+00 -0.00000000000E+00 -0.74505805969E-08  0.93827000000E+00  0.93827000000E+00 0.  1.
     999902    2    1    2    0    0  0.23729128975E-01  0.36131179083E-02  0.26280270119E-02  0.10197839297E+01  0.10194980288E+01 0.  0.
     999903    2    3    3    0    0 -0.56302555493E-01  0.58302857009E-01 -0.97102381751E-01  0.12886182736E+00  0.24643399077E-01 0.  0.
         14    1    1    2    0    0 -0.23729128975E-01 -0.36131179083E-02 -0.26280270119E-02  0.24146070258E-01  0.00000000000E+00 0. -1.
     999901    1    3    3    0    0  0.80031684468E-01 -0.54689739101E-01  0.99730408763E-01  0.89092210238E+00  0.88000000000E+00 0. -1.
        -11    1    4    4    0    0 -0.44836918519E-01  0.38201989002E-01 -0.53878074227E-01  0.79830127330E-01  0.51100000000E-03 0. -1.
         11    1    4    4    0    0 -0.11465636974E-01  0.20100868007E-01 -0.43224307524E-01  0.49031700030E-01  0.51100000000E-03 0.  1.
</event>
<event>
 8    1  0.1094134E+005  0.1043930E+01  0.7957747E-01            NaN
         13   -1    0    0    0    0  0.00000000000E+00  0.00000000000E+00  0.74505805969E-08  0.10566000000E+00  0.10566000000E+00 0. -1.
     999900   -1    0    0    0    0 -0.00000000000E+00 -0.00000000000E+00 -0.74505805969E-08  0.93827000000E+00  0.93827000000E+00 0. -1.
     999902    2    1    2    0    0 -0.20899621184E-02 -0.89439976021E-02  0.21512556456E-01  0.10205386956E+01  0.10202705897E+01 0.  0.
     999903    2    3    3    0    0 -0.81986353390E-01  0.96883700606E-01  0.24149319880E-01  0.13060055870E+00  0.19107660680E-01 0.  0.
         14    1    1    2    0    0  0.20899621184E-02  0.89439976021E-02 -0.21512556456E-01  0.23391304368E-01  0.00000000000E+00 0.  1.
     999901    1    3    3    0    0  0.79896391271E-01 -0.10582769821E+00 -0.26367634238E-02  0.88993813693E+00  0.88000000000E+00 0. -1.
        -11    1    4    4    0    0 -0.45859593253E-01  0.42821920419E-01  0.56690172546E-02  0.63001730447E-01  0.51100000000E-03 0.  1.
         11    1    4    4    0    0 -0.36126760137E-01  0.54061780187E-01  0.18480302625E-01  0.67598828253E-01  0.51100000000E-03 0. -1.
</event>
<event>
 8    1  0.1094134E+005  0.1043930E+01  0.7957747E-01            NaN
         13   -1    0    0    0    0  0.00000000000E+00  0.00000000000E+00  0.74505805969E-08  0.10566000000E+00  0.10566000000E+00 0. -1.
     999900   -1    0    0    0    0 -0.00000000000E+00 -0.00000000000E+00 -0.74505805969E-08  0.93827000000E+00  0.93827000000E+00 0.  1.
     999902    2    1    2    0    0  0.99616357872E-02  0.19939240183E-01  0.13014359454E-01  0.10181195169E+01  0.10177923018E+01 0.  0.
     999903    2    3    3    0    0 -0.33109860621E-01 -0.10288409911E+00  0.63925711058E-01  0.12709050939E+00  0.19598477563E-01 0.  0.
         14    1    1    2    0    0 -0.99616357872E-02 -0.19939240183E-01 -0.13014359454E-01  0.25810483115E-01  0.00000000000E+00 0.  1.
     999901    1    3    3    0    0  0.43071496408E-01  0.12282333929E+00 -0.50911351604E-01  0.89102900750E+00  0.88000000000E+00 0.  1.
        -11    1    4    4    0    0 -0.28843216203E-02 -0.39587202668E-01  0.23514576152E-01  0.46137428828E-01  0.51100000000E-03 0.  1.
         11    1    4    4    0    0 -0.30225539000E-01 -0.63296896441E-01  0.40411134906E-01  0.80953080561E-01  0.51100000000E-03 0. -1.
</event>
<event>
 8    1  0.1094134E+005  0.1043930E+01  0.7957747E-01            NaN
         13   -1    0    0    0    0  0.00000000000E+00  0.00000000000E+00  0.74505805969E-08  0.10566000000E+00  0.10566000000E+00 0. -1.
     999900   -1    0    0    0    0 -0.00000000000E+00 -0.00000000000E+00 -0.74505805969E-08  0.93827000000E+00  0.93827000000E+00 0. -1.
     999902    2    1    2    0    0  0.10344326601E-01  0.33356907538E-02 -0.22415104829E-01  0.10190187806E+01  0.10187142418E+01 0.  0.
     999903    2    3    3    0    0  0.46312885270E-01 -0.42053999718E-02  0.11647679178E+00  0.12736774789E+00  0.22206563135E-01 0.  0.
         14    1    1    2    0    0 -0.10344326601E-01 -0.33356907538E-02  0.22415104829E-01  0.24911219363E-01  0.00000000000E+00 0. -1.
     999901    1    3    3    0    0 -0.35968558669E-01  0.75410907256E-02 -0.13889189661E+00  0.89165103275E+00  0.88000000000E+00 0. -1.
        -11    1    4    4    0    0  0.13091616759E-01 -0.10442641063E-01  0.50960235118E-01  0.53643693628E-01  0.51100000000E-03 0. -1.
         11    1    4    4    0    0  0.33221268511E-01  0.62372410913E-02  0.65516556666E-01  0.73724054258E-01  0.51100000000E-03 0.  1.
</event>
<event>
 8    1  0.1094134E+005  0.1043930E+01  0.7957747E-01            NaN
         13   -1    0    0    0    0  0.00000000000E+00  0.00000000000E+00  0.74505805969E-08  0.10566000000E+00  0.10566000000E+00 0.  1.
     999900   -1    0    0    0    0 -0.00000000000E+00 -0.00000000000E+00 -0.74505805969E-08  0.93827000000E+00  0.93827000000E+00 0. -1.
     999902    2    1    2    0    0 -0.23595648338E-01  0.43558882899E-02  0.70475155597E-02  0.10189220841E+01  0.10186151469E+01 0.  0.
     999903    2    3    3    0    0  0.58262380260E-02  0.12794968994E+00  0.93249493259E-02  0.12979539912E+00  0.18836739260E-01 0.  0.
         14    1    1    2    0    0  0.23595648338E-01 -0.43558882899E-02 -0.70475155597E-02  0.25007915924E-01  0.00000000000E+00 0.  1.
     999901    1    3    3    0    0 -0.29421886364E-01 -0.12359380165E+00 -0.22774337663E-02  0.88912668496E+00  0.88000000000E+00 0.  1.
        -11    1    4    4    0    0  0.32907624711E-02  0.11684357525E+00  0.33902026977E-02  0.11694017611E+00  0.51100000000E-03 0.  1.
         11    1    4    4    0    0  0.25354755548E-02  0.11106114697E-01  0.59347466282E-02  0.12855223004E-01  0.51100000000E-03 0. -1.
</event>
<event>
 8    1  0.1094134E+005  0.1043930E+01  0.7957747E-01            NaN
         13   -1    0    0    0    0  0.00000000000E+00  0.00000000000E+00  0.74505805969E-08  0.10566000000E+00  0.10566000000E+00 0. -1.
     999900   -1    0    0    0    0 -0.00000000000E+00 -0.00000000000E+00 -0.74505805969E-08  0.93827000000E+00  0.93827000000E+00 0.  1.
     999902    2    1    2    0    0  0.18534198483E-01 -0.13587429926E-01  0.44225818007E-02  0.10205271370E+01  0.10202587630E+01 0.  0.
     999903    2    3    3    0    0 -0.10224372425E+00 -0.27885563375E-01 -0.70698109750E-01  0.12899202188E+00  0.20232033838E-01 0.  0.
         14    1    1    2    0    0 -0.18534198483E-01  0.13587429926E-01 -0.44225818007E-02  0.23402862970E-01  0.00000000000E+00 0.  1.
     999901    1    3    3    0    0  0.12077792274E+00  0.14298133449E-01  0.75120691550E-01  0.89153511515E+00  0.88000000000E+00 0. -1.
        -11    1    4    4    0    0 -0.82671347013E-01 -0.30440316467E-01 -0.59225352695E-01  0.10615586657E+00  0.51100000000E-03 0. -1.
         11    1    4    4    0    0 -0.19572377242E-01  0.25547530916E-02 -0.11472757055E-01  0.22836155318E-01  0.51100000000E-03 0.  1.
</event>
<event>
 8    1  0.1094134E+005  0.1043930E+01  0.7957747E-01            NaN
         13   -1    0    0    0    0  0.00000000000E+00  0.00000000000E+00  0.74505805969E-08  0.10566000000E+00  0.10566000000E+00 0.  1.
     999900   -1    0    0    0    0 -0.00000000000E+00 -0.00000000000E+00 -0.74505805969E-08  0.93827000000E+00  0.93827000000E+00 0.  1.
     999902    2    1    2    0    0 -0.90678238461E-02  0.72391299127E-02 -0.20675668514E-01  0.10202210629E+01  0.10199455394E+01 0.  0.
     999903    2    3    3    0    0  0.11743659021E+00  0.37282273480E-01  0.32796971556E-01  0.12906154826E+00  0.19998031390E-01 0.  0.
         14    1    1    2    0    0  0.90678238461E-02 -0.72391299127E-02  0.20675668514E-01  0.23708937127E-01  0.00000000000E+00 0.  1.
     999901    1    3    3    0    0 -0.12650441406E+00 -0.30043143567E-01 -0.53472640070E-01  0.89115951461E+00  0.88000000000E+00 0.  1.
        -11    1    4    4    0    0  0.42703394636E-01  0.36370013035E-02  0.10737840454E-01  0.44185631494E-01  0.51100000000E-03 0. -1.
         11    1    4    4    0    0  0.74733195575E-01  0.33645272176E-01  0.22059131102E-01  0.84875916765E-01  0.51100000000E-03 0.  1.
</event>
<event>
 8    1  0.1094134E+005  0.1043930E+01  0.7957747E-01            NaN
         13   -1    0    0    0    0  0.00000000000E+00  0.00000000000E+00  0.74505805969E-08  0.10566000000E+00  0.10566000000E+00 0.  1.
     999900   -1    0    0    0    0 -0.00000000000E+00 -0.00000000000E+00 -0.74505805969E-08  0.93827000000E+00  0.93827000000E+00 0. -1.
     999902    2    1    2    0    0  0.12313196612E-01 -0.15635833347E-01 -0.99670152281E-02  0.10216716198E+01  0.10214291279E+01 0.  0.
     999903    2    3    3    0    0 -0.10241030437E+00  0.70402795465E-01  0.29180501598E-01  0.12920500678E+00  0.19950139223E-01 0.  0.
         14    1    1    2    0    0 -0.12313196612E-01  0.15635833347E-01  0.99670152281E-02  0.22258380171E-01  0.00000000000E+00 0.  1.
     999901    1    3    3    0    0  0.11472350098E+00 -0.86038628813E-01 -0.39147516826E-01  0.89246661304E+00  0.88000000000E+00 0. -1.
        -11    1    4    4    0    0 -0.23013236472E-01  0.72580655591E-02  0.90718499083E-02  0.25784649510E-01  0.51100000000E-03 0. -1.
         11    1    4    4    0    0 -0.79397067894E-01  0.63144729906E-01  0.20108651690E-01  0.10342035728E+00  0.51100000000E-03 0.  1.
</event>
<event>
 8    1  0.1094134E+005  0.1043930E+01  0.7957747E-01            NaN
         13   -1    0    0    0    0  0.00000000000E+00  0.00000000000E+00  0.74505805969E-08  0.10566000000E+00  0.10566000000E+00 0. -1.
     999900   -1    0    0    0    0 -0.00000000000E+00 -0.00000000000E+00 -0.74505805969E-08  0.93827000000E+00  0.93827000000E+00 0.  1.
     999902    2    1    2    0    0  0.22172128109E-01 -0.51110267523E-02  0.79680743457E-02  0.10198215768E+01  0.10195365773E+01 0.  0.
     999903    2    3    3    0    0 -0.35382883721E-01 -0.12333017243E+00 -0.14087249345E-02  0.13000346611E+00  0.20895856119E-01 0.  0.
         14    1    1    2    0    0 -0.22172128109E-01  0.51110267523E-02 -0.79680743457E-02  0.24108423178E-01  0.00000000000E+00 0.  1.
     999901    1    3    3    0    0  0.57555011830E-01  0.11821914567E+00  0.93767992802E-02  0.88981811071E+00  0.88000000000E+00 0.  1.
        -11    1    4    4    0    0 -0.14841152192E-01 -0.79424599276E-01 -0.74908322050E-02  0.81147399568E-01  0.51100000000E-03 0. -1.
         11    1    4    4    0    0 -0.20541731530E-01 -0.43905573151E-01  0.60821072706E-02  0.48856066540E-01  0.51100000000E-03 0.  1.
</event>
<event>
 8    1  0.1094134E+005  0.1043930E+01  0.7957747E-01            NaN
         13   -1    0    0    0    0  0.00000000000E+00  0.00000000000E+00  0.74505805969E-08  0.10566000000E+00  0.10566000000E+00 0. -1.
     999900   -1    0    0    0    0 -0.00000000000E+00 -0.00000000000E+00 -0.74505805969E-08  0.93827000000E+00  0.93827000000E+00 0. -1.
     999902    2    1    2    0    0 -0.23278930514E-01 -0.18192880098E-02 -0.45053146622E-02  0.10201494139E+01  0.10198722030E+01 0.  0.
     999903    2    3    3    0    0 -0.20953769371E-02  0.11969560794E+00 -0.48288479867E-01  0.13046880917E+00  0.18944754273E-01 0.  0.
         14    1    1    2    0    0  0.23278930514E-01  0.18192880098E-02  0.45053146622E-02  0.23780586094E-01  0.00000000000E+00 0.  1.
     999901    1    3    3    0    0 -0.21183553577E-01 -0.12151489595E+00  0.43783165205E-01  0.88968060473E+00  0.88000000000E+00 0.  1.
        -11    1    4    4    0    0  0.71173145113E-02  0.35418896244E-01 -0.10325494034E-01  0.37577005270E-01  0.51100000000E-03 0. -1.
         11    1    4    4    0    0 -0.92126914483E-02  0.84276711698E-01 -0.37962985833E-01  0.92891803905E-01  0.51100000000E-03 0.  1.
</event>
<event>
 8    1  0.1094134E+005  0.1043930E+01  0.7957747E-01            NaN
         13   -1    0    0    0    0  0.00000000000E+00  0.00000000000E+00  0.74505805969E-08  0.10566000000E+00  0.10566000000E+00 0. -1.
     999900   -1    0    0    0    0 -0.00000000000E+00 -0.00000000000E+00 -0.74505805969E-08  0.93827000000E+00  0.93827000000E+00 0.  1.
     999902    2    1    2    0    0 -0.17877799226E-02 -0.85271999263E-02 -0.21984048502E-01  0.10202824275E+01  0.10200083452E+01 0.  0.
     999903    2    3    3    0    0 -0.12255183054E-01  0.12362301179E+00 -0.33647371328E-01  0.13027721513E+00  0.20178419864E-01 0.  0.
         14    1    1    2    0    0  0.17877799226E-02  0.85271999263E-02  0.21984048502E-01  0.23647572479E-01  0.00000000000E+00 0. -1.
     999901    1    3    3    0    0  0.10467403131E-01 -0.13215021172E+00  0.11663322826E-01  0.89000521239E+00  0.88000000000E+00 0. -1.
        -11    1    4    4    0    0 -0.15990747877E-01  0.83938532336E-01 -0.28531387499E-01  0.90087082437E-01  0.51100000000E-03 0.  1.
         11    1    4    4    0    0  0.37355648230E-02  0.39684479456E-01 -0.51159838289E-02  0.40190132692E-01  0.51100000000E-03 0. -1.
</event>
<event>
 8    1  0.1094134E+005  0.1043930E+01  0.7957747E-01            NaN
         13   -1    0    0    0    0  0.00000000000E+00  0.00000000000E+00  0.74505805969E-08  0.10566000000E+00  0.10566000000E+00 0.  1.
     999900   -1    0    0    0    0 -0.00000000000E+00 -0.00000000000E+00 -0.74505805969E-08  0.93827000000E+00  0.93827000000E+00 0.  1.
     999902    2    1    2    0    0 -0.22002279940E-01 -0.17339536181E-02  0.97153105685E-02  0.10198158096E+01  0.10195306721E+01 0.  0.
     999903    2    3    3    0    0  0.26225275794E-01  0.10539860103E+00  0.68512825540E-01  0.13006279381E+00  0.20632326104E-01 0.  0.
         14    1    1    2    0    0  0.22002279940E-01  0.17339536181E-02 -0.97153105685E-02  0.24114190369E-01  0.00000000000E+00 0.  1.
     999901    1    3    3    0    0 -0.48227555735E-01 -0.10713255465E+00 -0.58797514972E-01  0.88975301582E+00  0.88000000000E+00 0. -1.
        -11    1    4    4    0    0  0.12081326805E-01  0.78078113865E-01  0.56023532566E-01  0.96855808521E-01  0.51100000000E-03 0.  1.
         11    1    4    4    0    0  0.14143948990E-01  0.27320487164E-01  0.12489292974E-01  0.33206985288E-01  0.51100000000E-03 0. -1.
</event>
<event>
 8    1  0.1094134E+005  0.1043930E+01  0.7957747E-01            NaN
         13   -1    0    0    0    0  0.00000000000E+00  0.00000000000E+00  0.74505805969E-08  0.10566000000E+00  0.10566000000E+00 0.  1.
     999900   -1    0    0    0    0 -0.00000000000E+00 -0.00000000000E+00 -0.74505805969E-08  0.93827000000E+00  0.93827000000E+00 0.  1.
     999902    2    1    2    0    0  0.21120563166E-01 -0.30795020506E-03  0.10458628378E-01  0.10203597660E+01  0.10200874944E+01 0.  0.
     999903    2    3    3    0    0 -0.20612702443E-01 -0.96042781352E-01  0.84484065705E-01  0.13109794366E+00  0.20000353057E-01 0.  0.
         14    1    1    2    0    0 -0.21120563166E-01  0.30795020506E-03 -0.10458628378E-01  0.23570233969E-01  0.00000000000E+00 0. -1.
     999901    1    3    3    0    0  0.41733265609E-01  0.95734831147E-01 -0.74025437327E-01  0.88926182237E+00  0.88000000000E+00 0.  1.
        -11    1    4    4    0    0 -0.11216143952E-01 -0.15436910274E-01  0.15647972630E-01  0.24682387494E-01  0.51100000000E-03 0.  1.
         11    1    4    4    0    0 -0.93965584909E-02 -0.80605871078E-01  0.68836093075E-01  0.10641555617E+00  0.51100000000E-03 0. -1.
</event>
<event>
 8    1  0.1094134E+005  0.1043930E+01  0.7957747E-01            NaN
         13   -1    0    0    0    0  0.00000000000E+00  0.00000000000E+00  0.74505805969E-08  0.10566000000E+00  0.10566000000E+00 0.  1.
     999900   -1    0    0    0    0 -0.00000000000E+00 -0.00000000000E+00 -0.74505805969E-08  0.93827000000E+00  0.93827000000E+00 0. -1.
     999902    2    1    2    0    0 -0.24684286966E-01  0.44725138083E-02 -0.30018126310E-02  0.10186648406E+01  0.10183514762E+01 0.  0.
     999903    2    3    3    0    0  0.17920042091E-01 -0.22411944887E-02  0.12556773246E+00  0.12827709880E+00  0.19015987500E-01 0.  0.
         14    1    1    2    0    0  0.24684286966E-01 -0.44725138083E-02  0.30018126310E-02  0.25265159446E-01  0.00000000000E+00 0. -1.
     999901    1    3    3    0    0 -0.42604329057E-01  0.67137082970E-02 -0.12856954509E+00  0.89038774175E+00  0.88000000000E+00 0. -1.
        -11    1    4    4    0    0  0.33261310786E-02 -0.26116793729E-02  0.85894900238E-01  0.86000459446E-01  0.51100000000E-03 0.  1.
         11    1    4    4    0    0  0.14593911012E-01  0.37048488419E-03  0.39672832224E-01  0.42276639358E-01  0.51100000000E-03 0. -1.
</event>
<event>
 8    1  0.1094134E+005  0.1043930E+01  0.7957747E-01            NaN
         13   -1    0    0    0    0  0.00000000000E+00  0.00000000000E+00  0.74505805969E-08  0.10566000000E+00  0.10566000000E+00 0.  1.
     999900   -1    0    0    0    0 -0.00000000000E+00 -0.00000000000E+00 -0.74505805969E-08  0.93827000000E+00  0.93827000000E+00 0. -1.
     999902    2    1    2    0    0 -0.18974281046E-01  0.34053526431E-02  0.14809974776E-01  0.10196204315E+01  0.10193305986E+01 0.  0.
     999903    2    3    3    0    0  0.93783019614E-01 -0.27540436181E-01  0.82163871395E-01  0.12933486041E+00  0.20563899480E-01 0.  0.
         14    1    1    2    0    0  0.18974281046E-01 -0.34053526431E-02 -0.14809974776E-01  0.24309568501E-01  0.00000000000E+00 0.  1.
     999901    1    3    3    0    0 -0.11275730066E+00  0.30945788824E-01 -0.67353896619E-01  0.89028557109E+00  0.88000000000E+00 0. -1.
        -11    1    4    4    0    0  0.32159901298E-01 -0.19718727727E-01  0.32737092717E-01  0.49950633982E-01  0.51100000000E-03 0.  1.
         11    1    4    4    0    0  0.61623118317E-01 -0.78217084538E-02  0.49426778678E-01  0.79384226429E-01  0.51100000000E-03 0. -1.
</event>
<event>
 8    1  0.1094134E+005  0.1043930E+01  0.7957747E-01            NaN
         13   -1    0    0    0    0  0.00000000000E+00  0.00000000000E+00  0.74505805969E-08  0.10566000000E+00  0.10566000000E+00 0. -1.
     999900   -1    0    0    0    0 -0.00000000000E+00 -0.00000000000E+00 -0.74505805969E-08  0.93827000000E+00  0.93827000000E+00 0. -1.
     999902    2    1    2    0    0  0.80509232727E-02 -0.13926331945E-02  0.22229115053E-01  0.10202468763E+01  0.10199719595E+01 0.  0.
     999903    2    3    3    0    0  0.11341903575E+00 -0.52422153707E-01  0.38836702782E-01  0.13233794905E+00  0.19826331146E-01 0.  0.
         14    1    1    2    0    0 -0.80509232727E-02  0.13926331945E-02 -0.22229115053E-01  0.23683123713E-01  0.00000000000E+00 0.  1.
     999901    1    3    3    0    0 -0.10536811248E+00  0.51029520512E-01 -0.16607587730E-01  0.88790892723E+00  0.88000000000E+00 0. -1.
        -11    1    4    4    0    0  0.80254939233E-01 -0.41724319671E-01  0.19685074679E-01  0.92571795972E-01  0.51100000000E-03 0.  1.
         11    1    4    4    0    0  0.33164096518E-01 -0.10697834036E-01  0.19151628103E-01  0.39766153082E-01  0.51100000000E-03 0. -1.
</event>
<event>
 8    1  0.1094134E+005  0.1043930E+01  0.7957747E-01            NaN
         13   -1    0    0    0    0  0.00000000000E+00  0.00000000000E+00  0.74505805969E-08  0.10566000000E+00  0.10566000000E+00 0.  1.
     999900   -1    0    0    0    0 -0.00000000000E+00 -0.00000000000E+00 -0.74505805969E-08  0.93827000000E+00  0.93827000000E+00 0.  1.
     999902    2    1    2    0    0  0.20744155880E-01  0.23095825374E-03 -0.10774667063E-01  0.10205533707E+01  0.10202856050E+01 0.  0.
     999903    2    3    3    0    0  0.43120675461E-01 -0.10264714857E+00  0.65891818258E-01  0.13096786982E+00  0.20372075252E-01 0.  0.
         14    1    1    2    0    0 -0.20744155880E-01 -0.23095825374E-03  0.10774667063E-01  0.23376629252E-01  0.00000000000E+00 0. -1.
     999901    1    3    3    0    0 -0.22376519581E-01  0.10287810682E+00 -0.76666485321E-01  0.88958550093E+00  0.88000000000E+00 0.  1.
        -11    1    4    4    0    0  0.19963056865E-01 -0.69093526505E-01  0.36114484805E-01  0.80479538878E-01  0.51100000000E-03 0. -1.
         11    1    4    4    0    0  0.23157618596E-01 -0.33553622063E-01  0.29777333453E-01  0.50488330940E-01  0.51100000000E-03 0.  1.
</event>
<event>
 8    1  0.1094134E+005  0.1043930E+01  0.7957747E-01            NaN
         13   -1    0    0    0    0  0.00000000000E+00  0.00000000000E+00  0.74505805969E-08  0.10566000000E+00  0.10566000000E+00 0. -1.
     999900   -1    0    0    0    0 -0.00000000000E+00 -0.00000000000E+00 -0.74505805969E-08  0.93827000000E+00  0.93827000000E+00 0.  1.
     999902    2    1    2    0    0  0.18458613156E-01  0.76986739938E-02 -0.14808234490E-01  0.10190447877E+01  0.10187408923E+01 0.  0.
     999903    2    3    3    0    0  0.41558520785E-01 -0.11862976717E-01 -0.12334449250E+00  0.13186026171E+00  0.17476381807E-01 0.  0.
         14    1    1    2    0    0 -0.18458613156E-01 -0.76986739938E-02  0.14808234490E-01  0.24885212268E-01  0.00000000000E+00 0. -1.
     999901    1    3    3    0    0 -0.23099907629E-01  0.19561650710E-01  0.10853625801E+00  0.88718452602E+00  0.88000000000E+00 0. -1.
        -11    1    4    4    0    0  0.15049342087E-01 -0.97762386665E-02 -0.69832498898E-01  0.72103374145E-01  0.51100000000E-03 0.  1.
         11    1    4    4    0    0  0.26509178698E-01 -0.20867380502E-02 -0.53511993604E-01  0.59756887565E-01  0.51100000000E-03 0. -1.
</event>
<event>
 8    1  0.1094134E+005  0.1043930E+01  0.7957747E-01            NaN
         13   -1    0    0    0    0  0.00000000000E+00  0.00000000000E+00  0.74505805969E-08  0.10566000000E+00  0.10566000000E+00 0. -1.
     999900   -1    0    0    0    0 -0.00000000000E+00 -0.00000000000E+00 -0.74505805969E-08  0.93827000000E+00  0.93827000000E+00 0. -1.
     999902    2    1    2    0    0  0.34332426689E-02 -0.20845599748E-01  0.12876438380E-01  0.10191887622E+01  0.10188884159E+01 0.  0.
     999903    2    3    3    0    0  0.77398978021E-01 -0.10345439358E+00 -0.15918786792E-01  0.13176309891E+00  0.20364015094E-01 0.  0.
         14    1    1    2    0    0 -0.34332426689E-02  0.20845599748E-01 -0.12876438380E-01  0.24741237831E-01  0.00000000000E+00 0. -1.
     999901    1    3    3    0    0 -0.73965735352E-01  0.82608793832E-01  0.28795225172E-01  0.88742566326E+00  0.88000000000E+00 0. -1.
        -11    1    4    4    0    0  0.16436107655E-01 -0.33375792512E-01 -0.10772682400E-01  0.38735009587E-01  0.51100000000E-03 0.  1.
         11    1    4    4    0    0  0.60962870366E-01 -0.70078601068E-01 -0.51461043919E-02  0.93028089319E-01  0.51100000000E-03 0. -1.
</event>
<event>
 8    1  0.1094134E+005  0.1043930E+01  0.7957747E-01            NaN
         13   -1    0    0    0    0  0.00000000000E+00  0.00000000000E+00  0.74505805969E-08  0.10566000000E+00  0.10566000000E+00 0.  1.
     999900   -1    0    0    0    0 -0.00000000000E+00 -0.00000000000E+00 -0.74505805969E-08  0.93827000000E+00  0.93827000000E+00 0. -1.
     999902    2    1    2    0    0  0.36834851320E-04  0.18309029047E-01  0.14677358282E-01  0.10204641365E+01  0.10201942988E+01 0.  0.
     999903    2    3    3    0    0  0.11481200238E+00  0.29356346551E-01 -0.51140410714E-01  0.13050494590E+00  0.19303065075E-01 0.  0.
         14    1    1    2    0    0 -0.36834851320E-04 -0.18309029047E-01 -0.14677358282E-01  0.23465863453E-01  0.00000000000E+00 0.  1.
     999901    1    3    3    0    0 -0.11477516753E+00 -0.11047317504E-01  0.65817768996E-01  0.88995919065E+00  0.88000000000E+00 0.  1.
        -11    1    4    4    0    0  0.63712413473E-01  0.84443792596E-02 -0.21099174640E-01  0.67646252395E-01  0.51100000000E-03 0.  1.
         11    1    4    4    0    0  0.51099588912E-01  0.20911967292E-01 -0.30041236074E-01  0.62858693502E-01  0.51100000000E-03 0. -1.
</event>
<event>
 8    1  0.1094134E+005  0.1043930E+01  0.7957747E-01            NaN
         13   -1    0    0    0    0  0.00000000000E+00  0.00000000000E+00  0.74505805969E-08  0.10566000000E+00  0.10566000000E+00 0. -1.
     999900   -1    0    0    0    0 -0.00000000000E+00 -0.00000000000E+00 -0.74505805969E-08  0.93827000000E+00  0.93827000000E+00 0.  1.
     999902    2    1    2    0    0  0.11077532504E-01 -0.19540195125E-01 -0.54157134307E-02  0.10208245698E+01  0.10205630512E+01 0.  0.
     999903    2    3    3    0    0 -0.19189199849E-02 -0.47007123635E-01 -0.12225549203E+00  0.13258199383E+00  0.20450619302E-01 0.  0.
         14    1    1    2    0    0 -0.11077532504E-01  0.19540195125E-01  0.54157134307E-02  0.23105430181E-01  0.00000000000E+00 0. -1.
     999901    1    3    3    0    0  0.12996452489E-01  0.27466928510E-01  0.11683977860E+00  0.88824257599E+00  0.88000000000E+00 0. -1.
        -11    1    4    4    0    0 -0.87936183626E-02 -0.41581516523E-01 -0.99842455452E-01  0.10851325851E+00  0.51100000000E-03 0.  1.
         11    1    4    4    0    0  0.68746983776E-02 -0.54256071115E-02 -0.22413036578E-01  0.24068735321E-01  0.51100000000E-03 0. -1.
</event>
<event>
 8    1  0.1094134E+005  0.1043930E+01  0.7957747E-01            NaN
         13   -1    0    0    0    0  0.00000000000E+00  0.00000000000E+00  0.74505805969E-08  0.10566000000E+00  0.10566000000E+00 0. -1.
     999900   -1    0    0    0    0 -0.00000000000E+00 -0.00000000000E+00 -0.74505805969E-08  0.93827000000E+00  0.93827000000E+00 0.  1.
     999902    2    1    2    0    0 -0.54324723873E-02  0.39521118167E-02  0.23249392931E-01  0.10197294790E+01  0.10194422716E+01 0.  0.
     999903    2    3    3    0    0 -0.14922190264E-01 -0.72507258608E-01  0.10805648221E+00  0.13230154816E+00  0.18641941607E-01 0.  0.
         14    1    1    2    0    0  0.54324723873E-02 -0.39521118167E-02 -0.23249392931E-01  0.24200520980E-01  0.00000000000E+00 0.  1.
     999901    1    3    3    0    0  0.94897178762E-02  0.76459370425E-01 -0.84807089275E-01  0.88742793086E+00  0.88000000000E+00 0.  1.
        -11    1    4    4    0    0 -0.87937241884E-02 -0.54054903988E-01  0.92055064098E-01  0.10711516315E+00  0.51100000000E-03 0.  1.
         11    1    4    4    0    0 -0.61284660751E-02 -0.18452354621E-01  0.16001418107E-01  0.25186385011E-01  0.51100000000E-03 0. -1.
</event>
<event>
 8    1  0.1094134E+005  0.1043930E+01  0.7957747E-01            NaN
         13   -1    0    0    0    0  0.00000000000E+00  0.00000000000E+00  0.74505805969E-08  0.10566000000E+00  0.10566000000E+00 0. -1.
     999900   -1    0    0    0    0 -0.00000000000E+00 -0.00000000000E+00 -0.74505805969E-08  0.93827000000E+00  0.93827000000E+00 0. -1.
     999902    2    1    2    0    0 -0.86042087625E-02  0.22605793500E-01  0.18634199844E-02  0.10196704319E+01  0.10193818044E+01 0.  0.
     999903    2    3    3    0    0  0.96320994323E-01  0.18221993230E-01  0.82663643712E-01  0.12975066472E+00  0.19803585997E-01 0.  0.
         14    1    1    2    0    0  0.86042087625E-02 -0.22605793500E-01 -0.18634199844E-02  0.24259568055E-01  0.00000000000E+00 0.  1.
     999901    1    3    3    0    0 -0.10492520309E+00  0.43838002701E-02 -0.80800223727E-01  0.88991976723E+00  0.88000000000E+00 0. -1.
        -11    1    4    4    0    0  0.84233652413E-01  0.22150812319E-01  0.69335063002E-01  0.11132645134E+00  0.51100000000E-03 0. -1.
         11    1    4    4    0    0  0.12087341910E-01 -0.39288190894E-02  0.13328580710E-01  0.18424213379E-01  0.51100000000E-03 0.  1.
</event>
<event>
 8    1  0.1094134E+005  0.1043930E+01  0.7957747E-01            NaN
         13   -1    0    0    0    0  0.00000000000E+00  0.00000000000E+00  0.74505805969E-08  0.10566000000E+00  0.10566000000E+00 0. -1.
     999900   -1    0    0    0    0 -0.00000000000E+00 -0.00000000000E+00 -0.74505805969E-08  0.93827000000E+00  0.93827000000E+00 0.  1.
     999902    2    1    2    0    0 -0.13497698386E-01  0.19061496648E-01 -0.17302095604E-03  0.10205728073E+01  0.10203054917E+01 0.  0.
     999903    2    3    3    0    0 -0.36840950438E-02 -0.10694421416E+00 -0.68893706530E-01  0.12889109354E+00  0.20394452560E-01 0.  0.
         14    1    1    2    0    0  0.13497698386E-01 -0.19061496648E-01  0.17302095604E-03  0.23357192734E-01  0.00000000000E+00 0.  1.
     999901    1    3    3    0    0 -0.98136033425E-02  0.12600571081E+00  0.68720685574E-01  0.89168171373E+00  0.88000000000E+00 0. -1.
        -11    1    4    4    0    0  0.52495761295E-02 -0.22938437263E-01 -0.84255833553E-02  0.24999630587E-01  0.51100000000E-03 0.  1.
         11    1    4    4    0    0 -0.89336711733E-02 -0.84005776900E-01 -0.60468123175E-01  0.10389146295E+00  0.51100000000E-03 0. -1.
</event>
<event>
 8    1  0.1094134E+005  0.1043930E+01  0.7957747E-01            NaN
         13   -1    0    0    0    0  0.00000000000E+00  0.00000000000E+00  0.74505805969E-08  0.10566000000E+00  0.10566000000E+00 0. -1.
     999900   -1    0    0    0    0 -0.00000000000E+00 -0.00000000000E+00 -0.74505805969E-08  0.93827000000E+00  0.93827000000E+00 0.  1.
     999902    2    1    2    0    0  0.13211828450E-01 -0.69046168989E-03  0.17398090833E-01  0.10220731312E+01  0.10218394017E+01 0.  0.
     999903    2    3    3    0    0 -0.84065457323E-01 -0.46963979930E-01  0.89063509181E-01  0.13261259752E+00  0.19523724742E-01 0.  0.
         14    1    1    2    0    0 -0.13211828450E-01  0.69046168989E-03 -0.17398090833E-01  0.21856868783E-01  0.00000000000E+00 0.  1.
     999901    1    3    3    0    0  0.97277285773E-01  0.46273518240E-01 -0.71665418347E-01  0.88946053370E+00  0.88000000000E+00 0. -1.
        -11    1    4    4    0    0 -0.40088188954E-01 -0.30614673303E-01  0.37220045535E-01  0.62689026358E-01  0.51100000000E-03 0.  1.
         11    1    4    4    0    0 -0.43977268369E-01 -0.16349306627E-01  0.51843463646E-01  0.69923571163E-01  0.51100000000E-03 0. -1.
</event>
<event>
 8    1  0.1094134E+005  0.1043930E+01  0.7957747E-01            NaN
         13   -1    0    0    0    0  0.00000000000E+00  0.00000000000E+00  0.74505805969E-08  0.10566000000E+00  0.10566000000E+00 0. -1.
     999900   -1    0    0    0    0 -0.00000000000E+00 -0.00000000000E+00 -0.74505805969E-08  0.93827000000E+00  0.93827000000E+00 0.  1.
     999902    2    1    2    0    0 -0.12883897861E-01 -0.18657249028E-01 -0.44783510206E-02  0.10208184576E+01  0.10205567990E+01 0.  0.
     999903    2    3    3    0    0 -0.83330137020E-01 -0.78612255231E-01 -0.66740629630E-01  0.13378189310E+00  0.17874139682E-01 0.  0.
         14    1    1    2    0    0  0.12883897861E-01  0.18657249028E-01  0.44783510206E-02  0.23111542425E-01  0.00000000000E+00 0.  1.
     999901    1    3    3    0    0  0.70446239159E-01  0.59955006203E-01  0.62262278609E-01  0.88703656448E+00  0.88000000000E+00 0. -1.
        -11    1    4    4    0    0 -0.60948653304E-01 -0.51993517401E-01 -0.54563589162E-01  0.96930441939E-01  0.51100000000E-03 0.  1.
         11    1    4    4    0    0 -0.22381483716E-01 -0.26618737830E-01 -0.12177040468E-01  0.36851451160E-01  0.51100000000E-03 0. -1.
</event>
<event>
 8    1  0.1094134E+005  0.1043930E+01  0.7957747E-01            NaN
         13   -1    0    0    0    0  0.00000000000E+00  0.00000000000E+00  0.74505805969E-08  0.10566000000E+00  0.10566000000E+00 0. -1.
     999900   -1    0    0    0    0 -0.00000000000E+00 -0.00000000000E+00 -0.74505805969E-08  0.93827000000E+00  0.93827000000E+00 0.  1.
     999902    2    1    2    0    0 -0.11172339688E-01 -0.20698405812E-01  0.14979431717E-02  0.10203611856E+01  0.10200889472E+01 0.  0.
     999903    2    3    3    0    0  0.46604775284E-01 -0.11539297998E+00 -0.36239900746E-01  0.13259466100E+00  0.27936871893E-01 0.  0.
         14    1    1    2    0    0  0.11172339688E-01  0.20698405812E-01 -0.14979431717E-02  0.23568814374E-01  0.00000000000E+00 0.  1.
     999901    1    3    3    0    0 -0.57777114972E-01  0.94694574165E-01  0.37737843918E-01  0.88776652463E+00  0.88000000000E+00 0.  1.
        -11    1    4    4    0    0  0.39646688878E-01 -0.87160219314E-01 -0.15804017116E-01  0.97050460318E-01  0.51100000000E-03 0.  1.
         11    1    4    4    0    0  0.69580864057E-02 -0.28232760663E-01 -0.20435883630E-01  0.35544200677E-01  0.51100000000E-03 0. -1.
</event>
<event>
 8    1  0.1094134E+005  0.1043930E+01  0.7957747E-01            NaN
         13   -1    0    0    0    0  0.00000000000E+00  0.00000000000E+00  0.74505805969E-08  0.10566000000E+00  0.10566000000E+00 0. -1.
     999900   -1    0    0    0    0 -0.00000000000E+00 -0.00000000000E+00 -0.74505805969E-08  0.93827000000E+00  0.93827000000E+00 0.  1.
     999902    2    1    2    0    0 -0.41354330432E-02 -0.22586325795E-01 -0.61051237560E-02  0.10201704450E+01  0.10198937299E+01 0.  0.
     999903    2    3    3    0    0 -0.12246426594E+00 -0.26648948008E-01 -0.34698062413E-01  0.13178101812E+00  0.21321780836E-01 0.  0.
         14    1    1    2    0    0  0.41354330432E-02  0.22586325795E-01  0.61051237560E-02  0.23759555035E-01  0.00000000000E+00 0. -1.
     999901    1    3    3    0    0  0.11832883290E+00  0.40626222128E-02  0.28592938657E-01  0.88838942685E+00  0.88000000000E+00 0. -1.
        -11    1    4    4    0    0 -0.11194810987E+00 -0.17760743080E-01 -0.31214984300E-01  0.11756895706E+00  0.51100000000E-03 0. -1.
         11    1    4    4    0    0 -0.10516156075E-01 -0.88882049276E-02 -0.34830781133E-02  0.14212061060E-01  0.51100000000E-03 0.  1.
</event>
<event>
 8    1  0.1094134E+005  0.1043930E+01  0.7957747E-01            NaN
         13   -1    0    0    0    0  0.00000000000E+00  0.00000000000E+00  0.74505805969E-08  0.10566000000E+00  0.10566000000E+00 0.  1.
     999900   -1    0    0    0    0 -0.00000000000E+00 -0.00000000000E+00 -0.74505805969E-08  0.93827000000E+00  0.93827000000E+00 0. -1.
     999902    2    1    2    0    0 -0.57024571536E-02  0.17625886000E-01 -0.11220774293E-01  0.10222713839E+01  0.10220419202E+01 0.  0.
     999903    2    3    3    0    0 -0.22373332644E-01  0.13829471752E-01  0.12705434213E+00  0.13130991524E+00  0.20190782111E-01 0.  0.
         14    1    1    2    0    0  0.57024571536E-02 -0.17625886000E-01  0.11220774293E-01  0.21658616083E-01  0.00000000000E+00 0.  1.
     999901    1    3    3    0    0  0.16670875491E-01  0.37964142484E-02 -0.13827511643E+00  0.89096146868E+00  0.88000000000E+00 0. -1.
        -11    1    4    4    0    0 -0.54187281570E-02  0.84363921646E-02  0.85723735046E-01  0.86309647194E-01  0.51100000000E-03 0. -1.
         11    1    4    4    0    0 -0.16954604487E-01  0.53930795874E-02  0.41330607087E-01  0.45000268043E-01  0.51100000000E-03 0.  1.
</event>
<event>
 8    1  0.1094134E+005  0.1043930E+01  0.7957747E-01            NaN
         13   -1    0    0    0    0  0.00000000000E+00  0.00000000000E+00  0.74505805969E-08  0.10566000000E+00  0.10566000000E+00 0.  1.
     999900   -1    0    0    0    0 -0.00000000000E+00 -0.00000000000E+00 -0.74505805969E-08  0.93827000000E+00  0.93827000000E+00 0. -1.
     999902    2    1    2    0    0  0.23025217675E-01  0.41315252477E-02  0.68474260871E-04  0.10205369489E+01  0.10202688025E+01 0.  0.
     999903    2    3    3    0    0 -0.20490911652E-01  0.11837023931E+00  0.47711555910E-01  0.13081002423E+00  0.20086783113E-01 0.  0.
         14    1    1    2    0    0 -0.23025217675E-01 -0.41315252477E-02 -0.68474260871E-04  0.23393051074E-01  0.00000000000E+00 0. -1.
     999901    1    3    3    0    0  0.43516129327E-01 -0.11423871407E+00 -0.47643081649E-01  0.88972692470E+00  0.88000000000E+00 0.  1.
        -11    1    4    4    0    0 -0.17204165245E-01  0.56580220590E-01  0.15940135443E-01  0.61250744508E-01  0.51100000000E-03 0.  1.
         11    1    4    4    0    0 -0.32867464070E-02  0.61790018723E-01  0.31771420467E-01  0.69559279720E-01  0.51100000000E-03 0. -1.
</event>
<event>
 8    1  0.1094134E+005  0.1043930E+01  0.7957747E-01            NaN
         13   -1    0    0    0    0  0.00000000000E+00  0.00000000000E+00  0.74505805969E-08  0.10566000000E+00  0.10566000000E+00 0. -1.
     999900   -1    0    0    0    0 -0.00000000000E+00 -0.00000000000E+00 -0.74505805969E-08  0.93827000000E+00  0.93827000000E+00 0.  1.
     999902    2    1    2    0    0 -0.10508815433E-01 -0.14986099608E-01 -0.13809420261E-01  0.10210014486E+01  0.10207439637E+01 0.  0.
     999903    2    3    3    0    0 -0.14310769261E-01 -0.13050507735E+00  0.10125652647E-01  0.13312083902E+00  0.19551358269E-01 0.  0.
         14    1    1    2    0    0  0.10508815433E-01  0.14986099608E-01  0.13809420261E-01  0.22928551442E-01  0.00000000000E+00 0. -1.
     999901    1    3    3    0    0  0.38019538287E-02  0.11551897774E+00 -0.23935072909E-01  0.88788060953E+00  0.88000000000E+00 0. -1.
        -11    1    4    4    0    0 -0.49953350799E-02 -0.88524621007E-01 -0.11055918393E-02  0.88673814350E-01  0.51100000000E-03 0.  1.
         11    1    4    4    0    0 -0.93154341815E-02 -0.41980456342E-01  0.11231244487E-01  0.44447024674E-01  0.51100000000E-03 0. -1.
</event>
<event>
 8    1  0.1094134E+005  0.1043930E+01  0.7957747E-01            NaN
         13   -1    0    0    0    0  0.00000000000E+00  0.00000000000E+00  0.74505805969E-08  0.10566000000E+00  0.10566000000E+00 0. -1.
     999900   -1    0    0    0    0 -0.00000000000E+00 -0.00000000000E+00 -0.74505805969E-08  0.93827000000E+00  0.93827000000E+00 0.  1.
     999902    2    1    2    0    0  0.22649714415E-01  0.61954739852E-02  0.33228956764E-02  0.10202142859E+01  0.10199386031E+01 0.  0.
     999903    2    3    3    0    0  0.49845550928E-01 -0.53367040340E-01  0.10740462068E+00  0.13166473063E+00  0.21615476106E-01 0.  0.
         14    1    1    2    0    0 -0.22649714415E-01 -0.61954739852E-02 -0.33228956764E-02  0.23715714129E-01  0.00000000000E+00 0. -1.
     999901    1    3    3    0    0 -0.27195836513E-01  0.59562514325E-01 -0.10408172500E+00  0.88854955524E+00  0.88000000000E+00 0.  1.
        -11    1    4    4    0    0  0.30730745570E-01 -0.44874462027E-01  0.68265742493E-01  0.87284413182E-01  0.51100000000E-03 0.  1.
         11    1    4    4    0    0  0.19114805358E-01 -0.84925783129E-02  0.39138878186E-01  0.44380317449E-01  0.51100000000E-03 0. -1.
</event>
<event>
 8    1  0.1094134E+005  0.1043930E+01  0.7957747E-01            NaN
         13   -1    0    0    0    0  0.00000000000E+00  0.00000000000E+00  0.74505805969E-08  0.10566000000E+00  0.10566000000E+00 0.  1.
     999900   -1    0    0    0    0 -0.00000000000E+00 -0.00000000000E+00 -0.74505805969E-08  0.93827000000E+00  0.93827000000E+00 0. -1.
     999902    2    1    2    0    0 -0.18119850055E-01 -0.16328983848E-01 -0.26638780203E-03  0.10195366476E+01  0.10192447891E+01 0.  0.
     999903    2    3    3    0    0 -0.32455714267E-01  0.12116709597E+00  0.21408149415E-01  0.12848082749E+00  0.17725000304E-01 0.  0.
         14    1    1    2    0    0  0.18119850055E-01  0.16328983848E-01  0.26638780203E-03  0.24393352414E-01  0.00000000000E+00 0.  1.
     999901    1    3    3    0    0  0.14335864212E-01 -0.13749607982E+00 -0.21674537217E-01  0.89105582010E+00  0.88000000000E+00 0.  1.
        -11    1    4    4    0    0 -0.32264627629E-01  0.11840406873E+00  0.17961542744E-01  0.12402986667E+00  0.51100000000E-03 0. -1.
         11    1    4    4    0    0 -0.19108663871E-03  0.27630272416E-02  0.34466066712E-02  0.44509608162E-02  0.51100000000E-03 0.  1.
</event>
<event>
 8    1  0.1094134E+005  0.1043930E+01  0.7957747E-01            NaN
         13   -1    0    0    0    0  0.00000000000E+00  0.00000000000E+00  0.74505805969E-08  0.10566000000E+00  0.10566000000E+00 0.  1.
     999900   -1    0    0    0    0 -0.00000000000E+00 -0.00000000000E+00 -0.74505805969E-08  0.93827000000E+00  0.93827000000E+00 0. -1.
     999902    2    1    2    0    0 -0.95035492405E-02 -0.69725233625E-04  0.23485669459E-01  0.10185942746E+01  0.10182791353E+01 0.  0.
     999903    2    3    3    0    0 -0.10589567431E+00  0.72634686837E-01  0.63497399518E-02  0.13018501456E+00  0.20448160036E-01 0.  0.
         14    1    1    2    0    0  0.95035492405E-02  0.69725233625E-04 -0.23485669459E-01  0.25335725364E-01  0.00000000000E+00 0. -1.
     999901    1    3    3    0    0  0.96392125069E-01 -0.72704412071E-01  0.17135929507E-01  0.88840926008E+00  0.88000000000E+00 0. -1.
        -11    1    4    4    0    0 -0.49645394590E-01  0.46329255232E-01  0.45649235769E-02  0.68060008394E-01  0.51100000000E-03 0. -1.
         11    1    4    4    0    0 -0.56250279720E-01  0.26305431605E-01  0.17848163748E-02  0.62125006165E-01  0.51100000000E-03 0.  1.
</event>
<event>
 8    1  0.1094134E+005  0.1043930E+01  0.7957747E-01            NaN
         13   -1    0    0    0    0  0.00000000000E+00  0.00000000000E+00  0.74505805969E-08  0.10566000000E+00  0.10566000000E+00 0.  1.
     999900   -1    0    0    0    0 -0.00000000000E+00 -0.00000000000E+00 -0.74505805969E-08  0.93827000000E+00  0.93827000000E+00 0.  1.
     999902    2    1    2    0    0 -0.17638552412E-01 -0.14630456116E-01 -0.40038893832E-02  0.10206662963E+01  0.10204011410E+01 0.  0.
     999903    2    3    3    0    0  0.72577305866E-01  0.10128674098E+00  0.21857229920E-01  0.12811686065E+00  0.20241597231E-01 0.  0.
         14    1    1    2    0    0  0.17638552412E-01  0.14630456116E-01  0.40038893832E-02  0.23263703651E-01  0.00000000000E+00 0. -1.
     999901    1    3    3    0    0 -0.90215858278E-01 -0.11591719710E+00 -0.25861119304E-01  0.89254943570E+00  0.88000000000E+00 0.  1.
        -11    1    4    4    0    0  0.51598114816E-01  0.84751265866E-01  0.13593427873E-01  0.10015081088E+00  0.51100000000E-03 0. -1.
         11    1    4    4    0    0  0.20979191050E-01  0.16535475117E-01  0.82638020476E-02  0.27966049770E-01  0.51100000000E-03 0.  1.
</event>
<event>
 8    1  0.1094134E+005  0.1043930E+01  0.7957747E-01            NaN
         13   -1    0    0    0    0  0.00000000000E+00  0.00000000000E+00  0.74505805969E-08  0.10566000000E+00  0.10566000000E+00 0.  1.
     999900   -1    0    0    0    0 -0.00000000000E+00 -0.00000000000E+00 -0.74505805969E-08  0.93827000000E+00  0.93827000000E+00 0. -1.
     999902    2    1    2    0    0  0.16107067212E-01  0.14182193356E-01  0.23300823384E-02  0.10223429320E+01  0.10221149980E+01 0.  0.
     999903    2    3    3    0    0  0.12020495938E+00  0.15064811201E-01  0.55879460702E-01  0.13459032787E+00  0.17772490865E-01 0.  0.
         14    1    1    2    0    0 -0.16107067212E-01 -0.14182193356E-01 -0.23300823384E-02  0.21587068032E-01  0.00000000000E+00 0. -1.
     999901    1    3    3    0    0 -0.10409789216E+00 -0.88261784515E-03 -0.53549378364E-01  0.88775260410E+00  0.88000000000E+00 0. -1.
        -11    1    4    4    0    0  0.73591757863E-01  0.97838312207E-02  0.24624638937E-01  0.78218310788E-01  0.51100000000E-03 0. -1.
         11    1    4    4    0    0  0.46613201512E-01  0.52809799801E-02  0.31254821766E-01  0.56372017077E-01  0.51100000000E-03 0.  1.
</event>
<event>
 8    1  0.1094134E+005  0.1043930E+01  0.7957747E-01            NaN
         13   -1    0    0    0    0  0.00000000000E+00  0.00000000000E+00  0.74505805969E-08  0.10566000000E+00  0.10566000000E+00 0. -1.
     999900   -1    0    0    0    0 -0.00000000000E+00 -0.00000000000E+00 -0.74505805969E-08  0.93827000000E+00  0.93827000000E+00 0. -1.
     999902    2    1    2    0    0 -0.14373030959E-01 -0.11371878131E-01  0.15224859435E-01  0.10201035446E+01  0.10198252506E+01 0.  0.
     999903    2    3    3    0    0 -0.85866531576E-02  0.43728629372E-01 -0.11859687178E+00  0.12826398290E+00  0.20012687878E-01 0.  0.
         14    1    1    2    0    0  0.14373030959E-01  0.11371878131E-01 -0.15224859435E-01  0.23826455381E-01  0.00000000000E+00 0.  1.
     999901    1    3    3    0    0 -0.57863778011E-02 -0.55100507503E-01  0.13382173121E+00  0.89183956171E+00  0.88000000000E+00 0.  1.
        -11    1    4    4    0    0  0.59945560543E-02  0.16075389934E-01 -0.34288073153E-01  0.38344307862E-01  0.51100000000E-03 0.  1.
         11    1    4    4    0    0 -0.14581209212E-01  0.27653239438E-01 -0.84308798624E-01  0.89919675043E-01  0.51100000000E-03 0. -1.
</event>
<event>
 8    1  0.1094134E+005  0.1043930E+01  0.7957747E-01            NaN
         13   -1    0    0    0    0  0.00000000000E+00  0.00000000000E+00  0.74505805969E-08  0.10566000000E+00  0.10566000000E+00 0.  1.
     999900   -1    0    0    0    0 -0.00000000000E+00 -0.00000000000E+00 -0.74505805969E-08  0.93827000000E+00  0.93827000000E+00 0.  1.
     999902    2    1    2    0    0 -0.49941443293E-02 -0.10261634409E-01 -0.27043757029E-01  0.10145768500E+01  0.10141521470E+01 0.  0.
     999903    2    3    3    0    0 -0.70918914160E-01  0.98155388134E-01  0.19385610978E-01  0.12426453839E+00  0.20047468271E-01 0.  0.
         14    1    1    2    0    0  0.49941443293E-02  0.10261634409E-01  0.27043757029E-01  0.29353149960E-01  0.00000000000E+00 0.  1.
     999901    1    3    3    0    0  0.65924769831E-01 -0.10841702254E+00 -0.46429368007E-01  0.89031231165E+00  0.88000000000E+00 0. -1.
        -11    1    4    4    0    0 -0.27472288699E-01  0.44345802844E-01  0.17676462861E-01  0.55081715083E-01  0.51100000000E-03 0. -1.
         11    1    4    4    0    0 -0.43446625461E-01  0.53809585290E-01  0.17091481171E-02  0.69182823311E-01  0.51100000000E-03 0.  1.
</event>
<event>
 8    1  0.1094134E+005  0.1043930E+01  0.7957747E-01            NaN
         13   -1    0    0    0    0  0.00000000000E+00  0.00000000000E+00  0.74505805969E-08  0.10566000000E+00  0.10566000000E+00 0.  1.
     999900   -1    0    0    0    0 -0.00000000000E+00 -0.00000000000E+00 -0.74505805969E-08  0.93827000000E+00  0.93827000000E+00 0. -1.
     999902    2    1    2    0    0 -0.19909947188E-01 -0.97449186655E-02 -0.49506123887E-02  0.10212170522E+01  0.10209644409E+01 0.  0.
     999903    2    3    3    0    0 -0.35412026722E-01 -0.95244421145E-01 -0.84313332713E-01  0.13338321591E+00  0.18890019025E-01 0.  0.
         14    1    1    2    0    0  0.19909947188E-01  0.97449186655E-02  0.49506123887E-02  0.22712947846E-01  0.00000000000E+00 0.  1.
     999901    1    3    3    0    0  0.15502079533E-01  0.85499502480E-01  0.79362720324E-01  0.88783383624E+00  0.88000000000E+00 0.  1.
        -11    1    4    4    0    0 -0.31858618499E-01 -0.62407910942E-01 -0.52882115649E-01  0.87786662980E-01  0.51100000000E-03 0.  1.
         11    1    4    4    0    0 -0.35534082227E-02 -0.32836510204E-01 -0.31431217064E-01  0.45596552934E-01  0.51100000000E-03 0. -1.
</event>
<event>
 8    1  0.1094134E+005  0.1043930E+01  0.7957747E-01            NaN
         13   -1    0    0    0    0  0.00000000000E+00  0.00000000000E+00  0.74505805969E-08  0.10566000000E+00  0.10566000000E+00 0.  1.
     999900   -1    0    0    0    0 -0.00000000000E+00 -0.00000000000E+00 -0.74505805969E-08  0.93827000000E+00  0.93827000000E+00 0. -1.
     999902    2    1    2    0    0  0.89087481442E-02  0.23567431077E-01 -0.18722886061E-02  0.10186654979E+01  0.10183521501E+01 0.  0.
     999903    2    3    3    0    0 -0.41445957591E-01  0.99455436810E-01  0.71490919599E-01  0.13092863030E+00  0.20547587088E-01 0.  0.
         14    1    1    2    0    0 -0.89087481442E-02 -0.23567431077E-01  0.18722886061E-02  0.25264502086E-01  0.00000000000E+00 0.  1.
     999901    1    3    3    0    0  0.50354705735E-01 -0.75888005734E-01 -0.73363208205E-01  0.88773686761E+00  0.88000000000E+00 0.  1.
        -11    1    4    4    0    0 -0.20640537525E-01  0.66500617585E-01  0.36841805798E-01  0.78777812257E-01  0.51100000000E-03 0.  1.
         11    1    4    4    0    0 -0.20805420066E-01  0.32954819225E-01  0.34649113801E-01  0.52150818042E-01  0.51100000000E-03 0. -1.
</event>
<event>
 8    1  0.1094134E+005  0.1043930E+01  0.7957747E-01            NaN
         13   -1    0    0    0    0  0.00000000000E+00  0.00000000000E+00  0.74505805969E-08  0.10566000000E+00  0.10566000000E+00 0. -1.
     999900   -1    0    0    0    0 -0.00000000000E+00 -0.00000000000E+00 -0.74505805969E-08  0.93827000000E+00  0.93827000000E+00 0.  1.
     999902    2    1    2    0    0 -0.80524808605E-02  0.19775735556E-01 -0.10480463017E-01  0.10201442423E+01  0.10198669094E+01 0.  0.
     999903    2    3    3    0    0  0.12688789590E+00  0.22087788958E-01 -0.26195709581E-02  0.12982068060E+00  0.16066686409E-01 0.  0.
         14    1    1    2    0    0  0.80524808605E-02 -0.19775735556E-01  0.10480463017E-01  0.23785757709E-01  0.00000000000E+00 0. -1.
     999901    1    3    3    0    0 -0.13494037676E+00 -0.23120534028E-02 -0.78608920584E-02  0.89032356169E+00  0.88000000000E+00 0. -1.
        -11    1    4    4    0    0  0.10836046461E-01  0.66303723914E-02 -0.16791099450E-04  0.12713895701E-01  0.51100000000E-03 0.  1.
         11    1    4    4    0    0  0.11605184944E+00  0.15457416567E-01 -0.26027798586E-02  0.11710678490E+00  0.51100000000E-03 0. -1.
</event>
<event>
 8    1  0.1094134E+005  0.1043930E+01  0.7957747E-01            NaN
         13   -1    0    0    0    0  0.00000000000E+00  0.00000000000E+00  0.74505805969E-08  0.10566000000E+00  0.10566000000E+00 0.  1.
     999900   -1    0    0    0    0 -0.00000000000E+00 -0.00000000000E+00 -0.74505805969E-08  0.93827000000E+00  0.93827000000E+00 0. -1.
     999902    2    1    2    0    0 -0.90651379162E-02  0.12229626244E-01  0.16563120831E-01  0.10214338347E+01  0.10211860757E+01 0.  0.
     999903    2    3    3    0    0 -0.44950014328E-01  0.11577407464E-01 -0.11996709614E+00  0.13018266361E+00  0.20022027808E-01 0.  0.
         14    1    1    2    0    0  0.90651379162E-02 -0.12229626244E-01 -0.16563120831E-01  0.22496165344E-01  0.00000000000E+00 0. -1.
     999901    1    3    3    0    0  0.35884876412E-01  0.65221878084E-03  0.13653021697E+00  0.89125117105E+00  0.88000000000E+00 0.  1.
        -11    1    4    4    0    0 -0.36663631515E-01  0.59064436503E-02 -0.70294225286E-01  0.79502497961E-01  0.51100000000E-03 0.  1.
         11    1    4    4    0    0 -0.82863828129E-02  0.56709638132E-02 -0.49672870852E-01  0.50680165650E-01  0.51100000000E-03 0. -1.
</event>
<event>
 8    1  0.1094134E+005  0.1043930E+01  0.7957747E-01            NaN
         13   -1    0    0    0    0  0.00000000000E+00  0.00000000000E+00  0.74505805969E-08  0.10566000000E+00  0.10566000000E+00 0.  1.
     999900   -1    0    0    0    0 -0.00000000000E+00 -0.00000000000E+00 -0.74505805969E-08  0.93827000000E+00  0.93827000000E+00 0.  1.
     999902    2    1    2    0    0 -0.15870912169E-02  0.19542915983E-01  0.14286619689E-01  0.10196699108E+01  0.10193812708E+01 0.  0.
     999903    2    3    3    0    0 -0.29418924067E-01 -0.98105711798E-01 -0.72812141978E-01  0.12714427826E+00  0.19335348307E-01 0.  0.
         14    1    1    2    0    0  0.15870912169E-02 -0.19542915983E-01 -0.14286619689E-01  0.24260089155E-01  0.00000000000E+00 0.  1.
     999901    1    3    3    0    0  0.27831832851E-01  0.11764862778E+00  0.87098761667E-01  0.89252563259E+00  0.88000000000E+00 0. -1.
        -11    1    4    4    0    0 -0.15202021093E-01 -0.57567811867E-01 -0.53475632958E-01  0.80031611565E-01  0.51100000000E-03 0.  1.
         11    1    4    4    0    0 -0.14216902974E-01 -0.40537899931E-01 -0.19336509020E-01  0.47112666694E-01  0.51100000000E-03 0. -1.
</event>
<event>
 8    1  0.1094134E+005  0.1043930E+01  0.7957747E-01            NaN
         13   -1    0    0    0    0  0.00000000000E+00  0.00000000000E+00  0.74505805969E-08  0.10566000000E+00  0.10566000000E+00 0.  1.
     999900   -1    0    0    0    0 -0.00000000000E+00 -0.00000000000E+00 -0.74505805969E-08  0.93827000000E+00  0.93827000000E+00 0.  1.
     999902    2    1    2    0    0 -0.16862320838E-03 -0.13673152198E-01 -0.21124775007E-01  0.10187657467E+01  0.10184549116E+01 0.  0.
     999903    2    3    3    0    0  0.49927901211E-02  0.12604215474E+00 -0.26643574743E-02  0.12753749637E+00  0.18632269135E-01 0.  0.
         14    1    1    2    0    0  0.16862320838E-03  0.13673152198E-01  0.21124775007E-01  0.25164253296E-01  0.00000000000E+00 0.  1.
     999901    1    3    3    0    0 -0.51614133295E-02 -0.13971530694E+00 -0.18460417533E-01  0.89122825034E+00  0.88000000000E+00 0. -1.
        -11    1    4    4    0    0  0.98947179343E-03  0.65884846751E-01 -0.10543058584E-01  0.66732370639E-01  0.51100000000E-03 0.  1.
         11    1    4    4    0    0  0.40033183277E-02  0.60157307994E-01  0.78787011097E-02  0.60805125729E-01  0.51100000000E-03 0. -1.
</event>
<event>
 8    1  0.1094134E+005  0.1043930E+01  0.7957747E-01            NaN
         13   -1    0    0    0    0  0.00000000000E+00  0.00000000000E+00  0.74505805969E-08  0.10566000000E+00  0.10566000000E+00 0.  1.
     999900   -1    0    0    0    0 -0.00000000000E+00 -0.00000000000E+00 -0.74505805969E-08  0.93827000000E+00  0.93827000000E+00 0. -1.
     999902    2    1    2    0    0  0.18605746656E-01  0.11903323440E-01 -0.83669659882E-02  0.10203107486E+01  0.10200373300E+01 0.  0.
     999903    2    3    3    0    0  0.17307848978E-01 -0.57509744002E-01 -0.11528241256E+00  0.13112529482E+00  0.17230090140E-01 0.  0.
         14    1    1    2    0    0 -0.18605746656E-01 -0.11903323440E-01  0.83669659882E-02  0.23619251414E-01  0.00000000000E+00 0.  1.
     999901    1    3    3    0    0  0.12978976778E-02  0.69413067441E-01  0.10691544657E+00  0.88918545376E+00  0.88000000000E+00 0. -1.
        -11    1    4    4    0    0  0.13512045632E-01 -0.19100396890E-01 -0.51582975060E-01  0.56643313600E-01  0.51100000000E-03 0. -1.
         11    1    4    4    0    0  0.37958033463E-02 -0.38409347112E-01 -0.63699437495E-01  0.74481981223E-01  0.51100000000E-03 0.  1.
</event>
<event>
 8    1  0.1094134E+005  0.1043930E+01  0.7957747E-01            NaN
         13   -1    0    0    0    0  0.00000000000E+00  0.00000000000E+00  0.74505805969E-08  0.10566000000E+00  0.10566000000E+00 0.  1.
     999900   -1    0    0    0    0 -0.00000000000E+00 -0.00000000000E+00 -0.74505805969E-08  0.93827000000E+00  0.93827000000E+00 0. -1.
     999902    2    1    2    0    0  0.21869634682E-01  0.89432003811E-02 -0.37378974145E-02  0.10200085947E+01  0.10197280518E+01 0.  0.
     999903    2    3    3    0    0  0.12447934892E-02 -0.10907869020E+00  0.66070721599E-01  0.12915069694E+00  0.20367918420E-01 0.  0.
         14    1    1    2    0    0 -0.21869634682E-01 -0.89432003811E-02  0.37378974145E-02  0.23921405294E-01  0.00000000000E+00 0.  1.
     999901    1    3    3    0    0  0.20624841192E-01  0.11802189058E+00 -0.69808619014E-01  0.89085789777E+00  0.88000000000E+00 0.  1.
        -11    1    4    4    0    0  0.60079864948E-02 -0.96120095311E-01  0.52081834538E-01  0.10948948458E+00  0.51100000000E-03 0. -1.
         11    1    4    4    0    0 -0.47631930056E-02 -0.12958594885E-01  0.13988887061E-01  0.19661212353E-01  0.51100000000E-03 0.  1.
</event>
<event>
 8    1  0.1094134E+005  0.1043930E+01  0.7957747E-01            NaN
         13   -1    0    0    0    0  0.00000000000E+00  0.00000000000E+00  0.74505805969E-08  0.10566000000E+00  0.10566000000E+00 0.  1.
     999900   -1    0    0    0    0 -0.00000000000E+00 -0.00000000000E+00 -0.74505805969E-08  0.93827000000E+00  0.93827000000E+00 0. -1.
     999902    2    1    2    0    0 -0.50163383505E-02 -0.22395442033E-01 -0.56984419134E-02  0.10202827652E+01  0.10200086908E+01 0.  0.
     999903    2    3    3    0    0 -0.99032272794E-01 -0.11381163301E-01 -0.84234606399E-01  0.13172874916E+00  0.17890570313E-01 0.  0.
         14    1    1    2    0    0  0.50163383505E-02  0.22395442033E-01  0.56984419134E-02  0.23647234818E-01  0.00000000000E+00 0.  1.
     999901    1    3    3    0    0  0.94015934443E-01 -0.11014278732E-01  0.78536164485E-01  0.88855401603E+00  0.88000000000E+00 0.  1.
        -11    1    4    4    0    0 -0.73247268653E-01 -0.60999044193E-03 -0.58657436626E-01  0.93842903013E-01  0.51100000000E-03 0.  1.
         11    1    4    4    0    0 -0.25785004140E-01 -0.10771172859E-01 -0.25577169773E-01  0.37885846142E-01  0.51100000000E-03 0. -1.
</event>
<event>
 8    1  0.1094134E+005  0.1043930E+01  0.7957747E-01            NaN
         13   -1    0    0    0    0  0.00000000000E+00  0.00000000000E+00  0.74505805969E-08  0.10566000000E+00  0.10566000000E+00 0.  1.
     999900   -1    0    0    0    0 -0.00000000000E+00 -0.00000000000E+00 -0.74505805969E-08  0.93827000000E+00  0.93827000000E+00 0.  1.
     999902    2    1    2    0    0 -0.22611837852E-01 -0.82758589545E-02 -0.51200535813E-02  0.10193129327E+01  0.10190156303E+01 0.  0.
     999903    2    3    3    0    0 -0.13019585502E+00 -0.12989488963E-01 -0.10122454257E-01  0.13273436144E+00  0.19906258795E-01 0.  0.
         14    1    1    2    0    0  0.22611837852E-01  0.82758589545E-02  0.51200535813E-02  0.24617067274E-01  0.00000000000E+00 0.  1.
     999901    1    3    3    0    0  0.10758401716E+00  0.47136300086E-02  0.50024006757E-02  0.88657857129E+00  0.88000000000E+00 0. -1.
        -11    1    4    4    0    0 -0.58307310220E-01 -0.22323205249E-02  0.47233935706E-02  0.58543122976E-01  0.51100000000E-03 0. -1.
         11    1    4    4    0    0 -0.71888544795E-01 -0.10757168438E-01 -0.14845847828E-01  0.74191238461E-01  0.51100000000E-03 0.  1.
</event>
<event>
 8    1  0.1094134E+005  0.1043930E+01  0.7957747E-01            NaN
         13   -1    0    0    0    0  0.00000000000E+00  0.00000000000E+00  0.74505805969E-08  0.10566000000E+00  0.10566000000E+00 0.  1.
     999900   -1    0    0    0    0 -0.00000000000E+00 -0.00000000000E+00 -0.74505805969E-08  0.93827000000E+00  0.93827000000E+00 0. -1.
     999902    2    1    2    0    0  0.18448821205E-01 -0.13036631295E-01 -0.76365308012E-02  0.10200840494E+01  0.10198052944E+01 0.  0.
     999903    2    3    3    0    0  0.68911499720E-01 -0.25814248551E-01  0.10608953079E+00  0.13124021239E+00  0.23533690404E-01 0.  0.
         14    1    1    2    0    0 -0.18448821205E-01  0.13036631295E-01  0.76365308012E-02  0.23845950642E-01  0.00000000000E+00 0.  1.
     999901    1    3    3    0    0 -0.50462678515E-01  0.12777617256E-01 -0.11372606159E+00  0.88884383696E+00  0.88000000000E+00 0. -1.
        -11    1    4    4    0    0  0.57142302933E-01 -0.15032795083E-01  0.94711322511E-01  0.11163208968E+00  0.51100000000E-03 0.  1.
         11    1    4    4    0    0  0.11769196786E-01 -0.10781453468E-01  0.11378208277E-01  0.19608122717E-01  0.51100000000E-03 0. -1.
</event>
<event>
 8    1  0.1094134E+005  0.1043930E+01  0.7957747E-01            NaN
         13   -1    0    0    0    0  0.00000000000E+00  0.00000000000E+00  0.74505805969E-08  0.10566000000E+00  0.10566000000E+00 0. -1.
     999900   -1    0    0    0    0 -0.00000000000E+00 -0.00000000000E+00 -0.74505805969E-08  0.93827000000E+00  0.93827000000E+00 0.  1.
     999902    2    1    2    0    0 -0.12955859687E-01 -0.88897523890E-02 -0.18525653615E-01  0.10196383998E+01  0.10193490004E+01 0.  0.
     999903    2    3    3    0    0  0.13839265428E-01  0.12652391288E+00 -0.96190649996E-02  0.12883305251E+00  0.17481510461E-01 0.  0.
         14    1    1    2    0    0  0.12955859687E-01  0.88897523890E-02  0.18525653615E-01  0.24291600187E-01  0.00000000000E+00 0. -1.
     999901    1    3    3    0    0 -0.26795125115E-01 -0.13541366527E+00 -0.89065886158E-02  0.89080534731E+00  0.88000000000E+00 0.  1.
        -11    1    4    4    0    0  0.17688987015E-01  0.11097140073E+00 -0.98195754235E-02  0.11280176074E+00  0.51100000000E-03 0. -1.
         11    1    4    4    0    0 -0.38497215869E-02  0.15552512146E-01  0.20051042382E-03  0.16031291769E-01  0.51100000000E-03 0.  1.
</event>
<event>
 8    1  0.1094134E+005  0.1043930E+01  0.7957747E-01            NaN
         13   -1    0    0    0    0  0.00000000000E+00  0.00000000000E+00  0.74505805969E-08  0.10566000000E+00  0.10566000000E+00 0.  1.
     999900   -1    0    0    0    0 -0.00000000000E+00 -0.00000000000E+00 -0.74505805969E-08  0.93827000000E+00  0.93827000000E+00 0.  1.
     999902    2    1    2    0    0  0.19431041873E-01  0.10220258402E-02 -0.13076141505E-01  0.10204865489E+01  0.10202172323E+01 0.  0.
     999903    2    3    3    0    0  0.72343509319E-01  0.10184498432E+00 -0.40017449479E-01  0.13274174755E+00  0.20322182653E-01 0.  0.
         14    1    1    2    0    0 -0.19431041873E-01 -0.10220258402E-02  0.13076141505E-01  0.23443451148E-01  0.00000000000E+00 0.  1.
     999901    1    3    3    0    0 -0.52912467446E-01 -0.10082295848E+00  0.26941307973E-01  0.88774480130E+00  0.88000000000E+00 0. -1.
        -11    1    4    4    0    0  0.35315148724E-01  0.66889443211E-01 -0.24139214945E-01  0.79399749128E-01  0.51100000000E-03 0.  1.
         11    1    4    4    0    0  0.37028360595E-01  0.34955541108E-01 -0.15878234534E-01  0.53341998419E-01  0.51100000000E-03 0. -1.
</event>
<event>
 8    1  0.1094134E+005  0.1043930E+01  0.7957747E-01            NaN
         13   -1    0    0    0    0  0.00000000000E+00  0.00000000000E+00  0.74505805969E-08  0.10566000000E+00  0.10566000000E+00 0. -1.
     999900   -1    0    0    0    0 -0.00000000000E+00 -0.00000000000E+00 -0.74505805969E-08  0.93827000000E+00  0.93827000000E+00 0.  1.
     999902    2    1    2    0    0  0.19996014846E-01  0.12274324284E-01  0.12123214582E-05  0.10204672711E+01  0.10201975062E+01 0.  0.
     999903    2    3    3    0    0 -0.10062687747E+00 -0.53971505072E-01 -0.53700297186E-01  0.12815440882E+00  0.22386128550E-01 0.  0.
         14    1    1    2    0    0 -0.19996014846E-01 -0.12274324284E-01 -0.12123214582E-05  0.23462728908E-01  0.00000000000E+00 0.  1.
     999901    1    3    3    0    0  0.12062289232E+00  0.66245829356E-01  0.53701509507E-01  0.89231286228E+00  0.88000000000E+00 0. -1.
        -11    1    4    4    0    0 -0.75022994572E-01 -0.37172603205E-01 -0.49430350017E-01  0.97231027802E-01  0.51100000000E-03 0. -1.
         11    1    4    4    0    0 -0.25603882901E-01 -0.16798901867E-01 -0.42699471695E-02  0.30923381014E-01  0.51100000000E-03 0.  1.
</event>
<event>
 8    1  0.1094134E+005  0.1043930E+01  0.7957747E-01            NaN
         13   -1    0    0    0    0  0.00000000000E+00  0.00000000000E+00  0.74505805969E-08  0.10566000000E+00  0.10566000000E+00 0. -1.
     999900   -1    0    0    0    0 -0.00000000000E+00 -0.00000000000E+00 -0.74505805969E-08  0.93827000000E+00  0.93827000000E+00 0. -1.
     999902    2    1    2    0    0  0.98659720835E-02 -0.13766960093E-01 -0.26251507118E-01  0.10126888697E+01  0.10122068655E+01 0.  0.
     999903    2    3    3    0    0  0.68205748662E-01 -0.55838413748E-01  0.83330123388E-01  0.12298011373E+00  0.20254537957E-01 0.  0.
         14    1    1    2    0    0 -0.98659720835E-02  0.13766960093E-01  0.26251507118E-01  0.31241130282E-01  0.00000000000E+00 0. -1.
     999901    1    3    3    0    0 -0.58339776578E-01  0.42071453655E-01 -0.10958163051E+00  0.88970875599E+00  0.88000000000E+00 0. -1.
        -11    1    4    4    0    0  0.40856306622E-01 -0.33599054148E-01  0.36101248033E-01  0.64044480332E-01  0.51100000000E-03 0. -1.
         11    1    4    4    0    0  0.27349442039E-01 -0.22239359600E-01  0.47228875355E-01  0.58935633394E-01  0.51100000000E-03 0.  1.
</event>
<event>
 8    1  0.1094134E+005  0.1043930E+01  0.7957747E-01            NaN
         13   -1    0    0    0    0  0.00000000000E+00  0.00000000000E+00  0.74505805969E-08  0.10566000000E+00  0.10566000000E+00 0.  1.
     999900   -1    0    0    0    0 -0.00000000000E+00 -0.00000000000E+00 -0.74505805969E-08  0.93827000000E+00  0.93827000000E+00 0. -1.
     999902    2    1    2    0    0 -0.73857597635E-02  0.20656484452E-01  0.64486889800E-02  0.10210646247E+01  0.10208085729E+01 0.  0.
     999903    2    3    3    0    0 -0.38581439014E-01  0.90187872980E-02  0.12495718840E+00  0.13249674840E+00  0.19267159660E-01 0.  0.
         14    1    1    2    0    0  0.73857597635E-02 -0.20656484452E-01 -0.64486889800E-02  0.22865375281E-01  0.00000000000E+00 0.  1.
     999901    1    3    3    0    0  0.31195679251E-01  0.11637697154E-01 -0.11850849942E+00  0.88856787632E+00  0.88000000000E+00 0. -1.
        -11    1    4    4    0    0 -0.24094783419E-01 -0.34201397333E-02  0.80759146325E-01  0.84347832100E-01  0.51100000000E-03 0.  1.
         11    1    4    4    0    0 -0.14486655596E-01  0.12438927031E-01  0.44198042077E-01  0.48148916296E-01  0.51100000000E-03 0. -1.
</event>
<event>
 7    1  0.1163793E+005  0.1043930E+01  0.7957747E-01            NaN
         13   -1    0    0    0    0  0.00000000000E+00  0.00000000000E+00  0.74505805969E-08  0.10566000000E+00  0.10566000000E+00 0.  1.
     999900   -1    0    0    0    0 -0.00000000000E+00 -0.00000000000E+00 -0.74505805969E-08  0.93827000000E+00  0.93827000000E+00 0. -1.
     999903    2    1    2    0    0 -0.54439348684E-01  0.31198046159E-02  0.36096105935E-01  0.68412340800E-01  0.20098349287E-01 0.  0.
         14    1    1    2    0    0 -0.70036951807E-01  0.10364353727E-01  0.43505292687E-01  0.83098164471E-01  0.00000000000E+00 0.  1.
     999901    1    1    2    0    0  0.12447630049E+00 -0.13484158343E-01 -0.79601398622E-01  0.89241949473E+00  0.88000000000E+00 0.  1.
        -11    1    3    3    0    0 -0.24343704392E-01 -0.59429176944E-02  0.24087093789E-01  0.34761809827E-01  0.51100000000E-03 0. -1.
         11    1    3    3    0    0 -0.30095644292E-01  0.90627223103E-02  0.12009012146E-01  0.33650530973E-01  0.51100000000E-03 0.  1.
</event>
<event>
 8    1  0.1094134E+005  0.1043930E+01  0.7957747E-01            NaN
         13   -1    0    0    0    0  0.00000000000E+00  0.00000000000E+00  0.74505805969E-08  0.10566000000E+00  0.10566000000E+00 0.  1.
     999900   -1    0    0    0    0 -0.00000000000E+00 -0.00000000000E+00 -0.74505805969E-08  0.93827000000E+00  0.93827000000E+00 0.  1.
     999902    2    1    2    0    0  0.14713629867E-01 -0.19417428032E-01  0.21624711645E-02  0.10194717969E+01  0.10191783657E+01 0.  0.
     999903    2    3    3    0    0  0.10710678589E+00 -0.72782203488E-01 -0.22207008127E-01  0.13269213656E+00  0.18572537996E-01 0.  0.
         14    1    1    2    0    0 -0.14713629867E-01  0.19417428032E-01 -0.21624711645E-02  0.24458203057E-01  0.00000000000E+00 0. -1.
     999901    1    3    3    0    0 -0.92393156024E-01  0.53364775456E-01  0.24369479292E-01  0.88677966038E+00  0.88000000000E+00 0.  1.
        -11    1    4    4    0    0  0.49353897811E-01 -0.44610139454E-01 -0.98359546721E-02  0.67252352350E-01  0.51100000000E-03 0. -1.
         11    1    4    4    0    0  0.57752888080E-01 -0.28172064035E-01 -0.12371053455E-01  0.65439784215E-01  0.51100000000E-03 0.  1.
</event>
<event>
 8    1  0.1094134E+005  0.1043930E+01  0.7957747E-01            NaN
         13   -1    0    0    0    0  0.00000000000E+00  0.00000000000E+00  0.74505805969E-08  0.10566000000E+00  0.10566000000E+00 0.  1.
     999900   -1    0    0    0    0 -0.00000000000E+00 -0.00000000000E+00 -0.74505805969E-08  0.93827000000E+00  0.93827000000E+00 0. -1.
     999902    2    1    2    0    0  0.14139933684E-01 -0.18486352921E-01  0.57282506924E-04  0.10206558459E+01  0.10203904495E+01 0.  0.
     999903    2    3    3    0    0  0.11193363148E+00  0.63832347156E-01 -0.14843026994E-01  0.13129540436E+00  0.20358323970E-01 0.  0.
         14    1    1    2    0    0 -0.14139933684E-01  0.18486352921E-01 -0.57282506924E-04  0.23274154123E-01  0.00000000000E+00 0. -1.
     999901    1    3    3    0    0 -0.97793697801E-01 -0.82318700077E-01  0.14900309501E-01  0.88936044152E+00  0.88000000000E+00 0.  1.
        -11    1    4    4    0    0  0.70259139599E-01  0.51085128714E-01 -0.10105066014E-01  0.87455191687E-01  0.51100000000E-03 0. -1.
         11    1    4    4    0    0  0.41674491886E-01  0.12747218443E-01 -0.47379609792E-02  0.43840212673E-01  0.51100000000E-03 0.  1.
</event>
<event>
 8    1  0.1094134E+005  0.1043930E+01  0.7957747E-01            NaN
         13   -1    0    0    0    0  0.00000000000E+00  0.00000000000E+00  0.74505805969E-08  0.10566000000E+00  0.10566000000E+00 0.  1.
     999900   -1    0    0    0    0 -0.00000000000E+00 -0.00000000000E+00 -0.74505805969E-08  0.93827000000E+00  0.93827000000E+00 0.  1.
     999902    2    1    2    0    0 -0.84928074694E-02  0.23912536183E-01  0.64916866318E-02  0.10177368872E+01  0.10173997702E+01 0.  0.
     999903    2    3    3    0    0  0.54990231276E-01 -0.11024500535E+00 -0.21439411513E-02  0.12526676652E+00  0.22567223353E-01 0.  0.
         14    1    1    2    0    0  0.84928074694E-02 -0.23912536183E-01 -0.64916866318E-02  0.26193112850E-01  0.00000000000E+00 0. -1.
     999901    1    3    3    0    0 -0.63483038745E-01  0.13415754153E+00  0.86356277831E-02  0.89247012063E+00  0.88000000000E+00 0. -1.
        -11    1    4    4    0    0  0.29393950758E-01 -0.56547360787E-01 -0.12324615539E-01  0.64913524186E-01  0.51100000000E-03 0.  1.
         11    1    4    4    0    0  0.25596280518E-01 -0.53697644561E-01  0.10180674387E-01  0.60353242330E-01  0.51100000000E-03 0. -1.
</event>
<event>
 8    1  0.1094134E+005  0.1043930E+01  0.7957747E-01            NaN
         13   -1    0    0    0    0  0.00000000000E+00  0.00000000000E+00  0.74505805969E-08  0.10566000000E+00  0.10566000000E+00 0.  1.
     999900   -1    0    0    0    0 -0.00000000000E+00 -0.00000000000E+00 -0.74505805969E-08  0.93827000000E+00  0.93827000000E+00 0. -1.
     999902    2    1    2    0    0  0.12690787656E-01 -0.19253672821E-01 -0.14667261550E-02  0.10208234794E+01  0.10205619358E+01 0.  0.
     999903    2    3    3    0    0  0.10134854826E+00 -0.17330136292E-01  0.82368086893E-01  0.13240230992E+00  0.13191212015E-01 0.  0.
         14    1    1    2    0    0 -0.12690787656E-01  0.19253672821E-01  0.14667261550E-02  0.23106520596E-01  0.00000000000E+00 0. -1.
     999901    1    3    3    0    0 -0.88657760608E-01 -0.19235365295E-02 -0.83834813048E-01  0.88842116948E+00  0.88000000000E+00 0. -1.
        -11    1    4    4    0    0  0.34305459572E-01 -0.46998084678E-02  0.20135683232E-01  0.40058202860E-01  0.51100000000E-03 0.  1.
         11    1    4    4    0    0  0.67043088692E-01 -0.12630327824E-01  0.62232403661E-01  0.92344107060E-01  0.51100000000E-03 0. -1.
</event>
<event>
 8    1  0.1094134E+005  0.1043930E+01  0.7957747E-01            NaN
         13   -1    0    0    0    0  0.00000000000E+00  0.00000000000E+00  0.74505805969E-08  0.10566000000E+00  0.10566000000E+00 0.  1.
     999900   -1    0    0    0    0 -0.00000000000E+00 -0.00000000000E+00 -0.74505805969E-08  0.93827000000E+00  0.93827000000E+00 0.  1.
     999902    2    1    2    0    0 -0.24309726220E-01 -0.35640757788E-02 -0.20927899085E-03  0.10193595050E+01  0.10190633402E+01 0.  0.
     999903    2    3    3    0    0  0.40268455512E-01  0.77545342307E-01  0.92136273168E-01  0.12847411383E+00  0.19536541890E-01 0.  0.
         14    1    1    2    0    0  0.24309726220E-01  0.35640757788E-02  0.20927899085E-03  0.24570494963E-01  0.00000000000E+00 0. -1.
     999901    1    3    3    0    0 -0.64578181732E-01 -0.81109418085E-01 -0.92345552159E-01  0.89088539120E+00  0.88000000000E+00 0.  1.
        -11    1    4    4    0    0  0.24463867188E-01  0.64379692673E-01  0.73261072524E-01  0.10055183487E+00  0.51100000000E-03 0. -1.
         11    1    4    4    0    0  0.15804588324E-01  0.13165649634E-01  0.18875200644E-01  0.27922278967E-01  0.51100000000E-03 0.  1.
</event>
<event>
 8    1  0.1094134E+005  0.1043930E+01  0.7957747E-01            NaN
         13   -1    0    0    0    0  0.00000000000E+00  0.00000000000E+00  0.74505805969E-08  0.10566000000E+00  0.10566000000E+00 0. -1.
     999900   -1    0    0    0    0 -0.00000000000E+00 -0.00000000000E+00 -0.74505805969E-08  0.93827000000E+00  0.93827000000E+00 0. -1.
     999902    2    1    2    0    0 -0.12950141200E-01 -0.20560463302E-01  0.59867892046E-02  0.10189044040E+01  0.10185970273E+01 0.  0.
     999903    2    3    3    0    0 -0.31467839417E-01  0.10610113604E+00 -0.59517702175E-01  0.12723355429E+00  0.19958569082E-01 0.  0.
         14    1    1    2    0    0  0.12950141200E-01  0.20560463302E-01 -0.59867892046E-02  0.25025595963E-01  0.00000000000E+00 0.  1.
     999901    1    3    3    0    0  0.18517698217E-01 -0.12666159934E+00  0.65504491380E-01  0.89167084975E+00  0.88000000000E+00 0.  1.
        -11    1    4    4    0    0 -0.82152960664E-02  0.35088053219E-01 -0.29989966746E-01  0.46886264456E-01  0.51100000000E-03 0.  1.
         11    1    4    4    0    0 -0.23252543350E-01  0.71013082818E-01 -0.29527735429E-01  0.80347289836E-01  0.51100000000E-03 0. -1.
</event>
<event>
 8    1  0.1094134E+005  0.1043930E+01  0.7957747E-01            NaN
         13   -1    0    0    0    0  0.00000000000E+00  0.00000000000E+00  0.74505805969E-08  0.10566000000E+00  0.10566000000E+00 0. -1.
     999900   -1    0    0    0    0 -0.00000000000E+00 -0.00000000000E+00 -0.74505805969E-08  0.93827000000E+00  0.93827000000E+00 0.  1.
     999902    2    1    2    0    0 -0.17839687194E-02 -0.21870995467E-01  0.95020192779E-02  0.10200174226E+01  0.10197370892E+01 0.  0.
     999903    2    3    3    0    0  0.80815882669E-01  0.12742671900E-01 -0.97629367897E-01  0.12900789655E+00  0.20444102243E-01 0.  0.
         14    1    1    2    0    0  0.17839687194E-02  0.21870995467E-01 -0.95020192779E-02  0.23912577391E-01  0.00000000000E+00 0.  1.
     999901    1    3    3    0    0 -0.82599851388E-01 -0.34613667367E-01  0.10713138717E+00  0.89100952606E+00  0.88000000000E+00 0. -1.
        -11    1    4    4    0    0  0.34659483601E-01  0.13698961844E-01 -0.53007257884E-01  0.64799474291E-01  0.51100000000E-03 0. -1.
         11    1    4    4    0    0  0.46156399068E-01 -0.95628994390E-03 -0.44622110013E-01  0.64208422254E-01  0.51100000000E-03 0.  1.
</event>
<event>
 8    1  0.1094134E+005  0.1043930E+01  0.7957747E-01            NaN
         13   -1    0    0    0    0  0.00000000000E+00  0.00000000000E+00  0.74505805969E-08  0.10566000000E+00  0.10566000000E+00 0. -1.
     999900   -1    0    0    0    0 -0.00000000000E+00 -0.00000000000E+00 -0.74505805969E-08  0.93827000000E+00  0.93827000000E+00 0.  1.
     999902    2    1    2    0    0 -0.14032455107E-01 -0.18389665874E-01 -0.58342511222E-02  0.10200735943E+01  0.10197945919E+01 0.  0.
     999903    2    3    3    0    0  0.87412262239E-01 -0.22153039915E-01  0.89960305021E-01  0.12907315060E+00  0.20865305175E-01 0.  0.
         14    1    1    2    0    0  0.14032455107E-01  0.18389665874E-01  0.58342511222E-02  0.23856405711E-01  0.00000000000E+00 0.  1.
     999901    1    3    3    0    0 -0.10144471735E+00  0.37633740411E-02 -0.95794556143E-01  0.89100044369E+00  0.88000000000E+00 0.  1.
        -11    1    4    4    0    0  0.52204303135E-01 -0.37953243519E-02  0.44425124563E-01  0.68655273404E-01  0.51100000000E-03 0.  1.
         11    1    4    4    0    0  0.35207959104E-01 -0.18357715563E-01  0.45535180458E-01  0.60417877199E-01  0.51100000000E-03 0. -1.
</event>
<event>
 8    1  0.1094134E+005  0.1043930E+01  0.7957747E-01            NaN
         13   -1    0    0    0    0  0.00000000000E+00  0.00000000000E+00  0.74505805969E-08  0.10566000000E+00  0.10566000000E+00 0. -1.
     999900   -1    0    0    0    0 -0.00000000000E+00 -0.00000000000E+00 -0.74505805969E-08  0.93827000000E+00  0.93827000000E+00 0.  1.
     999902    2    1    2    0    0 -0.19584050514E-01  0.25271619859E-01 -0.25669020051E-02  0.10118554183E+01  0.10113469280E+01 0.  0.
     999903    2    3    3    0    0  0.18113641771E-02  0.66740974017E-01 -0.10358398454E+00  0.12484813420E+00  0.19994401870E-01 0.  0.
         14    1    1    2    0    0  0.19584050514E-01 -0.25271619859E-01  0.25669020051E-02  0.32074581692E-01  0.00000000000E+00 0. -1.
     999901    1    3    3    0    0 -0.21395414691E-01 -0.41469354158E-01  0.10101708253E+00  0.88700728411E+00  0.88000000000E+00 0. -1.
        -11    1    4    4    0    0  0.34865775972E-02  0.43438563490E-01 -0.82824470174E-01  0.93590699335E-01  0.51100000000E-03 0.  1.
         11    1    4    4    0    0 -0.16752134201E-02  0.23302410527E-01 -0.20759514365E-01  0.31257434860E-01  0.51100000000E-03 0. -1.
</event>
<event>
 8    1  0.1094134E+005  0.1043930E+01  0.7957747E-01            NaN
         13   -1    0    0    0    0  0.00000000000E+00  0.00000000000E+00  0.74505805969E-08  0.10566000000E+00  0.10566000000E+00 0. -1.
     999900   -1    0    0    0    0 -0.00000000000E+00 -0.00000000000E+00 -0.74505805969E-08  0.93827000000E+00  0.93827000000E+00 0. -1.
     999902    2    1    2    0    0  0.10318237430E-01 -0.19414070695E-01 -0.53426791482E-03  0.10219377830E+01  0.10217011181E+01 0.  0.
     999903    2    3    3    0    0 -0.18464693040E-01 -0.53803383056E-01 -0.11851043939E+00  0.13293302550E+00  0.19766540109E-01 0.  0.
         14    1    1    2    0    0 -0.10318237430E-01  0.19414070695E-01  0.53426791482E-03  0.21992216960E-01  0.00000000000E+00 0. -1.
     999901    1    3    3    0    0  0.28782930470E-01  0.34389312361E-01  0.11797617147E+00  0.88900475754E+00  0.88000000000E+00 0.  1.
        -11    1    4    4    0    0 -0.21754566653E-01 -0.37250540154E-01 -0.89817521713E-01  0.99640916494E-01  0.51100000000E-03 0.  1.
         11    1    4    4    0    0  0.32898736128E-02 -0.16552842902E-01 -0.28692917674E-01  0.33292109008E-01  0.51100000000E-03 0. -1.
</event>
<event>
 8    1  0.1094134E+005  0.1043930E+01  0.7957747E-01            NaN
         13   -1    0    0    0    0  0.00000000000E+00  0.00000000000E+00  0.74505805969E-08  0.10566000000E+00  0.10566000000E+00 0. -1.
     999900   -1    0    0    0    0 -0.00000000000E+00 -0.00000000000E+00 -0.74505805969E-08  0.93827000000E+00  0.93827000000E+00 0. -1.
     999902    2    1    2    0    0 -0.18936560552E-01 -0.10144052729E-01  0.56834582641E-02  0.10217084602E+01  0.10214667791E+01 0.  0.
     999903    2    3    3    0    0 -0.25523604838E-01  0.99403739466E-01 -0.78683632938E-01  0.13088753884E+00  0.20195937915E-01 0.  0.
         14    1    1    2    0    0  0.18936560552E-01  0.10144052729E-01 -0.56834582641E-02  0.22221539756E-01  0.00000000000E+00 0. -1.
     999901    1    3    3    0    0  0.65870442865E-02 -0.10954779220E+00  0.84367091202E-01  0.89082092140E+00  0.88000000000E+00 0. -1.
        -11    1    4    4    0    0 -0.46426161449E-02  0.41912282412E-01 -0.22336779734E-01  0.47721967179E-01  0.51100000000E-03 0.  1.
         11    1    4    4    0    0 -0.20880988693E-01  0.57491457055E-01 -0.56346853204E-01  0.83165571664E-01  0.51100000000E-03 0. -1.
</event>
<event>
 8    1  0.1094134E+005  0.1043930E+01  0.7957747E-01            NaN
         13   -1    0    0    0    0  0.00000000000E+00  0.00000000000E+00  0.74505805969E-08  0.10566000000E+00  0.10566000000E+00 0. -1.
     999900   -1    0    0    0    0 -0.00000000000E+00 -0.00000000000E+00 -0.74505805969E-08  0.93827000000E+00  0.93827000000E+00 0.  1.
     999902    2    1    2    0    0 -0.18705770603E-02 -0.16435281033E-01 -0.16085095480E-01  0.10208573361E+01  0.10205965672E+01 0.  0.
     999903    2    3    3    0    0 -0.59132808833E-03 -0.40211650256E-01 -0.12604848171E+00  0.13369393601E+00  0.19196934668E-01 0.  0.
         14    1    1    2    0    0  0.18705770603E-02  0.16435281033E-01  0.16085095480E-01  0.23072663864E-01  0.00000000000E+00 0. -1.
     999901    1    3    3    0    0 -0.12792489719E-02  0.23776369223E-01  0.10996338623E+00  0.88716340013E+00  0.88000000000E+00 0. -1.
        -11    1    4    4    0    0 -0.42286254249E-02 -0.75296252902E-02 -0.10760139905E-01  0.13806457249E-01  0.51100000000E-03 0. -1.
         11    1    4    4    0    0  0.36372973365E-02 -0.32682024966E-01 -0.11528834180E+00  0.11988747876E+00  0.51100000000E-03 0.  1.
</event>
<event>
 8    1  0.1094134E+005  0.1043930E+01  0.7957747E-01            NaN
         13   -1    0    0    0    0  0.00000000000E+00  0.00000000000E+00  0.74505805969E-08  0.10566000000E+00  0.10566000000E+00 0.  1.
     999900   -1    0    0    0    0 -0.00000000000E+00 -0.00000000000E+00 -0.74505805969E-08  0.93827000000E+00  0.93827000000E+00 0. -1.
     999902    2    1    2    0    0 -0.28610591938E-02  0.16123953888E-01 -0.22730258553E-01  0.10159151432E+01  0.10155288011E+01 0.  0.
     999903    2    3    3    0    0  0.75512222167E-01 -0.63597131705E-01 -0.77505609051E-01  0.12715299179E+00  0.20348784474E-01 0.  0.
         14    1    1    2    0    0  0.28610591938E-02 -0.16123953888E-01  0.22730258553E-01  0.28014856819E-01  0.00000000000E+00 0.  1.
     999901    1    3    3    0    0 -0.78373281360E-01  0.79721085593E-01  0.54775350498E-01  0.88876215139E+00  0.88000000000E+00 0.  1.
        -11    1    4    4    0    0  0.41991277632E-01 -0.22350228028E-01 -0.34141678072E-01  0.58555233691E-01  0.51100000000E-03 0.  1.
         11    1    4    4    0    0  0.33520944534E-01 -0.41246903678E-01 -0.43363930980E-01  0.68597758101E-01  0.51100000000E-03 0. -1.
</event>
<event>
 8    1  0.1094134E+005  0.1043930E+01  0.7957747E-01            NaN
         13   -1    0    0    0    0  0.00000000000E+00  0.00000000000E+00  0.74505805969E-08  0.10566000000E+00  0.10566000000E+00 0.  1.
     999900   -1    0    0    0    0 -0.00000000000E+00 -0.00000000000E+00 -0.74505805969E-08  0.93827000000E+00  0.93827000000E+00 0.  1.
     999902    2    1    2    0    0  0.15343751537E-01  0.96741225291E-02  0.15500121449E-01  0.10200705549E+01  0.10197914805E+01 0.  0.
     999903    2    3    3    0    0  0.10919130688E+00 -0.42003379096E-01 -0.55508948930E-01  0.13073360189E+00  0.17972364900E-01 0.  0.
         14    1    1    2    0    0 -0.15343751537E-01 -0.96741225291E-02 -0.15500121449E-01  0.23859445150E-01  0.00000000000E+00 0. -1.
     999901    1    3    3    0    0 -0.93847555339E-01  0.51677501625E-01  0.71009070379E-01  0.88933695296E+00  0.88000000000E+00 0. -1.
        -11    1    4    4    0    0  0.79330330222E-01 -0.33767262270E-01 -0.32490828657E-01  0.92138180805E-01  0.51100000000E-03 0. -1.
         11    1    4    4    0    0  0.29860976654E-01 -0.82361168265E-02 -0.23018120273E-01  0.38595421088E-01  0.51100000000E-03 0.  1.
</event>
<event>
 8    1  0.1094134E+005  0.1043930E+01  0.7957747E-01            NaN
         13   -1    0    0    0    0  0.00000000000E+00  0.00000000000E+00  0.74505805969E-08  0.10566000000E+00  0.10566000000E+00 0. -1.
     999900   -1    0    0    0    0 -0.00000000000E+00 -0.00000000000E+00 -0.74505805969E-08  0.93827000000E+00  0.93827000000E+00 0. -1.
     999902    2    1    2    0    0  0.18577312408E-01 -0.13572813608E-02  0.13253239481E-01  0.10210693984E+01  0.10208134547E+01 0.  0.
     999903    2    3    3    0    0  0.18673797639E-01  0.12498700262E+00 -0.28318174599E-01  0.13107441534E+00  0.20202024690E-01 0.  0.
         14    1    1    2    0    0 -0.18577312408E-01  0.13572813608E-02 -0.13253239481E-01  0.22860601604E-01  0.00000000000E+00 0.  1.
     999901    1    3    3    0    0 -0.96485231595E-04 -0.12634428398E+00  0.41571414080E-01  0.88999498306E+00  0.88000000000E+00 0.  1.
        -11    1    4    4    0    0 -0.42034701596E-02  0.27804746950E-01 -0.54364122438E-02  0.28645921410E-01  0.51100000000E-03 0. -1.
         11    1    4    4    0    0  0.22877267799E-01  0.97182255667E-01 -0.22881762356E-01  0.10242849393E+00  0.51100000000E-03 0.  1.
</event>
<event>
 8    1  0.1094134E+005  0.1043930E+01  0.7957747E-01            NaN
         13   -1    0    0    0    0  0.00000000000E+00  0.00000000000E+00  0.74505805969E-08  0.10566000000E+00  0.10566000000E+00 0.  1.
     999900   -1    0    0    0    0 -0.00000000000E+00 -0.00000000000E+00 -0.74505805969E-08  0.93827000000E+00  0.93827000000E+00 0. -1.
     999902    2    1    2    0    0 -0.28556023545E-02 -0.18010479047E-01 -0.14162326669E-01  0.10208409698E+01  0.10205798265E+01 0.  0.
     999903    2    3    3    0    0  0.93917621242E-01  0.74063505401E-01 -0.47280471579E-01  0.13014490099E+00  0.19908034788E-01 0.  0.
         14    1    1    2    0    0  0.28556023545E-02  0.18010479047E-01  0.14162326669E-01  0.23089030230E-01  0.00000000000E+00 0.  1.
     999901    1    3    3    0    0 -0.96773223596E-01 -0.92073984448E-01  0.33118144910E-01  0.89069606878E+00  0.88000000000E+00 0.  1.
        -11    1    4    4    0    0  0.49146889853E-01  0.40643693651E-01 -0.14633631040E-01  0.65434936343E-01  0.51100000000E-03 0.  1.
         11    1    4    4    0    0  0.44770731388E-01  0.33419811750E-01 -0.32646840539E-01  0.64709964647E-01  0.51100000000E-03 0. -1.
</event>
<event>
 8    1  0.1094134E+005  0.1043930E+01  0.7957747E-01            NaN
         13   -1    0    0    0    0  0.00000000000E+00  0.00000000000E+00  0.74505805969E-08  0.10566000000E+00  0.10566000000E+00 0.  1.
     999900   -1    0    0    0    0 -0.00000000000E+00 -0.00000000000E+00 -0.74505805969E-08  0.93827000000E+00  0.93827000000E+00 0.  1.
     999902    2    1    2    0    0  0.48172128409E-02 -0.14296939869E-01  0.17616545664E-01  0.10207362355E+01  0.10204726904E+01 0.  0.
     999903    2    3    3    0    0 -0.10190824226E+00  0.26557935664E-01  0.76014129148E-01  0.13142767188E+00  0.20111472318E-01 0.  0.
         14    1    1    2    0    0 -0.48172128409E-02  0.14296939869E-01 -0.17616545664E-01  0.23193764471E-01  0.00000000000E+00 0. -1.
     999901    1    3    3    0    0  0.10672545510E+00 -0.40854875533E-01 -0.58397583484E-01  0.88930856365E+00  0.88000000000E+00 0. -1.
        -11    1    4    4    0    0 -0.69565407283E-01  0.26638517424E-01  0.47845415779E-01  0.88534747038E-01  0.51100000000E-03 0. -1.
         11    1    4    4    0    0 -0.32342834977E-01 -0.80581759982E-04  0.28168713369E-01  0.42892924843E-01  0.51100000000E-03 0.  1.
</event>
<event>
 8    1  0.1094134E+005  0.1043930E+01  0.7957747E-01            NaN
         13   -1    0    0    0    0  0.00000000000E+00  0.00000000000E+00  0.74505805969E-08  0.10566000000E+00  0.10566000000E+00 0.  1.
     999900   -1    0    0    0    0 -0.00000000000E+00 -0.00000000000E+00 -0.74505805969E-08  0.93827000000E+00  0.93827000000E+00 0. -1.
     999902    2    1    2    0    0  0.10432129212E-01 -0.15109150281E-01 -0.14701951317E-01  0.10204084542E+01  0.10201373194E+01 0.  0.
     999903    2    3    3    0    0  0.11319435056E+00  0.53434368825E-01 -0.35546157737E-01  0.13153682736E+00  0.19240968052E-01 0.  0.
         14    1    1    2    0    0 -0.10432129212E-01  0.15109150281E-01  0.14701951317E-01  0.23521545753E-01  0.00000000000E+00 0. -1.
     999901    1    3    3    0    0 -0.10276222135E+00 -0.68543519106E-01  0.20844206420E-01  0.88887162689E+00  0.88000000000E+00 0.  1.
        -11    1    4    4    0    0  0.93642738761E-01  0.37288573338E-01 -0.32942736418E-01  0.10604190317E+00  0.51100000000E-03 0.  1.
         11    1    4    4    0    0  0.19551611796E-01  0.16145795487E-01 -0.26034213186E-02  0.25494924187E-01  0.51100000000E-03 0. -1.
</event>
<event>
 8    1  0.1094134E+005  0.1043930E+01  0.7957747E-01            NaN
         13   -1    0    0    0    0  0.00000000000E+00  0.00000000000E+00  0.74505805969E-08  0.10566000000E+00  0.10566000000E+00 0.  1.
     999900   -1    0    0    0    0 -0.00000000000E+00 -0.00000000000E+00 -0.74505805969E-08  0.93827000000E+00  0.93827000000E+00 0. -1.
     999902    2    1    2    0    0 -0.12000434527E-01  0.18394910273E-01 -0.66007981692E-02  0.10209963198E+01  0.10207387184E+01 0.  0.
     999903    2    3    3    0    0  0.30673596092E-01 -0.12159050770E+00 -0.21536326025E-01  0.12878554863E+00  0.19919416108E-01 0.  0.
         14    1    1    2    0    0  0.12000434527E-01 -0.18394910273E-01  0.66007981692E-02  0.22933680238E-01  0.00000000000E+00 0.  1.
     999901    1    3    3    0    0 -0.42674030619E-01  0.13998541797E+00  0.14935527856E-01  0.89221077113E+00  0.88000000000E+00 0.  1.
        -11    1    4    4    0    0  0.26269711065E-01 -0.10225707707E+00 -0.10533273953E-01  0.10610286759E+00  0.51100000000E-03 0.  1.
         11    1    4    4    0    0  0.44038850263E-02 -0.19333430630E-01 -0.11003052072E-01  0.22682681040E-01  0.51100000000E-03 0. -1.
</event>
<event>
 8    1  0.1094134E+005  0.1043930E+01  0.7957747E-01            NaN
         13   -1    0    0    0    0  0.00000000000E+00  0.00000000000E+00  0.74505805969E-08  0.10566000000E+00  0.10566000000E+00 0.  1.
     999900   -1    0    0    0    0 -0.00000000000E+00 -0.00000000000E+00 -0.74505805969E-08  0.93827000000E+00  0.93827000000E+00 0. -1.
     999902    2    1    2    0    0  0.14213446617E-01  0.45753297013E-02  0.17104012879E-01  0.10212253097E+01  0.10209728841E+01 0.  0.
     999903    2    3    3    0    0 -0.22249011393E-01  0.68145158324E-01  0.11066294424E+00  0.13323662303E+00  0.19155400764E-01 0.  0.
         14    1    1    2    0    0 -0.14213446617E-01 -0.45753297013E-02 -0.17104012879E-01  0.22704690334E-01  0.00000000000E+00 0. -1.
     999901    1    3    3    0    0  0.36462458010E-01 -0.63569828623E-01 -0.93558931358E-01  0.88798868664E+00  0.88000000000E+00 0. -1.
        -11    1    4    4    0    0 -0.14212881781E-01  0.28077198425E-01  0.63194831975E-01  0.70598746372E-01  0.51100000000E-03 0. -1.
         11    1    4    4    0    0 -0.80361296118E-02  0.40067959899E-01  0.47468112262E-01  0.62637876659E-01  0.51100000000E-03 0.  1.
</event>
<event>
 8    1  0.1094134E+005  0.1043930E+01  0.7957747E-01            NaN
         13   -1    0    0    0    0  0.00000000000E+00  0.00000000000E+00  0.74505805969E-08  0.10566000000E+00  0.10566000000E+00 0.  1.
     999900   -1    0    0    0    0 -0.00000000000E+00 -0.00000000000E+00 -0.74505805969E-08  0.93827000000E+00  0.93827000000E+00 0.  1.
     999902    2    1    2    0    0  0.70093051454E-03 -0.20212135450E-01  0.97107397309E-02  0.10214952014E+01  0.10212488072E+01 0.  0.
     999903    2    3    3    0    0  0.12645644280E+00 -0.32055021553E-01  0.80460644582E-02  0.13247468757E+00  0.21588130145E-01 0.  0.
         14    1    1    2    0    0 -0.70093051454E-03  0.20212135450E-01 -0.97107397309E-02  0.22434798621E-01  0.00000000000E+00 0. -1.
     999901    1    3    3    0    0 -0.12575551228E+00  0.11842886103E-01  0.16646752727E-02  0.88902051380E+00  0.88000000000E+00 0. -1.
        -11    1    4    4    0    0  0.72004575151E-01 -0.83374737125E-02  0.91953296669E-02  0.73068375644E-01  0.51100000000E-03 0. -1.
         11    1    4    4    0    0  0.54451867646E-01 -0.23717547840E-01 -0.11492652087E-02  0.59406311931E-01  0.51100000000E-03 0.  1.
</event>
<event>
 8    1  0.1094134E+005  0.1043930E+01  0.7957747E-01            NaN
         13   -1    0    0    0    0  0.00000000000E+00  0.00000000000E+00  0.74505805969E-08  0.10566000000E+00  0.10566000000E+00 0.  1.
     999900   -1    0    0    0    0 -0.00000000000E+00 -0.00000000000E+00 -0.74505805969E-08  0.93827000000E+00  0.93827000000E+00 0. -1.
     999902    2    1    2    0    0  0.11135959770E-01  0.68970554296E-02 -0.22805921575E-01  0.10176300184E+01  0.10172901087E+01 0.  0.
     999903    2    3    3    0    0  0.42042126043E-01 -0.10471222379E+00 -0.57420636084E-01  0.12936766932E+00  0.26583345231E-01 0.  0.
         14    1    1    2    0    0 -0.11135959770E-01 -0.68970554296E-02  0.22805921575E-01  0.26299981606E-01  0.00000000000E+00 0.  1.
     999901    1    3    3    0    0 -0.30906166272E-01  0.11160927922E+00  0.34614714509E-01  0.88826234907E+00  0.88000000000E+00 0.  1.
        -11    1    4    4    0    0  0.14748649378E-01 -0.41939308568E-01 -0.85854153471E-02  0.45281328816E-01  0.51100000000E-03 0.  1.
         11    1    4    4    0    0  0.27293476665E-01 -0.62772915222E-01 -0.48835220737E-01  0.84086340504E-01  0.51100000000E-03 0. -1.
</event>
<event>
 8    1  0.1094134E+005  0.1043930E+01  0.7957747E-01            NaN
         13   -1    0    0    0    0  0.00000000000E+00  0.00000000000E+00  0.74505805969E-08  0.10566000000E+00  0.10566000000E+00 0.  1.
     999900   -1    0    0    0    0 -0.00000000000E+00 -0.00000000000E+00 -0.74505805969E-08  0.93827000000E+00  0.93827000000E+00 0.  1.
     999902    2    1    2    0    0  0.15223330634E-02  0.21855014345E-01  0.11334890664E-01  0.10192634458E+01  0.10189649322E+01 0.  0.
     999903    2    3    3    0    0 -0.37339079804E-01 -0.10037481991E+00 -0.64629556910E-01  0.12672720615E+00  0.20334546927E-01 0.  0.
         14    1    1    2    0    0 -0.15223330634E-02 -0.21855014345E-01 -0.11334890664E-01  0.24666554205E-01  0.00000000000E+00 0. -1.
     999901    1    3    3    0    0  0.38861412867E-01  0.12222983425E+00  0.75964447575E-01  0.89253623965E+00  0.88000000000E+00 0. -1.
        -11    1    4    4    0    0 -0.23679166613E-01 -0.40594249387E-01 -0.35132429426E-01  0.58678315698E-01  0.51100000000E-03 0. -1.
         11    1    4    4    0    0 -0.13659913190E-01 -0.59780570522E-01 -0.29497127484E-01  0.68048890448E-01  0.51100000000E-03 0.  1.
</event>
<event>
 8    1  0.1094134E+005  0.1043930E+01  0.7957747E-01            NaN
         13   -1    0    0    0    0  0.00000000000E+00  0.00000000000E+00  0.74505805969E-08  0.10566000000E+00  0.10566000000E+00 0. -1.
     999900   -1    0    0    0    0 -0.00000000000E+00 -0.00000000000E+00 -0.74505805969E-08  0.93827000000E+00  0.93827000000E+00 0.  1.
     999902    2    1    2    0    0  0.12119872904E-01  0.11309117898E-01 -0.34920669910E-02  0.10269894570E+01  0.10268497274E+01 0.  0.
     999903    2    3    3    0    0 -0.79511286753E-01  0.86971375083E-01 -0.66581760255E-01  0.13676400462E+00  0.19626445340E-01 0.  0.
         14    1    1    2    0    0 -0.12119872904E-01 -0.11309117898E-01  0.34920669910E-02  0.16940543047E-01  0.00000000000E+00 0. -1.
     999901    1    3    3    0    0  0.91631159657E-01 -0.75662257185E-01  0.63089693264E-01  0.89022545233E+00  0.88000000000E+00 0. -1.
        -11    1    4    4    0    0 -0.47288758691E-01  0.46569009111E-01 -0.26939843209E-01  0.71630409612E-01  0.51100000000E-03 0. -1.
         11    1    4    4    0    0 -0.32222528063E-01  0.40402365972E-01 -0.39641917046E-01  0.65133595010E-01  0.51100000000E-03 0.  1.
</event>
<event>
 8    1  0.1094134E+005  0.1043930E+01  0.7957747E-01            NaN
         13   -1    0    0    0    0  0.00000000000E+00  0.00000000000E+00  0.74505805969E-08  0.10566000000E+00  0.10566000000E+00 0. -1.
     999900   -1    0    0    0    0 -0.00000000000E+00 -0.00000000000E+00 -0.74505805969E-08  0.93827000000E+00  0.93827000000E+00 0.  1.
     999902    2    1    2    0    0  0.14945811484E-01 -0.11498027881E-01  0.12882583130E-01  0.10210926868E+01  0.10208372702E+01 0.  0.
     999903    2    3    3    0    0 -0.25152360472E-01 -0.46425135128E-01  0.12053593877E+00  0.13293897758E+00  0.18865969820E-01 0.  0.
         14    1    1    2    0    0 -0.14945811484E-01  0.11498027881E-01 -0.12882583130E-01  0.22837313200E-01  0.00000000000E+00 0.  1.
     999901    1    3    3    0    0  0.40098171956E-01  0.34927107247E-01 -0.10765335564E+00  0.88815370922E+00  0.88000000000E+00 0.  1.
        -11    1    4    4    0    0 -0.24726528493E-01 -0.27506217362E-01  0.84221249123E-01  0.91986265984E-01  0.51100000000E-03 0.  1.
         11    1    4    4    0    0 -0.42583197906E-03 -0.18918917766E-01  0.36314689645E-01  0.40952711600E-01  0.51100000000E-03 0. -1.
</event>
<event>
 7    1  0.1361298E+005  0.1043930E+01  0.7957747E-01            NaN
         13   -1    0    0    0    0  0.00000000000E+00  0.00000000000E+00  0.74505805969E-08  0.10566000000E+00  0.10566000000E+00 0. -1.
     999900   -1    0    0    0    0 -0.00000000000E+00 -0.00000000000E+00 -0.74505805969E-08  0.93827000000E+00  0.93827000000E+00 0.  1.
     999903    2    1    2    0    0  0.32810321982E-01  0.27161464863E-01 -0.93139482262E-01  0.10440818453E+00  0.20293926155E-01 0.  0.
         14    1    1    2    0    0  0.47888307617E-01 -0.13811385103E-01  0.16105034093E-01  0.52377633472E-01  0.00000000000E+00 0. -1.
     999901    1    1    2    0    0 -0.80698629599E-01 -0.13350079760E-01  0.77034448168E-01  0.88714418200E+00  0.88000000000E+00 0. -1.
        -11    1    3    3    0    0  0.18384241043E-01  0.17995975727E-01 -0.32776451947E-01  0.41670041809E-01  0.51100000000E-03 0. -1.
         11    1    3    3    0    0  0.14426080939E-01  0.91654891365E-02 -0.60363030314E-01  0.62738142721E-01  0.51100000000E-03 0.  1.
</event>
<event>
 8    1  0.1094134E+005  0.1043930E+01  0.7957747E-01            NaN
         13   -1    0    0    0    0  0.00000000000E+00  0.00000000000E+00  0.74505805969E-08  0.10566000000E+00  0.10566000000E+00 0. -1.
     999900   -1    0    0    0    0 -0.00000000000E+00 -0.00000000000E+00 -0.74505805969E-08  0.93827000000E+00  0.93827000000E+00 0. -1.
     999902    2    1    2    0    0  0.11733382082E-01 -0.13998307344E-01 -0.81661662433E-02  0.10239222231E+01  0.10237267252E+01 0.  0.
     999903    2    3    3    0    0  0.57632146785E-01 -0.67891880878E-01  0.98984186882E-01  0.13460090211E+00  0.19717042481E-01 0.  0.
         14    1    1    2    0    0 -0.11733382082E-01  0.13998307344E-01  0.81661662433E-02  0.20007776855E-01  0.00000000000E+00 0. -1.
     999901    1    3    3    0    0 -0.45898764703E-01  0.53893573534E-01 -0.10715035313E+00  0.88932132103E+00  0.88000000000E+00 0.  1.
        -11    1    4    4    0    0  0.27464658270E-01 -0.43547820705E-01  0.46699934063E-01  0.69511618486E-01  0.51100000000E-03 0.  1.
         11    1    4    4    0    0  0.30167488514E-01 -0.24344060174E-01  0.52284252819E-01  0.65089283626E-01  0.51100000000E-03 0. -1.
</event>
<event>
 8    1  0.1094134E+005  0.1043930E+01  0.7957747E-01            NaN
         13   -1    0    0    0    0  0.00000000000E+00  0.00000000000E+00  0.74505805969E-08  0.10566000000E+00  0.10566000000E+00 0. -1.
     999900   -1    0    0    0    0 -0.00000000000E+00 -0.00000000000E+00 -0.74505805969E-08  0.93827000000E+00  0.93827000000E+00 0.  1.
     999902    2    1    2    0    0  0.22950640670E-02  0.45120142268E-02 -0.23583398036E-01  0.10198094226E+01  0.10195241322E+01 0.  0.
     999903    2    3    3    0    0  0.57929838966E-01 -0.64406564430E-01 -0.97928873240E-01  0.13224407382E+00  0.19858475830E-01 0.  0.
         14    1    1    2    0    0 -0.22950640670E-02 -0.45120142268E-02  0.23583398036E-01  0.24120577405E-01  0.00000000000E+00 0. -1.
     999901    1    3    3    0    0 -0.55634774899E-01  0.68918578656E-01  0.74345475204E-01  0.88756534877E+00  0.88000000000E+00 0. -1.
        -11    1    4    4    0    0  0.28637112080E-01 -0.26115428421E-01 -0.30347533538E-01  0.49227367417E-01  0.51100000000E-03 0. -1.
         11    1    4    4    0    0  0.29292726886E-01 -0.38291136008E-01 -0.67581339702E-01  0.83016706403E-01  0.51100000000E-03 0.  1.
</event>
<event>
 8    1  0.1094134E+005  0.1043930E+01  0.7957747E-01            NaN
         13   -1    0    0    0    0  0.00000000000E+00  0.00000000000E+00  0.74505805969E-08  0.10566000000E+00  0.10566000000E+00 0. -1.
     999900   -1    0    0    0    0 -0.00000000000E+00 -0.00000000000E+00 -0.74505805969E-08  0.93827000000E+00  0.93827000000E+00 0.  1.
     999902    2    1    2    0    0 -0.43978045730E-02  0.23466348857E-01  0.42213775412E-03  0.10200513817E+01  0.10197718533E+01 0.  0.
     999903    2    3    3    0    0  0.92892515000E-01 -0.13233464077E-02 -0.88554182161E-01  0.12988470020E+00  0.19935435239E-01 0.  0.
         14    1    1    2    0    0  0.43978045730E-02 -0.23466348857E-01 -0.42213775412E-03  0.23878618344E-01  0.00000000000E+00 0.  1.
     999901    1    3    3    0    0 -0.97290319573E-01  0.24789695265E-01  0.88976319916E-01  0.89016668146E+00  0.88000000000E+00 0. -1.
        -11    1    4    4    0    0  0.63710125565E-02  0.43799314531E-02 -0.11605506542E-01  0.13954300542E-01  0.51100000000E-03 0.  1.
         11    1    4    4    0    0  0.86521502444E-01 -0.57032778608E-02 -0.76948675620E-01  0.11593039965E+00  0.51100000000E-03 0. -1.
</event>
<event>
 8    1  0.1094134E+005  0.1043930E+01  0.7957747E-01            NaN
         13   -1    0    0    0    0  0.00000000000E+00  0.00000000000E+00  0.74505805969E-08  0.10566000000E+00  0.10566000000E+00 0.  1.
     999900   -1    0    0    0    0 -0.00000000000E+00 -0.00000000000E+00 -0.74505805969E-08  0.93827000000E+00  0.93827000000E+00 0. -1.
     999902    2    1    2    0    0  0.51273044618E-02  0.11933354857E-01 -0.20796937216E-01  0.10194104811E+01  0.10191155588E+01 0.  0.
     999903    2    3    3    0    0 -0.99515588128E-01  0.72475416618E-01  0.34333322364E-01  0.12943586252E+00  0.20465267813E-01 0.  0.
         14    1    1    2    0    0 -0.51273044618E-02 -0.11933354857E-01  0.20796937216E-01  0.24519518893E-01  0.00000000000E+00 0.  1.
     999901    1    3    3    0    0  0.10464289259E+00 -0.60542061762E-01 -0.55130259580E-01  0.88997461859E+00  0.88000000000E+00 0.  1.
        -11    1    4    4    0    0 -0.71571472496E-01  0.62615567015E-01  0.27948119557E-01  0.99118834818E-01  0.51100000000E-03 0. -1.
         11    1    4    4    0    0 -0.27944115632E-01  0.98598496031E-02  0.63852028068E-02  0.30317027700E-01  0.51100000000E-03 0.  1.
</event>
<event>
 8    1  0.1094134E+005  0.1043930E+01  0.7957747E-01            NaN
         13   -1    0    0    0    0  0.00000000000E+00  0.00000000000E+00  0.74505805969E-08  0.10566000000E+00  0.10566000000E+00 0.  1.
     999900   -1    0    0    0    0 -0.00000000000E+00 -0.00000000000E+00 -0.74505805969E-08  0.93827000000E+00  0.93827000000E+00 0. -1.
     999902    2    1    2    0    0  0.44879738800E-02 -0.18818242405E-01 -0.13554935324E-01  0.10203078826E+01  0.10200343969E+01 0.  0.
     999903    2    3    3    0    0  0.47959790784E-01  0.11107761766E+00  0.37180522415E-01  0.12826706519E+00  0.20776671739E-01 0.  0.
         14    1    1    2    0    0 -0.44879738800E-02  0.18818242405E-01  0.13554935324E-01  0.23622117357E-01  0.00000000000E+00 0.  1.
     999901    1    3    3    0    0 -0.43471816904E-01 -0.12989586007E+00 -0.50735457739E-01  0.89204081745E+00  0.88000000000E+00 0. -1.
        -11    1    4    4    0    0  0.25287287174E-01  0.37929258861E-01  0.78518290559E-02  0.46260003361E-01  0.51100000000E-03 0.  1.
         11    1    4    4    0    0  0.22672503610E-01  0.73148358800E-01  0.29328693359E-01  0.82007061831E-01  0.51100000000E-03 0. -1.
</event>
<event>
 8    1  0.1094134E+005  0.1043930E+01  0.7957747E-01            NaN
         13   -1    0    0    0    0  0.00000000000E+00  0.00000000000E+00  0.74505805969E-08  0.10566000000E+00  0.10566000000E+00 0.  1.
     999900   -1    0    0    0    0 -0.00000000000E+00 -0.00000000000E+00 -0.74505805969E-08  0.93827000000E+00  0.93827000000E+00 0.  1.
     999902    2    1    2    0    0  0.29379642806E-03  0.20997939604E-01 -0.85907755196E-02  0.10212407689E+01  0.10209886909E+01 0.  0.
     999903    2    3    3    0    0  0.56938432533E-01 -0.94581009039E-01  0.63974121847E-01  0.12892200719E+00  0.18456524636E-01 0.  0.
         14    1    1    2    0    0 -0.29379642806E-03 -0.20997939604E-01  0.85907755196E-02  0.22689231101E-01  0.00000000000E+00 0. -1.
     999901    1    3    3    0    0 -0.56644636105E-01  0.11557894864E+00 -0.72564897366E-01  0.89231876171E+00  0.88000000000E+00 0.  1.
        -11    1    4    4    0    0  0.17131651734E-01 -0.45152824376E-01  0.31142638079E-01  0.57466477775E-01  0.51100000000E-03 0.  1.
         11    1    4    4    0    0  0.39806780799E-01 -0.49428184662E-01  0.32831483767E-01  0.71455529415E-01  0.51100000000E-03 0. -1.
</event>
<event>
 8    1  0.1094134E+005  0.1043930E+01  0.7957747E-01            NaN
         13   -1    0    0    0    0  0.00000000000E+00  0.00000000000E+00  0.74505805969E-08  0.10566000000E+00  0.10566000000E+00 0.  1.
     999900   -1    0    0    0    0 -0.00000000000E+00 -0.00000000000E+00 -0.74505805969E-08  0.93827000000E+00  0.93827000000E+00 0.  1.
     999902    2    1    2    0    0  0.90978000849E-02 -0.16795514339E-01 -0.12419260534E-01  0.10211462931E+01  0.10208920876E+01 0.  0.
     999903    2    3    3    0    0 -0.62210969130E-01  0.69122045105E-01 -0.89792553541E-01  0.13072313860E+00  0.19436421838E-01 0.  0.
         14    1    1    2    0    0 -0.90978000849E-02  0.16795514339E-01  0.12419260534E-01  0.22783706909E-01  0.00000000000E+00 0.  1.
     999901    1    3    3    0    0  0.71308769215E-01 -0.85917559444E-01  0.77373293007E-01  0.89042315449E+00  0.88000000000E+00 0.  1.
        -11    1    4    4    0    0 -0.23588082695E-01  0.35064223159E-01 -0.51085034924E-01  0.66301125972E-01  0.51100000000E-03 0. -1.
         11    1    4    4    0    0 -0.38622886435E-01  0.34057821946E-01 -0.38707518617E-01  0.64422012626E-01  0.51100000000E-03 0.  1.
</event>
<event>
 8    1  0.1094134E+005  0.1043930E+01  0.7957747E-01            NaN
         13   -1    0    0    0    0  0.00000000000E+00  0.00000000000E+00  0.74505805969E-08  0.10566000000E+00  0.10566000000E+00 0.  1.
     999900   -1    0    0    0    0 -0.00000000000E+00 -0.00000000000E+00 -0.74505805969E-08  0.93827000000E+00  0.93827000000E+00 0. -1.
     999902    2    1    2    0    0 -0.21354633570E-01 -0.60931543130E-02 -0.77896208825E-02  0.10203965111E+01  0.10201250976E+01 0.  0.
     999903    2    3    3    0    0  0.10076610684E+00  0.77209498289E-01 -0.22055833298E-03  0.12803442215E+00  0.16662823742E-01 0.  0.
         14    1    1    2    0    0  0.21354633570E-01  0.60931543130E-02  0.77896208825E-02  0.23533488859E-01  0.00000000000E+00 0.  1.
     999901    1    3    3    0    0 -0.12212074041E+00 -0.83302652602E-01 -0.75690625495E-02  0.89236208900E+00  0.88000000000E+00 0. -1.
        -11    1    4    4    0    0  0.23899710075E-01  0.26488529738E-01 -0.37196945257E-02  0.35873884620E-01  0.51100000000E-03 0. -1.
         11    1    4    4    0    0  0.76866396762E-01  0.50720968551E-01  0.34991361927E-02  0.92160537526E-01  0.51100000000E-03 0.  1.
</event>
<event>
 8    1  0.1094134E+005  0.1043930E+01  0.7957747E-01            NaN
         13   -1    0    0    0    0  0.00000000000E+00  0.00000000000E+00  0.74505805969E-08  0.10566000000E+00  0.10566000000E+00 0.  1.
     999900   -1    0    0    0    0 -0.00000000000E+00 -0.00000000000E+00 -0.74505805969E-08  0.93827000000E+00  0.93827000000E+00 0.  1.
     999902    2    1    2    0    0  0.11163224848E-01  0.14883616116E-01  0.35509814719E-02  0.10249893272E+01  0.10248143109E+01 0.  0.
     999903    2    3    3    0    0 -0.81926678011E-01 -0.49943160276E-01 -0.89702957451E-01  0.13282088003E+00  0.19709534963E-01 0.  0.
         14    1    1    2    0    0 -0.11163224848E-01 -0.14883616116E-01 -0.35509814719E-02  0.18940672826E-01  0.00000000000E+00 0.  1.
     999901    1    3    3    0    0  0.93089902860E-01  0.64826776392E-01  0.93253938923E-01  0.89216844714E+00  0.88000000000E+00 0. -1.
        -11    1    4    4    0    0 -0.59352291091E-01 -0.27911629397E-01 -0.52290577100E-01  0.83882769910E-01  0.51100000000E-03 0.  1.
         11    1    4    4    0    0 -0.22574386921E-01 -0.22031530878E-01 -0.37412380351E-01  0.48938110121E-01  0.51100000000E-03 0. -1.
</event>
<event>
 8    1  0.1094134E+005  0.1043930E+01  0.7957747E-01            NaN
         13   -1    0    0    0    0  0.00000000000E+00  0.00000000000E+00  0.74505805969E-08  0.10566000000E+00  0.10566000000E+00 0.  1.
     999900   -1    0    0    0    0 -0.00000000000E+00 -0.00000000000E+00 -0.74505805969E-08  0.93827000000E+00  0.93827000000E+00 0. -1.
     999902    2    1    2    0    0 -0.37847895548E-02  0.16239224644E-01 -0.17801860812E-01  0.10195385405E+01  0.10192467278E+01 0.  0.
     999903    2    3    3    0    0 -0.32068514788E-01 -0.90341829363E-01 -0.85581728120E-01  0.13007038445E+00  0.20100670371E-01 0.  0.
         14    1    1    2    0    0  0.37847895548E-02 -0.16239224644E-01  0.17801860812E-01  0.24391459517E-01  0.00000000000E+00 0. -1.
     999901    1    3    3    0    0  0.28283725233E-01  0.10658105401E+00  0.67779867308E-01  0.88946815603E+00  0.88000000000E+00 0.  1.
        -11    1    4    4    0    0 -0.30563599172E-01 -0.68466401400E-01 -0.57789849946E-01  0.94666306534E-01  0.51100000000E-03 0.  1.
         11    1    4    4    0    0 -0.15049156159E-02 -0.21875427962E-01 -0.27791878174E-01  0.35404077914E-01  0.51100000000E-03 0. -1.
</event>
<event>
 8    1  0.1094134E+005  0.1043930E+01  0.7957747E-01            NaN
         13   -1    0    0    0    0  0.00000000000E+00  0.00000000000E+00  0.74505805969E-08  0.10566000000E+00  0.10566000000E+00 0.  1.
     999900   -1    0    0    0    0 -0.00000000000E+00 -0.00000000000E+00 -0.74505805969E-08  0.93827000000E+00  0.93827000000E+00 0.  1.
     999902    2    1    2    0    0  0.30025284145E-01 -0.69294272112E-02  0.18712657150E-01  0.10078786729E+01  0.10072336973E+01 0.  0.
     999903    2    3    3    0    0  0.60934533416E-01 -0.57633072629E-01 -0.83414983646E-01  0.11998436815E+00  0.20089815366E-01 0.  0.
         14    1    1    2    0    0 -0.30025284145E-01  0.69294272112E-02 -0.18712657150E-01  0.36051327120E-01  0.00000000000E+00 0. -1.
     999901    1    3    3    0    0 -0.30909249271E-01  0.50703645418E-01  0.10212764080E+00  0.88789430473E+00  0.88000000000E+00 0. -1.
        -11    1    4    4    0    0  0.93047031901E-02 -0.23881986803E-02 -0.16053185503E-01  0.18714883921E-01  0.51100000000E-03 0. -1.
         11    1    4    4    0    0  0.51629830226E-01 -0.55244873949E-01 -0.67361798143E-01  0.10126948423E+00  0.51100000000E-03 0.  1.
</event>
<event>
 8    1  0.1094134E+005  0.1043930E+01  0.7957747E-01            NaN
         13   -1    0    0    0    0  0.00000000000E+00  0.00000000000E+00  0.74505805969E-08  0.10566000000E+00  0.10566000000E+00 0. -1.
     999900   -1    0    0    0    0 -0.00000000000E+00 -0.00000000000E+00 -0.74505805969E-08  0.93827000000E+00  0.93827000000E+00 0.  1.
     999902    2    1    2    0    0 -0.21795864673E-01  0.59180196425E-02  0.43206510765E-02  0.10209354202E+01  0.10206764333E+01 0.  0.
     999903    2    3    3    0    0 -0.39755109225E-01 -0.62587985359E-01 -0.10630395918E+00  0.13118634797E+00  0.20287965286E-01 0.  0.
         14    1    1    2    0    0  0.21795864673E-01 -0.59180196425E-02 -0.43206510765E-02  0.22994579776E-01  0.00000000000E+00 0. -1.
     999901    1    3    3    0    0  0.17959244552E-01  0.68506005002E-01  0.11062461026E+00  0.88974907226E+00  0.88000000000E+00 0. -1.
        -11    1    4    4    0    0 -0.27178898322E-01 -0.45975427746E-01 -0.59525923812E-01  0.79975178631E-01  0.51100000000E-03 0. -1.
         11    1    4    4    0    0 -0.12576210903E-01 -0.16612557614E-01 -0.46778035367E-01  0.51211169338E-01  0.51100000000E-03 0.  1.
</event>
<event>
 8    1  0.1094134E+005  0.1043930E+01  0.7957747E-01            NaN
         13   -1    0    0    0    0  0.00000000000E+00  0.00000000000E+00  0.74505805969E-08  0.10566000000E+00  0.10566000000E+00 0. -1.
     999900   -1    0    0    0    0 -0.00000000000E+00 -0.00000000000E+00 -0.74505805969E-08  0.93827000000E+00  0.93827000000E+00 0.  1.
     999902    2    1    2    0    0 -0.89167912644E-02  0.19865734340E-01 -0.84913881191E-02  0.10205577892E+01  0.10202901258E+01 0.  0.
     999903    2    3    3    0    0 -0.25390741495E-01  0.36061318490E-01 -0.12387094436E+00  0.13272552461E+00  0.18081636539E-01 0.  0.
         14    1    1    2    0    0  0.89167912644E-02 -0.19865734340E-01  0.84913881191E-02  0.23372210839E-01  0.00000000000E+00 0. -1.
     999901    1    3    3    0    0  0.16473950231E-01 -0.16195584149E-01  0.11537955624E+00  0.88783226455E+00  0.88000000000E+00 0. -1.
        -11    1    4    4    0    0 -0.10166387297E-01  0.88364517291E-02 -0.61834173845E-01  0.63286368880E-01  0.51100000000E-03 0. -1.
         11    1    4    4    0    0 -0.15224354198E-01  0.27224866760E-01 -0.62036770518E-01  0.69439155728E-01  0.51100000000E-03 0.  1.
</event>
<event>
 8    1  0.1094134E+005  0.1043930E+01  0.7957747E-01            NaN
         13   -1    0    0    0    0  0.00000000000E+00  0.00000000000E+00  0.74505805969E-08  0.10566000000E+00  0.10566000000E+00 0.  1.
     999900   -1    0    0    0    0 -0.00000000000E+00 -0.00000000000E+00 -0.74505805969E-08  0.93827000000E+00  0.93827000000E+00 0.  1.
     999902    2    1    2    0    0 -0.18455419956E-02  0.26953097994E-02 -0.24478353645E-01  0.10192346458E+01  0.10189354262E+01 0.  0.
     999903    2    3    3    0    0  0.12033079272E+00 -0.38976182159E-01 -0.20991608701E-01  0.12981026603E+00  0.20283369459E-01 0.  0.
         14    1    1    2    0    0  0.18455419956E-02 -0.26953097994E-02  0.24478353645E-01  0.24695354165E-01  0.00000000000E+00 0.  1.
     999901    1    3    3    0    0 -0.12217633472E+00  0.41671491959E-01 -0.34867449434E-02  0.88942437981E+00  0.88000000000E+00 0.  1.
        -11    1    4    4    0    0  0.70576942106E-01 -0.12447594108E-01 -0.10003967204E-01  0.72362889916E-01  0.51100000000E-03 0.  1.
         11    1    4    4    0    0  0.49753850618E-01 -0.26528588051E-01 -0.10987641497E-01  0.57447376111E-01  0.51100000000E-03 0. -1.
</event>
<event>
 8    1  0.1094134E+005  0.1043930E+01  0.7957747E-01            NaN
         13   -1    0    0    0    0  0.00000000000E+00  0.00000000000E+00  0.74505805969E-08  0.10566000000E+00  0.10566000000E+00 0. -1.
     999900   -1    0    0    0    0 -0.00000000000E+00 -0.00000000000E+00 -0.74505805969E-08  0.93827000000E+00  0.93827000000E+00 0. -1.
     999902    2    1    2    0    0  0.12778727090E-01 -0.18118273119E-01 -0.75739661589E-02  0.10205006882E+01  0.10202317002E+01 0.  0.
     999903    2    3    3    0    0  0.17447686554E-01  0.15232558969E-01 -0.12805306542E+00  0.13165351883E+00  0.19965190626E-01 0.  0.
         14    1    1    2    0    0 -0.12778727090E-01  0.18118273119E-01  0.75739661589E-02  0.23429311775E-01  0.00000000000E+00 0. -1.
     999901    1    3    3    0    0 -0.46689594637E-02 -0.33350832088E-01  0.12047909927E+00  0.88884716940E+00  0.88000000000E+00 0.  1.
        -11    1    4    4    0    0  0.65974780181E-02  0.14041240160E-01 -0.39690294454E-01  0.42617645832E-01  0.51100000000E-03 0.  1.
         11    1    4    4    0    0  0.10850208536E-01  0.11913188089E-02 -0.88362770971E-01  0.89035872997E-01  0.51100000000E-03 0. -1.
</event>
<event>
 8    1  0.1094134E+005  0.1043930E+01  0.7957747E-01            NaN
         13   -1    0    0    0    0  0.00000000000E+00  0.00000000000E+00  0.74505805969E-08  0.10566000000E+00  0.10566000000E+00 0.  1.
     999900   -1    0    0    0    0 -0.00000000000E+00 -0.00000000000E+00 -0.74505805969E-08  0.93827000000E+00  0.93827000000E+00 0. -1.
     999902    2    1    2    0    0  0.44226315749E-02  0.50987476835E-02  0.22909051539E-01  0.10200473381E+01  0.10197677139E+01 0.  0.
     999903    2    3    3    0    0  0.11356894476E+00 -0.24921735090E-01  0.59357447776E-01  0.13204810798E+00  0.19859459214E-01 0.  0.
         14    1    1    2    0    0 -0.44226315749E-02 -0.50987476835E-02 -0.22909051539E-01  0.23882661920E-01  0.00000000000E+00 0. -1.
     999901    1    3    3    0    0 -0.10914631319E+00  0.30020482773E-01 -0.36448396237E-01  0.88799923010E+00  0.88000000000E+00 0. -1.
        -11    1    4    4    0    0  0.63743347253E-01 -0.90791864479E-02  0.23040913476E-01  0.68387065739E-01  0.51100000000E-03 0. -1.
         11    1    4    4    0    0  0.49825597510E-01 -0.15842548642E-01  0.36316534300E-01  0.63661042241E-01  0.51100000000E-03 0.  1.
</event>
<event>
 8    1  0.1094134E+005  0.1043930E+01  0.7957747E-01            NaN
         13   -1    0    0    0    0  0.00000000000E+00  0.00000000000E+00  0.74505805969E-08  0.10566000000E+00  0.10566000000E+00 0. -1.
     999900   -1    0    0    0    0 -0.00000000000E+00 -0.00000000000E+00 -0.74505805969E-08  0.93827000000E+00  0.93827000000E+00 0.  1.
     999902    2    1    2    0    0  0.18797156946E-02  0.44752758978E-02 -0.23935485438E-01  0.10195072874E+01  0.10192147174E+01 0.  0.
     999903    2    3    3    0    0 -0.42697416410E-01 -0.36870912998E-01 -0.11812390031E+00  0.13239507045E+00  0.19815783160E-01 0.  0.
         14    1    1    2    0    0 -0.18797156946E-02 -0.44752758978E-02  0.23935485438E-01  0.24422712556E-01  0.00000000000E+00 0. -1.
     999901    1    3    3    0    0  0.44577132105E-01  0.41346188896E-01  0.94188414870E-01  0.88711221699E+00  0.88000000000E+00 0. -1.
        -11    1    4    4    0    0 -0.25310033219E-01 -0.88675942724E-02 -0.53700087425E-01  0.60026598439E-01  0.51100000000E-03 0.  1.
         11    1    4    4    0    0 -0.17387383192E-01 -0.28003318726E-01 -0.64423812883E-01  0.72368472012E-01  0.51100000000E-03 0. -1.
</event>
<event>
 8    1  0.1094134E+005  0.1043930E+01  0.7957747E-01            NaN
         13   -1    0    0    0    0  0.00000000000E+00  0.00000000000E+00  0.74505805969E-08  0.10566000000E+00  0.10566000000E+00 0.  1.
     999900   -1    0    0    0    0 -0.00000000000E+00 -0.00000000000E+00 -0.74505805969E-08  0.93827000000E+00  0.93827000000E+00 0. -1.
     999902    2    1    2    0    0  0.39381552437E-02  0.21349872343E-01 -0.80771667908E-02  0.10207660897E+01  0.10205032304E+01 0.  0.
     999903    2    3    3    0    0  0.47697053326E-02  0.62974838084E-01 -0.11561697161E+00  0.13324249068E+00  0.19942338770E-01 0.  0.
         14    1    1    2    0    0 -0.39381552437E-02 -0.21349872343E-01  0.80771667908E-02  0.23163910274E-01  0.00000000000E+00 0.  1.
     999901    1    3    3    0    0 -0.83155008897E-03 -0.41624965741E-01  0.10753980482E+00  0.88752359905E+00  0.88000000000E+00 0.  1.
        -11    1    4    4    0    0  0.36699645245E-02  0.54832031021E-01 -0.11085969070E+00  0.12373420064E+00  0.51100000000E-03 0.  1.
         11    1    4    4    0    0  0.10997408081E-02  0.81428070628E-02 -0.47572809198E-02  0.95082900385E-02  0.51100000000E-03 0. -1.
</event>
<event>
 8    1  0.1094134E+005  0.1043930E+01  0.7957747E-01            NaN
         13   -1    0    0    0    0  0.00000000000E+00  0.00000000000E+00  0.74505805969E-08  0.10566000000E+00  0.10566000000E+00 0. -1.
     999900   -1    0    0    0    0 -0.00000000000E+00 -0.00000000000E+00 -0.74505805969E-08  0.93827000000E+00  0.93827000000E+00 0.  1.
     999902    2    1    2    0    0 -0.87614955928E-02 -0.21513193138E-01 -0.54001487037E-02  0.10200816690E+01  0.10198028577E+01 0.  0.
     999903    2    3    3    0    0  0.18565132992E-02  0.11990830453E+00  0.39126861021E-01  0.12761573875E+00  0.19324010631E-01 0.  0.
         14    1    1    2    0    0  0.87614955928E-02  0.21513193138E-01  0.54001487037E-02  0.23848330969E-01  0.00000000000E+00 0. -1.
     999901    1    3    3    0    0 -0.10618008892E-01 -0.14142149767E+00 -0.44527009725E-01  0.89246593028E+00  0.88000000000E+00 0.  1.
        -11    1    4    4    0    0  0.27787886237E-03  0.86195946800E-01  0.18832271563E-01  0.88231139824E-01  0.51100000000E-03 0.  1.
         11    1    4    4    0    0  0.15786344368E-02  0.33712357729E-01  0.20294589459E-01  0.39384598927E-01  0.51100000000E-03 0. -1.
</event>
<event>
 8    1  0.1094134E+005  0.1043930E+01  0.7957747E-01            NaN
         13   -1    0    0    0    0  0.00000000000E+00  0.00000000000E+00  0.74505805969E-08  0.10566000000E+00  0.10566000000E+00 0.  1.
     999900   -1    0    0    0    0 -0.00000000000E+00 -0.00000000000E+00 -0.74505805969E-08  0.93827000000E+00  0.93827000000E+00 0. -1.
     999902    2    1    2    0    0  0.48142203668E-02  0.10251205263E-01  0.21119491847E-01  0.10199655083E+01  0.10196839418E+01 0.  0.
     999903    2    3    3    0    0  0.26760955390E-01 -0.12051050478E+00  0.35155787463E-01  0.12992208149E+00  0.20121813344E-01 0.  0.
         14    1    1    2    0    0 -0.48142203668E-02 -0.10251205263E-01 -0.21119491847E-01  0.23964491711E-01  0.00000000000E+00 0. -1.
     999901    1    3    3    0    0 -0.21946735023E-01  0.13076171004E+00 -0.14036295616E-01  0.89004342680E+00  0.88000000000E+00 0.  1.
        -11    1    4    4    0    0  0.11093417396E-01 -0.68091887505E-01  0.10032205257E-01  0.69717109211E-01  0.51100000000E-03 0.  1.
         11    1    4    4    0    0  0.15667537993E-01 -0.52418617272E-01  0.25123582206E-01  0.60204972281E-01  0.51100000000E-03 0. -1.
</event>
<event>
 7    1  0.1094134E+005  0.1043930E+01  0.7957747E-01            NaN
         13   -1    0    0    0    0  0.00000000000E+00  0.00000000000E+00  0.74505805969E-08  0.10566000000E+00  0.10566000000E+00 0.  1.
     999900   -1    0    0    0    0 -0.00000000000E+00 -0.00000000000E+00 -0.74505805969E-08  0.93827000000E+00  0.93827000000E+00 0.  1.
     999902    2    1    2    0    0 -0.23627223343E-01 -0.35547606207E-03 -0.68375391066E-03  0.10202902122E+01  0.10200163124E+01 0.  0.
         14    1    1    2    0    0  0.23627223343E-01  0.35547606207E-03  0.68375391066E-03  0.23639787765E-01  0.00000000000E+00 0.  1.
     999901    1    3    3    0    0 -0.46772814263E-01  0.16543023656E-01  0.12143787850E+00  0.88972384824E+00  0.88000000000E+00 0. -1.
        -11    1    3    3    0    0  0.28966853126E-01 -0.23547732854E-02 -0.93755730235E-01  0.98158145919E-01  0.51100000000E-03 0.  1.
         11    1    3    3    0    0 -0.58212622058E-02 -0.14543726432E-01 -0.28365902171E-01  0.32408218081E-01  0.51100000000E-03 0. -1.
</event>
<event>
 8    1  0.1094134E+005  0.1043930E+01  0.7957747E-01            NaN
         13   -1    0    0    0    0  0.00000000000E+00  0.00000000000E+00  0.74505805969E-08  0.10566000000E+00  0.10566000000E+00 0. -1.
     999900   -1    0    0    0    0 -0.00000000000E+00 -0.00000000000E+00 -0.74505805969E-08  0.93827000000E+00  0.93827000000E+00 0. -1.
     999902    2    1    2    0    0 -0.88240432823E-02 -0.22387658865E-01  0.35224338628E-03  0.10198635278E+01  0.10195795311E+01 0.  0.
     999903    2    3    3    0    0 -0.35671535504E-01  0.10490705577E+00  0.60750800907E-01  0.12825110192E+00  0.21902888813E-01 0.  0.
         14    1    1    2    0    0  0.88240432823E-02  0.22387658865E-01 -0.35224338628E-03  0.24066472211E-01  0.00000000000E+00 0.  1.
     999901    1    3    3    0    0  0.26847492222E-01 -0.12729471463E+00 -0.60398557521E-01  0.89161242587E+00  0.88000000000E+00 0. -1.
        -11    1    4    4    0    0 -0.14961423793E-01  0.69768242455E-01  0.45883452948E-01  0.84835159177E-01  0.51100000000E-03 0. -1.
         11    1    4    4    0    0 -0.20710111711E-01  0.35138813311E-01  0.14867347959E-01  0.43415942744E-01  0.51100000000E-03 0.  1.
</event>
<event>
 8    1  0.1094134E+005  0.1043930E+01  0.7957747E-01            NaN
         13   -1    0    0    0    0  0.00000000000E+00  0.00000000000E+00  0.74505805969E-08  0.10566000000E+00  0.10566000000E+00 0. -1.
     999900   -1    0    0    0    0 -0.00000000000E+00 -0.00000000000E+00 -0.74505805969E-08  0.93827000000E+00  0.93827000000E+00 0. -1.
     999902    2    1    2    0    0  0.18807792838E-01 -0.41905546754E-02  0.14324444489E-01  0.10199199286E+01  0.10196372773E+01 0.  0.
     999903    2    3    3    0    0 -0.10086649863E+00  0.47411733409E-01  0.61936596660E-01  0.12904864202E+00  0.19886854739E-01 0.  0.
         14    1    1    2    0    0 -0.18807792838E-01  0.41905546754E-02 -0.14324444489E-01  0.24010071425E-01  0.00000000000E+00 0.  1.
     999901    1    3    3    0    0  0.11967429146E+00 -0.51602288084E-01 -0.47612152170E-01  0.89087128655E+00  0.88000000000E+00 0. -1.
        -11    1    4    4    0    0 -0.70319820084E-01  0.33279937466E-01  0.53272988667E-01  0.94290528564E-01  0.51100000000E-03 0.  1.
         11    1    4    4    0    0 -0.30546678543E-01  0.14131795943E-01  0.86636079923E-02  0.34758113456E-01  0.51100000000E-03 0. -1.
</event>
<event>
 8    1  0.1094134E+005  0.1043930E+01  0.7957747E-01            NaN
         13   -1    0    0    0    0  0.00000000000E+00  0.00000000000E+00  0.74505805969E-08  0.10566000000E+00  0.10566000000E+00 0. -1.
     999900   -1    0    0    0    0 -0.00000000000E+00 -0.00000000000E+00 -0.74505805969E-08  0.93827000000E+00  0.93827000000E+00 0.  1.
     999902    2    1    2    0    0 -0.16318114518E-01  0.83294899717E-02  0.15354523218E-01  0.10200255517E+01  0.10197454111E+01 0.  0.
     999903    2    3    3    0    0  0.10342511186E+00 -0.45910136553E-01  0.59160731453E-01  0.12918361218E+00  0.19593853880E-01 0.  0.
         14    1    1    2    0    0  0.16318114518E-01 -0.83294899717E-02 -0.15354523218E-01  0.23904448287E-01  0.00000000000E+00 0.  1.
     999901    1    3    3    0    0 -0.11974322637E+00  0.54239626524E-01 -0.43806208234E-01  0.89084193953E+00  0.88000000000E+00 0.  1.
        -11    1    4    4    0    0  0.36642946371E-01 -0.82384733666E-02  0.25774647280E-01  0.45554050594E-01  0.51100000000E-03 0. -1.
         11    1    4    4    0    0  0.66782165485E-01 -0.37671663186E-01  0.33386084173E-01  0.83629561588E-01  0.51100000000E-03 0.  1.
</event>
<event>
 8    1  0.1094134E+005  0.1043930E+01  0.7957747E-01            NaN
         13   -1    0    0    0    0  0.00000000000E+00  0.00000000000E+00  0.74505805969E-08  0.10566000000E+00  0.10566000000E+00 0.  1.
     999900   -1    0    0    0    0 -0.00000000000E+00 -0.00000000000E+00 -0.74505805969E-08  0.93827000000E+00  0.93827000000E+00 0. -1.
     999902    2    1    2    0    0  0.22732736159E-01  0.33017095703E-03 -0.42024202729E-02  0.10208097352E+01  0.10205478768E+01 0.  0.
     999903    2    3    3    0    0 -0.89209916715E-01 -0.90526516385E-01 -0.10215627970E-01  0.12905738519E+00  0.19949691916E-01 0.  0.
         14    1    1    2    0    0 -0.22732736159E-01 -0.33017095703E-03  0.42024202729E-02  0.23120264754E-01  0.00000000000E+00 0.  1.
     999901    1    3    3    0    0  0.11194265287E+00  0.90856687342E-01  0.60132076976E-02  0.89175235006E+00  0.88000000000E+00 0. -1.
        -11    1    4    4    0    0 -0.74073524517E-01 -0.82178440233E-01 -0.40933259657E-02  0.11071223741E+00  0.51100000000E-03 0. -1.
         11    1    4    4    0    0 -0.15136392198E-01 -0.83480761524E-02 -0.61223020048E-02  0.18345147780E-01  0.51100000000E-03 0.  1.
</event>
<event>
 7    1  0.1094134E+005  0.1043930E+01  0.7957747E-01            NaN
         13   -1    0    0    0    0  0.00000000000E+00  0.00000000000E+00  0.74505805969E-08  0.10566000000E+00  0.10566000000E+00 0. -1.
     999900   -1    0    0    0    0 -0.00000000000E+00 -0.00000000000E+00 -0.74505805969E-08  0.93827000000E+00  0.93827000000E+00 0.  1.
     999903    2    1    2    0    0 -0.54698851801E-01 -0.90659265473E-01  0.22969691168E-02  0.10783031376E+00  0.20273965931E-01 0.  0.
         14    1    1    2    0    0 -0.43235278587E-02 -0.17441889522E-01 -0.42986491519E-01  0.46591317392E-01  0.00000000000E+00 0. -1.
     999901    1    1    2    0    0  0.59022379660E-01  0.10810115500E+00  0.40689522402E-01  0.88950836885E+00  0.88000000000E+00 0.  1.
        -11    1    3    3    0    0 -0.95686286050E-02 -0.27661668033E-01 -0.60263475460E-02  0.29888200305E-01  0.51100000000E-03 0.  1.
         11    1    3    3    0    0 -0.45130223196E-01 -0.62997597440E-01  0.83233166628E-02  0.77942113458E-01  0.51100000000E-03 0. -1.
</event>
<event>
 8    1  0.1094134E+005  0.1043930E+01  0.7957747E-01            NaN
         13   -1    0    0    0    0  0.00000000000E+00  0.00000000000E+00  0.74505805969E-08  0.10566000000E+00  0.10566000000E+00 0.  1.
     999900   -1    0    0    0    0 -0.00000000000E+00 -0.00000000000E+00 -0.74505805969E-08  0.93827000000E+00  0.93827000000E+00 0.  1.
     999902    2    1    2    0    0 -0.19052541202E-02 -0.15887914876E-01  0.15972604342E-01  0.10213207116E+01  0.10210704266E+01 0.  0.
     999903    2    3    3    0    0  0.59811375053E-01 -0.29057247835E-01 -0.10897933264E+00  0.13025653872E+00  0.25856270017E-01 0.  0.
         14    1    1    2    0    0  0.19052541202E-02  0.15887914876E-01 -0.15972604342E-01  0.22609288397E-01  0.00000000000E+00 0.  1.
     999901    1    3    3    0    0 -0.61716629174E-01  0.13169332959E-01  0.12495193698E+00  0.89106417289E+00  0.88000000000E+00 0. -1.
        -11    1    4    4    0    0  0.48153961672E-01 -0.12886996377E-01 -0.89110250644E-01  0.10210669220E+00  0.51100000000E-03 0. -1.
         11    1    4    4    0    0  0.11657413382E-01 -0.16170251458E-01 -0.19869081991E-01  0.28149846521E-01  0.51100000000E-03 0.  1.
</event>
<event>
 8    1  0.1094134E+005  0.1043930E+01  0.7957747E-01            NaN
         13   -1    0    0    0    0  0.00000000000E+00  0.00000000000E+00  0.74505805969E-08  0.10566000000E+00  0.10566000000E+00 0. -1.
     999900   -1    0    0    0    0 -0.00000000000E+00 -0.00000000000E+00 -0.74505805969E-08  0.93827000000E+00  0.93827000000E+00 0. -1.
     999902    2    1    2    0    0 -0.21759028376E-01  0.85376793241E-02 -0.40769957324E-02  0.10202030285E+01  0.10199270808E+01 0.  0.
     999903    2    3    3    0    0 -0.96908545084E-01 -0.73516311908E-01 -0.48063450754E-01  0.13210668484E+00  0.18605554363E-01 0.  0.
         14    1    1    2    0    0  0.21759028376E-01 -0.85376793241E-02  0.40769957324E-02  0.23726971537E-01  0.00000000000E+00 0.  1.
     999901    1    3    3    0    0  0.75149516708E-01  0.82053991233E-01  0.43986455022E-01  0.88809634363E+00  0.88000000000E+00 0.  1.
        -11    1    4    4    0    0 -0.67202391441E-01 -0.60907189255E-01 -0.33340841748E-01  0.96631878631E-01  0.51100000000E-03 0. -1.
         11    1    4    4    0    0 -0.29706153643E-01 -0.12609122654E-01 -0.14722609006E-01  0.35474806206E-01  0.51100000000E-03 0.  1.
</event>
<event>
 8    1  0.1094134E+005  0.1043930E+01  0.7957747E-01            NaN
         13   -1    0    0    0    0  0.00000000000E+00  0.00000000000E+00  0.74505805969E-08  0.10566000000E+00  0.10566000000E+00 0. -1.
     999900   -1    0    0    0    0 -0.00000000000E+00 -0.00000000000E+00 -0.74505805969E-08  0.93827000000E+00  0.93827000000E+00 0.  1.
     999902    2    1    2    0    0 -0.17505491225E-01  0.13447149036E-01 -0.77976876661E-02  0.10205190630E+01  0.10202505015E+01 0.  0.
     999903    2    3    3    0    0 -0.12783173261E-01  0.95872304872E-01 -0.89533801477E-01  0.13288344014E+00  0.16935131989E-01 0.  0.
         14    1    1    2    0    0  0.17505491225E-01 -0.13447149036E-01  0.77976876661E-02  0.23410937042E-01  0.00000000000E+00 0.  1.
     999901    1    3    3    0    0 -0.47223179647E-02 -0.82425155837E-01  0.81736113811E-01  0.88763562282E+00  0.88000000000E+00 0. -1.
        -11    1    4    4    0    0 -0.14578876782E-01  0.45474121274E-01 -0.44044994788E-01  0.64966622513E-01  0.51100000000E-03 0.  1.
         11    1    4    4    0    0  0.17957035210E-02  0.50398183598E-01 -0.45488806689E-01  0.67916817623E-01  0.51100000000E-03 0. -1.
</event>
<event>
 8    1  0.1094134E+005  0.1043930E+01  0.7957747E-01            NaN
         13   -1    0    0    0    0  0.00000000000E+00  0.00000000000E+00  0.74505805969E-08  0.10566000000E+00  0.10566000000E+00 0. -1.
     999900   -1    0    0    0    0 -0.00000000000E+00 -0.00000000000E+00 -0.74505805969E-08  0.93827000000E+00  0.93827000000E+00 0.  1.
     999902    2    1    2    0    0  0.18072055417E-01 -0.16961249165E-01  0.44371698673E-02  0.10187512066E+01  0.10184400077E+01 0.  0.
     999903    2    3    3    0    0  0.12192679924E-01  0.29494414317E-01 -0.12386457884E+00  0.12821539349E+00  0.88414543814E-02 0.  0.
         14    1    1    2    0    0 -0.18072055417E-01  0.16961249165E-01 -0.44371698673E-02  0.25178793392E-01  0.00000000000E+00 0. -1.
     999901    1    3    3    0    0  0.58793754929E-02 -0.46455663483E-01  0.12830174871E+00  0.89053581312E+00  0.88000000000E+00 0. -1.
        -11    1    4    4    0    0  0.84704406582E-02  0.14680664223E-01 -0.79622693255E-01  0.81408259219E-01  0.51100000000E-03 0. -1.
         11    1    4    4    0    0  0.37222392662E-02  0.14813750095E-01 -0.44241885589E-01  0.46807134269E-01  0.51100000000E-03 0.  1.
</event>
<event>
 8    1  0.1094134E+005  0.1043930E+01  0.7957747E-01            NaN
         13   -1    0    0    0    0  0.00000000000E+00  0.00000000000E+00  0.74505805969E-08  0.10566000000E+00  0.10566000000E+00 0.  1.
     999900   -1    0    0    0    0 -0.00000000000E+00 -0.00000000000E+00 -0.74505805969E-08  0.93827000000E+00  0.93827000000E+00 0. -1.
     999902    2    1    2    0    0  0.31474657678E-03  0.22176792748E-01  0.56804557125E-02  0.10210350927E+01  0.10207783715E+01 0.  0.
     999903    2    3    3    0    0  0.10277931670E+00  0.81412351296E-01  0.11113691009E-01  0.13309514004E+00  0.19981073289E-01 0.  0.
         14    1    1    2    0    0 -0.31474657678E-03 -0.22176792748E-01 -0.56804557125E-02  0.22894907274E-01  0.00000000000E+00 0.  1.
     999901    1    3    3    0    0 -0.10246457012E+00 -0.59235558549E-01 -0.54332352969E-02  0.88793995268E+00  0.88000000000E+00 0.  1.
        -11    1    4    4    0    0  0.10292919004E+00  0.78929051532E-01  0.94373971711E-02  0.13005206236E+00  0.51100000000E-03 0. -1.
         11    1    4    4    0    0 -0.14987333930E-03  0.24832997636E-02  0.16762938382E-02  0.30430776799E-02  0.51100000000E-03 0.  1.
</event>
<event>
 8    1  0.1238211E+005  0.1043930E+01  0.7957747E-01            NaN
         13   -1    0    0    0    0  0.00000000000E+00  0.00000000000E+00  0.74505805969E-08  0.10566000000E+00  0.10566000000E+00 0.  1.
     999900   -1    0    0    0    0 -0.00000000000E+00 -0.00000000000E+00 -0.74505805969E-08  0.93827000000E+00  0.93827000000E+00 0.  1.
     999902    2    1    2    0    0  0.26594434120E-02  0.24318624692E-01  0.25378556095E-03  0.10194650750E+01  0.10191714805E+01 0.  0.
     999903    2    3    3    0    0  0.83941161007E-01  0.83377578676E-01  0.55179409494E-01  0.13204662706E+00  0.19839489596E-01 0.  0.
         14    1    1    2    0    0 -0.26594434120E-02 -0.24318624692E-01 -0.25378556095E-03  0.24464924959E-01  0.00000000000E+00 0. -1.
     999901    1    3    3    0    0 -0.81281717595E-01 -0.59058953984E-01 -0.54925623933E-01  0.88741844799E+00  0.88000000000E+00 0.  1.
        -11    1    4    4    0    0  0.36987081019E-01  0.50088531366E-01  0.25504482938E-01  0.67287776807E-01  0.51100000000E-03 0. -1.
         11    1    4    4    0    0  0.46954079988E-01  0.33289047310E-01  0.29674926556E-01  0.64758850248E-01  0.51100000000E-03 0.  1.
</event>
<event>
 8    1  0.1094134E+005  0.1043930E+01  0.7957747E-01            NaN
         13   -1    0    0    0    0  0.00000000000E+00  0.00000000000E+00  0.74505805969E-08  0.10566000000E+00  0.10566000000E+00 0.  1.
     999900   -1    0    0    0    0 -0.00000000000E+00 -0.00000000000E+00 -0.74505805969E-08  0.93827000000E+00  0.93827000000E+00 0.  1.
     999902    2    1    2    0    0  0.28109742975E-02  0.21088358248E-01  0.74516058615E-02  0.10213878870E+01  0.10211391035E+01 0.  0.
     999903    2    3    3    0    0 -0.55771404050E-01 -0.10245090302E+00 -0.51882606080E-01  0.12885531454E+00  0.17471411885E-01 0.  0.
         14    1    1    2    0    0 -0.28109742975E-02 -0.21088358248E-01 -0.74516058615E-02  0.22542113033E-01  0.00000000000E+00 0. -1.
     999901    1    3    3    0    0  0.58582378347E-01  0.12353926127E+00  0.59334211942E-01  0.89253257242E+00  0.88000000000E+00 0. -1.
        -11    1    4    4    0    0 -0.20012442072E-01 -0.41959019406E-01 -0.29690084776E-01  0.55161756700E-01  0.51100000000E-03 0.  1.
         11    1    4    4    0    0 -0.35758961978E-01 -0.60491883615E-01 -0.22192521304E-01  0.73693557845E-01  0.51100000000E-03 0. -1.
</event>
<event>
 8    1  0.1094134E+005  0.1043930E+01  0.7957747E-01            NaN
         13   -1    0    0    0    0  0.00000000000E+00  0.00000000000E+00  0.74505805969E-08  0.10566000000E+00  0.10566000000E+00 0.  1.
     999900   -1    0    0    0    0 -0.00000000000E+00 -0.00000000000E+00 -0.74505805969E-08  0.93827000000E+00  0.93827000000E+00 0. -1.
     999902    2    1    2    0    0 -0.13889924959E-01  0.19535521803E-01  0.27389451645E-02  0.10198039052E+01  0.10195184828E+01 0.  0.
     999903    2    3    3    0    0 -0.64785505836E-01 -0.26529031543E-01 -0.10794386510E+00  0.13021805345E+00  0.20097565767E-01 0.  0.
         14    1    1    2    0    0  0.13889924959E-01 -0.19535521803E-01 -0.27389451645E-02  0.24126094754E-01  0.00000000000E+00 0.  1.
     999901    1    3    3    0    0  0.50895580878E-01  0.46064553346E-01  0.11068281027E+00  0.88958585180E+00  0.88000000000E+00 0.  1.
        -11    1    4    4    0    0 -0.58255064420E-01 -0.27357204461E-01 -0.86739919691E-01  0.10800992526E+00  0.51100000000E-03 0. -1.
         11    1    4    4    0    0 -0.65304414164E-02  0.82817291871E-03 -0.21203945411E-01  0.22208128185E-01  0.51100000000E-03 0.  1.
</event>
<event>
 8    1  0.1094134E+005  0.1043930E+01  0.7957747E-01            NaN
         13   -1    0    0    0    0  0.00000000000E+00  0.00000000000E+00  0.74505805969E-08  0.10566000000E+00  0.10566000000E+00 0.  1.
     999900   -1    0    0    0    0 -0.00000000000E+00 -0.00000000000E+00 -0.74505805969E-08  0.93827000000E+00  0.93827000000E+00 0.  1.
     999902    2    1    2    0    0  0.16253997357E-01 -0.10219349226E-02  0.23205145357E-01  0.10155801225E+01  0.10151843526E+01 0.  0.
     999903    2    3    3    0    0 -0.93030182993E-01 -0.18483970901E-01 -0.76175701006E-01  0.12309790569E+00  0.18817141979E-01 0.  0.
         14    1    1    2    0    0 -0.16253997357E-01  0.10219349226E-02 -0.23205145357E-01  0.28349877462E-01  0.00000000000E+00 0.  1.
     999901    1    3    3    0    0  0.10928418035E+00  0.17462035979E-01  0.99380846363E-01  0.89248221685E+00  0.88000000000E+00 0. -1.
        -11    1    4    4    0    0 -0.55593754623E-01 -0.12492370857E-01 -0.57041988963E-01  0.80627380638E-01  0.51100000000E-03 0.  1.
         11    1    4    4    0    0 -0.37436428371E-01 -0.59916000441E-02 -0.19133712043E-01  0.42470525047E-01  0.51100000000E-03 0. -1.
</event>
<event>
 8    1  0.1094134E+005  0.1043930E+01  0.7957747E-01            NaN
         13   -1    0    0    0    0  0.00000000000E+00  0.00000000000E+00  0.74505805969E-08  0.10566000000E+00  0.10566000000E+00 0.  1.
     999900   -1    0    0    0    0 -0.00000000000E+00 -0.00000000000E+00 -0.74505805969E-08  0.93827000000E+00  0.93827000000E+00 0. -1.
     999902    2    1    2    0    0 -0.13171515429E-01 -0.17346615560E-01 -0.86265000212E-02  0.10205032974E+01  0.10202343700E+01 0.  0.
     999903    2    3    3    0    0 -0.14931191791E-01 -0.99049764103E-01 -0.85473335484E-01  0.13338214615E+00  0.21244048031E-01 0.  0.
         14    1    1    2    0    0  0.13171515429E-01  0.17346615560E-01  0.86265000212E-02  0.23426702557E-01  0.00000000000E+00 0.  1.
     999901    1    3    3    0    0  0.17596763626E-02  0.81703148543E-01  0.76846835463E-01  0.88712115129E+00  0.88000000000E+00 0.  1.
        -11    1    4    4    0    0 -0.61894912972E-02 -0.57087994866E-01 -0.62008538260E-01  0.84514311796E-01  0.51100000000E-03 0. -1.
         11    1    4    4    0    0 -0.87417004943E-02 -0.41961769237E-01 -0.23464797225E-01  0.48867834358E-01  0.51100000000E-03 0.  1.
</event>
<event>
 8    1  0.1094134E+005  0.1043930E+01  0.7957747E-01            NaN
         13   -1    0    0    0    0  0.00000000000E+00  0.00000000000E+00  0.74505805969E-08  0.10566000000E+00  0.10566000000E+00 0. -1.
     999900   -1    0    0    0    0 -0.00000000000E+00 -0.00000000000E+00 -0.74505805969E-08  0.93827000000E+00  0.93827000000E+00 0. -1.
     999902    2    1    2    0    0 -0.21037854046E-01  0.17284152291E-04  0.96328469290E-02  0.10207916478E+01  0.10205293748E+01 0.  0.
     999903    2    3    3    0    0 -0.25207623147E-01 -0.63546155828E-01  0.11182330936E+00  0.13259088871E+00  0.20058740435E-01 0.  0.
         14    1    1    2    0    0  0.21037854046E-01 -0.17284152291E-04 -0.96328469290E-02  0.23138352179E-01  0.00000000000E+00 0.  1.
     999901    1    3    3    0    0  0.41697691011E-02  0.63563439980E-01 -0.10219046243E+00  0.88820075911E+00  0.88000000000E+00 0. -1.
        -11    1    4    4    0    0 -0.17563839326E-01 -0.18490040780E-01  0.42064895325E-01  0.49194375690E-01  0.51100000000E-03 0. -1.
         11    1    4    4    0    0 -0.76437838216E-02 -0.45056115048E-01  0.69758414032E-01  0.83396513018E-01  0.51100000000E-03 0.  1.
</event>
<event>
 8    1  0.1094134E+005  0.1043930E+01  0.7957747E-01            NaN
         13   -1    0    0    0    0  0.00000000000E+00  0.00000000000E+00  0.74505805969E-08  0.10566000000E+00  0.10566000000E+00 0.  1.
     999900   -1    0    0    0    0 -0.00000000000E+00 -0.00000000000E+00 -0.74505805969E-08  0.93827000000E+00  0.93827000000E+00 0. -1.
     999902    2    1    2    0    0  0.47736732419E-02  0.11718247333E-01  0.20952447540E-01  0.10194532695E+01  0.10191593881E+01 0.  0.
     999903    2    3    3    0    0 -0.61735645743E-01  0.87280961580E-01  0.75016548358E-01  0.13206601455E+00  0.19613603999E-01 0.  0.
         14    1    1    2    0    0 -0.47736732419E-02 -0.11718247333E-01 -0.20952447540E-01  0.24476730474E-01  0.00000000000E+00 0. -1.
     999901    1    3    3    0    0  0.66509318985E-01 -0.75562714247E-01 -0.54064100818E-01  0.88738725498E+00  0.88000000000E+00 0. -1.
        -11    1    4    4    0    0 -0.19150210337E-02  0.13476988938E-01  0.79178027068E-02  0.15755927681E-01  0.51100000000E-03 0.  1.
         11    1    4    4    0    0 -0.59820624710E-01  0.73803972642E-01  0.67098745651E-01  0.11631008687E+00  0.51100000000E-03 0. -1.
</event>
<event>
 8    1  0.1094134E+005  0.1043930E+01  0.7957747E-01            NaN
         13   -1    0    0    0    0  0.00000000000E+00  0.00000000000E+00  0.74505805969E-08  0.10566000000E+00  0.10566000000E+00 0. -1.
     999900   -1    0    0    0    0 -0.00000000000E+00 -0.00000000000E+00 -0.74505805969E-08  0.93827000000E+00  0.93827000000E+00 0.  1.
     999902    2    1    2    0    0  0.13543139437E-01  0.97760671004E-02 -0.17297408510E-01  0.10198844504E+01  0.10196009532E+01 0.  0.
     999903    2    3    3    0    0  0.73442505118E-01 -0.37776967953E-01 -0.10205723419E+00  0.13250997861E+00  0.17953119940E-01 0.  0.
         14    1    1    2    0    0 -0.13543139437E-01 -0.97760671004E-02  0.17297408510E-01  0.24045549587E-01  0.00000000000E+00 0. -1.
     999901    1    3    3    0    0 -0.59899365681E-01  0.47553035053E-01  0.84759825682E-01  0.88737447180E+00  0.88000000000E+00 0. -1.
        -11    1    4    4    0    0  0.35769771507E-01 -0.10264843905E-01 -0.53516462057E-01  0.65185246844E-01  0.51100000000E-03 0.  1.
         11    1    4    4    0    0  0.37672733611E-01 -0.27512124048E-01 -0.48540772135E-01  0.67324731770E-01  0.51100000000E-03 0. -1.
</event>
<event>
 8    1  0.1094134E+005  0.1043930E+01  0.7957747E-01            NaN
         13   -1    0    0    0    0  0.00000000000E+00  0.00000000000E+00  0.74505805969E-08  0.10566000000E+00  0.10566000000E+00 0.  1.
     999900   -1    0    0    0    0 -0.00000000000E+00 -0.00000000000E+00 -0.74505805969E-08  0.93827000000E+00  0.93827000000E+00 0. -1.
     999902    2    1    2    0    0 -0.76884917527E-02 -0.47890778361E-02 -0.28425843986E-01  0.10140958454E+01  0.10136568980E+01 0.  0.
     999903    2    3    3    0    0  0.97328255492E-03  0.12162055080E+00 -0.20563307392E-01  0.12498604343E+00  0.20153307059E-01 0.  0.
         14    1    1    2    0    0  0.76884917527E-02  0.47890778361E-02  0.28425843986E-01  0.29834154559E-01  0.00000000000E+00 0.  1.
     999901    1    3    3    0    0 -0.86617743077E-02 -0.12640962864E+00 -0.78625365936E-02  0.88910980201E+00  0.88000000000E+00 0. -1.
        -11    1    4    4    0    0 -0.64370283405E-02  0.10269096199E+00 -0.15786711398E-01  0.10409779242E+00  0.51100000000E-03 0.  1.
         11    1    4    4    0    0  0.74103108954E-02  0.18929588812E-01 -0.47765959943E-02  0.20888251015E-01  0.51100000000E-03 0. -1.
</event>
<event>
 8    1  0.1094134E+005  0.1043930E+01  0.7957747E-01            NaN
         13   -1    0    0    0    0  0.00000000000E+00  0.00000000000E+00  0.74505805969E-08  0.10566000000E+00  0.10566000000E+00 0.  1.
     999900   -1    0    0    0    0 -0.00000000000E+00 -0.00000000000E+00 -0.74505805969E-08  0.93827000000E+00  0.93827000000E+00 0.  1.
     999902    2    1    2    0    0  0.11992627198E-01 -0.15357043333E-01  0.14118294352E-01  0.10198678280E+01  0.10195839340E+01 0.  0.
     999903    2    3    3    0    0  0.10618899230E+00  0.60367318485E-01 -0.38359707641E-01  0.13005825573E+00  0.22877226377E-01 0.  0.
         14    1    1    2    0    0 -0.11992627198E-01  0.15357043333E-01 -0.14118294352E-01  0.24062172023E-01  0.00000000000E+00 0.  1.
     999901    1    3    3    0    0 -0.94196365100E-01 -0.75724361817E-01  0.52478001994E-01  0.88980957225E+00  0.88000000000E+00 0. -1.
        -11    1    4    4    0    0  0.62710363876E-01  0.47385227594E-01 -0.28593980548E-01  0.83641056761E-01  0.51100000000E-03 0.  1.
         11    1    4    4    0    0  0.43478628422E-01  0.12982090891E-01 -0.97657270933E-02  0.46417198968E-01  0.51100000000E-03 0. -1.
</event>
<event>
 8    1  0.1094134E+005  0.1043930E+01  0.7957747E-01            NaN
         13   -1    0    0    0    0  0.00000000000E+00  0.00000000000E+00  0.74505805969E-08  0.10566000000E+00  0.10566000000E+00 0.  1.
     999900   -1    0    0    0    0 -0.00000000000E+00 -0.00000000000E+00 -0.74505805969E-08  0.93827000000E+00  0.93827000000E+00 0.  1.
     999902    2    1    2    0    0 -0.21669941580E-02  0.69218045479E-02 -0.22480979196E-01  0.10203079411E+01  0.10200344568E+01 0.  0.
     999903    2    3    3    0    0 -0.85552977986E-01  0.80207401756E-01 -0.58930500915E-01  0.13258469103E+00  0.18797792894E-01 0.  0.
         14    1    1    2    0    0  0.21669941580E-02 -0.69218045479E-02  0.22480979196E-01  0.23622058918E-01  0.00000000000E+00 0.  1.
     999901    1    3    3    0    0  0.83385983828E-01 -0.73285597208E-01  0.36449521718E-01  0.88772325006E+00  0.88000000000E+00 0. -1.
        -11    1    4    4    0    0 -0.71379925723E-01  0.75021543912E-01 -0.49461031182E-01  0.11476053579E+00  0.51100000000E-03 0. -1.
         11    1    4    4    0    0 -0.14173052262E-01  0.51858578443E-02 -0.94694697326E-02  0.17824155240E-01  0.51100000000E-03 0.  1.
</event>
<event>
 8    1  0.1094134E+005  0.1043930E+01  0.7957747E-01            NaN
         13   -1    0    0    0    0  0.00000000000E+00  0.00000000000E+00  0.74505805969E-08  0.10566000000E+00  0.10566000000E+00 0. -1.
     999900   -1    0    0    0    0 -0.00000000000E+00 -0.00000000000E+00 -0.74505805969E-08  0.93827000000E+00  0.93827000000E+00 0. -1.
     999902    2    1    2    0    0 -0.82194839493E-02  0.54763452168E-02  0.17188015729E-01  0.10241063233E+01  0.10239144414E+01 0.  0.
     999903    2    3    3    0    0  0.12548415677E+00  0.37248442708E-01 -0.12106071033E-01  0.13295859523E+00  0.19942692995E-01 0.  0.
         14    1    1    2    0    0  0.82194839493E-02 -0.54763452168E-02 -0.17188015729E-01  0.19823676703E-01  0.00000000000E+00 0.  1.
     999901    1    3    3    0    0 -0.13370364072E+00 -0.31772097491E-01  0.29294086762E-01  0.89114772807E+00  0.88000000000E+00 0. -1.
        -11    1    4    4    0    0  0.44759993198E-01  0.12440667924E-01 -0.13879203563E-01  0.48488355530E-01  0.51100000000E-03 0. -1.
         11    1    4    4    0    0  0.80724163576E-01  0.24807774784E-01  0.17731325295E-02  0.84470239699E-01  0.51100000000E-03 0.  1.
</event>
<event>
 8    1  0.1094134E+005  0.1043930E+01  0.7957747E-01            NaN
         13   -1    0    0    0    0  0.00000000000E+00  0.00000000000E+00  0.74505805969E-08  0.10566000000E+00  0.10566000000E+00 0. -1.
     999900   -1    0    0    0    0 -0.00000000000E+00 -0.00000000000E+00 -0.74505805969E-08  0.93827000000E+00  0.93827000000E+00 0.  1.
     999902    2    1    2    0    0 -0.17152799674E-01  0.81238036852E-02  0.82964022915E-02  0.10232165982E+01  0.10230069217E+01 0.  0.
     999903    2    3    3    0    0  0.37321725971E-01  0.12230877066E+00 -0.31784201965E-01  0.13326596167E+00  0.19930740985E-01 0.  0.
         14    1    1    2    0    0  0.17152799674E-01 -0.81238036852E-02 -0.82964022915E-02  0.20713401796E-01  0.00000000000E+00 0.  1.
     999901    1    3    3    0    0 -0.54474525645E-01 -0.11418496697E+00  0.40080604257E-01  0.88995063653E+00  0.88000000000E+00 0.  1.
        -11    1    4    4    0    0  0.19047335699E-01  0.40007394593E-01 -0.18045239745E-01  0.47846467140E-01  0.51100000000E-03 0. -1.
         11    1    4    4    0    0  0.18274390272E-01  0.82301376065E-01 -0.13738962220E-01  0.85419494531E-01  0.51100000000E-03 0.  1.
</event>
<event>
 8    1  0.1094134E+005  0.1043930E+01  0.7957747E-01            NaN
         13   -1    0    0    0    0  0.00000000000E+00  0.00000000000E+00  0.74505805969E-08  0.10566000000E+00  0.10566000000E+00 0.  1.
     999900   -1    0    0    0    0 -0.00000000000E+00 -0.00000000000E+00 -0.74505805969E-08  0.93827000000E+00  0.93827000000E+00 0. -1.
     999902    2    1    2    0    0  0.17354775136E-01  0.73703454454E-02 -0.12165642691E-01  0.10214909030E+01  0.10212444134E+01 0.  0.
     999903    2    3    3    0    0  0.56486093710E-01 -0.11571348099E+00  0.17689592265E-01  0.13156269046E+00  0.20384586826E-01 0.  0.
         14    1    1    2    0    0 -0.17354775136E-01 -0.73703454454E-02  0.12165642691E-01  0.22439096998E-01  0.00000000000E+00 0. -1.
     999901    1    3    3    0    0 -0.39131318574E-01  0.12308382644E+00 -0.29855234956E-01  0.88992821254E+00  0.88000000000E+00 0.  1.
        -11    1    4    4    0    0  0.11600273762E-01 -0.45513156742E-01  0.84767429276E-02  0.47729760943E-01  0.51100000000E-03 0.  1.
         11    1    4    4    0    0  0.44885819947E-01 -0.70200324252E-01  0.92128493373E-02  0.83832929517E-01  0.51100000000E-03 0. -1.
</event>
<event>
 7    1  0.1094134E+005  0.1043930E+01  0.7957747E-01            NaN
         13   -1    0    0    0    0  0.00000000000E+00  0.00000000000E+00  0.74505805969E-08  0.10566000000E+00  0.10566000000E+00 0.  1.
     999900   -1    0    0    0    0 -0.00000000000E+00 -0.00000000000E+00 -0.74505805969E-08  0.93827000000E+00  0.93827000000E+00 0. -1.
     999902    2    1    2    0    0 -0.52720757609E-02  0.97484479117E-02 -0.20411752985E-01  0.10207035780E+01  0.10204392816E+01 0.  0.
         14    1    1    2    0    0  0.52720757609E-02 -0.97484479117E-02  0.20411752985E-01  0.23226422011E-01  0.00000000000E+00 0.  1.
     999901    1    3    3    0    0  0.76086522844E-01  0.18241511141E-01  0.78806657073E-01  0.88697936892E+00  0.88000000000E+00 0. -1.
        -11    1    3    3    0    0 -0.94838315613E-02  0.10526436668E-01 -0.24562201148E-01  0.28360390975E-01  0.51100000000E-03 0. -1.
         11    1    3    3    0    0 -0.71874767043E-01 -0.19019499898E-01 -0.74656208910E-01  0.10536381810E+00  0.51100000000E-03 0.  1.
</event>
<event>
 8    1  0.1094134E+005  0.1043930E+01  0.7957747E-01            NaN
         13   -1    0    0    0    0  0.00000000000E+00  0.00000000000E+00  0.74505805969E-08  0.10566000000E+00  0.10566000000E+00 0.  1.
     999900   -1    0    0    0    0 -0.00000000000E+00 -0.00000000000E+00 -0.74505805969E-08  0.93827000000E+00  0.93827000000E+00 0.  1.
     999902    2    1    2    0    0  0.22540557548E-01 -0.66539891607E-02 -0.71310363567E-03  0.10204170074E+01  0.10201460719E+01 0.  0.
     999903    2    3    3    0    0 -0.89848373422E-01  0.63337094700E-01 -0.63065294511E-01  0.12833078992E+00  0.20180250224E-01 0.  0.
         14    1    1    2    0    0 -0.22540557548E-01  0.66539891607E-02  0.71310363567E-03  0.23512992645E-01  0.00000000000E+00 0.  1.
     999901    1    3    3    0    0  0.11238893097E+00 -0.69991083861E-01  0.62352190875E-01  0.89208621743E+00  0.88000000000E+00 0.  1.
        -11    1    4    4    0    0 -0.70669603407E-01  0.59055145311E-01 -0.51299718702E-01  0.10542118048E+00  0.51100000000E-03 0. -1.
         11    1    4    4    0    0 -0.19178770015E-01  0.42819493890E-02 -0.11765575809E-01  0.22909609446E-01  0.51100000000E-03 0.  1.
</event>
<event>
 8    1  0.1094134E+005  0.1043930E+01  0.7957747E-01            NaN
         13   -1    0    0    0    0  0.00000000000E+00  0.00000000000E+00  0.74505805969E-08  0.10566000000E+00  0.10566000000E+00 0.  1.
     999900   -1    0    0    0    0 -0.00000000000E+00 -0.00000000000E+00 -0.74505805969E-08  0.93827000000E+00  0.93827000000E+00 0.  1.
     999902    2    1    2    0    0  0.18326223148E-01  0.10398957248E-01 -0.98786821225E-02  0.10206581903E+01  0.10203928480E+01 0.  0.
     999903    2    3    3    0    0 -0.10522565492E+00 -0.67276688201E-01  0.20189264328E-01  0.12813219410E+00  0.20289444084E-01 0.  0.
         14    1    1    2    0    0 -0.18326223148E-01 -0.10398957248E-01  0.98786821225E-02  0.23271809711E-01  0.00000000000E+00 0.  1.
     999901    1    3    3    0    0  0.12355187807E+00  0.77675645449E-01 -0.30067946451E-01  0.89252599619E+00  0.88000000000E+00 0. -1.
        -11    1    4    4    0    0 -0.51239941022E-01 -0.44080920617E-01  0.14183622814E-01  0.69065877215E-01  0.51100000000E-03 0. -1.
         11    1    4    4    0    0 -0.53985713901E-01 -0.23195767584E-01  0.60056415142E-02  0.59066316884E-01  0.51100000000E-03 0.  1.
</event>
<event>
 8    1  0.1094134E+005  0.1043930E+01  0.7957747E-01            NaN
         13   -1    0    0    0    0  0.00000000000E+00  0.00000000000E+00  0.74505805969E-08  0.10566000000E+00  0.10566000000E+00 0.  1.
     999900   -1    0    0    0    0 -0.00000000000E+00 -0.00000000000E+00 -0.74505805969E-08  0.93827000000E+00  0.93827000000E+00 0. -1.
     999902    2    1    2    0    0  0.96245954744E-03 -0.95570603836E-02 -0.19537497632E-01  0.10221589746E+01  0.10219270971E+01 0.  0.
     999903    2    3    3    0    0  0.64647692281E-01  0.10700160164E+00 -0.37084070431E-01  0.13201875379E+00  0.20616891173E-01 0.  0.
         14    1    1    2    0    0 -0.96245954744E-03  0.95570603836E-02  0.19537497632E-01  0.21771025361E-01  0.00000000000E+00 0.  1.
     999901    1    3    3    0    0 -0.63685232734E-01 -0.11655866202E+00  0.17546572799E-01  0.89014022085E+00  0.88000000000E+00 0. -1.
        -11    1    4    4    0    0  0.45491813944E-01  0.56156425057E-01 -0.18642302649E-01  0.74638098717E-01  0.51100000000E-03 0.  1.
         11    1    4    4    0    0  0.19155878337E-01  0.50845176580E-01 -0.18441767781E-01  0.57380655070E-01  0.51100000000E-03 0. -1.
</event>
<event>
 8    1  0.1094134E+005  0.1043930E+01  0.7957747E-01            NaN
         13   -1    0    0    0    0  0.00000000000E+00  0.00000000000E+00  0.74505805969E-08  0.10566000000E+00  0.10566000000E+00 0.  1.
     999900   -1    0    0    0    0 -0.00000000000E+00 -0.00000000000E+00 -0.74505805969E-08  0.93827000000E+00  0.93827000000E+00 0. -1.
     999902    2    1    2    0    0  0.10406635037E-01 -0.47741828227E-02 -0.20866763876E-01  0.10201284725E+01  0.10198507674E+01 0.  0.
     999903    2    3    3    0    0  0.86245083575E-02 -0.61074704427E-01 -0.11622674701E+00  0.13318628103E+00  0.20625883488E-01 0.  0.
         14    1    1    2    0    0 -0.10406635037E-01  0.47741828227E-02  0.20866763876E-01  0.23801527452E-01  0.00000000000E+00 0.  1.
     999901    1    3    3    0    0  0.17821266797E-02  0.56300521604E-01  0.95359983133E-01  0.88694219152E+00  0.88000000000E+00 0.  1.
        -11    1    4    4    0    0  0.68146471388E-02 -0.11728490484E-01 -0.41094265069E-01  0.43278131281E-01  0.51100000000E-03 0.  1.
         11    1    4    4    0    0  0.18098612187E-02 -0.49346213943E-01 -0.75132481940E-01  0.89908149750E-01  0.51100000000E-03 0. -1.
</event>
<event>
 8    1  0.1094134E+005  0.1043930E+01  0.7957747E-01            NaN
         13   -1    0    0    0    0  0.00000000000E+00  0.00000000000E+00  0.74505805969E-08  0.10566000000E+00  0.10566000000E+00 0. -1.
     999900   -1    0    0    0    0 -0.00000000000E+00 -0.00000000000E+00 -0.74505805969E-08  0.93827000000E+00  0.93827000000E+00 0.  1.
     999902    2    1    2    0    0 -0.23604208292E-01 -0.11060402591E-01  0.10278516253E-01  0.10159096672E+01  0.10155231720E+01 0.  0.
     999903    2    3    3    0    0 -0.42948750975E-01 -0.21284431574E-01 -0.11417599127E+00  0.12688342093E+00  0.27669898538E-01 0.  0.
         14    1    1    2    0    0  0.23604208292E-01  0.11060402591E-01 -0.10278516253E-01  0.28020332812E-01  0.00000000000E+00 0.  1.
     999901    1    3    3    0    0  0.19344542683E-01  0.10224028984E-01  0.12445450752E+00  0.88902624626E+00  0.88000000000E+00 0. -1.
        -11    1    4    4    0    0 -0.22004387713E-01  0.19872406421E-02 -0.31525347347E-01  0.38500011043E-01  0.51100000000E-03 0. -1.
         11    1    4    4    0    0 -0.20944363262E-01 -0.23271672217E-01 -0.82650643925E-01  0.88383409882E-01  0.51100000000E-03 0.  1.
</event>
<event>
 8    1  0.1094134E+005  0.1043930E+01  0.7957747E-01            NaN
         13   -1    0    0    0    0  0.00000000000E+00  0.00000000000E+00  0.74505805969E-08  0.10566000000E+00  0.10566000000E+00 0.  1.
     999900   -1    0    0    0    0 -0.00000000000E+00 -0.00000000000E+00 -0.74505805969E-08  0.93827000000E+00  0.93827000000E+00 0. -1.
     999902    2    1    2    0    0  0.73099253316E-03 -0.21435395645E-01  0.12189326039E-01  0.10192603789E+01  0.10189617901E+01 0.  0.
     999903    2    3    3    0    0 -0.79292089591E-01 -0.59966081360E-01  0.83773872668E-01  0.13189762627E+00  0.22265571832E-01 0.  0.
         14    1    1    2    0    0 -0.73099253316E-03  0.21435395645E-01 -0.12189326039E-01  0.24669621112E-01  0.00000000000E+00 0. -1.
     999901    1    3    3    0    0  0.80023082124E-01  0.38530685715E-01 -0.71584546629E-01  0.88736275262E+00  0.88000000000E+00 0. -1.
        -11    1    4    4    0    0 -0.17026773808E-01 -0.25465569038E-01  0.27171950271E-01  0.40950973557E-01  0.51100000000E-03 0.  1.
         11    1    4    4    0    0 -0.62265315782E-01 -0.34500512322E-01  0.56601922397E-01  0.90946652715E-01  0.51100000000E-03 0. -1.
</event>
<event>
 8    1  0.1094134E+005  0.1043930E+01  0.7957747E-01            NaN
         13   -1    0    0    0    0  0.00000000000E+00  0.00000000000E+00  0.74505805969E-08  0.10566000000E+00  0.10566000000E+00 0.  1.
     999900   -1    0    0    0    0 -0.00000000000E+00 -0.00000000000E+00 -0.74505805969E-08  0.93827000000E+00  0.93827000000E+00 0.  1.
     999902    2    1    2    0    0 -0.16859067259E-01 -0.16297717758E-01  0.49494222639E-02  0.10199645972E+01  0.10196830090E+01 0.  0.
     999903    2    3    3    0    0  0.85712060785E-01 -0.60719682419E-01  0.74289772698E-01  0.13018809069E+00  0.19913097020E-01 0.  0.
         14    1    1    2    0    0  0.16859067259E-01  0.16297717758E-01 -0.49494222639E-02  0.23965402849E-01  0.00000000000E+00 0. -1.
     999901    1    3    3    0    0 -0.10257112804E+00  0.44421964662E-01 -0.69340350434E-01  0.88977650646E+00  0.88000000000E+00 0.  1.
        -11    1    4    4    0    0  0.60562784242E-01 -0.48596398032E-01  0.45124046772E-01  0.89810363850E-01  0.51100000000E-03 0.  1.
         11    1    4    4    0    0  0.25149276542E-01 -0.12123284388E-01  0.29165725926E-01  0.40377726840E-01  0.51100000000E-03 0. -1.
</event>
<event>
 8    1  0.1094134E+005  0.1043930E+01  0.7957747E-01            NaN
         13   -1    0    0    0    0  0.00000000000E+00  0.00000000000E+00  0.74505805969E-08  0.10566000000E+00  0.10566000000E+00 0. -1.
     999900   -1    0    0    0    0 -0.00000000000E+00 -0.00000000000E+00 -0.74505805969E-08  0.93827000000E+00  0.93827000000E+00 0. -1.
     999902    2    1    2    0    0  0.23599175928E-01  0.92686551678E-03  0.46737431681E-02  0.10198546171E+01  0.10195704076E+01 0.  0.
     999903    2    3    3    0    0  0.77113345117E-01 -0.10167998736E-02  0.10553852186E+00  0.13247575346E+00  0.21539354278E-01 0.  0.
         14    1    1    2    0    0 -0.23599175928E-01 -0.92686551678E-03 -0.46737431681E-02  0.24075382850E-01  0.00000000000E+00 0.  1.
     999901    1    3    3    0    0 -0.53514169189E-01  0.19436653904E-02 -0.10086477869E+00  0.88737886369E+00  0.88000000000E+00 0. -1.
        -11    1    4    4    0    0  0.28560663052E-01 -0.97397852725E-02  0.32650527525E-01  0.44462264447E-01  0.51100000000E-03 0.  1.
         11    1    4    4    0    0  0.48552682065E-01  0.87229853989E-02  0.72887994332E-01  0.88013489015E-01  0.51100000000E-03 0. -1.
</event>
<event>
 8    1  0.1094134E+005  0.1043930E+01  0.7957747E-01            NaN
         13   -1    0    0    0    0  0.00000000000E+00  0.00000000000E+00  0.74505805969E-08  0.10566000000E+00  0.10566000000E+00 0.  1.
     999900   -1    0    0    0    0 -0.00000000000E+00 -0.00000000000E+00 -0.74505805969E-08  0.93827000000E+00  0.93827000000E+00 0.  1.
     999902    2    1    2    0    0  0.18404492681E-01  0.83210139634E-02 -0.12565156212E-01  0.10201424450E+01  0.10198650696E+01 0.  0.
     999903    2    3    3    0    0  0.78517725178E-01 -0.88764696072E-01 -0.53436907728E-01  0.13182395709E+00  0.21859737413E-01 0.  0.
         14    1    1    2    0    0 -0.18404492681E-01 -0.83210139634E-02  0.12565156212E-01  0.23787555042E-01  0.00000000000E+00 0. -1.
     999901    1    3    3    0    0 -0.60113232496E-01  0.97085710036E-01  0.40871751516E-01  0.88831848787E+00  0.88000000000E+00 0. -1.
        -11    1    4    4    0    0  0.25614037539E-01 -0.21682822045E-01 -0.24750199160E-01  0.41702004392E-01  0.51100000000E-03 0. -1.
         11    1    4    4    0    0  0.52903687639E-01 -0.67081874027E-01 -0.28686708568E-01  0.90121952699E-01  0.51100000000E-03 0.  1.
</event>
<event>
 8    1  0.1094134E+005  0.1043930E+01  0.7957747E-01            NaN
         13   -1    0    0    0    0  0.00000000000E+00  0.00000000000E+00  0.74505805969E-08  0.10566000000E+00  0.10566000000E+00 0. -1.
     999900   -1    0    0    0    0 -0.00000000000E+00 -0.00000000000E+00 -0.74505805969E-08  0.93827000000E+00  0.93827000000E+00 0. -1.
     999902    2    1    2    0    0  0.78906527569E-02 -0.21377882601E-01  0.54047362003E-02  0.10205101913E+01  0.10202414239E+01 0.  0.
     999903    2    3    3    0    0 -0.54611440526E-01 -0.49040334489E-01 -0.10577268034E+00  0.13088547220E+00  0.23575052135E-01 0.  0.
         14    1    1    2    0    0 -0.78906527569E-02  0.21377882601E-01 -0.54047362003E-02  0.23419808685E-01  0.00000000000E+00 0.  1.
     999901    1    3    3    0    0  0.62502093282E-01  0.27662451888E-01  0.11117741654E+00  0.88962471911E+00  0.88000000000E+00 0.  1.
        -11    1    4    4    0    0 -0.32665878219E-01 -0.30584425815E-01 -0.43899597150E-01  0.62688934057E-01  0.51100000000E-03 0. -1.
         11    1    4    4    0    0 -0.21945562306E-01 -0.18455908673E-01 -0.61873083195E-01  0.68196538145E-01  0.51100000000E-03 0.  1.
</event>
<event>
 8    1  0.1094134E+005  0.1043930E+01  0.7957747E-01            NaN
         13   -1    0    0    0    0  0.00000000000E+00  0.00000000000E+00  0.74505805969E-08  0.10566000000E+00  0.10566000000E+00 0.  1.
     999900   -1    0    0    0    0 -0.00000000000E+00 -0.00000000000E+00 -0.74505805969E-08  0.93827000000E+00  0.93827000000E+00 0. -1.
     999902    2    1    2    0    0  0.62453372999E-02 -0.18482227296E-01  0.12631416506E-01  0.10206888803E+01  0.10204242454E+01 0.  0.
     999903    2    3    3    0    0  0.18999688558E-02 -0.11997211945E-01 -0.12733040929E+00  0.12959390758E+00  0.20832781281E-01 0.  0.
         14    1    1    2    0    0 -0.62453372999E-02  0.18482227296E-01 -0.12631416506E-01  0.23241119740E-01  0.00000000000E+00 0.  1.
     999901    1    3    3    0    0  0.43453684441E-02 -0.64850153506E-02  0.13996182580E+00  0.89109497268E+00  0.88000000000E+00 0.  1.
        -11    1    4    4    0    0  0.37618928660E-02 -0.13261668695E-01 -0.41501261371E-01  0.43733734244E-01  0.51100000000E-03 0.  1.
         11    1    4    4    0    0 -0.18619240102E-02  0.12644567500E-02 -0.85829147921E-01  0.85860173339E-01  0.51100000000E-03 0. -1.
</event>
<event>
 8    1  0.1094134E+005  0.1043930E+01  0.7957747E-01            NaN
         13   -1    0    0    0    0  0.00000000000E+00  0.00000000000E+00  0.74505805969E-08  0.10566000000E+00  0.10566000000E+00 0. -1.
     999900   -1    0    0    0    0 -0.00000000000E+00 -0.00000000000E+00 -0.74505805969E-08  0.93827000000E+00  0.93827000000E+00 0.  1.
     999902    2    1    2    0    0  0.28671895367E-01 -0.89729897129E-02 -0.42476695750E-02  0.10135880352E+01  0.10131337870E+01 0.  0.
     999903    2    3    3    0    0 -0.69957627526E-02 -0.12362194876E+00 -0.10686508256E-01  0.12541123737E+00  0.16806251419E-01 0.  0.
         14    1    1    2    0    0 -0.28671895367E-01  0.89729897129E-02  0.42476695750E-02  0.30341964755E-01  0.00000000000E+00 0. -1.
     999901    1    3    3    0    0  0.35667658120E-01  0.11464895905E+00  0.64388386815E-02  0.88817679788E+00  0.88000000000E+00 0.  1.
        -11    1    4    4    0    0 -0.11127936771E-01 -0.10898527084E+00 -0.11605782549E-01  0.11016612704E+00  0.51100000000E-03 0.  1.
         11    1    4    4    0    0  0.41321740181E-02 -0.14636677924E-01  0.91927429293E-03  0.15245110331E-01  0.51100000000E-03 0. -1.
</event>
<event>
 8    1  0.1094134E+005  0.1043930E+01  0.7957747E-01            NaN
         13   -1    0    0    0    0  0.00000000000E+00  0.00000000000E+00  0.74505805969E-08  0.10566000000E+00  0.10566000000E+00 0. -1.
     999900   -1    0    0    0    0 -0.00000000000E+00 -0.00000000000E+00 -0.74505805969E-08  0.93827000000E+00  0.93827000000E+00 0. -1.
     999902    2    1    2    0    0 -0.46390799511E-04 -0.14637599941E-01 -0.17773253384E-01  0.10209050131E+01  0.10206453330E+01 0.  0.
     999903    2    3    3    0    0  0.46807319509E-01  0.68519879963E-02  0.11820141329E+00  0.12897105676E+00  0.20593311504E-01 0.  0.
         14    1    1    2    0    0  0.46390799511E-04  0.14637599941E-01  0.17773253384E-01  0.23024986862E-01  0.00000000000E+00 0. -1.
     999901    1    3    3    0    0 -0.46853710309E-01 -0.21489587938E-01 -0.13597466668E+00  0.89193395638E+00  0.88000000000E+00 0. -1.
        -11    1    4    4    0    0  0.61666638214E-02 -0.17275090260E-02  0.39115560805E-01  0.39639629769E-01  0.51100000000E-03 0. -1.
         11    1    4    4    0    0  0.40640655688E-01  0.85794970223E-02  0.79085852488E-01  0.89331426993E-01  0.51100000000E-03 0.  1.
</event>
<event>
 8    1  0.1094134E+005  0.1043930E+01  0.7957747E-01            NaN
         13   -1    0    0    0    0  0.00000000000E+00  0.00000000000E+00  0.74505805969E-08  0.10566000000E+00  0.10566000000E+00 0.  1.
     999900   -1    0    0    0    0 -0.00000000000E+00 -0.00000000000E+00 -0.74505805969E-08  0.93827000000E+00  0.93827000000E+00 0.  1.
     999902    2    1    2    0    0 -0.83063011317E-02  0.55038255193E-02 -0.20948917648E-01  0.10207320715E+01  0.10204684307E+01 0.  0.
     999903    2    3    3    0    0  0.84169574961E-01  0.65433379122E-01  0.70222237717E-01  0.12918537136E+00  0.19790226120E-01 0.  0.
         14    1    1    2    0    0  0.83063011317E-02 -0.55038255193E-02  0.20948917648E-01  0.23197928451E-01  0.00000000000E+00 0.  1.
     999901    1    3    3    0    0 -0.92475876093E-01 -0.59929553602E-01 -0.91171155365E-01  0.89154670019E+00  0.88000000000E+00 0.  1.
        -11    1    4    4    0    0  0.35518131946E-01  0.16429157369E-01  0.21312622359E-01  0.44563930500E-01  0.51100000000E-03 0.  1.
         11    1    4    4    0    0  0.48651443015E-01  0.49004221752E-01  0.48909615358E-01  0.84621440855E-01  0.51100000000E-03 0. -1.
</event>
<event>
 8    1  0.1094134E+005  0.1043930E+01  0.7957747E-01            NaN
         13   -1    0    0    0    0  0.00000000000E+00  0.00000000000E+00  0.74505805969E-08  0.10566000000E+00  0.10566000000E+00 0. -1.
     999900   -1    0    0    0    0 -0.00000000000E+00 -0.00000000000E+00 -0.74505805969E-08  0.93827000000E+00  0.93827000000E+00 0. -1.
     999902    2    1    2    0    0  0.49351929023E-02  0.16999526912E-01 -0.15868215321E-01  0.10201573203E+01  0.10198802958E+01 0.  0.
     999903    2    3    3    0    0  0.13556859933E-01 -0.19846747373E-01  0.12437038680E+00  0.12824989985E+00  0.20058959747E-01 0.  0.
         14    1    1    2    0    0 -0.49351929023E-02 -0.16999526912E-01  0.15868215321E-01  0.23772679733E-01  0.00000000000E+00 0. -1.
     999901    1    3    3    0    0 -0.86216670310E-02  0.36846274285E-01 -0.14023860212E+00  0.89190742042E+00  0.88000000000E+00 0. -1.
        -11    1    4    4    0    0  0.42445893479E-02 -0.21068004717E-01  0.76442431585E-01  0.79407706359E-01  0.51100000000E-03 0.  1.
         11    1    4    4    0    0  0.93122705854E-02  0.12212573434E-02  0.47927955214E-01  0.48842193490E-01  0.51100000000E-03 0. -1.
</event>
<event>
 8    1  0.1094134E+005  0.1043930E+01  0.7957747E-01            NaN
         13   -1    0    0    0    0  0.00000000000E+00  0.00000000000E+00  0.74505805969E-08  0.10566000000E+00  0.10566000000E+00 0.  1.
     999900   -1    0    0    0    0 -0.00000000000E+00 -0.00000000000E+00 -0.74505805969E-08  0.93827000000E+00  0.93827000000E+00 0.  1.
     999902    2    1    2    0    0 -0.11433083823E-01 -0.17220590663E-01 -0.12569737177E-01  0.10197378021E+01  0.10194507945E+01 0.  0.
     999903    2    3    3    0    0  0.17662193410E-01 -0.19023948243E-01 -0.12754437524E+00  0.13178005833E+00  0.20604670225E-01 0.  0.
         14    1    1    2    0    0  0.11433083823E-01  0.17220590663E-01  0.12569737177E-01  0.24192197941E-01  0.00000000000E+00 0.  1.
     999901    1    3    3    0    0 -0.29095277233E-01  0.18033575802E-02  0.11497463806E+00  0.88795774373E+00  0.88000000000E+00 0. -1.
        -11    1    4    4    0    0  0.19436888881E-01 -0.17359783985E-01 -0.79347434842E-01  0.83519047447E-01  0.51100000000E-03 0. -1.
         11    1    4    4    0    0 -0.17746954712E-02 -0.16641642586E-02 -0.48196940396E-01  0.48261010881E-01  0.51100000000E-03 0.  1.
</event>
<event>
 8    1  0.1094134E+005  0.1043930E+01  0.7957747E-01            NaN
         13   -1    0    0    0    0  0.00000000000E+00  0.00000000000E+00  0.74505805969E-08  0.10566000000E+00  0.10566000000E+00 0.  1.
     999900   -1    0    0    0    0 -0.00000000000E+00 -0.00000000000E+00 -0.74505805969E-08  0.93827000000E+00  0.93827000000E+00 0. -1.
     999902    2    1    2    0    0 -0.19236818904E-01  0.10202140057E-01  0.91045342610E-02  0.10203284872E+01  0.10200554840E+01 0.  0.
     999903    2    3    3    0    0  0.39108357161E-01  0.48651407445E-01 -0.11167927480E+00  0.12933396741E+00  0.18936516553E-01 0.  0.
         14    1    1    2    0    0  0.19236818904E-01 -0.10202140057E-01 -0.91045342610E-02  0.23601512820E-01  0.00000000000E+00 0. -1.
     999901    1    3    3    0    0 -0.58345176065E-01 -0.38449267388E-01  0.12078380906E+00  0.89099451977E+00  0.88000000000E+00 0.  1.
        -11    1    4    4    0    0  0.73902344771E-02  0.77410282417E-02 -0.36607976175E-01  0.38143729819E-01  0.51100000000E-03 0. -1.
         11    1    4    4    0    0  0.31718122684E-01  0.40910379203E-01 -0.75071298626E-01  0.91190237589E-01  0.51100000000E-03 0.  1.
</event>
<event>
 8    1  0.1094134E+005  0.1043930E+01  0.7957747E-01            NaN
         13   -1    0    0    0    0  0.00000000000E+00  0.00000000000E+00  0.74505805969E-08  0.10566000000E+00  0.10566000000E+00 0. -1.
     999900   -1    0    0    0    0 -0.00000000000E+00 -0.00000000000E+00 -0.74505805969E-08  0.93827000000E+00  0.93827000000E+00 0. -1.
     999902    2    1    2    0    0 -0.17748902284E-01  0.25727456099E-02 -0.12433883669E-01  0.10221069843E+01  0.10218739860E+01 0.  0.
     999903    2    3    3    0    0 -0.11624032859E+00 -0.42026745475E-01 -0.49698998161E-01  0.13470720716E+00  0.19949434005E-01 0.  0.
         14    1    1    2    0    0  0.17748902284E-01 -0.25727456099E-02  0.12433883669E-01  0.21823015725E-01  0.00000000000E+00 0. -1.
     999901    1    3    3    0    0  0.98491426307E-01  0.44599491085E-01  0.37265114492E-01  0.88739977711E+00  0.88000000000E+00 0.  1.
        -11    1    4    4    0    0 -0.88902205142E-01 -0.38038918331E-01 -0.31842550129E-01  0.10180751695E+00  0.51100000000E-03 0.  1.
         11    1    4    4    0    0 -0.27338123449E-01 -0.39878271447E-02 -0.17856448033E-01  0.32899690217E-01  0.51100000000E-03 0. -1.
</event>
<event>
 8    1  0.1094134E+005  0.1043930E+01  0.7957747E-01            NaN
         13   -1    0    0    0    0  0.00000000000E+00  0.00000000000E+00  0.74505805969E-08  0.10566000000E+00  0.10566000000E+00 0.  1.
     999900   -1    0    0    0    0 -0.00000000000E+00 -0.00000000000E+00 -0.74505805969E-08  0.93827000000E+00  0.93827000000E+00 0. -1.
     999902    2    1    2    0    0  0.34641998388E-02 -0.21089708003E-01  0.92023274320E-02  0.10206607221E+01  0.10203954382E+01 0.  0.
     999903    2    3    3    0    0 -0.93903548021E-02  0.12313990991E+00 -0.25986723125E-01  0.12813302418E+00  0.22161812467E-01 0.  0.
         14    1    1    2    0    0 -0.34641998388E-02  0.21089708003E-01 -0.92023274320E-02  0.23269277908E-01  0.00000000000E+00 0. -1.
     999901    1    3    3    0    0  0.12854554641E-01 -0.14422961791E+00  0.35189050557E-01  0.89252769791E+00  0.88000000000E+00 0.  1.
        -11    1    4    4    0    0  0.60321680602E-02  0.47320666732E-01 -0.50248192591E-02  0.47970224942E-01  0.51100000000E-03 0.  1.
         11    1    4    4    0    0 -0.15422522862E-01  0.75819243176E-01 -0.20961903866E-01  0.80162799240E-01  0.51100000000E-03 0. -1.
</event>
<event>
 8    1  0.1094134E+005  0.1043930E+01  0.7957747E-01            NaN
         13   -1    0    0    0    0  0.00000000000E+00  0.00000000000E+00  0.74505805969E-08  0.10566000000E+00  0.10566000000E+00 0. -1.
     999900   -1    0    0    0    0 -0.00000000000E+00 -0.00000000000E+00 -0.74505805969E-08  0.93827000000E+00  0.93827000000E+00 0. -1.
     999902    2    1    2    0    0 -0.22623897417E-01  0.52844249074E-02  0.36288418091E-02  0.10204154434E+01  0.10201444715E+01 0.  0.
     999903    2    3    3    0    0 -0.12270010406E+00  0.48260910158E-01  0.90413347974E-02  0.13368463838E+00  0.20134691942E-01 0.  0.
         14    1    1    2    0    0  0.22623897417E-01 -0.52844249074E-02 -0.36288418091E-02  0.23514556636E-01  0.00000000000E+00 0. -1.
     999901    1    3    3    0    0  0.10007620664E+00 -0.42976485250E-01 -0.54124929882E-02  0.88673080498E+00  0.88000000000E+00 0. -1.
        -11    1    4    4    0    0 -0.45965498632E-01  0.98880251846E-02  0.90811717120E-02  0.47888713777E-01  0.51100000000E-03 0.  1.
         11    1    4    4    0    0 -0.76734605427E-01  0.38372884973E-01 -0.39836914651E-04  0.85795924607E-01  0.51100000000E-03 0. -1.
</event>
<event>
 8    1  0.1094134E+005  0.1043930E+01  0.7957747E-01            NaN
         13   -1    0    0    0    0  0.00000000000E+00  0.00000000000E+00  0.74505805969E-08  0.10566000000E+00  0.10566000000E+00 0.  1.
     999900   -1    0    0    0    0 -0.00000000000E+00 -0.00000000000E+00 -0.74505805969E-08  0.93827000000E+00  0.93827000000E+00 0. -1.
     999902    2    1    2    0    0 -0.10517300282E-01 -0.13643397449E-01  0.15812726865E-01  0.10205462828E+01  0.10202783528E+01 0.  0.
     999903    2    3    3    0    0 -0.71342183186E-01 -0.43731447522E-01  0.10230087092E+00  0.13370629938E+00  0.20242522035E-01 0.  0.
         14    1    1    2    0    0  0.10517300282E-01  0.13643397449E-01 -0.15812726865E-01  0.23383717200E-01  0.00000000000E+00 0. -1.
     999901    1    3    3    0    0  0.60824882904E-01  0.30088050074E-01 -0.86488144052E-01  0.88683998342E+00  0.88000000000E+00 0. -1.
        -11    1    4    4    0    0 -0.69711748465E-01 -0.39745820731E-01  0.10133893746E+00  0.12926445570E+00  0.51100000000E-03 0. -1.
         11    1    4    4    0    0 -0.16304347212E-02 -0.39856267910E-02  0.96193345425E-03  0.44418436789E-02  0.51100000000E-03 0.  1.
</event>
<event>
 8    1  0.1094134E+005  0.1043930E+01  0.7957747E-01            NaN
         13   -1    0    0    0    0  0.00000000000E+00  0.00000000000E+00  0.74505805969E-08  0.10566000000E+00  0.10566000000E+00 0. -1.
     999900   -1    0    0    0    0 -0.00000000000E+00 -0.00000000000E+00 -0.74505805969E-08  0.93827000000E+00  0.93827000000E+00 0.  1.
     999902    2    1    2    0    0  0.23602472236E-01 -0.34274034714E-02  0.42966032042E-02  0.10196960447E+01  0.10194080336E+01 0.  0.
     999903    2    3    3    0    0 -0.11258044160E+00 -0.16784844438E-01 -0.53219606342E-01  0.12726547507E+00  0.20201183439E-01 0.  0.
         14    1    1    2    0    0 -0.23602472236E-01  0.34274034714E-02 -0.42966032042E-02  0.24233955296E-01  0.00000000000E+00 0. -1.
     999901    1    3    3    0    0  0.13618291384E+00  0.13357440967E-01  0.57516209546E-01  0.89243056963E+00  0.88000000000E+00 0. -1.
        -11    1    4    4    0    0 -0.54589481882E-01 -0.18303452164E-01 -0.25597319401E-01  0.63011997071E-01  0.51100000000E-03 0. -1.
         11    1    4    4    0    0 -0.57990959719E-01  0.15186077253E-02 -0.27622286941E-01  0.64253478003E-01  0.51100000000E-03 0.  1.
</event>
<event>
 8    1  0.1094134E+005  0.1043930E+01  0.7957747E-01            NaN
         13   -1    0    0    0    0  0.00000000000E+00  0.00000000000E+00  0.74505805969E-08  0.10566000000E+00  0.10566000000E+00 0. -1.
     999900   -1    0    0    0    0 -0.00000000000E+00 -0.00000000000E+00 -0.74505805969E-08  0.93827000000E+00  0.93827000000E+00 0. -1.
     999902    2    1    2    0    0  0.38794031687E-02  0.15701800025E-03 -0.11233981408E-01  0.10320440098E+01  0.10319755625E+01 0.  0.
     999903    2    3    3    0    0  0.52147359918E-01  0.12273145513E+00 -0.43336500741E-01  0.14165934015E+00  0.20173228045E-01 0.  0.
         14    1    1    2    0    0 -0.38794031687E-02 -0.15701800025E-03  0.11233981408E-01  0.11885990151E-01  0.00000000000E+00 0. -1.
     999901    1    3    3    0    0 -0.48267956749E-01 -0.12257443713E+00  0.32102519333E-01  0.89038466970E+00  0.88000000000E+00 0. -1.
        -11    1    4    4    0    0  0.46276104671E-01  0.89881832873E-01 -0.27818707503E-01  0.10485400971E+00  0.51100000000E-03 0.  1.
         11    1    4    4    0    0  0.58712552463E-02  0.32849622261E-01 -0.15517793238E-01  0.36805330440E-01  0.51100000000E-03 0. -1.
</event>
<event>
 8    1  0.1094134E+005  0.1043930E+01  0.7957747E-01            NaN
         13   -1    0    0    0    0  0.00000000000E+00  0.00000000000E+00  0.74505805969E-08  0.10566000000E+00  0.10566000000E+00 0. -1.
     999900   -1    0    0    0    0 -0.00000000000E+00 -0.00000000000E+00 -0.74505805969E-08  0.93827000000E+00  0.93827000000E+00 0.  1.
     999902    2    1    2    0    0 -0.65741783750E-02 -0.78521265070E-02 -0.22104103441E-01  0.10195688198E+01  0.10192777400E+01 0.  0.
     999903    2    3    3    0    0  0.57254975942E-01  0.10749981817E+00 -0.39579337861E-01  0.12957690079E+00  0.19730840201E-01 0.  0.
         14    1    1    2    0    0  0.65741783750E-02  0.78521265070E-02  0.22104103441E-01  0.24361180204E-01  0.00000000000E+00 0. -1.
     999901    1    3    3    0    0 -0.63829154317E-01 -0.11535194468E+00  0.17475234420E-01  0.88999191901E+00  0.88000000000E+00 0. -1.
        -11    1    4    4    0    0  0.25666657505E-01  0.46872031100E-01 -0.71768444467E-02  0.53921543228E-01  0.51100000000E-03 0.  1.
         11    1    4    4    0    0  0.31588318437E-01  0.60627787073E-01 -0.32402493414E-01  0.75655357560E-01  0.51100000000E-03 0. -1.
</event>
<event>
 8    1  0.1094134E+005  0.1043930E+01  0.7957747E-01            NaN
         13   -1    0    0    0    0  0.00000000000E+00  0.00000000000E+00  0.74505805969E-08  0.10566000000E+00  0.10566000000E+00 0.  1.
     999900   -1    0    0    0    0 -0.00000000000E+00 -0.00000000000E+00 -0.74505805969E-08  0.93827000000E+00  0.93827000000E+00 0. -1.
     999902    2    1    2    0    0 -0.22506256740E-01  0.79485393499E-02  0.12977679626E-01  0.10167614329E+01  0.10163983866E+01 0.  0.
     999903    2    3    3    0    0 -0.35071579820E-01 -0.97154196744E-01 -0.70238130412E-01  0.12652026134E+00  0.20125305229E-01 0.  0.
         14    1    1    2    0    0  0.22506256740E-01 -0.79485393499E-02 -0.12977679626E-01  0.27168567109E-01  0.00000000000E+00 0.  1.
     999901    1    3    3    0    0  0.12565323079E-01  0.10510273609E+00  0.83215810039E-01  0.89024117155E+00  0.88000000000E+00 0.  1.
        -11    1    4    4    0    0 -0.66988985144E-02 -0.22083670026E-01 -0.26416536833E-01  0.35080739194E-01  0.51100000000E-03 0.  1.
         11    1    4    4    0    0 -0.28372681305E-01 -0.75070526718E-01 -0.43821593579E-01  0.91439522150E-01  0.51100000000E-03 0. -1.
</event>
<event>
 8    1  0.1094134E+005  0.1043930E+01  0.7957747E-01            NaN
         13   -1    0    0    0    0  0.00000000000E+00  0.00000000000E+00  0.74505805969E-08  0.10566000000E+00  0.10566000000E+00 0.  1.
     999900   -1    0    0    0    0 -0.00000000000E+00 -0.00000000000E+00 -0.74505805969E-08  0.93827000000E+00  0.93827000000E+00 0. -1.
     999902    2    1    2    0    0  0.17641350044E-01  0.21217888386E-02 -0.15542824437E-01  0.10203228271E+01  0.10200496914E+01 0.  0.
     999903    2    3    3    0    0 -0.11222676559E+00 -0.50655835937E-01 -0.32970747258E-01  0.12905690855E+00  0.20192940381E-01 0.  0.
         14    1    1    2    0    0 -0.17641350044E-01 -0.21217888386E-02  0.15542824437E-01  0.23607172866E-01  0.00000000000E+00 0.  1.
     999901    1    3    3    0    0  0.12986811563E+00  0.52777624776E-01  0.17427922821E-01  0.89126591858E+00  0.88000000000E+00 0. -1.
        -11    1    4    4    0    0 -0.24790568387E-01 -0.30625263155E-02 -0.34538490054E-02  0.25221846529E-01  0.51100000000E-03 0.  1.
         11    1    4    4    0    0 -0.87436197200E-01 -0.47593309622E-01 -0.29516898253E-01  0.10383506202E+00  0.51100000000E-03 0. -1.
</event>
<event>
 8    1  0.1094134E+005  0.1043930E+01  0.7957747E-01            NaN
         13   -1    0    0    0    0  0.00000000000E+00  0.00000000000E+00  0.74505805969E-08  0.10566000000E+00  0.10566000000E+00 0. -1.
     999900   -1    0    0    0    0 -0.00000000000E+00 -0.00000000000E+00 -0.74505805969E-08  0.93827000000E+00  0.93827000000E+00 0.  1.
     999902    2    1    2    0    0  0.23191640314E-01 -0.28550401687E-02 -0.18713454390E-02  0.10204884692E+01  0.10202191972E+01 0.  0.
     999903    2    3    3    0    0 -0.10101535857E+00  0.27228219942E-01 -0.71932155058E-01  0.12850141871E+00  0.19821731771E-01 0.  0.
         14    1    1    2    0    0 -0.23191640314E-01  0.28550401687E-02  0.18713454390E-02  0.23441530849E-01  0.00000000000E+00 0. -1.
     999901    1    3    3    0    0  0.12420699889E+00 -0.30083260111E-01  0.70060809619E-01  0.89198705044E+00  0.88000000000E+00 0. -1.
        -11    1    4    4    0    0 -0.42478331408E-01  0.17878769688E-01 -0.40740104989E-01  0.61514846340E-01  0.51100000000E-03 0.  1.
         11    1    4    4    0    0 -0.58537027164E-01  0.93494502547E-02 -0.31192050069E-01  0.66986572369E-01  0.51100000000E-03 0. -1.
</event>
<event>
 8    1  0.1094134E+005  0.1043930E+01  0.7957747E-01            NaN
         13   -1    0    0    0    0  0.00000000000E+00  0.00000000000E+00  0.74505805969E-08  0.10566000000E+00  0.10566000000E+00 0.  1.
     999900   -1    0    0    0    0 -0.00000000000E+00 -0.00000000000E+00 -0.74505805969E-08  0.93827000000E+00  0.93827000000E+00 0.  1.
     999902    2    1    2    0    0 -0.21367575224E-01 -0.13688394151E-02 -0.10537602373E-01  0.10200660511E+01  0.10197868702E+01 0.  0.
     999903    2    3    3    0    0  0.95259756622E-01 -0.16554185908E-01  0.80805156611E-01  0.12755497057E+00  0.19807445076E-01 0.  0.
         14    1    1    2    0    0  0.21367575224E-01  0.13688394151E-02  0.10537602373E-01  0.23863948879E-01  0.00000000000E+00 0. -1.
     999901    1    3    3    0    0 -0.11662733185E+00  0.15185346493E-01 -0.91342758984E-01  0.89251108055E+00  0.88000000000E+00 0.  1.
        -11    1    4    4    0    0  0.28471227573E-01  0.11772662981E-02  0.32584917283E-01  0.43290122555E-01  0.51100000000E-03 0. -1.
         11    1    4    4    0    0  0.66788529049E-01 -0.17731452207E-01  0.48220239328E-01  0.84264848019E-01  0.51100000000E-03 0.  1.
</event>
<event>
 8    1  0.1094134E+005  0.1043930E+01  0.7957747E-01            NaN
         13   -1    0    0    0    0  0.00000000000E+00  0.00000000000E+00  0.74505805969E-08  0.10566000000E+00  0.10566000000E+00 0.  1.
     999900   -1    0    0    0    0 -0.00000000000E+00 -0.00000000000E+00 -0.74505805969E-08  0.93827000000E+00  0.93827000000E+00 0. -1.
     999902    2    1    2    0    0  0.10878006156E-01 -0.18088532350E-01 -0.10839414348E-01  0.10202019802E+01  0.10199260078E+01 0.  0.
     999903    2    3    3    0    0  0.88419961437E-01  0.15954651663E-01 -0.94921660813E-01  0.13214707346E+00  0.19495816015E-01 0.  0.
         14    1    1    2    0    0 -0.10878006156E-01  0.18088532350E-01  0.10839414348E-01  0.23728019806E-01  0.00000000000E+00 0.  1.
     999901    1    3    3    0    0 -0.77541955281E-01 -0.34043184013E-01  0.84082246465E-01  0.88805490674E+00  0.88000000000E+00 0.  1.
        -11    1    4    4    0    0  0.67094493822E-01  0.74721066368E-02 -0.80391245877E-01  0.10497865027E+00  0.51100000000E-03 0. -1.
         11    1    4    4    0    0  0.21325467615E-01  0.84825450261E-02 -0.14530414936E-01  0.27168423184E-01  0.51100000000E-03 0.  1.
</event>
<event>
 8    1  0.1094134E+005  0.1043930E+01  0.7957747E-01            NaN
         13   -1    0    0    0    0  0.00000000000E+00  0.00000000000E+00  0.74505805969E-08  0.10566000000E+00  0.10566000000E+00 0.  1.
     999900   -1    0    0    0    0 -0.00000000000E+00 -0.00000000000E+00 -0.74505805969E-08  0.93827000000E+00  0.93827000000E+00 0.  1.
     999902    2    1    2    0    0  0.10101875449E-01 -0.14180791082E-01 -0.22024354528E-01  0.10158548345E+01  0.10154668040E+01 0.  0.
     999903    2    3    3    0    0  0.55758465046E-03 -0.20504765905E-01 -0.12693301829E+00  0.12954963097E+00  0.15822750296E-01 0.  0.
         14    1    1    2    0    0 -0.10101875449E-01  0.14180791082E-01  0.22024354528E-01  0.28075165461E-01  0.00000000000E+00 0.  1.
     999901    1    3    3    0    0  0.95442907981E-02  0.63239748232E-02  0.10490866376E+00  0.88630520357E+00  0.88000000000E+00 0. -1.
        -11    1    4    4    0    0 -0.57306751610E-02 -0.50698931217E-02 -0.21957514218E-01  0.23258073989E-01  0.51100000000E-03 0.  1.
         11    1    4    4    0    0  0.62882598114E-02 -0.15434872783E-01 -0.10497550407E+00  0.10629155698E+00  0.51100000000E-03 0. -1.
</event>
<event>
 8    1  0.1094134E+005  0.1043930E+01  0.7957747E-01            NaN
         13   -1    0    0    0    0  0.00000000000E+00  0.00000000000E+00  0.74505805969E-08  0.10566000000E+00  0.10566000000E+00 0. -1.
     999900   -1    0    0    0    0 -0.00000000000E+00 -0.00000000000E+00 -0.74505805969E-08  0.93827000000E+00  0.93827000000E+00 0. -1.
     999902    2    1    2    0    0  0.41800684994E-02  0.19261714567E-01 -0.82333645807E-02  0.10225694075E+01  0.10223462810E+01 0.  0.
     999903    2    3    3    0    0 -0.77711219727E-01  0.40303223459E-01  0.97146948968E-01  0.13225826036E+00  0.19782169956E-01 0.  0.
         14    1    1    2    0    0 -0.41800684994E-02 -0.19261714567E-01  0.82333645807E-02  0.21360592526E-01  0.00000000000E+00 0. -1.
     999901    1    3    3    0    0  0.81891288227E-01 -0.21041508891E-01 -0.10538031355E+00  0.89031114711E+00  0.88000000000E+00 0. -1.
        -11    1    4    4    0    0 -0.45820295106E-01  0.30133718262E-01  0.71363807672E-01  0.90003303197E-01  0.51100000000E-03 0.  1.
         11    1    4    4    0    0 -0.31890924621E-01  0.10169505196E-01  0.25783141296E-01  0.42254957167E-01  0.51100000000E-03 0. -1.
</event>
<event>
 8    1  0.1094134E+005  0.1043930E+01  0.7957747E-01            NaN
         13   -1    0    0    0    0  0.00000000000E+00  0.00000000000E+00  0.74505805969E-08  0.10566000000E+00  0.10566000000E+00 0. -1.
     999900   -1    0    0    0    0 -0.00000000000E+00 -0.00000000000E+00 -0.74505805969E-08  0.93827000000E+00  0.93827000000E+00 0.  1.
     999902    2    1    2    0    0 -0.22894898199E-02  0.10289674102E-01  0.20919630994E-01  0.10205045839E+01  0.10202356864E+01 0.  0.
     999903    2    3    3    0    0 -0.79680651337E-03 -0.99136059767E-01 -0.78885030056E-01  0.12812731523E+00  0.19109361449E-01 0.  0.
         14    1    1    2    0    0  0.22894898199E-02 -0.10289674102E-01 -0.20919630994E-01  0.23425416062E-01  0.00000000000E+00 0.  1.
     999901    1    3    3    0    0 -0.14926833066E-02  0.10942573387E+00  0.99804661050E-01  0.89237726871E+00  0.88000000000E+00 0.  1.
        -11    1    4    4    0    0 -0.58187869337E-02 -0.92726573315E-02 -0.85571725194E-02  0.13904200009E-01  0.51100000000E-03 0. -1.
         11    1    4    4    0    0  0.50219804204E-02 -0.89863402435E-01 -0.70327857536E-01  0.11422311522E+00  0.51100000000E-03 0.  1.
</event>
<event>
 8    1  0.1094134E+005  0.1043930E+01  0.7957747E-01            NaN
         13   -1    0    0    0    0  0.00000000000E+00  0.00000000000E+00  0.74505805969E-08  0.10566000000E+00  0.10566000000E+00 0.  1.
     999900   -1    0    0    0    0 -0.00000000000E+00 -0.00000000000E+00 -0.74505805969E-08  0.93827000000E+00  0.93827000000E+00 0. -1.
     999902    2    1    2    0    0  0.53897251445E-02 -0.95757581983E-02  0.20515626253E-01  0.10206569426E+01  0.10203915715E+01 0.  0.
     999903    2    3    3    0    0  0.47581725753E-01 -0.86745513734E-01  0.87624552387E-01  0.13373025785E+00  0.20418494163E-01 0.  0.
         14    1    1    2    0    0 -0.53897251445E-02  0.95757581983E-02 -0.20515626253E-01  0.23273057443E-01  0.00000000000E+00 0. -1.
     999901    1    3    3    0    0 -0.42192000608E-01  0.77169755536E-01 -0.67108926135E-01  0.88692668471E+00  0.88000000000E+00 0. -1.
        -11    1    4    4    0    0 -0.43665338643E-03 -0.16455485884E-02 -0.79754215996E-03  0.19482532776E-02  0.51100000000E-03 0.  1.
         11    1    4    4    0    0  0.48018379139E-01 -0.85099965146E-01  0.88422094547E-01  0.13178200457E+00  0.51100000000E-03 0. -1.
</event>
<event>
 8    1  0.1094134E+005  0.1043930E+01  0.7957747E-01            NaN
         13   -1    0    0    0    0  0.00000000000E+00  0.00000000000E+00  0.74505805969E-08  0.10566000000E+00  0.10566000000E+00 0. -1.
     999900   -1    0    0    0    0 -0.00000000000E+00 -0.00000000000E+00 -0.74505805969E-08  0.93827000000E+00  0.93827000000E+00 0. -1.
     999902    2    1    2    0    0  0.55331816158E-02 -0.17635990400E-01 -0.14601924490E-01  0.10203745239E+01  0.10201025971E+01 0.  0.
     999903    2    3    3    0    0 -0.49273894879E-02 -0.30714644295E-01  0.12422572439E+00  0.12933378922E+00  0.18097787001E-01 0.  0.
         14    1    1    2    0    0 -0.55331816158E-02  0.17635990400E-01  0.14601924490E-01  0.23555476115E-01  0.00000000000E+00 0. -1.
     999901    1    3    3    0    0  0.10460571104E-01  0.13078653894E-01 -0.13882764888E+00  0.89104073466E+00  0.88000000000E+00 0. -1.
        -11    1    4    4    0    0 -0.97282395933E-03 -0.54933546499E-02  0.53494492872E-02  0.77460351433E-02  0.51100000000E-03 0.  1.
         11    1    4    4    0    0 -0.39545655286E-02 -0.25221289645E-01  0.11887627510E+00  0.12158775408E+00  0.51100000000E-03 0. -1.
</event>
<event>
 8    1  0.1094134E+005  0.1043930E+01  0.7957747E-01            NaN
         13   -1    0    0    0    0  0.00000000000E+00  0.00000000000E+00  0.74505805969E-08  0.10566000000E+00  0.10566000000E+00 0.  1.
     999900   -1    0    0    0    0 -0.00000000000E+00 -0.00000000000E+00 -0.74505805969E-08  0.93827000000E+00  0.93827000000E+00 0.  1.
     999902    2    1    2    0    0 -0.36762717615E-02 -0.16823872374E-01 -0.11231607892E-01  0.10233701685E+01  0.10231636209E+01 0.  0.
     999903    2    3    3    0    0  0.64243290327E-01 -0.11416274972E+00 -0.26882559671E-01  0.13526382562E+00  0.20329700729E-01 0.  0.
         14    1    1    2    0    0  0.36762717615E-02  0.16823872374E-01  0.11231607892E-01  0.20559831506E-01  0.00000000000E+00 0. -1.
     999901    1    3    3    0    0 -0.67919562088E-01  0.97338877347E-01  0.15650951779E-01  0.88810634287E+00  0.88000000000E+00 0. -1.
        -11    1    4    4    0    0  0.44634803508E-01 -0.75833650342E-01 -0.83599272285E-02  0.88392068154E-01  0.51100000000E-03 0.  1.
         11    1    4    4    0    0  0.19608486819E-01 -0.38329099379E-01 -0.18522632443E-01  0.46871757468E-01  0.51100000000E-03 0. -1.
</event>
<event>
 8    1  0.1094134E+005  0.1043930E+01  0.7957747E-01            NaN
         13   -1    0    0    0    0  0.00000000000E+00  0.00000000000E+00  0.74505805969E-08  0.10566000000E+00  0.10566000000E+00 0.  1.
     999900   -1    0    0    0    0 -0.00000000000E+00 -0.00000000000E+00 -0.74505805969E-08  0.93827000000E+00  0.93827000000E+00 0.  1.
     999902    2    1    2    0    0 -0.13847604935E-01 -0.78135270252E-02 -0.16140911501E-01  0.10212730719E+01  0.10210217192E+01 0.  0.
     999903    2    3    3    0    0  0.10767930186E+00  0.59341193401E-01 -0.37432910863E-01  0.13013228909E+00  0.20420101972E-01 0.  0.
         14    1    1    2    0    0  0.13847604935E-01  0.78135270252E-02  0.16140911501E-01  0.22656928104E-01  0.00000000000E+00 0.  1.
     999901    1    3    3    0    0 -0.12152690679E+00 -0.67154720426E-01  0.21291999362E-01  0.89114078281E+00  0.88000000000E+00 0.  1.
        -11    1    4    4    0    0  0.60320430389E-01  0.39592863433E-01 -0.30559624628E-01  0.78360072329E-01  0.51100000000E-03 0. -1.
         11    1    4    4    0    0  0.47358871468E-01  0.19748329968E-01 -0.68732862358E-02  0.51772216757E-01  0.51100000000E-03 0.  1.
</event>
<event>
 8    1  0.1094134E+005  0.1043930E+01  0.7957747E-01            NaN
         13   -1    0    0    0    0  0.00000000000E+00  0.00000000000E+00  0.74505805969E-08  0.10566000000E+00  0.10566000000E+00 0.  1.
     999900   -1    0    0    0    0 -0.00000000000E+00 -0.00000000000E+00 -0.74505805969E-08  0.93827000000E+00  0.93827000000E+00 0.  1.
     999902    2    1    2    0    0 -0.23367248776E-02  0.20720800995E-01  0.96267073422E-02  0.10209629503E+01  0.10207045902E+01 0.  0.
     999903    2    3    3    0    0 -0.58838474919E-01  0.11667980253E+00 -0.17466617049E-01  0.13353147354E+00  0.21199746836E-01 0.  0.
         14    1    1    2    0    0  0.23367248776E-02 -0.20720800995E-01 -0.96267073422E-02  0.22967049686E-01  0.00000000000E+00 0. -1.
     999901    1    3    3    0    0  0.56501750042E-01 -0.95959001537E-01  0.27093324392E-01  0.88743147677E+00  0.88000000000E+00 0.  1.
        -11    1    4    4    0    0  0.30290595991E-03  0.11737109759E-01 -0.35054877918E-02  0.12263811119E-01  0.51100000000E-03 0.  1.
         11    1    4    4    0    0 -0.59141380879E-01  0.10494269277E+00 -0.13961129258E-01  0.12126766243E+00  0.51100000000E-03 0. -1.
</event>
<event>
 8    1  0.1094134E+005  0.1043930E+01  0.7957747E-01            NaN
         13   -1    0    0    0    0  0.00000000000E+00  0.00000000000E+00  0.74505805969E-08  0.10566000000E+00  0.10566000000E+00 0. -1.
     999900   -1    0    0    0    0 -0.00000000000E+00 -0.00000000000E+00 -0.74505805969E-08  0.93827000000E+00  0.93827000000E+00 0. -1.
     999902    2    1    2    0    0 -0.16108101910E-01  0.16084900769E-01  0.43238443177E-02  0.10207590999E+01  0.10204960801E+01 0.  0.
     999903    2    3    3    0    0  0.28894321090E-01 -0.67762711011E-01  0.10506984483E+00  0.12991377291E+00  0.20279282607E-01 0.  0.
         14    1    1    2    0    0  0.16108101910E-01 -0.16084900769E-01 -0.43238443177E-02  0.23170900060E-01  0.00000000000E+00 0. -1.
     999901    1    3    3    0    0 -0.45002423000E-01  0.83847611780E-01 -0.10074600051E+00  0.89084532703E+00  0.88000000000E+00 0. -1.
        -11    1    4    4    0    0  0.25015082118E-01 -0.52610173652E-01  0.67192058684E-01  0.88930414237E-01  0.51100000000E-03 0. -1.
         11    1    4    4    0    0  0.38792389712E-02 -0.15152537359E-01  0.37877786148E-01  0.40983358670E-01  0.51100000000E-03 0.  1.
</event>
<event>
 8    1  0.1094134E+005  0.1043930E+01  0.7957747E-01            NaN
         13   -1    0    0    0    0  0.00000000000E+00  0.00000000000E+00  0.74505805969E-08  0.10566000000E+00  0.10566000000E+00 0. -1.
     999900   -1    0    0    0    0 -0.00000000000E+00 -0.00000000000E+00 -0.74505805969E-08  0.93827000000E+00  0.93827000000E+00 0.  1.
     999902    2    1    2    0    0  0.13793711290E-01 -0.91223919229E-02  0.17176106706E-01  0.10200866960E+01  0.10198080036E+01 0.  0.
     999903    2    3    3    0    0 -0.64904323749E-01 -0.10776265521E+00  0.30569912288E-01  0.13098452170E+00  0.19926472060E-01 0.  0.
         14    1    1    2    0    0 -0.13793711290E-01  0.91223919229E-02 -0.17176106706E-01  0.23843304031E-01  0.00000000000E+00 0. -1.
     999901    1    3    3    0    0  0.78698035039E-01  0.98640263287E-01 -0.13393805582E-01  0.88910217427E+00  0.88000000000E+00 0. -1.
        -11    1    4    4    0    0 -0.42388988312E-01 -0.59886569770E-01  0.92948508454E-02  0.73958656979E-01  0.51100000000E-03 0. -1.
         11    1    4    4    0    0 -0.22515335437E-01 -0.47876085440E-01  0.21275061443E-01  0.57025864722E-01  0.51100000000E-03 0.  1.
</event>
<event>
 8    1  0.1094134E+005  0.1043930E+01  0.7957747E-01            NaN
         13   -1    0    0    0    0  0.00000000000E+00  0.00000000000E+00  0.74505805969E-08  0.10566000000E+00  0.10566000000E+00 0. -1.
     999900   -1    0    0    0    0 -0.00000000000E+00 -0.00000000000E+00 -0.74505805969E-08  0.93827000000E+00  0.93827000000E+00 0. -1.
     999902    2    1    2    0    0  0.11907387926E-01  0.20558713893E-01  0.21179318596E-02  0.10200776995E+01  0.10197987943E+01 0.  0.
     999903    2    3    3    0    0  0.40514297669E-01 -0.91808702305E-01  0.78752447616E-01  0.12916937620E+00  0.20310923361E-01 0.  0.
         14    1    1    2    0    0 -0.11907387926E-01 -0.20558713893E-01 -0.21179318596E-02  0.23852300507E-01  0.00000000000E+00 0. -1.
     999901    1    3    3    0    0 -0.28606909743E-01  0.11236741620E+00 -0.76634515756E-01  0.89090832329E+00  0.88000000000E+00 0. -1.
        -11    1    4    4    0    0  0.22632407821E-01 -0.72617863683E-01  0.56224889147E-01  0.94589001952E-01  0.51100000000E-03 0. -1.
         11    1    4    4    0    0  0.17881889848E-01 -0.19190838622E-01  0.22527558469E-01  0.34580374248E-01  0.51100000000E-03 0.  1.
</event>
<event>
 8    1  0.1094134E+005  0.1043930E+01  0.7957747E-01            NaN
         13   -1    0    0    0    0  0.00000000000E+00  0.00000000000E+00  0.74505805969E-08  0.10566000000E+00  0.10566000000E+00 0. -1.
     999900   -1    0    0    0    0 -0.00000000000E+00 -0.00000000000E+00 -0.74505805969E-08  0.93827000000E+00  0.93827000000E+00 0. -1.
     999902    2    1    2    0    0  0.16920353505E-01 -0.59121679048E-02  0.22542682343E-01  0.10151302670E+01  0.10147216537E+01 0.  0.
     999903    2    3    3    0    0 -0.12111039074E+00  0.10769648694E-01  0.15454487765E-01  0.12418637886E+00  0.19992584216E-01 0.  0.
         14    1    1    2    0    0 -0.16920353505E-01  0.59121679048E-02 -0.22542682343E-01  0.28799732973E-01  0.00000000000E+00 0.  1.
     999901    1    3    3    0    0  0.13803074425E+00 -0.16681816599E-01  0.70881945780E-02  0.89094388817E+00  0.88000000000E+00 0.  1.
        -11    1    4    4    0    0 -0.19600101484E-01 -0.27800077595E-02 -0.32868626098E-02  0.20073789083E-01  0.51100000000E-03 0.  1.
         11    1    4    4    0    0 -0.10151028926E+00  0.13549656454E-01  0.18741350375E-01  0.10411258978E+00  0.51100000000E-03 0. -1.
</event>
<event>
 8    1  0.1094134E+005  0.1043930E+01  0.7957747E-01            NaN
         13   -1    0    0    0    0  0.00000000000E+00  0.00000000000E+00  0.74505805969E-08  0.10566000000E+00  0.10566000000E+00 0.  1.
     999900   -1    0    0    0    0 -0.00000000000E+00 -0.00000000000E+00 -0.74505805969E-08  0.93827000000E+00  0.93827000000E+00 0. -1.
     999902    2    1    2    0    0  0.16281612690E-01  0.14490809758E-01 -0.84998470706E-02  0.10205350886E+01  0.10202668990E+01 0.  0.
     999903    2    3    3    0    0 -0.28374593796E-01  0.91914482918E-01 -0.88691770956E-01  0.13238006463E+00  0.20121171270E-01 0.  0.
         14    1    1    2    0    0 -0.16281612690E-01 -0.14490809758E-01  0.84998470706E-02  0.23394911400E-01  0.00000000000E+00 0. -1.
     999901    1    3    3    0    0  0.44656206486E-01 -0.77423673160E-01  0.80191923886E-01  0.88815502397E+00  0.88000000000E+00 0.  1.
        -11    1    4    4    0    0 -0.22629753953E-01  0.61207892106E-01 -0.71162418004E-01  0.96554972307E-01  0.51100000000E-03 0.  1.
         11    1    4    4    0    0 -0.57448398431E-02  0.30706590812E-01 -0.17529352952E-01  0.35825092324E-01  0.51100000000E-03 0. -1.
</event>
<event>
 8    1  0.1094134E+005  0.1043930E+01  0.7957747E-01            NaN
         13   -1    0    0    0    0  0.00000000000E+00  0.00000000000E+00  0.74505805969E-08  0.10566000000E+00  0.10566000000E+00 0. -1.
     999900   -1    0    0    0    0 -0.00000000000E+00 -0.00000000000E+00 -0.74505805969E-08  0.93827000000E+00  0.93827000000E+00 0. -1.
     999902    2    1    2    0    0  0.21778532128E-01 -0.22179792132E-02 -0.93472557768E-02  0.10201267422E+01  0.10198489962E+01 0.  0.
     999903    2    3    3    0    0 -0.40332492038E-01 -0.12151446192E+00  0.65930512068E-02  0.12976528550E+00  0.20077017362E-01 0.  0.
         14    1    1    2    0    0 -0.21778532128E-01  0.22179792132E-02  0.93472557768E-02  0.23803257844E-01  0.00000000000E+00 0.  1.
     999901    1    3    3    0    0  0.62111024166E-01  0.11929648271E+00 -0.15940306984E-01  0.89036145666E+00  0.88000000000E+00 0. -1.
        -11    1    4    4    0    0 -0.56473719396E-02 -0.62723628217E-02  0.40820943592E-02  0.93893535746E-02  0.51100000000E-03 0.  1.
         11    1    4    4    0    0 -0.34685120098E-01 -0.11524209910E+00  0.25109568476E-02  0.12037593193E+00  0.51100000000E-03 0. -1.
</event>
<event>
 8    1  0.1094134E+005  0.1043930E+01  0.7957747E-01            NaN
         13   -1    0    0    0    0  0.00000000000E+00  0.00000000000E+00  0.74505805969E-08  0.10566000000E+00  0.10566000000E+00 0. -1.
     999900   -1    0    0    0    0 -0.00000000000E+00 -0.00000000000E+00 -0.74505805969E-08  0.93827000000E+00  0.93827000000E+00 0.  1.
     999902    2    1    2    0    0  0.23180492396E-01  0.84457541417E-04  0.54101503627E-02  0.10201263850E+01  0.10198486306E+01 0.  0.
     999903    2    3    3    0    0 -0.62022514790E-01 -0.89882623671E-01  0.68811383693E-01  0.12918679976E+00  0.53426891604E-02 0.  0.
         14    1    1    2    0    0 -0.23180492396E-01 -0.84457541417E-04 -0.54101503627E-02  0.23803615014E-01  0.00000000000E+00 0.  1.
     999901    1    3    3    0    0  0.85203007186E-01  0.89967081213E-01 -0.63401233330E-01  0.89093958523E+00  0.88000000000E+00 0.  1.
        -11    1    4    4    0    0 -0.42975515391E-01 -0.59400292777E-01  0.43990316463E-01  0.85502624338E-01  0.51100000000E-03 0. -1.
         11    1    4    4    0    0 -0.19046999399E-01 -0.30482330894E-01  0.24821067230E-01  0.43684175422E-01  0.51100000000E-03 0.  1.
</event>
<event>
 8    1  0.1094134E+005  0.1043930E+01  0.7957747E-01            NaN
         13   -1    0    0    0    0  0.00000000000E+00  0.00000000000E+00  0.74505805969E-08  0.10566000000E+00  0.10566000000E+00 0. -1.
     999900   -1    0    0    0    0 -0.00000000000E+00 -0.00000000000E+00 -0.74505805969E-08  0.93827000000E+00  0.93827000000E+00 0.  1.
     999902    2    1    2    0    0  0.15921506605E-01 -0.15669046685E-01  0.84319581560E-02  0.10200529961E+01  0.10197735060E+01 0.  0.
     999903    2    3    3    0    0  0.49532031877E-01 -0.21684910475E-01  0.11919151073E+00  0.13245312200E+00  0.20336070777E-01 0.  0.
         14    1    1    2    0    0 -0.15921506605E-01  0.15669046685E-01 -0.84319581560E-02  0.23877003893E-01  0.00000000000E+00 0.  1.
     999901    1    3    3    0    0 -0.33610525272E-01  0.60158637905E-02 -0.11075955257E+00  0.88759987411E+00  0.88000000000E+00 0.  1.
        -11    1    4    4    0    0  0.34720831235E-01 -0.13705046046E-01  0.57892222054E-01  0.68884939604E-01  0.51100000000E-03 0.  1.
         11    1    4    4    0    0  0.14811200642E-01 -0.79798644295E-02  0.61299288671E-01  0.63568182398E-01  0.51100000000E-03 0. -1.
</event>
<event>
 8    1  0.1094134E+005  0.1043930E+01  0.7957747E-01            NaN
         13   -1    0    0    0    0  0.00000000000E+00  0.00000000000E+00  0.74505805969E-08  0.10566000000E+00  0.10566000000E+00 0.  1.
     999900   -1    0    0    0    0 -0.00000000000E+00 -0.00000000000E+00 -0.74505805969E-08  0.93827000000E+00  0.93827000000E+00 0.  1.
     999902    2    1    2    0    0 -0.54761642551E-02 -0.81072523259E-02  0.21400332019E-01  0.10203993790E+01  0.10201280324E+01 0.  0.
     999903    2    3    3    0    0 -0.56426008671E-01 -0.37288970896E-01 -0.10807274370E+00  0.12898996873E+00  0.19604394797E-01 0.  0.
         14    1    1    2    0    0  0.54761642551E-02  0.81072523259E-02 -0.21400332019E-01  0.23530621024E-01  0.00000000000E+00 0. -1.
     999901    1    3    3    0    0  0.50949844416E-01  0.29181718570E-01  0.12947307572E+00  0.89140941025E+00  0.88000000000E+00 0. -1.
        -11    1    4    4    0    0 -0.44601212023E-01 -0.26981050436E-01 -0.95804692323E-01  0.10906899371E+00  0.51100000000E-03 0. -1.
         11    1    4    4    0    0 -0.11824796648E-01 -0.10307920460E-01 -0.12268051381E-01  0.19920975018E-01  0.51100000000E-03 0.  1.
</event>
<event>
 8    1  0.1094134E+005  0.1043930E+01  0.7957747E-01            NaN
         13   -1    0    0    0    0  0.00000000000E+00  0.00000000000E+00  0.74505805969E-08  0.10566000000E+00  0.10566000000E+00 0.  1.
     999900   -1    0    0    0    0 -0.00000000000E+00 -0.00000000000E+00 -0.74505805969E-08  0.93827000000E+00  0.93827000000E+00 0.  1.
     999902    2    1    2    0    0  0.73489684463E-02 -0.13612905317E-01  0.18452055498E-01  0.10198510283E+01  0.10195667330E+01 0.  0.
     999903    2    3    3    0    0 -0.70927403263E-01 -0.82640312348E-01 -0.67317658551E-01  0.12954298205E+00  0.19738269578E-01 0.  0.
         14    1    1    2    0    0 -0.73489684463E-02  0.13612905317E-01 -0.18452055498E-01  0.24078971749E-01  0.00000000000E+00 0. -1.
     999901    1    3    3    0    0  0.78276371709E-01  0.69027407031E-01  0.85769714049E-01  0.89030804621E+00  0.88000000000E+00 0.  1.
        -11    1    4    4    0    0 -0.61946613705E-01 -0.60176221871E-01 -0.54995493495E-01  0.10238811481E+00  0.51100000000E-03 0. -1.
         11    1    4    4    0    0 -0.89807895585E-02 -0.22464090477E-01 -0.12322165056E-01  0.27154867238E-01  0.51100000000E-03 0.  1.
</event>
<event>
 8    1  0.1094134E+005  0.1043930E+01  0.7957747E-01            NaN
         13   -1    0    0    0    0  0.00000000000E+00  0.00000000000E+00  0.74505805969E-08  0.10566000000E+00  0.10566000000E+00 0.  1.
     999900   -1    0    0    0    0 -0.00000000000E+00 -0.00000000000E+00 -0.74505805969E-08  0.93827000000E+00  0.93827000000E+00 0.  1.
     999902    2    1    2    0    0 -0.20561032560E-01 -0.74602337797E-02 -0.67061846736E-02  0.10210524114E+01  0.10207960828E+01 0.  0.
     999903    2    3    3    0    0  0.76128806070E-01  0.74533368886E-01  0.69437314235E-01  0.12871295344E+00  0.19866192009E-01 0.  0.
         14    1    1    2    0    0  0.20561032560E-01  0.74602337797E-02  0.67061846736E-02  0.22877588615E-01  0.00000000000E+00 0. -1.
     999901    1    3    3    0    0 -0.96689838630E-01 -0.81993602665E-01 -0.76143498908E-01  0.89233945794E+00  0.88000000000E+00 0.  1.
        -11    1    4    4    0    0  0.63139609571E-01  0.53981155135E-01  0.46086562141E-01  0.94998988087E-01  0.51100000000E-03 0. -1.
         11    1    4    4    0    0  0.12989196499E-01  0.20552213751E-01  0.23350752094E-01  0.33713965357E-01  0.51100000000E-03 0.  1.
</event>
<event>
 8    1  0.1094134E+005  0.1043930E+01  0.7957747E-01            NaN
         13   -1    0    0    0    0  0.00000000000E+00  0.00000000000E+00  0.74505805969E-08  0.10566000000E+00  0.10566000000E+00 0.  1.
     999900   -1    0    0    0    0 -0.00000000000E+00 -0.00000000000E+00 -0.74505805969E-08  0.93827000000E+00  0.93827000000E+00 0. -1.
     999902    2    1    2    0    0 -0.20992064352E-01 -0.94187404547E-02 -0.89645198068E-02  0.10192370445E+01  0.10189378837E+01 0.  0.
     999903    2    3    3    0    0  0.12427875782E+00  0.14986380670E-01 -0.98730462929E-02  0.12699265691E+00  0.18969887046E-01 0.  0.
         14    1    1    2    0    0  0.20992064352E-01  0.94187404547E-02  0.89645198068E-02  0.24692955532E-01  0.00000000000E+00 0.  1.
     999901    1    3    3    0    0 -0.14527082217E+00 -0.24405121124E-01  0.90852648611E-03  0.89224438756E+00  0.88000000000E+00 0.  1.
        -11    1    4    4    0    0  0.52381467787E-02 -0.27346664220E-02 -0.24289273010E-02  0.64091646061E-02  0.51100000000E-03 0. -1.
         11    1    4    4    0    0  0.11904061104E+00  0.17721047092E-01 -0.74441189919E-02  0.12058349230E+00  0.51100000000E-03 0.  1.
</event>
<event>
 8    1  0.1094134E+005  0.1043930E+01  0.7957747E-01            NaN
         13   -1    0    0    0    0  0.00000000000E+00  0.00000000000E+00  0.74505805969E-08  0.10566000000E+00  0.10566000000E+00 0.  1.
     999900   -1    0    0    0    0 -0.00000000000E+00 -0.00000000000E+00 -0.74505805969E-08  0.93827000000E+00  0.93827000000E+00 0. -1.
     999902    2    1    2    0    0 -0.66369080661E-02 -0.14012973451E-01 -0.19337369782E-01  0.10191439990E+01  0.10188425516E+01 0.  0.
     999903    2    3    3    0    0  0.79030586843E-01  0.63665709488E-01 -0.78098695971E-01  0.12963526332E+00  0.20167770368E-01 0.  0.
         14    1    1    2    0    0  0.66369080661E-02  0.14012973451E-01  0.19337369782E-01  0.24786000962E-01  0.00000000000E+00 0. -1.
     999901    1    3    3    0    0 -0.85667494909E-01 -0.77678682939E-01  0.58761326190E-01  0.88950873572E+00  0.88000000000E+00 0.  1.
        -11    1    4    4    0    0  0.63323926346E-01  0.39668368179E-01 -0.58385801042E-01  0.94829647084E-01  0.51100000000E-03 0.  1.
         11    1    4    4    0    0  0.15706660498E-01  0.23997341309E-01 -0.19712894929E-01  0.34805616233E-01  0.51100000000E-03 0. -1.
</event>
<event>
 8    1  0.1094134E+005  0.1043930E+01  0.7957747E-01            NaN
         13   -1    0    0    0    0  0.00000000000E+00  0.00000000000E+00  0.74505805969E-08  0.10566000000E+00  0.10566000000E+00 0.  1.
     999900   -1    0    0    0    0 -0.00000000000E+00 -0.00000000000E+00 -0.74505805969E-08  0.93827000000E+00  0.93827000000E+00 0.  1.
     999902    2    1    2    0    0 -0.10106043199E-01 -0.40788776742E-02  0.18768112191E-01  0.10222272032E+01  0.10219967924E+01 0.  0.
     999903    2    3    3    0    0  0.65121770744E-01 -0.41639746853E-01  0.10742682697E+00  0.13378451482E+00  0.19571911301E-01 0.  0.
         14    1    1    2    0    0  0.10106043199E-01  0.40788776742E-02 -0.18768112191E-01  0.21702796765E-01  0.00000000000E+00 0. -1.
     999901    1    3    3    0    0 -0.75227813943E-01  0.37560869178E-01 -0.88658714775E-01  0.88844268841E+00  0.88000000000E+00 0.  1.
        -11    1    4    4    0    0  0.21502022698E-01 -0.57419659461E-02  0.40379294446E-01  0.46109171474E-01  0.51100000000E-03 0. -1.
         11    1    4    4    0    0  0.43619748045E-01 -0.35897780906E-01  0.67047532520E-01  0.87675343350E-01  0.51100000000E-03 0.  1.
</event>
<event>
 8    1  0.1094134E+005  0.1043930E+01  0.7957747E-01            NaN
         13   -1    0    0    0    0  0.00000000000E+00  0.00000000000E+00  0.74505805969E-08  0.10566000000E+00  0.10566000000E+00 0. -1.
     999900   -1    0    0    0    0 -0.00000000000E+00 -0.00000000000E+00 -0.74505805969E-08  0.93827000000E+00  0.93827000000E+00 0.  1.
     999902    2    1    2    0    0 -0.28255725037E-01  0.10086435467E-01  0.18974639610E-02  0.10138680216E+01  0.10134222430E+01 0.  0.
     999903    2    3    3    0    0  0.10036042975E+00 -0.65213164902E-01 -0.22835296321E-02  0.12132691563E+00  0.19749258517E-01 0.  0.
         14    1    1    2    0    0  0.28255725037E-01 -0.10086435467E-01 -0.18974639610E-02  0.30061978433E-01  0.00000000000E+00 0.  1.
     999901    1    3    3    0    0 -0.12861615479E+00  0.75299600369E-01  0.41809935931E-02  0.89254110594E+00  0.88000000000E+00 0. -1.
        -11    1    4    4    0    0  0.58117179944E-01 -0.26257342836E-01 -0.31716872330E-02  0.63854329363E-01  0.51100000000E-03 0.  1.
         11    1    4    4    0    0  0.42243249804E-01 -0.38955822067E-01  0.88815760085E-03  0.57472586263E-01  0.51100000000E-03 0. -1.
</event>
